Generated by trjconv : CNT in water t= 235.00000
33518
    1C        C    1   2.843   2.767   4.748
    1C        C    2   2.896   2.713   4.868
    1C        C    3   2.844   2.768   4.986
    1C        C    4   2.854   2.773   4.259
    1C        C    5   2.904   2.727   4.383
    1C        C    6   2.846   2.772   4.504
    1C        C    7   3.009   2.634   4.626
    1C        C    8   2.900   2.723   4.626
    1C        C    9   3.077   2.602   4.746
    1C        C   10   3.011   2.631   4.867
    1C        C   11   3.182   2.492   4.975
    1C        C   12   3.060   2.561   4.978
    1C        C   13   2.846   2.765   3.776
    1C        C   14   2.897   2.714   3.897
    1C        C   15   2.845   2.768   4.017
    1C        C   16   3.020   2.644   4.141
    1C        C   17   2.901   2.720   4.138
    1C        C   18   3.081   2.608   4.263
    1C        C   19   3.018   2.644   4.385
    1C        C   20   3.209   2.554   4.506
    1C        C   21   3.077   2.604   4.506
    1C        C   22   3.281   2.534   4.627
    1C        C   23   3.208   2.547   4.747
    1C        C   24   3.415   2.491   4.866
    1C        C   25   3.273   2.502   4.865
    1C        C   26   3.493   2.487   4.982
    1C        C   27   2.849   2.768   3.285
    1C        C   28   2.900   2.719   3.408
    1C        C   29   2.854   2.771   3.531
    1C        C   30   3.020   2.643   3.650
    1C        C   31   2.905   2.724   3.654
    1C        C   32   3.079   2.602   3.772
    1C        C   33   3.015   2.637   3.894
    1C        C   34   3.206   2.550   4.017
    1C        C   35   3.076   2.605   4.017
    1C        C   36   3.278   2.536   4.138
    1C        C   37   3.211   2.554   4.261
    1C        C   38   3.417   2.511   4.384
    1C        C   39   3.277   2.532   4.384
    1C        C   40   3.488   2.511   4.506
    1C        C   41   3.419   2.505   4.629
    1C        C   42   3.636   2.489   4.750
    1C        C   43   3.494   2.487   4.747
    1C        C   44   3.709   2.494   4.870
    1C        C   45   3.632   2.480   4.986
    1C        C   46   2.843   2.756   2.794
    1C        C   47   2.900   2.712   2.916
    1C        C   48   2.847   2.760   3.038
    1C        C   49   3.016   2.640   3.162
    1C        C   50   2.901   2.722   3.162
    1C        C   51   3.079   2.607   3.284
    1C        C   52   3.017   2.639   3.407
    1C        C   53   3.211   2.550   3.528
    1C        C   54   3.082   2.607   3.528
    1C        C   55   3.277   2.524   3.650
    1C        C   56   3.208   2.546   3.772
    1C        C   57   3.415   2.512   3.897
    1C        C   58   3.274   2.528   3.895
    1C        C   59   3.488   2.509   4.018
    1C        C   60   3.418   2.517   4.141
    1C        C   61   3.630   2.509   4.264
    1C        C   62   3.488   2.508   4.262
    1C        C   63   3.703   2.517   4.385
    1C        C   64   3.629   2.518   4.506
    1C        C   65   3.838   2.553   4.628
    1C        C   66   3.700   2.521   4.628
    1C        C   67   3.906   2.570   4.750
    1C        C   68   3.843   2.538   4.872
    1C        C   69   4.058   2.587   4.981
    1C        C   70   3.929   2.532   4.983
    1C        C   71   2.827   2.737   2.309
    1C        C   72   2.882   2.690   2.431
    1C        C   73   2.831   2.743   2.551
    1C        C   74   3.007   2.622   2.672
    1C        C   75   2.889   2.701   2.673
    1C        C   76   3.073   2.593   2.793
    1C        C   77   3.016   2.633   2.916
    1C        C   78   3.205   2.545   3.039
    1C        C   79   3.074   2.597   3.041
    1C        C   80   3.276   2.532   3.160
    1C        C   81   3.211   2.555   3.283
    1C        C   82   3.417   2.507   3.405
    1C        C   83   3.277   2.530   3.405
    1C        C   84   3.487   2.506   3.527
    1C        C   85   3.417   2.506   3.650
    1C        C   86   3.626   2.515   3.772
    1C        C   87   3.485   2.507   3.775
    1C        C   88   3.695   2.524   3.895
    1C        C   89   3.629   2.515   4.019
    1C        C   90   3.834   2.561   4.140
    1C        C   91   3.698   2.524   4.142
    1C        C   92   3.906   2.579   4.261
    1C        C   93   3.839   2.553   4.383
    1C        C   94   4.030   2.641   4.504
    1C        C   95   3.905   2.576   4.506
    1C        C   96   4.094   2.674   4.626
    1C        C   97   4.035   2.631   4.747
    1C        C   98   4.200   2.766   4.863
    1C        C   99   4.107   2.658   4.867
    1C        C  100   4.222   2.846   4.976
    1C        C  101   2.818   2.731   2.074
    1C        C  102   2.993   2.596   2.192
    1C        C  103   2.874   2.675   2.190
    1C        C  104   3.067   2.579   2.312
    1C        C  105   3.003   2.617   2.432
    1C        C  106   3.201   2.532   2.552
    1C        C  107   3.069   2.581   2.552
    1C        C  108   3.271   2.517   2.674
    1C        C  109   3.204   2.540   2.797
    1C        C  110   3.412   2.495   2.918
    1C        C  111   3.273   2.517   2.918
    1C        C  112   3.485   2.493   3.039
    1C        C  113   3.415   2.507   3.161
    1C        C  114   3.628   2.504   3.280
    1C        C  115   3.487   2.497   3.283
    1C        C  116   3.696   2.516   3.404
    1C        C  117   3.628   2.507   3.527
    1C        C  118   3.835   2.551   3.648
    1C        C  119   3.697   2.522   3.650
    1C        C  120   3.900   2.576   3.770
    1C        C  121   3.833   2.556   3.893
    1C        C  122   4.026   2.640   4.016
    1C        C  123   3.899   2.577   4.016
    1C        C  124   4.086   2.681   4.137
    1C        C  125   4.033   2.641   4.261
    1C        C  126   4.203   2.767   4.379
    1C        C  127   4.094   2.677   4.383
    1C        C  128   4.244   2.825   4.501
    1C        C  129   4.194   2.773   4.623
    1C        C  130   4.335   2.935   4.741
    1C        C  131   4.254   2.818   4.742
    1C        C  132   4.369   3.002   4.861
    1C        C  133   4.295   2.964   4.974
    1C        C  134   3.176   2.467   2.082
    1C        C  135   3.043   2.513   2.086
    1C        C  136   3.263   2.480   2.191
    1C        C  137   3.198   2.524   2.309
    1C        C  138   3.406   2.480   2.430
    1C        C  139   3.267   2.505   2.430
    1C        C  140   3.480   2.478   2.550
    1C        C  141   3.409   2.490   2.673
    1C        C  142   3.622   2.501   2.791
    1C        C  143   3.481   2.491   2.795
    1C        C  144   3.693   2.511   2.912
    1C        C  145   3.626   2.496   3.036
    1C        C  146   3.835   2.540   3.158
    1C        C  147   3.698   2.505   3.157
    1C        C  148   3.902   2.564   3.280
    1C        C  149   3.834   2.547   3.402
    1C        C  150   4.027   2.634   3.527
    1C        C  151   3.900   2.572   3.524
    1C        C  152   4.087   2.675   3.648
    1C        C  153   4.024   2.645   3.771
    1C        C  154   4.196   2.766   3.893
    1C        C  155   4.084   2.680   3.894
    1C        C  156   4.247   2.818   4.014
    1C        C  157   4.197   2.768   4.136
    1C        C  158   4.345   2.923   4.256
    1C        C  159   4.256   2.814   4.257
    1C        C  160   4.385   2.986   4.376
    1C        C  161   4.334   2.934   4.498
    1C        C  162   4.440   3.119   4.617
    1C        C  163   4.373   2.994   4.619
    1C        C  164   4.474   3.185   4.736
    1C        C  165   4.440   3.124   4.859
    1C        C  166   4.517   3.323   4.976
    1C        C  167   4.487   3.187   4.975
    1C        C  168   3.481   2.440   2.077
    1C        C  169   3.402   2.456   2.192
    1C        C  170   3.621   2.469   2.309
    1C        C  171   3.479   2.462   2.310
    1C        C  172   3.694   2.487   2.428
    1C        C  173   3.621   2.486   2.548
    1C        C  174   3.829   2.541   2.668
    1C        C  175   3.692   2.504   2.669
    1C        C  176   3.894   2.565   2.791
    1C        C  177   3.831   2.544   2.915
    1C        C  178   4.028   2.628   3.036
    1C        C  179   3.900   2.569   3.036
    1C        C  180   4.087   2.666   3.158
    1C        C  181   4.030   2.625   3.281
    1C        C  182   4.198   2.754   3.402
    1C        C  183   4.089   2.664   3.403
    1C        C  184   4.249   2.807   3.523
    1C        C  185   4.199   2.761   3.647
    1C        C  186   4.341   2.917   3.766
    1C        C  187   4.249   2.810   3.770
    1C        C  188   4.380   2.978   3.888
    1C        C  189   4.340   2.924   4.012
    1C        C  190   4.448   3.107   4.128
    1C        C  191   4.384   2.981   4.134
    1C        C  192   4.475   3.173   4.250
    1C        C  193   4.446   3.114   4.375
    1C        C  194   4.514   3.318   4.492
    1C        C  195   4.472   3.183   4.495
    1C        C  196   4.527   3.389   4.614
    1C        C  197   4.515   3.322   4.737
    1C        C  198   4.562   3.536   4.852
    1C        C  199   4.537   3.395   4.857
    1C        C  200   4.590   3.622   4.963
    1C        C  201   3.620   2.425   2.071
    1C        C  202   3.828   2.512   2.185
    1C        C  203   3.694   2.461   2.187
    1C        C  204   3.897   2.549   2.304
    1C        C  205   3.831   2.524   2.426
    1C        C  206   4.023   2.623   2.547
    1C        C  207   3.896   2.561   2.545
    1C        C  208   4.082   2.662   2.670
    1C        C  209   4.021   2.628   2.793
    1C        C  210   4.198   2.751   2.909
    1C        C  211   4.086   2.666   2.912
    1C        C  212   4.249   2.798   3.032
    1C        C  213   4.198   2.753   3.156
    1C        C  214   4.338   2.910   3.275
    1C        C  215   4.252   2.798   3.279
    1C        C  216   4.376   2.972   3.396
    1C        C  217   4.341   2.914   3.520
    1C        C  218   4.437   3.102   3.639
    1C        C  219   4.380   2.973   3.642
    1C        C  220   4.463   3.170   3.760
    1C        C  221   4.444   3.103   3.883
    1C        C  222   4.509   3.306   4.004
    1C        C  223   4.477   3.168   4.004
    1C        C  224   4.520   3.379   4.125
    1C        C  225   4.513   3.309   4.248
    1C        C  226   4.526   3.524   4.369
    1C        C  227   4.525   3.383   4.368
    1C        C  228   4.524   3.598   4.490
    1C        C  229   4.528   3.530   4.613
    1C        C  230   4.499   3.742   4.728
    1C        C  231   4.542   3.607   4.731
    1C        C  232   4.494   3.817   4.848
    1C        C  233   4.547   3.755   4.963
    1C        C  234   4.024   2.603   2.068
    1C        C  235   3.898   2.544   2.068
    1C        C  236   4.088   2.650   2.183
    1C        C  237   4.026   2.610   2.303
    1C        C  238   4.202   2.734   2.424
    1C        C  239   4.085   2.653   2.424
    1C        C  240   4.257   2.783   2.545
    1C        C  241   4.197   2.742   2.667
    1C        C  242   4.343   2.902   2.787
    1C        C  243   4.254   2.792   2.786
    1C        C  244   4.379   2.963   2.909
    1C        C  245   4.336   2.909   3.032
    1C        C  246   4.443   3.094   3.149
    1C        C  247   4.378   2.968   3.153
    1C        C  248   4.463   3.162   3.271
    1C        C  249   4.434   3.101   3.396
    1C        C  250   4.496   3.306   3.516
    1C        C  251   4.461   3.169   3.517
    1C        C  252   4.509   3.376   3.638
    1C        C  253   4.501   3.306   3.760
    1C        C  254   4.524   3.517   3.879
    1C        C  255   4.518   3.376   3.882
    1C        C  256   4.519   3.589   4.000
    1C        C  257   4.520   3.520   4.124
    1C        C  258   4.493   3.731   4.243
    1C        C  259   4.515   3.591   4.246
    1C        C  260   4.474   3.802   4.364
    1C        C  261   4.496   3.737   4.487
    1C        C  262   4.430   3.943   4.606
    1C        C  263   4.477   3.810   4.606
    1C        C  264   4.401   4.010   4.727
    1C        C  265   4.435   3.945   4.847
    1C        C  266   4.321   4.132   4.961
    1C        C  267   4.402   4.019   4.961
    1C        C  268   4.264   2.780   2.065
    1C        C  269   4.203   2.733   2.182
    1C        C  270   4.348   2.890   2.301
    1C        C  271   4.257   2.781   2.303
    1C        C  272   4.384   2.955   2.421
    1C        C  273   4.343   2.894   2.542
    1C        C  274   4.441   3.085   2.662
    1C        C  275   4.381   2.958   2.663
    1C        C  276   4.471   3.153   2.782
    1C        C  277   4.443   3.089   2.905
    1C        C  278   4.509   3.292   3.027
    1C        C  279   4.474   3.155   3.026
    1C        C  280   4.514   3.366   3.147
    1C        C  281   4.503   3.297   3.270
    1C        C  282   4.516   3.511   3.391
    1C        C  283   4.512   3.370   3.391
    1C        C  284   4.512   3.583   3.512
    1C        C  285   4.518   3.517   3.637
    1C        C  286   4.489   3.728   3.755
    1C        C  287   4.518   3.590   3.758
    1C        C  288   4.474   3.796   3.877
    1C        C  289   4.491   3.727   3.999
    1C        C  290   4.427   3.931   4.119
    1C        C  291   4.473   3.798   4.120
    1C        C  292   4.400   4.001   4.239
    1C        C  293   4.428   3.936   4.361
    1C        C  294   4.328   4.125   4.480
    1C        C  295   4.398   4.003   4.482
    1C        C  296   4.282   4.185   4.600
    1C        C  297   4.326   4.131   4.723
    1C        C  298   4.205   4.315   4.841
    1C        C  299   4.287   4.197   4.842
    1C        C  300   4.172   4.399   4.952
    1C        C  301   4.360   2.880   2.061
    1C        C  302   4.470   3.069   2.176
    1C        C  303   4.398   2.945   2.180
    1C        C  304   4.483   3.143   2.297
    1C        C  305   4.451   3.079   2.419
    1C        C  306   4.512   3.285   2.539
    1C        C  307   4.473   3.149   2.540
    1C        C  308   4.518   3.358   2.660
    1C        C  309   4.509   3.289   2.783
    1C        C  310   4.523   3.502   2.901
    1C        C  311   4.522   3.361   2.904
    1C        C  312   4.514   3.572   3.023
    1C        C  313   4.512   3.507   3.148
    1C        C  314   4.485   3.720   3.266
    1C        C  315   4.511   3.581   3.268
    1C        C  316   4.471   3.791   3.388
    1C        C  317   4.493   3.723   3.510
    1C        C  318   4.419   3.925   3.629
    1C        C  319   4.466   3.791   3.631
    1C        C  320   4.393   3.989   3.752
    1C        C  321   4.421   3.927   3.875
    1C        C  322   4.316   4.112   3.992
    1C        C  323   4.391   3.992   3.997
    1C        C  324   4.281   4.173   4.115
    1C        C  325   4.325   4.120   4.238
    1C        C  326   4.193   4.289   4.356
    1C        C  327   4.289   4.185   4.358
    1C        C  328   4.141   4.341   4.477
    1C        C  329   4.191   4.293   4.599
    1C        C  330   4.033   4.440   4.717
    1C        C  331   4.151   4.360   4.717
    1C        C  332   3.970   4.487   4.834
    1C        C  333   4.056   4.478   4.944
    1C        C  334   4.550   3.270   2.060
    1C        C  335   4.537   3.131   2.066
    1C        C  336   4.541   3.349   2.176
    1C        C  337   4.519   3.280   2.297
    1C        C  338   4.520   3.496   2.412
    1C        C  339   4.519   3.355   2.416
    1C        C  340   4.519   3.569   2.533
    1C        C  341   4.516   3.499   2.656
    1C        C  342   4.492   3.710   2.777
    1C        C  343   4.515   3.570   2.778
    1C        C  344   4.478   3.781   2.898
    1C        C  345   4.494   3.712   3.020
    1C        C  346   4.420   3.914   3.138
    1C        C  347   4.472   3.783   3.140
    1C        C  348   4.387   3.981   3.259
    1C        C  349   4.421   3.923   3.383
    1C        C  350   4.316   4.107   3.505
    1C        C  351   4.391   3.987   3.505
    1C        C  352   4.280   4.170   3.626
    1C        C  353   4.321   4.111   3.748
    1C        C  354   4.179   4.271   3.870
    1C        C  355   4.277   4.169   3.869
    1C        C  356   4.127   4.320   3.992
    1C        C  357   4.181   4.274   4.113
    1C        C  358   4.018   4.410   4.232
    1C        C  359   4.134   4.329   4.234
    1C        C  360   3.958   4.450   4.354
    1C        C  361   4.025   4.422   4.475
    1C        C  362   3.833   4.514   4.594
    1C        C  363   3.967   4.469   4.595
    1C        C  364   3.764   4.543   4.714
    1C        C  365   3.840   4.541   4.833
    1C        C  366   3.629   4.593   4.952
    1C        C  367   3.766   4.570   4.948
    1C        C  368   4.510   3.566   2.054
    1C        C  369   4.526   3.489   2.170
    1C        C  370   4.500   3.705   2.289
    1C        C  371   4.521   3.566   2.289
    1C        C  372   4.490   3.780   2.408
    1C        C  373   4.503   3.709   2.530
    1C        C  374   4.427   3.906   2.654
    1C        C  375   4.481   3.776   2.652
    1C        C  376   4.392   3.974   2.773
    1C        C  377   4.428   3.913   2.896
    1C        C  378   4.314   4.096   3.014
    1C        C  379   4.392   3.978   3.016
    1C        C  380   4.272   4.156   3.135
    1C        C  381   4.313   4.101   3.258
    1C        C  382   4.176   4.261   3.378
    1C        C  383   4.274   4.159   3.381
    1C        C  384   4.123   4.309   3.499
    1C        C  385   4.177   4.267   3.623
    1C        C  386   4.009   4.393   3.743
    1C        C  387   4.124   4.311   3.746
    1C        C  388   3.949   4.434   3.864
    1C        C  389   4.011   4.401   3.987
    1C        C  390   3.825   4.497   4.111
    1C        C  391   3.953   4.439   4.110
    1C        C  392   3.758   4.520   4.233
    1C        C  393   3.828   4.504   4.355
    1C        C  394   3.620   4.555   4.478
    1C        C  395   3.759   4.534   4.475
    1C        C  396   3.548   4.572   4.598
    1C        C  397   3.625   4.570   4.717
    1C        C  398   3.412   4.555   4.841
    1C        C  399   3.551   4.579   4.837
    1C        C  400   3.342   4.519   4.958
    1C        C  401   4.507   3.705   2.056
    1C        C  402   4.456   3.920   2.169
    1C        C  403   4.488   3.783   2.171
    1C        C  404   4.421   3.981   2.292
    1C        C  405   4.442   3.913   2.413
    1C        C  406   4.322   4.092   2.528
    1C        C  407   4.399   3.974   2.533
    1C        C  408   4.275   4.152   2.647
    1C        C  409   4.317   4.093   2.768
    1C        C  410   4.175   4.251   2.892
    1C        C  411   4.270   4.147   2.890
    1C        C  412   4.125   4.308   3.011
    1C        C  413   4.176   4.260   3.134
    1C        C  414   4.004   4.385   3.255
    1C        C  415   4.123   4.309   3.256
    1C        C  416   3.943   4.421   3.378
    1C        C  417   4.005   4.386   3.500
    1C        C  418   3.815   4.482   3.624
    1C        C  419   3.943   4.422   3.622
    1C        C  420   3.750   4.506   3.747
    1C        C  421   3.819   4.490   3.869
    1C        C  422   3.613   4.539   3.991
    1C        C  423   3.753   4.517   3.991
    1C        C  424   3.544   4.539   4.114
    1C        C  425   3.618   4.540   4.235
    1C        C  426   3.407   4.546   4.359
    1C        C  427   3.548   4.551   4.357
    1C        C  428   3.335   4.545   4.480
    1C        C  429   3.407   4.561   4.601
    1C        C  430   3.196   4.521   4.724
    1C        C  431   3.336   4.548   4.723
    1C        C  432   3.128   4.491   4.845
    1C        C  433   3.206   4.492   4.962
    1C        C  434   4.382   4.124   2.052
    1C        C  435   4.444   3.998   2.054
    1C        C  436   4.301   4.158   2.165
    1C        C  437   4.337   4.096   2.288
    1C        C  438   4.184   4.252   2.407
    1C        C  439   4.282   4.151   2.406
    1C        C  440   4.123   4.298   2.526
    1C        C  441   4.177   4.254   2.649
    1C        C  442   4.007   4.382   2.766
    1C        C  443   4.120   4.298   2.770
    1C        C  444   3.944   4.416   2.888
    1C        C  445   4.006   4.384   3.010
    1C        C  446   3.815   4.474   3.133
    1C        C  447   3.948   4.425   3.132
    1C        C  448   3.748   4.498   3.255
    1C        C  449   3.815   4.479   3.378
    1C        C  450   3.611   4.534   3.499
    1C        C  451   3.748   4.503   3.500
    1C        C  452   3.542   4.544   3.623
    1C        C  453   3.613   4.539   3.745
    1C        C  454   3.402   4.544   3.867
    1C        C  455   3.544   4.547   3.868
    1C        C  456   3.334   4.536   3.991
    1C        C  457   3.403   4.537   4.114
    1C        C  458   3.197   4.501   4.239
    1C        C  459   3.335   4.532   4.238
    1C        C  460   3.129   4.486   4.362
    1C        C  461   3.197   4.513   4.483
    1C        C  462   2.999   4.435   4.605
    1C        C  463   3.128   4.493   4.604
    1C        C  464   2.933   4.401   4.725
    1C        C  465   2.995   4.438   4.847
    1C        C  466   2.799   4.342   4.958
    1C        C  467   2.907   4.431   4.960
    1C        C  468   4.122   4.278   2.043
    1C        C  469   4.184   4.240   2.163
    1C        C  470   4.012   4.372   2.280
    1C        C  471   4.132   4.296   2.283
    1C        C  472   3.944   4.403   2.400
    1C        C  473   4.005   4.375   2.525
    1C        C  474   3.815   4.471   2.644
    1C        C  475   3.948   4.423   2.644
    1C        C  476   3.750   4.500   2.766
    1C        C  477   3.814   4.472   2.889
    1C        C  478   3.608   4.520   3.010
    1C        C  479   3.746   4.492   3.011
    1C        C  480   3.537   4.531   3.132
    1C        C  481   3.608   4.519   3.253
    1C        C  482   3.400   4.533   3.379
    1C        C  483   3.541   4.535   3.376
    1C        C  484   3.331   4.530   3.502
    1C        C  485   3.401   4.547   3.624
    1C        C  486   3.194   4.501   3.747
    1C        C  487   3.331   4.536   3.746
    1C        C  488   3.133   4.471   3.871
    1C        C  489   3.199   4.495   3.993
    1C        C  490   3.006   4.413   4.117
    1C        C  491   3.131   4.478   4.116
    1C        C  492   2.942   4.387   4.240
    1C        C  493   3.001   4.426   4.362
    1C        C  494   2.834   4.299   4.482
    1C        C  495   2.937   4.395   4.484
    1C        C  496   2.779   4.253   4.604
    1C        C  497   2.824   4.310   4.725
    1C        C  498   2.666   4.167   4.844
    1C        C  499   2.754   4.277   4.843
    1C        C  500   2.596   4.118   4.955
    1C        C  501   4.003   4.349   2.044
    1C        C  502   3.818   4.465   2.156
    1C        C  503   3.944   4.402   2.160
    1C        C  504   3.748   4.481   2.278
    1C        C  505   3.809   4.445   2.400
    1C        C  506   3.607   4.512   2.524
    1C        C  507   3.745   4.478   2.521
    1C        C  508   3.536   4.530   2.645
    1C        C  509   3.611   4.524   2.765
    1C        C  510   3.398   4.521   2.887
    1C        C  511   3.539   4.524   2.886
    1C        C  512   3.327   4.518   3.010
    1C        C  513   3.396   4.535   3.132
    1C        C  514   3.191   4.502   3.257
    1C        C  515   3.329   4.530   3.257
    1C        C  516   3.126   4.474   3.380
    1C        C  517   3.193   4.496   3.502
    1C        C  518   3.000   4.415   3.626
    1C        C  519   3.126   4.478   3.625
    1C        C  520   2.946   4.372   3.749
    1C        C  521   3.004   4.413   3.872
    1C        C  522   2.836   4.286   3.998
    1C        C  523   2.946   4.374   3.995
    1C        C  524   2.787   4.239   4.122
    1C        C  525   2.830   4.300   4.241
    1C        C  526   2.693   4.137   4.365
    1C        C  527   2.777   4.250   4.362
    1C        C  528   2.650   4.081   4.487
    1C        C  529   2.686   4.147   4.606
    1C        C  530   2.585   3.960   4.732
    1C        C  531   2.642   4.090   4.728
    1C        C  532   2.544   3.902   4.856
    1C        C  533   2.533   3.993   4.965
    1C        C  534   3.619   4.561   2.046
    1C        C  535   3.751   4.512   2.043
    1C        C  536   3.538   4.538   2.162
    1C        C  537   3.610   4.515   2.282
    1C        C  538   3.395   4.522   2.402
    1C        C  539   3.536   4.518   2.403
    1C        C  540   3.322   4.519   2.523
    1C        C  541   3.395   4.526   2.644
    1C        C  542   3.187   4.488   2.769
    1C        C  543   3.325   4.516   2.766
    1C        C  544   3.121   4.465   2.891
    1C        C  545   3.190   4.485   3.013
    1C        C  546   2.996   4.410   3.135
    1C        C  547   3.123   4.472   3.137
    1C        C  548   2.945   4.367   3.259
    1C        C  549   3.001   4.408   3.382
    1C        C  550   2.832   4.282   3.508
    1C        C  551   2.940   4.374   3.505
    1C        C  552   2.782   4.234   3.630
    1C        C  553   2.836   4.284   3.751
    1C        C  554   2.701   4.126   3.875
    1C        C  555   2.785   4.239   3.875
    1C        C  556   2.666   4.065   3.998
    1C        C  557   2.703   4.125   4.120
    1C        C  558   2.598   3.945   4.247
    1C        C  559   2.659   4.072   4.244
    1C        C  560   2.569   3.883   4.371
    1C        C  561   2.586   3.955   4.492
    1C        C  562   2.534   3.749   4.617
    1C        C  563   2.562   3.887   4.613
    1C        C  564   2.522   3.679   4.739
    1C        C  565   2.528   3.759   4.856
    1C        C  566   2.534   3.543   4.981
    1C        C  567   2.532   3.682   4.973
    1C        C  568   3.327   4.488   2.045
    1C        C  569   3.397   4.521   2.161
    1C        C  570   3.181   4.495   2.284
    1C        C  571   3.322   4.516   2.282
    1C        C  572   3.113   4.471   2.406
    1C        C  573   3.184   4.489   2.527
    1C        C  574   2.986   4.409   2.649
    1C        C  575   3.115   4.469   2.649
    1C        C  576   2.927   4.373   2.772
    1C        C  577   2.992   4.407   2.893
    1C        C  578   2.825   4.279   3.018
    1C        C  579   2.933   4.371   3.015
    1C        C  580   2.779   4.226   3.141
    1C        C  581   2.835   4.278   3.260
    1C        C  582   2.699   4.121   3.386
    1C        C  583   2.784   4.233   3.384
    1C        C  584   2.660   4.060   3.508
    1C        C  585   2.695   4.122   3.630
    1C        C  586   2.596   3.939   3.755
    1C        C  587   2.659   4.065   3.754
    1C        C  588   2.573   3.875   3.879
    1C        C  589   2.606   3.938   4.002
    1C        C  590   2.537   3.741   4.130
    1C        C  591   2.575   3.877   4.125
    1C        C  592   2.531   3.671   4.252
    1C        C  593   2.537   3.746   4.372
    1C        C  594   2.515   3.536   4.497
    1C        C  595   2.525   3.677   4.495
    1C        C  596   2.519   3.464   4.619
    1C        C  597   2.519   3.537   4.739
    1C        C  598   2.539   3.328   4.865
    1C        C  599   2.528   3.469   4.863
    1C        C  600   2.542   3.249   4.981
    1C        C  601   3.195   4.448   2.051
    1C        C  602   2.982   4.401   2.164
    1C        C  603   3.115   4.455   2.165
    1C        C  604   2.924   4.363   2.288
    1C        C  605   2.989   4.405   2.407
    1C        C  606   2.821   4.274   2.532
    1C        C  607   2.927   4.368   2.528
    1C        C  608   2.773   4.224   2.655
    1C        C  609   2.819   4.281   2.775
    1C        C  610   2.690   4.114   2.900
    1C        C  611   2.772   4.229   2.897
    1C        C  612   2.654   4.053   3.022
    1C        C  613   2.694   4.114   3.144
    1C        C  614   2.597   3.929   3.269
    1C        C  615   2.657   4.057   3.268
    1C        C  616   2.567   3.866   3.392
    1C        C  617   2.594   3.935   3.512
    1C        C  618   2.534   3.732   3.636
    1C        C  619   2.571   3.869   3.635
    1C        C  620   2.523   3.668   3.761
    1C        C  621   2.538   3.739   3.883
    1C        C  622   2.519   3.531   4.011
    1C        C  623   2.527   3.672   4.007
    1C        C  624   2.518   3.459   4.133
    1C        C  625   2.523   3.530   4.255
    1C        C  626   2.540   3.321   4.379
    1C        C  627   2.520   3.461   4.378
    1C        C  628   2.562   3.254   4.502
    1C        C  629   2.544   3.325   4.623
    1C        C  630   2.606   3.122   4.746
    1C        C  631   2.561   3.257   4.745
    1C        C  632   2.621   3.050   4.867
    1C        C  633   2.565   3.111   4.984
    1C        C  634   2.778   4.313   2.057
    1C        C  635   2.886   4.402   2.058
    1C        C  636   2.744   4.239   2.171
    1C        C  637   2.810   4.277   2.289
    1C        C  638   2.677   4.114   2.411
    1C        C  639   2.765   4.225   2.412
    1C        C  640   2.646   4.052   2.534
    1C        C  641   2.689   4.110   2.655
    1C        C  642   2.592   3.924   2.776
    1C        C  643   2.651   4.052   2.779
    1C        C  644   2.564   3.861   2.899
    1C        C  645   2.595   3.925   3.022
    1C        C  646   2.535   3.726   3.149
    1C        C  647   2.571   3.863   3.146
    1C        C  648   2.520   3.657   3.271
    1C        C  649   2.535   3.729   3.392
    1C        C  650   2.518   3.519   3.521
    1C        C  651   2.523   3.660   3.515
    1C        C  652   2.523   3.454   3.646
    1C        C  653   2.518   3.527   3.767
    1C        C  654   2.537   3.317   3.889
    1C        C  655   2.521   3.457   3.890
    1C        C  656   2.557   3.249   4.012
    1C        C  657   2.544   3.320   4.133
    1C        C  658   2.610   3.123   4.260
    1C        C  659   2.554   3.253   4.257
    1C        C  660   2.644   3.060   4.382
    1C        C  661   2.611   3.121   4.505
    1C        C  662   2.706   2.930   4.626
    1C        C  663   2.636   3.053   4.626
    1C        C  664   2.747   2.871   4.747
    1C        C  665   2.696   2.928   4.867
    1C        C  666   2.746   2.867   4.983
    1C        C  667   2.681   4.030   2.055
    1C        C  668   2.686   4.110   2.170
    1C        C  669   2.593   3.915   2.293
    1C        C  670   2.647   4.047   2.290
    1C        C  671   2.564   3.850   2.415
    1C        C  672   2.586   3.924   2.533
    1C        C  673   2.534   3.718   2.660
    1C        C  674   2.565   3.856   2.655
    1C        C  675   2.525   3.651   2.784
    1C        C  676   2.525   3.725   2.905
    1C        C  677   2.513   3.515   3.031
    1C        C  678   2.519   3.656   3.027
    1C        C  679   2.516   3.444   3.153
    1C        C  680   2.512   3.516   3.275
    1C        C  681   2.539   3.310   3.400
    1C        C  682   2.512   3.448   3.398
    1C        C  683   2.560   3.245   3.524
    1C        C  684   2.541   3.314   3.646
    1C        C  685   2.611   3.115   3.773
    1C        C  686   2.557   3.246   3.768
    1C        C  687   2.643   3.053   3.896
    1C        C  688   2.609   3.118   4.017
    1C        C  689   2.713   2.936   4.142
    1C        C  690   2.636   3.054   4.139
    1C        C  691   2.758   2.877   4.263
    1C        C  692   2.710   2.935   4.382
    1C        C  693   2.749   2.874   4.504
    1C        C  694   2.633   3.898   2.060
    1C        C  695   2.528   3.708   2.177
    1C        C  696   2.583   3.838   2.176
    1C        C  697   2.511   3.640   2.299
    1C        C  698   2.523   3.714   2.419
    1C        C  699   2.490   3.506   2.545
    1C        C  700   2.507   3.647   2.541
    1C        C  701   2.503   3.437   2.667
    1C        C  702   2.516   3.510   2.787
    1C        C  703   2.530   3.300   2.912
    1C        C  704   2.514   3.440   2.910
    1C        C  705   2.547   3.231   3.034
    1C        C  706   2.539   3.305   3.155
    1C        C  707   2.604   3.106   3.281
    1C        C  708   2.557   3.240   3.279
    1C        C  709   2.637   3.047   3.405
    1C        C  710   2.610   3.113   3.527
    1C        C  711   2.716   2.932   3.650
    1C        C  712   2.644   3.053   3.650
    1C        C  713   2.760   2.878   3.773
    1C        C  714   2.721   2.935   3.896
    1C        C  715   2.756   2.878   4.020
    1C        C  716   2.461   3.501   2.063
    1C        C  717   2.497   3.636   2.060
    1C        C  718   2.469   3.425   2.184
    1C        C  719   2.483   3.501   2.304
    1C        C  720   2.517   3.291   2.428
    1C        C  721   2.487   3.429   2.426
    1C        C  722   2.539   3.224   2.550
    1C        C  723   2.521   3.297   2.670
    1C        C  724   2.588   3.095   2.792
    1C        C  725   2.535   3.226   2.791
    1C        C  726   2.617   3.029   2.914
    1C        C  727   2.590   3.097   3.035
    1C        C  728   2.712   2.926   3.158
    1C        C  729   2.629   3.040   3.159
    1C        C  730   2.753   2.872   3.282
    1C        C  731   2.714   2.928   3.406
    1C        C  732   2.757   2.873   3.528
    1C        C  733   2.508   3.205   2.071
    1C        C  734   2.492   3.284   2.186
    1C        C  735   2.587   3.089   2.306
    1C        C  736   2.530   3.220   2.307
    1C        C  737   2.617   3.023   2.427
    1C        C  738   2.589   3.092   2.547
    1C        C  739   2.701   2.914   2.672
    1C        C  740   2.624   3.032   2.670
    1C        C  741   2.743   2.856   2.794
    1C        C  742   2.703   2.918   2.915
    1C        C  743   2.751   2.865   3.037
    1C        C  744   2.555   3.075   2.072
    1C        C  745   2.691   2.902   2.187
    1C        C  746   2.619   3.023   2.186
    1C        C  747   2.736   2.846   2.308
    1C        C  748   2.691   2.903   2.430
    1C        C  749   2.738   2.849   2.552
    1C        C  750   2.745   2.848   2.069
    1C        C  751   3.655   2.307   1.989
    1C        O  752   3.639   2.187   2.026
    1C        O  753   3.656   2.311   1.849
    1C        C  754   4.632   3.053   1.983
    1C        O  755   4.640   3.049   1.858
    1C        O  756   4.759   3.027   2.037
    1C        C  757   4.453   4.233   1.982
    1C        O  758   4.574   4.260   2.004
    1C        O  759   4.422   4.243   1.845
    1C        C  760   3.592   4.675   1.955
    1C        O  761   3.676   4.768   1.945
    1C        O  762   3.520   4.660   1.835
    1C        C  763   2.873   4.517   1.966
    1C        O  764   2.880   4.502   1.841
    1C        O  765   2.776   4.608   2.010
    1C        C  766   2.336   3.472   1.990
    1C        O  767   2.335   3.411   1.880
    1C        O  768   2.206   3.472   2.042
    1C        C  769   4.712   3.594   5.043
    1C        O  770   4.716   3.586   5.169
    1C        O  771   4.839   3.627   4.995
    1C        C  772   4.249   4.421   5.076
    1C        O  773   4.239   4.355   5.183
    1C        O  774   4.367   4.497   5.074
    1C        C  775   4.153   2.500   5.054
    1C        O  776   4.245   2.436   4.997
    1C        O  777   4.179   2.555   5.180
    1C        C  778   2.888   4.551   5.045
    1C        O  779   2.857   4.667   5.008
    1C        O  780   2.886   4.533   5.184
    1C        C  781   2.500   3.037   5.095
    1C        O  782   2.422   2.944   5.063
    1C        O  783   2.502   3.084   5.226
    1C        C  784   2.419   4.001   5.060
    1C        O  785   2.311   4.038   5.006
    1C        O  786   2.425   4.023   5.198
    1C        C  787   2.942   2.432   2.014
    1C        O  788   2.917   2.457   1.894
    1C        O  789   2.904   2.304   2.054
    1C        C  790   3.200   2.389   5.080
    1C        O  791   3.158   2.271   5.069
    1C        O  792   3.270   2.415   5.198
    1C        H  793   4.312   3.001   5.073
    1C        H  794   4.199   2.804   5.072
    1C        H  795   4.531   3.127   5.052
    1C        H  796   4.530   3.369   5.071
    1C        H  797   4.520   3.789   5.061
    1C        H  798   4.468   4.005   5.045
    1C        H  799   4.248   4.132   5.040
    1C        H  800   4.063   4.568   5.001
    1C        H  801   3.817   4.567   5.042
    1C        H  802   3.589   4.646   5.036
    1C        H  803   3.397   4.469   5.035
    1C        H  804   3.169   4.458   5.057
    1C        H  805   3.895   2.499   5.079
    1C        H  806   3.663   2.398   5.047
    1C        H  807   3.001   2.547   5.067
    1C        H  808   3.450   2.530   5.070
    1C        H  809   2.889   2.742   5.079
    1C        H  810   2.674   2.864   5.062
    1C        H  811   2.492   3.293   5.065
    1C        H  812   2.602   3.509   5.057
    1C        H  813   2.499   3.730   5.063
    1C        H  814   2.587   4.187   5.037
    1C        H  815   2.765   4.312   5.055
    1C        H  816   2.713   2.885   1.973
    1C        H  817   2.830   2.681   1.980
    1C        H  818   3.220   2.448   1.986
    1C        H  819   3.427   2.409   1.990
    1C        H  820   3.868   2.497   1.976
    1C        H  821   4.054   2.640   1.972
    1C        H  822   4.259   2.717   1.978
    1C        H  823   4.381   2.932   1.970
    1C        H  824   4.595   3.314   1.973
    1C        H  825   4.529   3.521   1.959
    1C        H  826   4.538   3.756   1.967
    1C        H  827   3.812   4.555   1.966
    1C        H  828   3.976   4.395   1.951
    1C        H  829   4.184   4.300   1.959
    1C        H  830   4.506   3.978   1.968
    1C        H  831   2.597   3.867   1.964
    1C        H  832   2.738   4.057   1.969
    1C        H  833   2.719   4.307   1.968
    1C        H  834   3.381   4.487   1.952
    1C        H  835   3.147   4.407   1.964
    1C        H  836   2.506   3.005   2.007
    1C        H  837   2.488   3.244   1.973
    1C        H  838   2.472   3.693   1.973
    2V3OU   H29  839   2.807   3.551   2.453
    2V3OU   C27  840   2.786   3.507   2.553
    2V3OU   H27  841   2.733   3.576   2.624
    2V3OU   H28  842   2.731   3.410   2.539
    2V3OU   O11  843   2.907   3.479   2.623
    2V3OU   C15  844   2.929   3.401   2.735
    2V3OU   C13  845   3.056   3.376   2.790
    2V3OU   C14  846   3.085   3.266   2.871
    2V3OU   C16  847   2.980   3.186   2.915
    2V3OU    H6  848   2.997   3.099   2.981
    2V3OU   C12  849   3.215   3.224   2.929
    2V3OU    O2  850   3.234   3.123   3.002
    2V3OU   C10  851   3.328   3.313   2.903
    2V3OU    C8  852   3.457   3.270   2.934
    2V3OU   O10  853   3.488   3.156   3.001
    2V3OU   H26  854   3.402   3.116   3.021
    2V3OU    C6  855   3.568   3.351   2.894
    2V3OU    C5  856   3.539   3.469   2.826
    2V3OU    C4  857   3.706   3.295   2.893
    2V3OU    H4  858   3.726   3.227   2.981
    2V3OU    H5  859   3.712   3.226   2.803
    2V3OU    C2  860   3.819   3.397   2.883
    2V3OU    O6  861   3.804   3.471   3.004
    2V3OU   H21  862   3.758   3.553   2.983
    2V3OU    C3  863   3.783   3.497   2.773
    2V3OU    H2  864   3.862   3.577   2.769
    2V3OU    H3  865   3.780   3.443   2.675
    2V3OU   C25  866   3.953   3.323   2.876
    2V3OU    O7  867   4.012   3.302   2.771
    2V3OU   C26  868   4.029   3.288   3.003
    2V3OU   H22  869   4.070   3.385   3.039
    2V3OU   H23  870   4.115   3.220   2.979
    2V3OU    O8  871   3.962   3.212   3.102
    2V3OU   H24  872   3.925   3.273   3.168
    2V3OU    C1  873   3.648   3.565   2.791
    2V3OU    H1  874   3.628   3.625   2.697
    2V3OU    O3  875   3.658   3.658   2.899
    2V3OU   C19  876   3.621   3.795   2.880
    2V3OU    H9  877   3.526   3.804   2.820
    2V3OU    O4  878   3.718   3.854   2.795
    2V3OU   C20  879   3.846   3.874   2.856
    2V3OU   H10  880   3.896   3.773   2.866
    2V3OU   C24  881   3.610   3.858   3.019
    2V3OU   H16  882   3.545   3.791   3.080
    2V3OU   H17  883   3.560   3.957   3.003
    2V3OU   C23  884   3.751   3.873   3.075
    2V3OU   H15  885   3.791   3.769   3.099
    2V3OU    N1  886   3.739   3.955   3.194
    2V3OU   H19  887   3.811   3.919   3.254
    2V3OU   H20  888   3.650   3.936   3.234
    2V3OU   C21  889   3.854   3.951   2.987
    2V3OU   H11  890   3.959   3.932   3.025
    2V3OU    O5  891   3.834   4.092   2.980
    2V3OU   H18  892   3.785   4.112   3.061
    2V3OU   C22  893   3.922   3.951   2.748
    2V3OU   H12  894   3.871   4.049   2.729
    2V3OU   H13  895   3.915   3.896   2.651
    2V3OU   H14  896   4.031   3.955   2.773
    2V3OU   C11  897   3.164   3.475   2.789
    2V3OU    O1  898   3.138   3.592   2.753
    2V3OU    C9  899   3.299   3.431   2.829
    2V3OU    C7  900   3.407   3.509   2.790
    2V3OU    O9  901   3.392   3.617   2.704
    2V3OU   H25  902   3.297   3.626   2.686
    2V3OU   C17  903   2.827   3.318   2.785
    2V3OU    H7  904   2.726   3.355   2.769
    2V3OU   C18  905   2.850   3.211   2.872
    2V3OU    H8  906   2.784   3.175   2.952
    3SOL     OW  907   2.641   4.868   0.526
    3SOL    HW1  908   2.649   4.768   0.531
    3SOL    HW2  909   2.576   4.899   0.594
    4SOL     OW  910   0.131   6.482   2.335
    4SOL    HW1  911   0.178   6.394   2.341
    4SOL    HW2  912   0.095   6.495   2.242
    5SOL     OW  913   4.672   1.364   2.636
    5SOL    HW1  914   4.626   1.453   2.639
    5SOL    HW2  915   4.738   1.363   2.561
    6SOL     OW  916   4.476   0.846   2.059
    6SOL    HW1  917   4.488   0.808   2.151
    6SOL    HW2  918   4.469   0.772   1.992
    7SOL     OW  919   6.925   3.124   2.455
    7SOL    HW1  920   6.847   3.061   2.443
    7SOL    HW2  921   6.891   3.217   2.468
    8SOL     OW  922   3.355   0.846   0.234
    8SOL    HW1  923   3.422   0.901   0.284
    8SOL    HW2  924   3.394   0.818   0.146
    9SOL     OW  925   5.525   0.362   6.100
    9SOL    HW1  926   5.522   0.312   6.187
    9SOL    HW2  927   5.436   0.403   6.082
   10SOL     OW  928   1.629   5.189   6.486
   10SOL    HW1  929   1.662   5.150   6.572
   10SOL    HW2  930   1.601   5.116   6.425
   11SOL     OW  931   2.882   0.052   6.060
   11SOL    HW1  932   2.811   7.010   6.045
   11SOL    HW2  933   2.842   0.134   6.100
   12SOL     OW  934   3.481   5.724   3.526
   12SOL    HW1  935   3.539   5.786   3.473
   12SOL    HW2  936   3.478   5.635   3.481
   13SOL     OW  937   3.988   6.433   4.263
   13SOL    HW1  938   4.000   6.514   4.319
   13SOL    HW2  939   3.913   6.447   4.199
   14SOL     OW  940   3.216   5.899   5.654
   14SOL    HW1  941   3.156   5.822   5.633
   14SOL    HW2  942   3.307   5.881   5.614
   15SOL     OW  943   1.080   6.199   1.923
   15SOL    HW1  944   0.999   6.148   1.895
   15SOL    HW2  945   1.073   6.294   1.892
   16SOL     OW  946   4.794   2.508   5.683
   16SOL    HW1  947   4.857   2.562   5.740
   16SOL    HW2  948   4.703   2.549   5.687
   17SOL     OW  949   5.555   6.319   6.104
   17SOL    HW1  950   5.651   6.324   6.078
   17SOL    HW2  951   5.509   6.405   6.079
   18SOL     OW  952   3.378   0.852   5.820
   18SOL    HW1  953   3.456   0.800   5.856
   18SOL    HW2  954   3.377   0.844   5.720
   19SOL     OW  955   0.354   1.507   3.232
   19SOL    HW1  956   0.321   1.438   3.167
   19SOL    HW2  957   0.454   1.506   3.233
   20SOL     OW  958   5.196   1.599   3.813
   20SOL    HW1  959   5.109   1.620   3.857
   20SOL    HW2  960   5.270   1.648   3.860
   21SOL     OW  961   3.387   1.451   2.425
   21SOL    HW1  962   3.455   1.492   2.363
   21SOL    HW2  963   3.345   1.373   2.380
   22SOL     OW  964   2.375   6.619   0.372
   22SOL    HW1  965   2.335   6.659   0.454
   22SOL    HW2  966   2.464   6.662   0.354
   23SOL     OW  967   5.406   5.635   3.391
   23SOL    HW1  968   5.396   5.537   3.375
   23SOL    HW2  969   5.349   5.686   3.326
   24SOL     OW  970   4.359   0.465   3.458
   24SOL    HW1  971   4.426   0.531   3.492
   24SOL    HW2  972   4.275   0.473   3.511
   25SOL     OW  973   2.966   1.058   4.819
   25SOL    HW1  974   3.006   1.119   4.751
   25SOL    HW2  975   2.923   1.111   4.892
   26SOL     OW  976   0.593   0.854   0.060
   26SOL    HW1  977   0.592   0.938   0.006
   26SOL    HW2  978   0.613   0.875   0.155
   27SOL     OW  979   1.162   2.627   2.330
   27SOL    HW1  980   1.239   2.684   2.358
   27SOL    HW2  981   1.116   2.591   2.411
   28SOL     OW  982   3.046   2.004   5.811
   28SOL    HW1  983   3.030   1.965   5.721
   28SOL    HW2  984   3.058   2.103   5.804
   29SOL     OW  985   5.917   1.328   1.876
   29SOL    HW1  986   5.953   1.414   1.913
   29SOL    HW2  987   5.993   1.269   1.850
   30SOL     OW  988   4.410   0.607   4.222
   30SOL    HW1  989   4.444   0.515   4.235
   30SOL    HW2  990   4.366   0.639   4.307
   31SOL     OW  991   0.981   2.353   6.677
   31SOL    HW1  992   0.884   2.336   6.693
   31SOL    HW2  993   1.002   2.339   6.580
   32SOL     OW  994   0.422   1.737   2.518
   32SOL    HW1  995   0.385   1.788   2.440
   32SOL    HW2  996   0.496   1.789   2.560
   33SOL     OW  997   1.677   4.263   6.132
   33SOL    HW1  998   1.628   4.350   6.123
   33SOL    HW2  999   1.652   4.220   6.219
   34SOL     OW 1000   3.048   0.261   4.227
   34SOL    HW1 1001   3.080   0.264   4.322
   34SOL    HW2 1002   3.048   0.354   4.189
   35SOL     OW 1003   3.863   3.969   6.877
   35SOL    HW1 1004   3.777   4.014   6.852
   35SOL    HW2 1005   3.930   3.982   6.804
   36SOL     OW 1006   6.035   1.210   4.511
   36SOL    HW1 1007   5.991   1.131   4.554
   36SOL    HW2 1008   6.023   1.291   4.569
   37SOL     OW 1009   1.033   1.841   0.176
   37SOL    HW1 1010   1.071   1.885   0.095
   37SOL    HW2 1011   1.104   1.787   0.221
   38SOL     OW 1012   0.117   5.028   2.019
   38SOL    HW1 1013   0.045   5.029   1.949
   38SOL    HW2 1014   0.204   5.058   1.978
   39SOL     OW 1015   7.013   4.746   6.681
   39SOL    HW1 1016   0.036   4.665   6.651
   39SOL    HW2 1017   0.038   4.828   6.662
   40SOL     OW 1018   5.142   1.861   0.402
   40SOL    HW1 1019   5.181   1.781   0.446
   40SOL    HW2 1020   5.067   1.896   0.457
   41SOL     OW 1021   6.662   5.187   3.040
   41SOL    HW1 1022   6.620   5.268   3.080
   41SOL    HW2 1023   6.761   5.197   3.042
   42SOL     OW 1024   2.948   5.402   5.174
   42SOL    HW1 1025   3.005   5.339   5.121
   42SOL    HW2 1026   2.862   5.358   5.198
   43SOL     OW 1027   5.895   6.981   5.617
   43SOL    HW1 1028   5.953   6.979   5.698
   43SOL    HW2 1029   5.811   6.929   5.635
   44SOL     OW 1030   4.524   1.518   5.917
   44SOL    HW1 1031   4.522   1.601   5.972
   44SOL    HW2 1032   4.496   1.440   5.973
   45SOL     OW 1033   4.074   6.102   2.568
   45SOL    HW1 1034   4.127   6.075   2.648
   45SOL    HW2 1035   4.125   6.172   2.517
   46SOL     OW 1036   0.502   2.947   3.109
   46SOL    HW1 1037   0.587   2.954   3.056
   46SOL    HW2 1038   0.458   3.037   3.113
   47SOL     OW 1039   5.051   4.181   0.681
   47SOL    HW1 1040   5.009   4.166   0.770
   47SOL    HW2 1041   5.116   4.108   0.661
   48SOL     OW 1042   6.926   3.392   5.625
   48SOL    HW1 1043   6.977   3.406   5.540
   48SOL    HW2 1044   6.974   3.327   5.683
   49SOL     OW 1045   5.018   3.869   1.983
   49SOL    HW1 1046   4.982   3.862   1.890
   49SOL    HW2 1047   5.107   3.914   1.982
   50SOL     OW 1048   5.507   0.894   5.071
   50SOL    HW1 1049   5.599   0.932   5.079
   50SOL    HW2 1050   5.495   0.854   4.980
   51SOL     OW 1051   2.529   6.684   2.968
   51SOL    HW1 1052   2.508   6.768   2.918
   51SOL    HW2 1053   2.625   6.686   2.996
   52SOL     OW 1054   5.826   3.293   2.611
   52SOL    HW1 1055   5.898   3.313   2.545
   52SOL    HW2 1056   5.867   3.275   2.701
   53SOL     OW 1057   3.676   6.769   4.053
   53SOL    HW1 1058   3.583   6.749   4.084
   53SOL    HW2 1059   3.726   6.817   4.126
   54SOL     OW 1060   3.623   4.970   1.206
   54SOL    HW1 1061   3.665   5.022   1.280
   54SOL    HW2 1062   3.633   5.020   1.120
   55SOL     OW 1063   2.102   3.013   6.305
   55SOL    HW1 1064   2.137   3.036   6.396
   55SOL    HW2 1065   2.005   3.039   6.299
   56SOL     OW 1066   0.117   0.175   0.993
   56SOL    HW1 1067   0.207   0.131   0.995
   56SOL    HW2 1068   0.120   0.252   0.929
   57SOL     OW 1069   4.677   0.911   1.620
   57SOL    HW1 1070   4.719   0.998   1.645
   57SOL    HW2 1071   4.683   0.899   1.520
   58SOL     OW 1072   0.037   6.257   5.693
   58SOL    HW1 1073   0.100   6.323   5.735
   58SOL    HW2 1074   0.084   6.169   5.682
   59SOL     OW 1075   1.242   2.350   5.388
   59SOL    HW1 1076   1.271   2.279   5.452
   59SOL    HW2 1077   1.146   2.335   5.362
   60SOL     OW 1078   5.609   2.542   4.913
   60SOL    HW1 1079   5.663   2.544   4.997
   60SOL    HW2 1080   5.534   2.477   4.924
   61SOL     OW 1081   6.193   2.112   4.854
   61SOL    HW1 1082   6.271   2.106   4.792
   61SOL    HW2 1083   6.129   2.181   4.822
   62SOL     OW 1084   0.790   1.113   1.528
   62SOL    HW1 1085   0.816   1.177   1.600
   62SOL    HW2 1086   0.822   1.149   1.440
   63SOL     OW 1087   5.137   1.185   3.247
   63SOL    HW1 1088   5.108   1.251   3.178
   63SOL    HW2 1089   5.236   1.188   3.257
   64SOL     OW 1090   0.046   3.633   5.656
   64SOL    HW1 1091   0.012   3.539   5.663
   64SOL    HW2 1092   0.072   3.666   5.746
   65SOL     OW 1093   0.328   5.243   6.547
   65SOL    HW1 1094   0.377   5.156   6.537
   65SOL    HW2 1095   0.351   5.303   6.470
   66SOL     OW 1096   4.391   1.380   5.377
   66SOL    HW1 1097   4.435   1.382   5.287
   66SOL    HW2 1098   4.310   1.439   5.376
   67SOL     OW 1099   6.004   3.876   6.141
   67SOL    HW1 1100   6.048   3.813   6.076
   67SOL    HW2 1101   5.926   3.830   6.183
   68SOL     OW 1102   5.978   0.902   6.662
   68SOL    HW1 1103   5.891   0.858   6.688
   68SOL    HW2 1104   6.042   0.832   6.632
   69SOL     OW 1105   1.070   3.685   5.855
   69SOL    HW1 1106   1.113   3.685   5.945
   69SOL    HW2 1107   0.993   3.749   5.854
   70SOL     OW 1108   5.334   4.275   4.886
   70SOL    HW1 1109   5.245   4.282   4.931
   70SOL    HW2 1110   5.381   4.193   4.918
   71SOL     OW 1111   4.579   1.524   3.511
   71SOL    HW1 1112   4.561   1.525   3.412
   71SOL    HW2 1113   4.671   1.490   3.528
   72SOL     OW 1114   2.040   6.812   4.323
   72SOL    HW1 1115   1.954   6.859   4.306
   72SOL    HW2 1116   2.025   6.739   4.390
   73SOL     OW 1117   3.615   0.719   1.384
   73SOL    HW1 1118   3.684   0.786   1.408
   73SOL    HW2 1119   3.567   0.749   1.301
   74SOL     OW 1120   4.131   6.976   0.059
   74SOL    HW1 1121   4.123   6.911   7.010
   74SOL    HW2 1122   4.144   6.926   0.144
   75SOL     OW 1123   4.475   0.450   0.962
   75SOL    HW1 1124   4.550   0.409   1.014
   75SOL    HW2 1125   4.495   0.444   0.864
   76SOL     OW 1126   3.014   3.537   1.416
   76SOL    HW1 1127   2.973   3.629   1.418
   76SOL    HW2 1128   2.986   3.486   1.497
   77SOL     OW 1129   0.224   6.941   3.450
   77SOL    HW1 1130   0.292   6.875   3.418
   77SOL    HW2 1131   0.189   6.993   3.372
   78SOL     OW 1132   5.860   1.609   0.072
   78SOL    HW1 1133   5.848   1.511   0.087
   78SOL    HW2 1134   5.901   1.651   0.154
   79SOL     OW 1135   2.921   5.673   0.800
   79SOL    HW1 1136   3.004   5.721   0.828
   79SOL    HW2 1137   2.878   5.630   0.880
   80SOL     OW 1138   5.007   1.342   4.405
   80SOL    HW1 1139   5.045   1.377   4.319
   80SOL    HW2 1140   5.076   1.287   4.452
   81SOL     OW 1141   2.037   0.463   2.360
   81SOL    HW1 1142   1.961   0.478   2.297
   81SOL    HW2 1143   2.042   0.365   2.384
   82SOL     OW 1144   5.641   4.518   0.484
   82SOL    HW1 1145   5.622   4.569   0.567
   82SOL    HW2 1146   5.719   4.560   0.436
   83SOL     OW 1147   0.746   0.527   0.260
   83SOL    HW1 1148   0.840   0.507   0.233
   83SOL    HW2 1149   0.683   0.483   0.196
   84SOL     OW 1150   6.309   3.158   3.471
   84SOL    HW1 1151   6.399   3.132   3.436
   84SOL    HW2 1152   6.239   3.103   3.425
   85SOL     OW 1153   1.667   0.917   3.544
   85SOL    HW1 1154   1.669   0.851   3.469
   85SOL    HW2 1155   1.742   0.897   3.608
   86SOL     OW 1156   0.241   1.448   5.832
   86SOL    HW1 1157   0.292   1.533   5.846
   86SOL    HW2 1158   0.222   1.406   5.920
   87SOL     OW 1159   4.745   3.994   1.037
   87SOL    HW1 1160   4.776   3.964   1.127
   87SOL    HW2 1161   4.819   4.041   0.989
   88SOL     OW 1162   3.472   1.659   5.846
   88SOL    HW1 1163   3.407   1.653   5.922
   88SOL    HW2 1164   3.497   1.755   5.832
   89SOL     OW 1165   2.148   2.713   5.650
   89SOL    HW1 1166   2.176   2.803   5.683
   89SOL    HW2 1167   2.121   2.656   5.727
   90SOL     OW 1168   3.694   5.159   2.301
   90SOL    HW1 1169   3.789   5.171   2.331
   90SOL    HW2 1170   3.691   5.150   2.202
   91SOL     OW 1171   5.789   4.157   5.595
   91SOL    HW1 1172   5.689   4.152   5.586
   91SOL    HW2 1173   5.827   4.202   5.513
   92SOL     OW 1174   4.447   4.633   0.836
   92SOL    HW1 1175   4.437   4.552   0.893
   92SOL    HW2 1176   4.415   4.614   0.743
   93SOL     OW 1177   3.270   3.748   0.199
   93SOL    HW1 1178   3.179   3.711   0.182
   93SOL    HW2 1179   3.266   3.817   0.271
   94SOL     OW 1180   1.955   6.126   6.150
   94SOL    HW1 1181   1.946   6.226   6.155
   94SOL    HW2 1182   1.893   6.084   6.216
   95SOL     OW 1183   0.814   0.409   3.281
   95SOL    HW1 1184   0.779   0.503   3.285
   95SOL    HW2 1185   0.743   0.348   3.248
   96SOL     OW 1186   2.889   0.848   4.713
   96SOL    HW1 1187   2.803   0.869   4.666
   96SOL    HW2 1188   2.930   0.933   4.746
   97SOL     OW 1189   2.341   3.143   6.225
   97SOL    HW1 1190   2.320   3.181   6.135
   97SOL    HW2 1191   2.272   3.075   6.250
   98SOL     OW 1192   0.943   3.783   1.052
   98SOL    HW1 1193   1.037   3.807   1.026
   98SOL    HW2 1194   0.944   3.733   1.138
   99SOL     OW 1195   3.804   2.503   1.399
   99SOL    HW1 1196   3.814   2.466   1.491
   99SOL    HW2 1197   3.894   2.512   1.357
  100SOL     OW 1198   0.476   6.862   4.940
  100SOL    HW1 1199   0.389   6.887   4.896
  100SOL    HW2 1200   0.473   6.889   5.037
  101SOL     OW 1201   1.335   5.034   2.493
  101SOL    HW1 1202   1.241   5.032   2.528
  101SOL    HW2 1203   1.378   4.945   2.511
  102SOL     OW 1204   4.051   5.658   1.487
  102SOL    HW1 1205   3.981   5.602   1.532
  102SOL    HW2 1206   4.015   5.692   1.400
  103SOL     OW 1207   2.228   2.008   1.626
  103SOL    HW1 1208   2.271   1.981   1.539
  103SOL    HW2 1209   2.180   1.930   1.665
  104SOL     OW 1210   1.351   5.271   2.378
  104SOL    HW1 1211   1.367   5.255   2.280
  104SOL    HW2 1212   1.340   5.184   2.425
  105SOL     OW 1213   6.464   1.308   6.518
  105SOL    HW1 1214   6.437   1.295   6.422
  105SOL    HW2 1215   6.412   1.245   6.576
  106SOL     OW 1216   3.513   6.317   4.858
  106SOL    HW1 1217   3.552   6.231   4.891
  106SOL    HW2 1218   3.572   6.355   4.787
  107SOL     OW 1219   1.041   1.008   1.168
  107SOL    HW1 1220   1.074   0.965   1.252
  107SOL    HW2 1221   1.105   0.988   1.093
  108SOL     OW 1222   2.467   6.535   5.562
  108SOL    HW1 1223   2.491   6.440   5.541
  108SOL    HW2 1224   2.423   6.540   5.651
  109SOL     OW 1225   0.781   0.690   1.972
  109SOL    HW1 1226   0.802   0.758   1.902
  109SOL    HW2 1227   0.799   0.728   2.062
  110SOL     OW 1228   2.917   5.635   4.062
  110SOL    HW1 1229   2.863   5.709   4.100
  110SOL    HW2 1230   2.926   5.562   4.130
  111SOL     OW 1231   1.328   1.000   4.189
  111SOL    HW1 1232   1.272   1.012   4.271
  111SOL    HW2 1233   1.322   0.905   4.157
  112SOL     OW 1234   3.719   6.612   6.317
  112SOL    HW1 1235   3.737   6.559   6.400
  112SOL    HW2 1236   3.786   6.588   6.246
  113SOL     OW 1237   0.423   5.226   2.930
  113SOL    HW1 1238   0.382   5.138   2.954
  113SOL    HW2 1239   0.464   5.266   3.012
  114SOL     OW 1240   1.422   6.830   2.232
  114SOL    HW1 1241   1.517   6.853   2.213
  114SOL    HW2 1242   1.400   6.853   2.327
  115SOL     OW 1243   4.852   1.718   3.331
  115SOL    HW1 1244   4.846   1.636   3.388
  115SOL    HW2 1245   4.775   1.778   3.350
  116SOL     OW 1246   6.132   5.671   2.143
  116SOL    HW1 1247   6.048   5.626   2.172
  116SOL    HW2 1248   6.128   5.768   2.167
  117SOL     OW 1249   1.555   2.123   0.781
  117SOL    HW1 1250   1.502   2.072   0.713
  117SOL    HW2 1251   1.495   2.184   0.831
  118SOL     OW 1252   2.002   0.964   2.322
  118SOL    HW1 1253   2.010   1.047   2.378
  118SOL    HW2 1254   1.918   0.969   2.267
  119SOL     OW 1255   0.533   0.377   0.176
  119SOL    HW1 1256   0.569   0.314   0.108
  119SOL    HW2 1257   0.485   0.326   0.248
  120SOL     OW 1258   5.663   0.401   6.517
  120SOL    HW1 1259   5.651   0.325   6.454
  120SOL    HW2 1260   5.594   0.397   6.589
  121SOL     OW 1261   1.632   3.215   5.883
  121SOL    HW1 1262   1.710   3.278   5.881
  121SOL    HW2 1263   1.616   3.186   5.978
  122SOL     OW 1264   1.740   3.691   6.355
  122SOL    HW1 1265   1.678   3.722   6.282
  122SOL    HW2 1266   1.767   3.597   6.337
  123SOL     OW 1267   0.749   1.180   2.552
  123SOL    HW1 1268   0.846   1.166   2.530
  123SOL    HW2 1269   0.716   1.263   2.508
  124SOL     OW 1270   3.519   2.715   0.366
  124SOL    HW1 1271   3.423   2.726   0.392
  124SOL    HW2 1272   3.534   2.755   0.276
  125SOL     OW 1273   3.612   1.762   0.588
  125SOL    HW1 1274   3.691   1.823   0.596
  125SOL    HW2 1275   3.560   1.765   0.673
  126SOL     OW 1276   2.023   4.437   0.661
  126SOL    HW1 1277   1.943   4.474   0.615
  126SOL    HW2 1278   2.091   4.411   0.593
  127SOL     OW 1279   0.454   4.881   6.876
  127SOL    HW1 1280   0.540   4.859   6.921
  127SOL    HW2 1281   0.379   4.834   6.923
  128SOL     OW 1282   5.344   1.963   1.075
  128SOL    HW1 1283   5.391   2.021   1.009
  128SOL    HW2 1284   5.245   1.965   1.057
  129SOL     OW 1285   2.624   3.495   6.120
  129SOL    HW1 1286   2.714   3.531   6.144
  129SOL    HW2 1287   2.578   3.462   6.202
  130SOL     OW 1288   1.152   1.899   4.388
  130SOL    HW1 1289   1.230   1.857   4.341
  130SOL    HW2 1290   1.172   1.996   4.405
  131SOL     OW 1291   4.451   1.060   3.386
  131SOL    HW1 1292   4.389   1.131   3.421
  131SOL    HW2 1293   4.539   1.068   3.433
  132SOL     OW 1294   2.937   3.173   1.933
  132SOL    HW1 1295   2.994   3.092   1.943
  132SOL    HW2 1296   2.858   3.152   1.875
  133SOL     OW 1297   5.504   1.048   4.314
  133SOL    HW1 1298   5.593   1.003   4.317
  133SOL    HW2 1299   5.443   1.008   4.383
  134SOL     OW 1300   6.617   0.897   2.674
  134SOL    HW1 1301   6.552   0.824   2.695
  134SOL    HW2 1302   6.581   0.985   2.706
  135SOL     OW 1303   5.727   3.582   3.535
  135SOL    HW1 1304   5.694   3.567   3.442
  135SOL    HW2 1305   5.720   3.497   3.587
  136SOL     OW 1306   1.829   4.963   6.062
  136SOL    HW1 1307   1.828   5.017   5.978
  136SOL    HW2 1308   1.921   4.967   6.102
  137SOL     OW 1309   5.756   1.897   3.343
  137SOL    HW1 1310   5.793   1.819   3.292
  137SOL    HW2 1311   5.725   1.967   3.278
  138SOL     OW 1312   1.243   4.501   2.484
  138SOL    HW1 1313   1.149   4.493   2.518
  138SOL    HW2 1314   1.306   4.459   2.548
  139SOL     OW 1315   1.425   0.170   5.397
  139SOL    HW1 1316   1.497   0.101   5.410
  139SOL    HW2 1317   1.411   0.186   5.300
  140SOL     OW 1318   1.324   6.548   3.850
  140SOL    HW1 1319   1.375   6.621   3.804
  140SOL    HW2 1320   1.241   6.586   3.892
  141SOL     OW 1321   0.565   2.603   5.038
  141SOL    HW1 1322   0.638   2.664   5.009
  141SOL    HW2 1323   0.507   2.580   4.960
  142SOL     OW 1324   1.178   3.889   1.196
  142SOL    HW1 1325   1.181   3.818   1.266
  142SOL    HW2 1326   1.128   3.968   1.231
  143SOL     OW 1327   5.449   4.193   0.713
  143SOL    HW1 1328   5.381   4.132   0.671
  143SOL    HW2 1329   5.510   4.229   0.642
  144SOL     OW 1330   1.537   4.514   6.064
  144SOL    HW1 1331   1.511   4.574   5.989
  144SOL    HW2 1332   1.586   4.566   6.133
  145SOL     OW 1333   0.594   5.495   0.897
  145SOL    HW1 1334   0.610   5.526   0.803
  145SOL    HW2 1335   0.573   5.574   0.955
  146SOL     OW 1336   4.763   0.630   5.836
  146SOL    HW1 1337   4.806   0.629   5.926
  146SOL    HW2 1338   4.696   0.703   5.831
  147SOL     OW 1339   5.632   3.145   6.786
  147SOL    HW1 1340   5.720   3.114   6.749
  147SOL    HW2 1341   5.629   3.125   6.884
  148SOL     OW 1342   6.595   5.544   0.834
  148SOL    HW1 1343   6.579   5.629   0.885
  148SOL    HW2 1344   6.551   5.551   0.745
  149SOL     OW 1345   4.114   2.156   3.966
  149SOL    HW1 1346   4.189   2.204   4.012
  149SOL    HW2 1347   4.144   2.127   3.875
  150SOL     OW 1348   5.877   6.667   0.684
  150SOL    HW1 1349   5.904   6.612   0.762
  150SOL    HW2 1350   5.872   6.609   0.602
  151SOL     OW 1351   2.978   2.091   0.975
  151SOL    HW1 1352   3.056   2.153   0.975
  151SOL    HW2 1353   3.008   1.999   0.999
  152SOL     OW 1354   0.140   0.590   1.761
  152SOL    HW1 1355   0.192   0.597   1.847
  152SOL    HW2 1356   0.150   0.676   1.710
  153SOL     OW 1357   2.716   0.984   3.459
  153SOL    HW1 1358   2.811   0.961   3.438
  153SOL    HW2 1359   2.660   0.902   3.452
  154SOL     OW 1360   1.088   3.406   1.957
  154SOL    HW1 1361   1.156   3.341   1.991
  154SOL    HW2 1362   1.107   3.427   1.861
  155SOL     OW 1363   0.523   1.585   4.379
  155SOL    HW1 1364   0.512   1.677   4.343
  155SOL    HW2 1365   0.543   1.522   4.304
  156SOL     OW 1366   0.196   0.688   0.809
  156SOL    HW1 1367   0.111   0.638   0.824
  156SOL    HW2 1368   0.273   0.625   0.814
  157SOL     OW 1369   5.283   3.031   1.778
  157SOL    HW1 1370   5.204   2.977   1.749
  157SOL    HW2 1371   5.285   3.037   1.878
  158SOL     OW 1372   2.036   4.193   2.243
  158SOL    HW1 1373   1.975   4.147   2.308
  158SOL    HW2 1374   2.125   4.149   2.244
  159SOL     OW 1375   4.761   4.138   2.984
  159SOL    HW1 1376   4.789   4.053   2.941
  159SOL    HW2 1377   4.724   4.200   2.915
  160SOL     OW 1378   5.312   6.154   1.094
  160SOL    HW1 1379   5.393   6.146   1.035
  160SOL    HW2 1380   5.255   6.073   1.084
  161SOL     OW 1381   1.992   6.080   3.599
  161SOL    HW1 1382   1.911   6.024   3.620
  161SOL    HW2 1383   2.000   6.154   3.666
  162SOL     OW 1384   3.332   6.294   0.360
  162SOL    HW1 1385   3.354   6.299   0.457
  162SOL    HW2 1386   3.244   6.248   0.349
  163SOL     OW 1387   6.116   5.639   1.192
  163SOL    HW1 1388   6.175   5.659   1.270
  163SOL    HW2 1389   6.151   5.560   1.142
  164SOL     OW 1390   6.879   4.179   2.260
  164SOL    HW1 1391   6.893   4.229   2.346
  164SOL    HW2 1392   6.966   4.146   2.225
  165SOL     OW 1393   5.309   3.232   1.191
  165SOL    HW1 1394   5.332   3.142   1.154
  165SOL    HW2 1395   5.370   3.301   1.152
  166SOL     OW 1396   1.393   4.037   2.432
  166SOL    HW1 1397   1.310   4.077   2.392
  166SOL    HW2 1398   1.441   3.985   2.362
  167SOL     OW 1399   5.067   3.099   0.018
  167SOL    HW1 1400   5.094   3.006   7.020
  167SOL    HW2 1401   4.968   3.108   0.013
  168SOL     OW 1402   2.996   3.174   1.310
  168SOL    HW1 1403   3.049   3.200   1.391
  168SOL    HW2 1404   2.953   3.085   1.325
  169SOL     OW 1405   5.928   1.993   1.831
  169SOL    HW1 1406   5.905   2.032   1.742
  169SOL    HW2 1407   5.857   2.017   1.897
  170SOL     OW 1408   0.729   0.347   2.966
  170SOL    HW1 1409   0.697   0.340   3.061
  170SOL    HW2 1410   0.688   0.274   2.912
  171SOL     OW 1411   2.481   4.409   6.661
  171SOL    HW1 1412   2.488   4.309   6.668
  171SOL    HW2 1413   2.485   4.449   6.753
  172SOL     OW 1414   6.512   1.096   2.865
  172SOL    HW1 1415   6.442   1.166   2.877
  172SOL    HW2 1416   6.502   1.027   2.936
  173SOL     OW 1417   6.492   1.041   4.049
  173SOL    HW1 1418   6.507   1.035   3.951
  173SOL    HW2 1419   6.558   1.104   4.090
  174SOL     OW 1420   3.896   5.783   3.820
  174SOL    HW1 1421   3.968   5.852   3.824
  174SOL    HW2 1422   3.812   5.823   3.784
  175SOL     OW 1423   3.250   6.984   1.657
  175SOL    HW1 1424   3.232   6.907   1.719
  175SOL    HW2 1425   3.260   0.040   1.711
  176SOL     OW 1426   6.793   4.082   0.793
  176SOL    HW1 1427   6.728   4.077   0.869
  176SOL    HW2 1428   6.802   4.177   0.764
  177SOL     OW 1429   5.704   2.893   2.595
  177SOL    HW1 1430   5.703   2.966   2.664
  177SOL    HW2 1431   5.796   2.886   2.556
  178SOL     OW 1432   2.455   3.508   6.619
  178SOL    HW1 1433   2.410   3.421   6.636
  178SOL    HW2 1434   2.411   3.554   6.541
  179SOL     OW 1435   4.431   1.764   5.471
  179SOL    HW1 1436   4.413   1.803   5.561
  179SOL    HW2 1437   4.355   1.784   5.410
  180SOL     OW 1438   2.031   6.826   0.418
  180SOL    HW1 1439   2.020   6.748   0.356
  180SOL    HW2 1440   1.944   6.844   0.464
  181SOL     OW 1441   3.357   3.051   5.963
  181SOL    HW1 1442   3.415   3.128   5.934
  181SOL    HW2 1443   3.307   3.077   6.045
  182SOL     OW 1444   3.616   2.088   5.165
  182SOL    HW1 1445   3.530   2.121   5.201
  182SOL    HW2 1446   3.672   2.052   5.240
  183SOL     OW 1447   3.605   2.118   3.400
  183SOL    HW1 1448   3.641   2.032   3.366
  183SOL    HW2 1449   3.679   2.174   3.436
  184SOL     OW 1450   0.902   6.576   4.555
  184SOL    HW1 1451   0.920   6.599   4.650
  184SOL    HW2 1452   0.805   6.554   4.544
  185SOL     OW 1453   0.670   1.388   6.271
  185SOL    HW1 1454   0.634   1.310   6.220
  185SOL    HW2 1455   0.766   1.372   6.292
  186SOL     OW 1456   5.593   0.737   4.394
  186SOL    HW1 1457   5.653   0.673   4.345
  186SOL    HW2 1458   5.498   0.716   4.373
  187SOL     OW 1459   4.874   0.065   2.524
  187SOL    HW1 1460   4.969   0.039   2.544
  187SOL    HW2 1461   4.814   7.013   2.537
  188SOL     OW 1462   0.907   3.199   3.075
  188SOL    HW1 1463   0.952   3.115   3.045
  188SOL    HW2 1464   0.970   3.251   3.133
  189SOL     OW 1465   2.154   4.952   1.011
  189SOL    HW1 1466   2.154   5.052   1.002
  189SOL    HW2 1467   2.175   4.927   1.106
  190SOL     OW 1468   5.015   2.572   4.697
  190SOL    HW1 1469   4.949   2.521   4.641
  190SOL    HW2 1470   5.051   2.649   4.643
  191SOL     OW 1471   5.828   0.474   6.751
  191SOL    HW1 1472   5.782   0.437   6.670
  191SOL    HW2 1473   5.824   0.407   6.825
  192SOL     OW 1474   0.809   5.503   1.914
  192SOL    HW1 1475   0.845   5.540   1.828
  192SOL    HW2 1476   0.831   5.565   1.989
  193SOL     OW 1477   4.293   3.794   5.297
  193SOL    HW1 1478   4.221   3.748   5.246
  193SOL    HW2 1479   4.366   3.729   5.319
  194SOL     OW 1480   4.161   1.105   3.119
  194SOL    HW1 1481   4.259   1.088   3.102
  194SOL    HW2 1482   4.116   1.128   3.033
  195SOL     OW 1483   1.557   0.008   4.462
  195SOL    HW1 1484   1.578   0.091   4.513
  195SOL    HW2 1485   1.641   6.985   4.443
  196SOL     OW 1486   2.532   0.856   0.958
  196SOL    HW1 1487   2.579   0.943   0.944
  196SOL    HW2 1488   2.596   0.788   0.995
  197SOL     OW 1489   2.581   6.896   1.471
  197SOL    HW1 1490   2.520   6.972   1.448
  197SOL    HW2 1491   2.666   6.905   1.419
  198SOL     OW 1492   5.077   0.047   1.523
  198SOL    HW1 1493   4.992   0.087   1.556
  198SOL    HW2 1494   5.067   6.975   1.515
  199SOL     OW 1495   0.417   1.590   3.488
  199SOL    HW1 1496   0.401   1.522   3.560
  199SOL    HW2 1497   0.379   1.556   3.402
  200SOL     OW 1498   0.786   4.394   1.647
  200SOL    HW1 1499   0.883   4.374   1.635
  200SOL    HW2 1500   0.732   4.326   1.598
  201SOL     OW 1501   6.518   6.764   5.774
  201SOL    HW1 1502   6.447   6.832   5.792
  201SOL    HW2 1503   6.591   6.806   5.720
  202SOL     OW 1504   4.707   1.057   6.410
  202SOL    HW1 1505   4.706   1.126   6.483
  202SOL    HW2 1506   4.761   0.978   6.439
  203SOL     OW 1507   4.937   2.466   4.316
  203SOL    HW1 1508   4.968   2.556   4.287
  203SOL    HW2 1509   4.935   2.405   4.236
  204SOL     OW 1510   0.615   0.923   6.121
  204SOL    HW1 1511   0.548   0.866   6.168
  204SOL    HW2 1512   0.670   0.866   6.059
  205SOL     OW 1513   0.774   1.320   3.053
  205SOL    HW1 1514   0.829   1.327   3.136
  205SOL    HW2 1515   0.833   1.331   2.973
  206SOL     OW 1516   6.956   4.667   0.866
  206SOL    HW1 1517   6.892   4.591   0.856
  206SOL    HW2 1518   6.970   4.686   0.963
  207SOL     OW 1519   5.914   1.447   3.306
  207SOL    HW1 1520   5.854   1.511   3.353
  207SOL    HW2 1521   5.916   1.361   3.357
  208SOL     OW 1522   5.818   2.544   5.106
  208SOL    HW1 1523   5.801   2.446   5.098
  208SOL    HW2 1524   5.913   2.564   5.080
  209SOL     OW 1525   0.244   4.694   3.693
  209SOL    HW1 1526   0.333   4.735   3.674
  209SOL    HW2 1527   0.204   4.659   3.609
  210SOL     OW 1528   4.121   2.120   0.898
  210SOL    HW1 1529   4.152   2.035   0.940
  210SOL    HW2 1530   4.099   2.187   0.969
  211SOL     OW 1531   2.468   5.932   2.921
  211SOL    HW1 1532   2.393   5.931   2.987
  211SOL    HW2 1533   2.454   6.006   2.856
  212SOL     OW 1534   1.062   4.683   1.523
  212SOL    HW1 1535   1.128   4.756   1.505
  212SOL    HW2 1536   1.106   4.594   1.511
  213SOL     OW 1537   2.871   0.709   0.340
  213SOL    HW1 1538   2.855   0.773   0.415
  213SOL    HW2 1539   2.935   0.750   0.275
  214SOL     OW 1540   4.763   5.085   1.473
  214SOL    HW1 1541   4.687   5.043   1.523
  214SOL    HW2 1542   4.728   5.161   1.418
  215SOL     OW 1543   2.158   3.654   0.865
  215SOL    HW1 1544   2.090   3.592   0.904
  215SOL    HW2 1545   2.120   3.746   0.861
  216SOL     OW 1546   2.345   5.952   3.760
  216SOL    HW1 1547   2.319   5.872   3.708
  216SOL    HW2 1548   2.443   5.969   3.749
  217SOL     OW 1549   1.375   2.474   3.990
  217SOL    HW1 1550   1.401   2.395   4.045
  217SOL    HW2 1551   1.284   2.459   3.950
  218SOL     OW 1552   0.499   4.167   4.339
  218SOL    HW1 1553   0.451   4.110   4.273
  218SOL    HW2 1554   0.589   4.191   4.304
  219SOL     OW 1555   4.817   6.721   6.257
  219SOL    HW1 1556   4.735   6.678   6.217
  219SOL    HW2 1557   4.816   6.819   6.237
  220SOL     OW 1558   3.184   0.244   1.095
  220SOL    HW1 1559   3.165   0.147   1.111
  220SOL    HW2 1560   3.103   0.299   1.116
  221SOL     OW 1561   6.703   2.967   1.445
  221SOL    HW1 1562   6.719   3.063   1.420
  221SOL    HW2 1563   6.612   2.957   1.485
  222SOL     OW 1564   2.507   5.008   5.411
  222SOL    HW1 1565   2.511   5.030   5.313
  222SOL    HW2 1566   2.517   5.092   5.464
  223SOL     OW 1567   5.829   2.767   6.982
  223SOL    HW1 1568   5.780   2.680   6.973
  223SOL    HW2 1569   5.850   2.783   0.051
  224SOL     OW 1570   1.786   1.783   4.547
  224SOL    HW1 1571   1.828   1.871   4.524
  224SOL    HW2 1572   1.737   1.791   4.634
  225SOL     OW 1573   4.721   3.466   6.189
  225SOL    HW1 1574   4.659   3.436   6.118
  225SOL    HW2 1575   4.668   3.499   6.268
  226SOL     OW 1576   1.254   0.759   5.820
  226SOL    HW1 1577   1.324   0.793   5.883
  226SOL    HW2 1578   1.219   0.835   5.765
  227SOL     OW 1579   1.880   3.570   2.696
  227SOL    HW1 1580   1.892   3.642   2.627
  227SOL    HW2 1581   1.966   3.522   2.709
  228SOL     OW 1582   2.752   6.122   4.013
  228SOL    HW1 1583   2.837   6.164   3.983
  228SOL    HW2 1584   2.725   6.160   4.102
  229SOL     OW 1585   5.347   6.180   6.742
  229SOL    HW1 1586   5.300   6.241   6.678
  229SOL    HW2 1587   5.280   6.137   6.803
  230SOL     OW 1588   3.138   4.855   3.665
  230SOL    HW1 1589   3.162   4.945   3.699
  230SOL    HW2 1590   3.096   4.801   3.738
  231SOL     OW 1591   6.433   1.999   6.672
  231SOL    HW1 1592   6.410   2.082   6.723
  231SOL    HW2 1593   6.366   1.986   6.598
  232SOL     OW 1594   1.226   3.125   6.280
  232SOL    HW1 1595   1.285   3.070   6.221
  232SOL    HW2 1596   1.141   3.148   6.232
  233SOL     OW 1597   2.675   1.924   3.822
  233SOL    HW1 1598   2.601   1.969   3.772
  233SOL    HW2 1599   2.716   1.854   3.764
  234SOL     OW 1600   5.101   0.367   5.188
  234SOL    HW1 1601   5.066   0.458   5.167
  234SOL    HW2 1602   5.181   0.376   5.247
  235SOL     OW 1603   3.507   2.836   1.747
  235SOL    HW1 1604   3.517   2.877   1.656
  235SOL    HW2 1605   3.588   2.782   1.769
  236SOL     OW 1606   4.891   3.072   6.543
  236SOL    HW1 1607   4.826   3.147   6.555
  236SOL    HW2 1608   4.923   3.070   6.448
  237SOL     OW 1609   5.672   4.419   2.167
  237SOL    HW1 1610   5.646   4.338   2.220
  237SOL    HW2 1611   5.765   4.407   2.132
  238SOL     OW 1612   4.996   2.198   0.364
  238SOL    HW1 1613   4.896   2.190   0.360
  238SOL    HW2 1614   5.024   2.217   0.458
  239SOL     OW 1615   0.712   5.816   6.237
  239SOL    HW1 1616   0.734   5.894   6.178
  239SOL    HW2 1617   0.797   5.775   6.270
  240SOL     OW 1618   0.484   2.809   3.358
  240SOL    HW1 1619   0.530   2.722   3.343
  240SOL    HW2 1620   0.477   2.858   3.271
  241SOL     OW 1621   2.080   0.506   4.508
  241SOL    HW1 1622   2.064   0.596   4.467
  241SOL    HW2 1623   2.173   0.502   4.544
  242SOL     OW 1624   3.544   2.908   4.955
  242SOL    HW1 1625   3.622   2.918   4.893
  242SOL    HW2 1626   3.572   2.856   5.036
  243SOL     OW 1627   4.060   0.160   5.864
  243SOL    HW1 1628   4.085   0.065   5.885
  243SOL    HW2 1629   4.085   0.180   5.769
  244SOL     OW 1630   5.854   2.625   4.675
  244SOL    HW1 1631   5.849   2.555   4.746
  244SOL    HW2 1632   5.946   2.664   4.672
  245SOL     OW 1633   6.424   3.784   4.142
  245SOL    HW1 1634   6.502   3.755   4.086
  245SOL    HW2 1635   6.446   3.772   4.238
  246SOL     OW 1636   5.059   2.691   3.649
  246SOL    HW1 1637   5.007   2.609   3.673
  246SOL    HW2 1638   5.059   2.754   3.727
  247SOL     OW 1639   2.955   1.997   1.430
  247SOL    HW1 1640   2.877   2.043   1.388
  247SOL    HW2 1641   2.940   1.898   1.429
  248SOL     OW 1642   3.800   1.954   2.697
  248SOL    HW1 1643   3.864   1.990   2.764
  248SOL    HW2 1644   3.737   1.891   2.743
  249SOL     OW 1645   4.049   6.937   5.069
  249SOL    HW1 1646   4.004   6.986   4.994
  249SOL    HW2 1647   4.126   6.990   5.102
  250SOL     OW 1648   5.384   2.697   1.020
  250SOL    HW1 1649   5.398   2.679   0.922
  250SOL    HW2 1650   5.443   2.638   1.074
  251SOL     OW 1651   4.625   4.330   5.708
  251SOL    HW1 1652   4.679   4.261   5.757
  251SOL    HW2 1653   4.646   4.421   5.744
  252SOL     OW 1654   6.156   6.212   6.936
  252SOL    HW1 1655   6.233   6.275   6.925
  252SOL    HW2 1656   6.187   6.118   6.925
  253SOL     OW 1657   3.051   4.663   0.361
  253SOL    HW1 1658   3.005   4.595   0.304
  253SOL    HW2 1659   2.988   4.697   0.430
  254SOL     OW 1660   5.352   3.101   3.569
  254SOL    HW1 1661   5.340   3.032   3.641
  254SOL    HW2 1662   5.450   3.115   3.553
  255SOL     OW 1663   1.758   3.429   4.492
  255SOL    HW1 1664   1.696   3.351   4.500
  255SOL    HW2 1665   1.706   3.511   4.470
  256SOL     OW 1666   6.530   4.256   6.159
  256SOL    HW1 1667   6.583   4.179   6.124
  256SOL    HW2 1668   6.553   4.339   6.108
  257SOL     OW 1669   5.052   6.285   4.065
  257SOL    HW1 1670   4.995   6.206   4.086
  257SOL    HW2 1671   5.144   6.255   4.040
  258SOL     OW 1672   1.734   5.112   4.414
  258SOL    HW1 1673   1.726   5.062   4.328
  258SOL    HW2 1674   1.649   5.162   4.431
  259SOL     OW 1675   1.197   1.563   2.059
  259SOL    HW1 1676   1.256   1.483   2.058
  259SOL    HW2 1677   1.252   1.646   2.046
  260SOL     OW 1678   4.390   1.102   1.156
  260SOL    HW1 1679   4.391   1.153   1.242
  260SOL    HW2 1680   4.440   1.016   1.167
  261SOL     OW 1681   6.372   4.015   0.267
  261SOL    HW1 1682   6.387   3.916   0.270
  261SOL    HW2 1683   6.407   4.052   0.181
  262SOL     OW 1684   6.650   4.093   0.555
  262SOL    HW1 1685   6.694   4.071   0.642
  262SOL    HW2 1686   6.717   4.133   0.493
  263SOL     OW 1687   0.481   1.108   3.620
  263SOL    HW1 1688   0.404   1.128   3.559
  263SOL    HW2 1689   0.513   1.193   3.661
  264SOL     OW 1690   5.048   3.544   6.690
  264SOL    HW1 1691   5.132   3.524   6.640
  264SOL    HW2 1692   5.071   3.582   6.779
  265SOL     OW 1693   4.757   5.182   2.801
  265SOL    HW1 1694   4.732   5.105   2.743
  265SOL    HW2 1695   4.674   5.224   2.839
  266SOL     OW 1696   2.901   2.896   5.666
  266SOL    HW1 1697   2.983   2.901   5.722
  266SOL    HW2 1698   2.916   2.945   5.580
  267SOL     OW 1699   0.258   1.587   6.577
  267SOL    HW1 1700   0.189   1.534   6.528
  267SOL    HW2 1701   0.346   1.579   6.529
  268SOL     OW 1702   3.746   0.708   5.279
  268SOL    HW1 1703   3.670   0.644   5.264
  268SOL    HW2 1704   3.721   0.798   5.245
  269SOL     OW 1705   1.238   3.337   1.640
  269SOL    HW1 1706   1.143   3.369   1.628
  269SOL    HW2 1707   1.285   3.395   1.706
  270SOL     OW 1708   6.914   0.420   0.107
  270SOL    HW1 1709   6.980   0.357   0.147
  270SOL    HW2 1710   6.825   0.374   0.097
  271SOL     OW 1711   1.454   1.790   0.079
  271SOL    HW1 1712   1.488   1.846   0.154
  271SOL    HW2 1713   1.401   1.847   0.016
  272SOL     OW 1714   3.179   4.853   4.092
  272SOL    HW1 1715   3.263   4.891   4.052
  272SOL    HW2 1716   3.132   4.797   4.025
  273SOL     OW 1717   1.771   4.030   4.897
  273SOL    HW1 1718   1.725   3.957   4.947
  273SOL    HW2 1719   1.852   3.994   4.851
  274SOL     OW 1720   4.908   1.654   2.405
  274SOL    HW1 1721   4.915   1.690   2.498
  274SOL    HW2 1722   4.999   1.653   2.363
  275SOL     OW 1723   5.998   5.053   5.220
  275SOL    HW1 1724   6.068   5.116   5.253
  275SOL    HW2 1725   6.014   5.032   5.124
  276SOL     OW 1726   0.170   5.935   2.391
  276SOL    HW1 1727   0.099   5.894   2.334
  276SOL    HW2 1728   0.232   5.862   2.423
  277SOL     OW 1729   1.521   3.693   0.835
  277SOL    HW1 1730   1.595   3.642   0.878
  277SOL    HW2 1731   1.468   3.632   0.776
  278SOL     OW 1732   6.401   5.378   1.576
  278SOL    HW1 1733   6.416   5.292   1.528
  278SOL    HW2 1734   6.359   5.444   1.514
  279SOL     OW 1735   6.085   2.779   4.670
  279SOL    HW1 1736   6.109   2.824   4.756
  279SOL    HW2 1737   6.033   2.842   4.613
  280SOL     OW 1738   3.031   6.830   2.903
  280SOL    HW1 1739   3.122   6.808   2.938
  280SOL    HW2 1740   3.024   6.802   2.807
  281SOL     OW 1741   3.418   4.913   2.387
  281SOL    HW1 1742   3.471   4.994   2.364
  281SOL    HW2 1743   3.341   4.904   2.324
  282SOL     OW 1744   3.643   1.745   5.579
  282SOL    HW1 1745   3.585   1.814   5.536
  282SOL    HW2 1746   3.635   1.752   5.679
  283SOL     OW 1747   6.380   1.408   5.889
  283SOL    HW1 1748   6.407   1.470   5.962
  283SOL    HW2 1749   6.288   1.432   5.858
  284SOL     OW 1750   1.237   4.279   4.680
  284SOL    HW1 1751   1.156   4.249   4.730
  284SOL    HW2 1752   1.319   4.243   4.724
  285SOL     OW 1753   6.061   4.858   5.559
  285SOL    HW1 1754   6.125   4.786   5.534
  285SOL    HW2 1755   5.970   4.819   5.574
  286SOL     OW 1756   3.114   6.040   5.207
  286SOL    HW1 1757   3.181   6.048   5.281
  286SOL    HW2 1758   3.025   6.017   5.246
  287SOL     OW 1759   0.154   4.303   6.870
  287SOL    HW1 1760   0.132   4.233   6.802
  287SOL    HW2 1761   0.179   4.259   6.956
  288SOL     OW 1762   3.602   1.923   5.794
  288SOL    HW1 1763   3.526   1.981   5.768
  288SOL    HW2 1764   3.669   1.976   5.846
  289SOL     OW 1765   0.337   4.825   4.922
  289SOL    HW1 1766   0.370   4.891   4.855
  289SOL    HW2 1767   0.413   4.792   4.978
  290SOL     OW 1768   5.439   1.703   3.953
  290SOL    HW1 1769   5.508   1.632   3.944
  290SOL    HW2 1770   5.407   1.706   4.048
  291SOL     OW 1771   1.770   2.206   4.684
  291SOL    HW1 1772   1.673   2.227   4.691
  291SOL    HW2 1773   1.798   2.150   4.762
  292SOL     OW 1774   1.618   1.825   3.026
  292SOL    HW1 1775   1.584   1.917   3.007
  292SOL    HW2 1776   1.707   1.832   3.072
  293SOL     OW 1777   4.708   4.704   1.673
  293SOL    HW1 1778   4.780   4.658   1.621
  293SOL    HW2 1779   4.642   4.636   1.707
  294SOL     OW 1780   6.160   5.482   6.481
  294SOL    HW1 1781   6.092   5.519   6.545
  294SOL    HW2 1782   6.243   5.458   6.531
  295SOL     OW 1783   3.035   1.958   4.109
  295SOL    HW1 1784   2.965   1.888   4.100
  295SOL    HW2 1785   3.035   1.993   4.203
  296SOL     OW 1786   5.174   1.841   2.297
  296SOL    HW1 1787   5.148   1.846   2.201
  296SOL    HW2 1788   5.225   1.757   2.314
  297SOL     OW 1789   2.276   4.390   2.950
  297SOL    HW1 1790   2.232   4.447   2.881
  297SOL    HW2 1791   2.360   4.435   2.982
  298SOL     OW 1792   3.405   6.268   0.624
  298SOL    HW1 1793   3.457   6.185   0.642
  298SOL    HW2 1794   3.409   6.329   0.703
  299SOL     OW 1795   3.942   3.459   6.576
  299SOL    HW1 1796   3.882   3.457   6.655
  299SOL    HW2 1797   3.926   3.378   6.519
  300SOL     OW 1798   5.651   0.703   1.643
  300SOL    HW1 1799   5.653   0.616   1.693
  300SOL    HW2 1800   5.628   0.777   1.705
  301SOL     OW 1801   5.221   2.933   0.870
  301SOL    HW1 1802   5.282   2.940   0.948
  301SOL    HW2 1803   5.166   3.017   0.863
  302SOL     OW 1804   0.522   0.935   3.840
  302SOL    HW1 1805   0.485   0.993   3.768
  302SOL    HW2 1806   0.507   0.839   3.816
  303SOL     OW 1807   6.169   6.990   1.322
  303SOL    HW1 1808   6.231   0.027   1.278
  303SOL    HW2 1809   6.218   6.943   1.396
  304SOL     OW 1810   2.214   0.098   4.651
  304SOL    HW1 1811   2.170   0.048   4.726
  304SOL    HW2 1812   2.293   0.149   4.686
  305SOL     OW 1813   0.485   3.181   0.486
  305SOL    HW1 1814   0.390   3.202   0.510
  305SOL    HW2 1815   0.488   3.139   0.395
  306SOL     OW 1816   2.223   0.146   3.652
  306SOL    HW1 1817   2.167   0.121   3.731
  306SOL    HW2 1818   2.164   0.178   3.578
  307SOL     OW 1819   4.845   6.381   0.290
  307SOL    HW1 1820   4.832   6.479   0.309
  307SOL    HW2 1821   4.876   6.369   0.196
  308SOL     OW 1822   6.162   3.309   5.238
  308SOL    HW1 1823   6.207   3.398   5.251
  308SOL    HW2 1824   6.081   3.303   5.297
  309SOL     OW 1825   3.255   5.849   6.643
  309SOL    HW1 1826   3.316   5.928   6.632
  309SOL    HW2 1827   3.160   5.878   6.632
  310SOL     OW 1828   6.534   0.132   4.941
  310SOL    HW1 1829   6.578   0.053   4.983
  310SOL    HW2 1830   6.436   0.130   4.959
  311SOL     OW 1831   4.769   4.805   2.866
  311SOL    HW1 1832   4.686   4.832   2.817
  311SOL    HW2 1833   4.782   4.865   2.945
  312SOL     OW 1834   3.909   1.045   5.502
  312SOL    HW1 1835   3.814   1.074   5.487
  312SOL    HW2 1836   3.926   0.960   5.453
  313SOL     OW 1837   3.233   3.817   2.498
  313SOL    HW1 1838   3.283   3.903   2.484
  313SOL    HW2 1839   3.143   3.824   2.455
  314SOL     OW 1840   3.524   5.456   6.786
  314SOL    HW1 1841   3.518   5.517   6.865
  314SOL    HW2 1842   3.580   5.376   6.810
  315SOL     OW 1843   1.346   2.739   3.591
  315SOL    HW1 1844   1.409   2.717   3.665
  315SOL    HW2 1845   1.391   2.800   3.526
  316SOL     OW 1846   2.818   1.806   4.065
  316SOL    HW1 1847   2.757   1.876   4.101
  316SOL    HW2 1848   2.777   1.764   3.984
  317SOL     OW 1849   0.513   0.773   0.852
  317SOL    HW1 1850   0.613   0.771   0.852
  317SOL    HW2 1851   0.482   0.863   0.824
  318SOL     OW 1852   1.066   5.852   6.809
  318SOL    HW1 1853   1.152   5.826   6.766
  318SOL    HW2 1854   1.004   5.891   6.741
  319SOL     OW 1855   6.518   0.647   3.579
  319SOL    HW1 1856   6.614   0.621   3.580
  319SOL    HW2 1857   6.489   0.673   3.671
  320SOL     OW 1858   6.332   2.234   0.273
  320SOL    HW1 1859   6.427   2.206   0.259
  320SOL    HW2 1860   6.272   2.154   0.269
  321SOL     OW 1861   3.847   1.647   0.367
  321SOL    HW1 1862   3.872   1.559   0.326
  321SOL    HW2 1863   3.831   1.634   0.465
  322SOL     OW 1864   4.121   3.465   4.241
  322SOL    HW1 1865   4.099   3.487   4.336
  322SOL    HW2 1866   4.174   3.380   4.237
  323SOL     OW 1867   0.851   2.911   6.212
  323SOL    HW1 1868   0.890   3.003   6.214
  323SOL    HW2 1869   0.898   2.857   6.142
  324SOL     OW 1870   2.347   1.645   4.965
  324SOL    HW1 1871   2.261   1.626   4.919
  324SOL    HW2 1872   2.417   1.666   4.897
  325SOL     OW 1873   1.000   2.967   1.665
  325SOL    HW1 1874   1.027   2.893   1.727
  325SOL    HW2 1875   0.935   3.028   1.711
  326SOL     OW 1876   0.992   5.034   6.842
  326SOL    HW1 1877   1.026   5.113   6.792
  326SOL    HW2 1878   0.956   5.065   6.931
  327SOL     OW 1879   1.451   5.320   3.843
  327SOL    HW1 1880   1.501   5.407   3.847
  327SOL    HW2 1881   1.467   5.276   3.755
  328SOL     OW 1882   0.927   5.011   1.885
  328SOL    HW1 1883   0.888   5.086   1.939
  328SOL    HW2 1884   0.867   4.931   1.892
  329SOL     OW 1885   4.045   3.800   4.669
  329SOL    HW1 1886   3.961   3.794   4.616
  329SOL    HW2 1887   4.038   3.873   4.737
  330SOL     OW 1888   3.151   0.048   1.408
  330SOL    HW1 1889   3.115   0.139   1.425
  330SOL    HW2 1890   3.197   0.015   1.490
  331SOL     OW 1891   3.778   5.386   0.897
  331SOL    HW1 1892   3.752   5.306   0.843
  331SOL    HW2 1893   3.758   5.469   0.845
  332SOL     OW 1894   4.010   1.936   5.041
  332SOL    HW1 1895   3.926   1.887   5.018
  332SOL    HW2 1896   3.988   2.013   5.102
  333SOL     OW 1897   3.343   0.173   6.070
  333SOL    HW1 1898   3.392   0.097   6.112
  333SOL    HW2 1899   3.293   0.223   6.140
  334SOL     OW 1900   2.404   0.788   1.560
  334SOL    HW1 1901   2.496   0.827   1.565
  334SOL    HW2 1902   2.385   0.737   1.645
  335SOL     OW 1903   3.992   6.673   4.899
  335SOL    HW1 1904   4.021   6.762   4.864
  335SOL    HW2 1905   4.050   6.647   4.977
  336SOL     OW 1906   2.055   0.536   3.931
  336SOL    HW1 1907   1.995   0.492   3.997
  336SOL    HW2 1908   2.030   0.507   3.839
  337SOL     OW 1909   0.451   2.903   0.034
  337SOL    HW1 1910   0.469   2.986   0.087
  337SOL    HW2 1911   0.377   2.851   0.078
  338SOL     OW 1912   2.787   2.315   1.515
  338SOL    HW1 1913   2.816   2.408   1.495
  338SOL    HW2 1914   2.774   2.304   1.613
  339SOL     OW 1915   3.121   6.856   3.701
  339SOL    HW1 1916   3.040   6.816   3.742
  339SOL    HW2 1917   3.203   6.815   3.742
  340SOL     OW 1918   4.909   4.555   5.531
  340SOL    HW1 1919   4.894   4.643   5.575
  340SOL    HW2 1920   4.974   4.566   5.455
  341SOL     OW 1921   6.567   1.401   4.865
  341SOL    HW1 1922   6.609   1.485   4.899
  341SOL    HW2 1923   6.637   1.331   4.853
  342SOL     OW 1924   5.961   4.114   6.737
  342SOL    HW1 1925   5.920   4.028   6.706
  342SOL    HW2 1926   6.043   4.094   6.792
  343SOL     OW 1927   1.913   4.728   0.459
  343SOL    HW1 1928   1.996   4.673   0.448
  343SOL    HW2 1929   1.903   4.754   0.555
  344SOL     OW 1930   0.785   4.931   2.307
  344SOL    HW1 1931   0.783   4.849   2.365
  344SOL    HW2 1932   0.703   4.932   2.249
  345SOL     OW 1933   5.092   1.618   3.551
  345SOL    HW1 1934   5.135   1.602   3.640
  345SOL    HW2 1935   5.139   1.564   3.481
  346SOL     OW 1936   1.975   1.191   2.468
  346SOL    HW1 1937   1.912   1.129   2.516
  346SOL    HW2 1938   1.973   1.281   2.513
  347SOL     OW 1939   3.351   5.467   6.274
  347SOL    HW1 1940   3.411   5.397   6.234
  347SOL    HW2 1941   3.335   5.446   6.370
  348SOL     OW 1942   5.475   4.149   1.630
  348SOL    HW1 1943   5.391   4.151   1.575
  348SOL    HW2 1944   5.550   4.116   1.574
  349SOL     OW 1945   6.610   4.432   0.453
  349SOL    HW1 1946   6.679   4.501   0.471
  349SOL    HW2 1947   6.531   4.474   0.407
  350SOL     OW 1948   3.555   3.311   1.078
  350SOL    HW1 1949   3.537   3.382   1.009
  350SOL    HW2 1950   3.504   3.333   1.161
  351SOL     OW 1951   1.866   2.726   0.286
  351SOL    HW1 1952   1.825   2.679   0.363
  351SOL    HW2 1953   1.808   2.802   0.257
  352SOL     OW 1954   3.046   1.291   4.698
  352SOL    HW1 1955   3.137   1.280   4.739
  352SOL    HW2 1956   3.052   1.354   4.620
  353SOL     OW 1957   2.544   6.109   0.760
  353SOL    HW1 1958   2.569   6.206   0.766
  353SOL    HW2 1959   2.627   6.054   0.748
  354SOL     OW 1960   3.261   2.725   0.426
  354SOL    HW1 1961   3.280   2.706   0.522
  354SOL    HW2 1962   3.195   2.799   0.418
  355SOL     OW 1963   0.242   3.584   2.751
  355SOL    HW1 1964   0.314   3.643   2.785
  355SOL    HW2 1965   0.179   3.560   2.825
  356SOL     OW 1966   3.362   6.712   5.216
  356SOL    HW1 1967   3.335   6.659   5.136
  356SOL    HW2 1968   3.441   6.668   5.260
  357SOL     OW 1969   6.716   6.995   5.474
  357SOL    HW1 1970   6.654   6.966   5.402
  357SOL    HW2 1971   6.802   6.944   5.467
  358SOL     OW 1972   4.862   0.194   1.600
  358SOL    HW1 1973   4.921   0.189   1.680
  358SOL    HW2 1974   4.809   0.280   1.603
  359SOL     OW 1975   1.531   2.160   2.083
  359SOL    HW1 1976   1.473   2.130   2.008
  359SOL    HW2 1977   1.490   2.133   2.170
  360SOL     OW 1978   0.881   5.669   6.434
  360SOL    HW1 1979   0.913   5.757   6.472
  360SOL    HW2 1980   0.905   5.596   6.498
  361SOL     OW 1981   5.895   5.784   3.272
  361SOL    HW1 1982   5.824   5.843   3.308
  361SOL    HW2 1983   5.961   5.838   3.220
  362SOL     OW 1984   3.894   3.644   1.327
  362SOL    HW1 1985   3.857   3.616   1.238
  362SOL    HW2 1986   3.820   3.648   1.394
  363SOL     OW 1987   5.324   4.894   3.646
  363SOL    HW1 1988   5.241   4.932   3.687
  363SOL    HW2 1989   5.325   4.795   3.661
  364SOL     OW 1990   6.370   5.432   6.039
  364SOL    HW1 1991   6.450   5.458   6.092
  364SOL    HW2 1992   6.369   5.482   5.953
  365SOL     OW 1993   5.786   5.795   2.251
  365SOL    HW1 1994   5.872   5.810   2.299
  365SOL    HW2 1995   5.714   5.775   2.317
  366SOL     OW 1996   6.135   0.699   6.566
  366SOL    HW1 1997   6.137   0.639   6.646
  366SOL    HW2 1998   6.096   0.649   6.489
  367SOL     OW 1999   5.058   3.221   1.233
  367SOL    HW1 2000   5.034   3.147   1.296
  367SOL    HW2 2001   5.154   3.246   1.247
  368SOL     OW 2002   0.256   3.602   5.007
  368SOL    HW1 2003   0.317   3.677   4.981
  368SOL    HW2 2004   0.265   3.528   4.940
  369SOL     OW 2005   6.224   5.390   1.169
  369SOL    HW1 2006   6.281   5.346   1.238
  369SOL    HW2 2007   6.278   5.407   1.087
  370SOL     OW 2008   2.571   1.894   5.595
  370SOL    HW1 2009   2.625   1.881   5.678
  370SOL    HW2 2010   2.587   1.986   5.559
  371SOL     OW 2011   2.664   3.702   7.024
  371SOL    HW1 2012   2.633   3.794   0.020
  371SOL    HW2 2013   2.758   3.705   6.991
  372SOL     OW 2014   0.671   6.711   5.976
  372SOL    HW1 2015   0.660   6.799   5.930
  372SOL    HW2 2016   0.644   6.637   5.914
  373SOL     OW 2017   6.360   6.174   4.893
  373SOL    HW1 2018   6.347   6.155   4.990
  373SOL    HW2 2019   6.272   6.175   4.846
  374SOL     OW 2020   2.956   1.730   2.980
  374SOL    HW1 2021   3.004   1.744   2.893
  374SOL    HW2 2022   3.009   1.771   3.054
  375SOL     OW 2023   0.889   5.028   3.908
  375SOL    HW1 2024   0.863   5.088   3.984
  375SOL    HW2 2025   0.815   4.963   3.890
  376SOL     OW 2026   1.969   1.529   4.566
  376SOL    HW1 2027   1.919   1.456   4.520
  376SOL    HW2 2028   1.919   1.615   4.557
  377SOL     OW 2029   0.459   2.314   1.642
  377SOL    HW1 2030   0.548   2.327   1.598
  377SOL    HW2 2031   0.431   2.400   1.686
  378SOL     OW 2032   3.100   2.601   5.535
  378SOL    HW1 2033   3.073   2.673   5.470
  378SOL    HW2 2034   3.045   2.610   5.618
  379SOL     OW 2035   6.172   4.321   0.930
  379SOL    HW1 2036   6.232   4.296   0.854
  379SOL    HW2 2037   6.163   4.421   0.933
  380SOL     OW 2038   3.078   1.317   1.473
  380SOL    HW1 2039   3.050   1.285   1.564
  380SOL    HW2 2040   3.074   1.240   1.409
  381SOL     OW 2041   1.466   4.558   2.837
  381SOL    HW1 2042   1.505   4.466   2.829
  381SOL    HW2 2043   1.386   4.555   2.897
  382SOL     OW 2044   5.303   6.434   5.583
  382SOL    HW1 2045   5.233   6.400   5.520
  382SOL    HW2 2046   5.273   6.419   5.677
  383SOL     OW 2047   4.879   3.040   5.552
  383SOL    HW1 2048   4.922   3.130   5.548
  383SOL    HW2 2049   4.914   2.983   5.477
  384SOL     OW 2050   6.482   5.591   4.528
  384SOL    HW1 2051   6.516   5.539   4.607
  384SOL    HW2 2052   6.473   5.687   4.553
  385SOL     OW 2053   4.420   6.201   5.494
  385SOL    HW1 2054   4.432   6.217   5.591
  385SOL    HW2 2055   4.416   6.102   5.476
  386SOL     OW 2056   2.541   6.241   5.225
  386SOL    HW1 2057   2.586   6.305   5.163
  386SOL    HW2 2058   2.557   6.147   5.193
  387SOL     OW 2059   0.753   6.425   3.569
  387SOL    HW1 2060   0.764   6.408   3.667
  387SOL    HW2 2061   0.811   6.501   3.542
  388SOL     OW 2062   1.581   2.066   3.723
  388SOL    HW1 2063   1.522   2.043   3.801
  388SOL    HW2 2064   1.573   2.163   3.702
  389SOL     OW 2065   4.408   4.205   1.474
  389SOL    HW1 2066   4.460   4.126   1.508
  389SOL    HW2 2067   4.350   4.175   1.398
  390SOL     OW 2068   3.320   1.220   0.225
  390SOL    HW1 2069   3.359   1.230   0.134
  390SOL    HW2 2070   3.393   1.200   0.291
  391SOL     OW 2071   1.999   4.222   5.818
  391SOL    HW1 2072   1.939   4.296   5.789
  391SOL    HW2 2073   2.002   4.152   5.746
  392SOL     OW 2074   1.724   4.186   1.354
  392SOL    HW1 2075   1.731   4.242   1.437
  392SOL    HW2 2076   1.703   4.245   1.276
  393SOL     OW 2077   0.862   4.771   6.868
  393SOL    HW1 2078   0.886   4.704   6.797
  393SOL    HW2 2079   0.873   4.863   6.832
  394SOL     OW 2080   0.161   2.746   6.783
  394SOL    HW1 2081   0.172   2.835   6.827
  394SOL    HW2 2082   0.207   2.676   6.838
  395SOL     OW 2083   4.723   4.598   3.227
  395SOL    HW1 2084   4.706   4.505   3.195
  395SOL    HW2 2085   4.655   4.660   3.189
  396SOL     OW 2086   3.044   3.217   2.193
  396SOL    HW1 2087   3.039   3.130   2.241
  396SOL    HW2 2088   2.988   3.213   2.110
  397SOL     OW 2089   5.459   2.302   5.910
  397SOL    HW1 2090   5.503   2.240   5.975
  397SOL    HW2 2091   5.377   2.342   5.951
  398SOL     OW 2092   1.511   0.205   3.246
  398SOL    HW1 2093   1.591   0.260   3.223
  398SOL    HW2 2094   1.428   0.258   3.228
  399SOL     OW 2095   5.626   6.235   3.945
  399SOL    HW1 2096   5.725   6.248   3.944
  399SOL    HW2 2097   5.582   6.318   3.979
  400SOL     OW 2098   6.109   6.268   5.776
  400SOL    HW1 2099   6.082   6.304   5.866
  400SOL    HW2 2100   6.209   6.266   5.770
  401SOL     OW 2101   4.963   0.008   5.847
  401SOL    HW1 2102   4.998   6.945   5.869
  401SOL    HW2 2103   4.996   0.075   5.913
  402SOL     OW 2104   6.836   1.109   3.204
  402SOL    HW1 2105   6.832   1.082   3.108
  402SOL    HW2 2106   6.751   1.153   3.231
  403SOL     OW 2107   3.643   0.968   5.166
  403SOL    HW1 2108   3.684   0.965   5.075
  403SOL    HW2 2109   3.555   0.919   5.165
  404SOL     OW 2110   1.851   4.939   4.598
  404SOL    HW1 2111   1.810   4.848   4.588
  404SOL    HW2 2112   1.822   4.997   4.522
  405SOL     OW 2113   2.134   3.540   2.997
  405SOL    HW1 2114   2.128   3.543   2.897
  405SOL    HW2 2115   2.097   3.624   3.035
  406SOL     OW 2116   0.336   4.330   5.058
  406SOL    HW1 2117   0.414   4.378   5.097
  406SOL    HW2 2118   0.343   4.330   4.958
  407SOL     OW 2119   1.460   2.284   5.051
  407SOL    HW1 2120   1.496   2.192   5.042
  407SOL    HW2 2121   1.365   2.286   5.020
  408SOL     OW 2122   3.464   2.014   2.993
  408SOL    HW1 2123   3.540   2.060   2.948
  408SOL    HW2 2124   3.380   2.065   2.977
  409SOL     OW 2125   6.776   3.444   1.386
  409SOL    HW1 2126   6.717   3.509   1.338
  409SOL    HW2 2127   6.850   3.495   1.431
  410SOL     OW 2128   1.179   1.625   1.304
  410SOL    HW1 2129   1.099   1.606   1.248
  410SOL    HW2 2130   1.256   1.648   1.245
  411SOL     OW 2131   6.572   0.568   1.423
  411SOL    HW1 2132   6.506   0.638   1.452
  411SOL    HW2 2133   6.576   0.565   1.324
  412SOL     OW 2134   3.602   4.910   3.027
  412SOL    HW1 2135   3.685   4.952   2.991
  412SOL    HW2 2136   3.612   4.895   3.126
  413SOL     OW 2137   4.770   4.202   1.287
  413SOL    HW1 2138   4.858   4.184   1.242
  413SOL    HW2 2139   4.719   4.270   1.234
  414SOL     OW 2140   2.876   6.735   4.052
  414SOL    HW1 2141   2.778   6.716   4.057
  414SOL    HW2 2142   2.897   6.776   3.963
  415SOL     OW 2143   0.544   0.154   6.809
  415SOL    HW1 2144   0.584   0.136   6.899
  415SOL    HW2 2145   0.551   0.071   6.753
  416SOL     OW 2146   4.961   5.352   4.989
  416SOL    HW1 2147   5.051   5.388   5.015
  416SOL    HW2 2148   4.949   5.362   4.891
  417SOL     OW 2149   2.304   0.412   6.048
  417SOL    HW1 2150   2.337   0.507   6.043
  417SOL    HW2 2151   2.357   0.363   6.117
  418SOL     OW 2152   2.758   6.825   6.069
  418SOL    HW1 2153   2.729   6.730   6.057
  418SOL    HW2 2154   2.796   6.837   6.161
  419SOL     OW 2155   1.031   6.814   2.860
  419SOL    HW1 2156   1.120   6.771   2.842
  419SOL    HW2 2157   0.977   6.815   2.776
  420SOL     OW 2158   5.894   1.297   6.680
  420SOL    HW1 2159   5.805   1.269   6.644
  420SOL    HW2 2160   5.893   1.396   6.698
  421SOL     OW 2161   5.835   3.382   4.863
  421SOL    HW1 2162   5.848   3.447   4.788
  421SOL    HW2 2163   5.859   3.425   4.950
  422SOL     OW 2164   4.710   3.214   0.472
  422SOL    HW1 2165   4.651   3.289   0.503
  422SOL    HW2 2166   4.795   3.252   0.436
  423SOL     OW 2167   2.165   1.629   6.898
  423SOL    HW1 2168   2.108   1.593   6.825
  423SOL    HW2 2169   2.236   1.562   6.921
  424SOL     OW 2170   1.587   4.725   2.661
  424SOL    HW1 2171   1.533   4.718   2.577
  424SOL    HW2 2172   1.550   4.664   2.730
  425SOL     OW 2173   5.068   1.829   4.309
  425SOL    HW1 2174   4.990   1.782   4.269
  425SOL    HW2 2175   5.052   1.927   4.310
  426SOL     OW 2176   2.267   2.644   4.472
  426SOL    HW1 2177   2.187   2.615   4.420
  426SOL    HW2 2178   2.255   2.619   4.569
  427SOL     OW 2179   6.219   0.373   3.966
  427SOL    HW1 2180   6.129   0.391   3.927
  427SOL    HW2 2181   6.288   0.423   3.914
  428SOL     OW 2182   3.788   0.892   2.997
  428SOL    HW1 2183   3.856   0.915   3.067
  428SOL    HW2 2184   3.730   0.972   2.980
  429SOL     OW 2185   0.755   5.067   3.664
  429SOL    HW1 2186   0.839   5.067   3.717
  429SOL    HW2 2187   0.718   5.160   3.659
  430SOL     OW 2188   0.881   6.970   4.305
  430SOL    HW1 2189   0.799   6.923   4.337
  430SOL    HW2 2190   0.918   7.027   4.379
  431SOL     OW 2191   2.948   1.828   0.689
  431SOL    HW1 2192   3.044   1.841   0.666
  431SOL    HW2 2193   2.935   1.738   0.731
  432SOL     OW 2194   6.044   2.187   0.822
  432SOL    HW1 2195   6.064   2.237   0.738
  432SOL    HW2 2196   5.960   2.134   0.809
  433SOL     OW 2197   2.433   6.273   6.264
  433SOL    HW1 2198   2.432   6.361   6.216
  433SOL    HW2 2199   2.345   6.260   6.312
  434SOL     OW 2200   4.195   5.836   3.310
  434SOL    HW1 2201   4.143   5.787   3.380
  434SOL    HW2 2202   4.208   5.931   3.338
  435SOL     OW 2203   3.743   2.349   5.353
  435SOL    HW1 2204   3.723   2.304   5.266
  435SOL    HW2 2205   3.840   2.371   5.357
  436SOL     OW 2206   3.389   5.566   2.238
  436SOL    HW1 2207   3.296   5.572   2.201
  436SOL    HW2 2208   3.420   5.656   2.268
  437SOL     OW 2209   0.583   1.355   5.888
  437SOL    HW1 2210   0.488   1.382   5.876
  437SOL    HW2 2211   0.632   1.426   5.938
  438SOL     OW 2212   1.341   3.668   3.967
  438SOL    HW1 2213   1.357   3.714   4.054
  438SOL    HW2 2214   1.335   3.736   3.894
  439SOL     OW 2215   5.707   6.197   2.171
  439SOL    HW1 2216   5.651   6.119   2.145
  439SOL    HW2 2217   5.649   6.267   2.213
  440SOL     OW 2218   3.363   1.758   6.284
  440SOL    HW1 2219   3.428   1.805   6.343
  440SOL    HW2 2220   3.411   1.720   6.205
  441SOL     OW 2221   6.282   4.076   3.607
  441SOL    HW1 2222   6.354   4.011   3.582
  441SOL    HW2 2223   6.192   4.036   3.589
  442SOL     OW 2224   4.749   5.421   5.368
  442SOL    HW1 2225   4.758   5.461   5.459
  442SOL    HW2 2226   4.838   5.423   5.322
  443SOL     OW 2227   5.761   4.015   4.314
  443SOL    HW1 2228   5.835   3.947   4.320
  443SOL    HW2 2229   5.682   3.982   4.364
  444SOL     OW 2230   4.310   0.639   6.245
  444SOL    HW1 2231   4.315   0.547   6.205
  444SOL    HW2 2232   4.358   0.639   6.333
  445SOL     OW 2233   2.315   6.110   3.074
  445SOL    HW1 2234   2.398   6.166   3.074
  445SOL    HW2 2235   2.245   6.154   3.130
  446SOL     OW 2236   3.967   5.828   3.073
  446SOL    HW1 2237   3.934   5.922   3.071
  446SOL    HW2 2238   3.939   5.781   2.988
  447SOL     OW 2239   6.283   3.244   4.997
  447SOL    HW1 2240   6.242   3.241   5.089
  447SOL    HW2 2241   6.377   3.212   5.002
  448SOL     OW 2242   2.833   0.665   2.920
  448SOL    HW1 2243   2.744   0.686   2.958
  448SOL    HW2 2244   2.868   0.744   2.869
  449SOL     OW 2245   2.530   1.610   3.987
  449SOL    HW1 2246   2.516   1.558   4.071
  449SOL    HW2 2247   2.478   1.696   3.993
  450SOL     OW 2248   1.654   4.991   3.725
  450SOL    HW1 2249   1.586   4.954   3.788
  450SOL    HW2 2250   1.741   4.944   3.739
  451SOL     OW 2251   1.718   2.556   4.191
  451SOL    HW1 2252   1.686   2.511   4.275
  451SOL    HW2 2253   1.781   2.630   4.215
  452SOL     OW 2254   4.384   6.742   1.862
  452SOL    HW1 2255   4.422   6.708   1.776
  452SOL    HW2 2256   4.289   6.712   1.871
  453SOL     OW 2257   3.479   6.618   6.176
  453SOL    HW1 2258   3.566   6.615   6.226
  453SOL    HW2 2259   3.487   6.680   6.099
  454SOL     OW 2260   6.895   3.777   6.985
  454SOL    HW1 2261   6.808   3.763   0.006
  454SOL    HW2 2262   6.896   3.868   6.945
  455SOL     OW 2263   6.418   2.836   5.110
  455SOL    HW1 2264   6.343   2.871   5.166
  455SOL    HW2 2265   6.389   2.832   5.015
  456SOL     OW 2266   1.604   0.792   4.055
  456SOL    HW1 2267   1.696   0.759   4.077
  456SOL    HW2 2268   1.611   0.880   4.008
  457SOL     OW 2269   1.746   4.403   4.149
  457SOL    HW1 2270   1.664   4.347   4.146
  457SOL    HW2 2271   1.806   4.379   4.073
  458SOL     OW 2272   3.579   0.717   2.867
  458SOL    HW1 2273   3.637   0.768   2.931
  458SOL    HW2 2274   3.525   0.651   2.919
  459SOL     OW 2275   1.752   0.364   5.416
  459SOL    HW1 2276   1.851   0.348   5.407
  459SOL    HW2 2277   1.709   0.360   5.326
  460SOL     OW 2278   1.177   0.772   5.260
  460SOL    HW1 2279   1.269   0.744   5.288
  460SOL    HW2 2280   1.114   0.695   5.267
  461SOL     OW 2281   6.364   4.975   5.977
  461SOL    HW1 2282   6.336   4.883   5.948
  461SOL    HW2 2283   6.442   5.005   5.922
  462SOL     OW 2284   3.757   3.826   5.334
  462SOL    HW1 2285   3.818   3.904   5.340
  462SOL    HW2 2286   3.757   3.790   5.240
  463SOL     OW 2287   0.210   0.413   3.557
  463SOL    HW1 2288   0.292   0.467   3.574
  463SOL    HW2 2289   0.182   0.424   3.462
  464SOL     OW 2290   2.736   0.515   5.894
  464SOL    HW1 2291   2.825   0.556   5.916
  464SOL    HW2 2292   2.750   0.421   5.862
  465SOL     OW 2293   0.731   2.238   0.009
  465SOL    HW1 2294   0.815   2.272   0.051
  465SOL    HW2 2295   0.676   2.315   7.005
  466SOL     OW 2296   2.660   6.199   4.257
  466SOL    HW1 2297   2.588   6.265   4.235
  466SOL    HW2 2298   2.722   6.238   4.326
  467SOL     OW 2299   1.643   1.744   2.581
  467SOL    HW1 2300   1.735   1.722   2.615
  467SOL    HW2 2301   1.599   1.660   2.549
  468SOL     OW 2302   4.231   5.786   5.597
  468SOL    HW1 2303   4.281   5.796   5.683
  468SOL    HW2 2304   4.179   5.869   5.579
  469SOL     OW 2305   3.064   4.138   5.971
  469SOL    HW1 2306   3.082   4.218   6.029
  469SOL    HW2 2307   3.075   4.164   5.875
  470SOL     OW 2308   4.167   5.974   2.289
  470SOL    HW1 2309   4.133   6.007   2.377
  470SOL    HW2 2310   4.091   5.944   2.232
  471SOL     OW 2311   2.877   2.284   4.141
  471SOL    HW1 2312   2.846   2.378   4.153
  471SOL    HW2 2313   2.803   2.230   4.101
  472SOL     OW 2314   5.374   4.967   6.921
  472SOL    HW1 2315   5.474   4.970   6.920
  472SOL    HW2 2316   5.338   5.057   6.894
  473SOL     OW 2317   0.545   2.288   2.356
  473SOL    HW1 2318   0.495   2.374   2.362
  473SOL    HW2 2319   0.498   2.217   2.408
  474SOL     OW 2320   6.012   5.296   6.028
  474SOL    HW1 2321   6.104   5.294   6.069
  474SOL    HW2 2322   5.970   5.205   6.036
  475SOL     OW 2323   5.988   3.387   6.884
  475SOL    HW1 2324   6.005   3.485   6.893
  475SOL    HW2 2325   5.977   3.346   6.974
  476SOL     OW 2326   6.833   3.698   1.792
  476SOL    HW1 2327   6.911   3.748   1.755
  476SOL    HW2 2328   6.748   3.739   1.759
  477SOL     OW 2329   2.258   5.797   3.546
  477SOL    HW1 2330   2.307   5.865   3.491
  477SOL    HW2 2331   2.269   5.707   3.505
  478SOL     OW 2332   3.893   6.129   3.523
  478SOL    HW1 2333   3.947   6.173   3.594
  478SOL    HW2 2334   3.941   6.133   3.436
  479SOL     OW 2335   3.873   3.193   5.184
  479SOL    HW1 2336   3.958   3.238   5.154
  479SOL    HW2 2337   3.874   3.098   5.152
  480SOL     OW 2338   2.624   0.277   1.908
  480SOL    HW1 2339   2.677   0.277   1.823
  480SOL    HW2 2340   2.646   0.359   1.961
  481SOL     OW 2341   0.700   6.899   1.797
  481SOL    HW1 2342   0.709   6.987   1.751
  481SOL    HW2 2343   0.728   6.825   1.736
  482SOL     OW 2344   4.571   5.073   3.046
  482SOL    HW1 2345   4.596   5.001   3.111
  482SOL    HW2 2346   4.554   5.158   3.096
  483SOL     OW 2347   6.625   2.212   2.100
  483SOL    HW1 2348   6.634   2.266   2.184
  483SOL    HW2 2349   6.716   2.193   2.063
  484SOL     OW 2350   1.567   4.533   5.030
  484SOL    HW1 2351   1.518   4.615   5.060
  484SOL    HW2 2352   1.504   4.456   5.026
  485SOL     OW 2353   5.009   4.353   2.737
  485SOL    HW1 2354   4.971   4.261   2.724
  485SOL    HW2 2355   5.085   4.349   2.802
  486SOL     OW 2356   6.165   1.419   6.587
  486SOL    HW1 2357   6.126   1.405   6.496
  486SOL    HW2 2358   6.146   1.340   6.645
  487SOL     OW 2359   0.998   0.439   2.923
  487SOL    HW1 2360   0.919   0.384   2.951
  487SOL    HW2 2361   0.966   0.524   2.881
  488SOL     OW 2362   1.441   6.558   2.593
  488SOL    HW1 2363   1.434   6.479   2.653
  488SOL    HW2 2364   1.473   6.530   2.502
  489SOL     OW 2365   5.951   5.579   5.019
  489SOL    HW1 2366   5.948   5.484   4.987
  489SOL    HW2 2367   5.901   5.637   4.955
  490SOL     OW 2368   1.320   6.278   4.415
  490SOL    HW1 2369   1.262   6.236   4.345
  490SOL    HW2 2370   1.338   6.373   4.389
  491SOL     OW 2371   0.930   3.674   1.302
  491SOL    HW1 2372   0.999   3.608   1.273
  491SOL    HW2 2373   0.930   3.682   1.401
  492SOL     OW 2374   1.550   0.833   5.522
  492SOL    HW1 2375   1.620   0.880   5.468
  492SOL    HW2 2376   1.471   0.894   5.534
  493SOL     OW 2377   2.398   0.058   5.395
  493SOL    HW1 2378   2.476   0.007   5.357
  493SOL    HW2 2379   2.431   0.124   5.462
  494SOL     OW 2380   1.707   1.662   6.221
  494SOL    HW1 2381   1.801   1.632   6.208
  494SOL    HW2 2382   1.649   1.621   6.151
  495SOL     OW 2383   3.530   6.337   5.241
  495SOL    HW1 2384   3.545   6.424   5.286
  495SOL    HW2 2385   3.613   6.281   5.249
  496SOL     OW 2386   6.549   1.480   1.935
  496SOL    HW1 2387   6.489   1.541   1.988
  496SOL    HW2 2388   6.543   1.503   1.838
  497SOL     OW 2389   3.360   1.333   4.500
  497SOL    HW1 2390   3.377   1.285   4.587
  497SOL    HW2 2391   3.447   1.354   4.456
  498SOL     OW 2392   0.437   4.442   2.035
  498SOL    HW1 2393   0.402   4.535   2.021
  498SOL    HW2 2394   0.523   4.432   1.985
  499SOL     OW 2395   1.815   5.566   5.042
  499SOL    HW1 2396   1.719   5.587   5.024
  499SOL    HW2 2397   1.836   5.587   5.138
  500SOL     OW 2398   5.561   3.121   6.071
  500SOL    HW1 2399   5.502   3.088   6.145
  500SOL    HW2 2400   5.654   3.088   6.086
  501SOL     OW 2401   3.486   6.882   1.325
  501SOL    HW1 2402   3.528   6.968   1.355
  501SOL    HW2 2403   3.419   6.901   1.253
  502SOL     OW 2404   0.774   4.983   6.480
  502SOL    HW1 2405   0.760   4.891   6.444
  502SOL    HW2 2406   0.861   4.988   6.529
  503SOL     OW 2407   2.020   5.094   6.630
  503SOL    HW1 2408   1.964   5.108   6.548
  503SOL    HW2 2409   1.987   5.013   6.678
  504SOL     OW 2410   0.402   6.075   1.560
  504SOL    HW1 2411   0.365   6.069   1.653
  504SOL    HW2 2412   0.445   5.988   1.536
  505SOL     OW 2413   4.077   0.557   5.300
  505SOL    HW1 2414   4.067   0.463   5.332
  505SOL    HW2 2415   4.004   0.579   5.236
  506SOL     OW 2416   3.008   5.963   2.124
  506SOL    HW1 2417   2.932   5.990   2.182
  506SOL    HW2 2418   3.078   6.035   2.125
  507SOL     OW 2419   3.899   0.318   2.483
  507SOL    HW1 2420   3.876   0.379   2.407
  507SOL    HW2 2421   3.892   0.369   2.569
  508SOL     OW 2422   0.012   2.458   2.937
  508SOL    HW1 2423   0.031   2.392   2.865
  508SOL    HW2 2424   0.071   2.539   2.925
  509SOL     OW 2425   4.223   1.264   0.551
  509SOL    HW1 2426   4.310   1.260   0.600
  509SOL    HW2 2427   4.222   1.193   0.480
  510SOL     OW 2428   6.935   4.739   5.795
  510SOL    HW1 2429   7.004   4.681   5.839
  510SOL    HW2 2430   6.863   4.761   5.861
  511SOL     OW 2431   1.096   2.002   6.938
  511SOL    HW1 2432   1.091   2.102   6.935
  511SOL    HW2 2433   1.034   1.965   6.869
  512SOL     OW 2434   6.209   2.781   6.687
  512SOL    HW1 2435   6.213   2.681   6.699
  512SOL    HW2 2436   6.209   2.803   6.589
  513SOL     OW 2437   5.320   6.472   2.702
  513SOL    HW1 2438   5.235   6.427   2.675
  513SOL    HW2 2439   5.383   6.404   2.739
  514SOL     OW 2440   7.006   0.248   4.480
  514SOL    HW1 2441   6.972   0.319   4.541
  514SOL    HW2 2442   0.057   0.283   4.428
  515SOL     OW 2443   1.940   0.121   7.027
  515SOL    HW1 2444   1.930   0.066   6.945
  515SOL    HW2 2445   1.970   0.063   0.076
  516SOL     OW 2446   2.610   4.605   2.215
  516SOL    HW1 2447   2.642   4.689   2.260
  516SOL    HW2 2448   2.668   4.587   2.135
  517SOL     OW 2449   3.376   4.936   2.039
  517SOL    HW1 2450   3.363   4.896   1.948
  517SOL    HW2 2451   3.473   4.956   2.053
  518SOL     OW 2452   2.669   2.437   3.934
  518SOL    HW1 2453   2.710   2.346   3.924
  518SOL    HW2 2454   2.644   2.452   4.030
  519SOL     OW 2455   0.144   6.175   3.229
  519SOL    HW1 2456   0.240   6.201   3.244
  519SOL    HW2 2457   0.134   6.133   3.139
  520SOL     OW 2458   0.599   3.755   6.617
  520SOL    HW1 2459   0.549   3.673   6.645
  520SOL    HW2 2460   0.544   3.808   6.553
  521SOL     OW 2461   4.779   5.778   4.711
  521SOL    HW1 2462   4.854   5.779   4.645
  521SOL    HW2 2463   4.762   5.684   4.741
  522SOL     OW 2464   4.116   3.687   2.616
  522SOL    HW1 2465   4.142   3.784   2.615
  522SOL    HW2 2466   4.106   3.657   2.711
  523SOL     OW 2467   6.637   6.098   2.058
  523SOL    HW1 2468   6.555   6.041   2.058
  523SOL    HW2 2469   6.688   6.084   2.142
  524SOL     OW 2470   1.379   2.812   2.394
  524SOL    HW1 2471   1.416   2.816   2.487
  524SOL    HW2 2472   1.422   2.882   2.337
  525SOL     OW 2473   2.017   4.079   6.214
  525SOL    HW1 2474   1.989   4.037   6.301
  525SOL    HW2 2475   1.940   4.075   6.150
  526SOL     OW 2476   3.122   6.614   4.041
  526SOL    HW1 2477   3.030   6.652   4.052
  526SOL    HW2 2478   3.132   6.533   4.100
  527SOL     OW 2479   0.645   2.019   0.118
  527SOL    HW1 2480   0.548   2.021   0.095
  527SOL    HW2 2481   0.686   2.108   0.097
  528SOL     OW 2482   1.351   2.931   3.934
  528SOL    HW1 2483   1.297   2.899   4.012
  528SOL    HW2 2484   1.417   2.999   3.965
  529SOL     OW 2485   1.870   7.010   4.796
  529SOL    HW1 2486   1.952   6.953   4.795
  529SOL    HW2 2487   1.789   6.952   4.794
  530SOL     OW 2488   4.110   3.432   2.523
  530SOL    HW1 2489   4.121   3.527   2.549
  530SOL    HW2 2490   4.090   3.377   2.604
  531SOL     OW 2491   1.035   1.275   2.939
  531SOL    HW1 2492   1.111   1.341   2.943
  531SOL    HW2 2493   1.050   1.203   3.006
  532SOL     OW 2494   1.633   3.352   0.572
  532SOL    HW1 2495   1.708   3.308   0.523
  532SOL    HW2 2496   1.632   3.320   0.667
  533SOL     OW 2497   4.467   6.707   3.749
  533SOL    HW1 2498   4.371   6.726   3.771
  533SOL    HW2 2499   4.524   6.784   3.779
  534SOL     OW 2500   6.337   6.403   2.266
  534SOL    HW1 2501   6.283   6.475   2.309
  534SOL    HW2 2502   6.415   6.380   2.324
  535SOL     OW 2503   6.908   4.325   2.502
  535SOL    HW1 2504   6.846   4.399   2.476
  535SOL    HW2 2505   6.930   4.332   2.600
  536SOL     OW 2506   6.359   4.690   2.827
  536SOL    HW1 2507   6.422   4.724   2.756
  536SOL    HW2 2508   6.406   4.686   2.915
  537SOL     OW 2509   3.604   0.175   4.513
  537SOL    HW1 2510   3.536   0.118   4.559
  537SOL    HW2 2511   3.691   0.170   4.564
  538SOL     OW 2512   0.919   4.338   4.722
  538SOL    HW1 2513   0.985   4.404   4.757
  538SOL    HW2 2514   0.923   4.254   4.777
  539SOL     OW 2515   1.477   5.179   2.146
  539SOL    HW1 2516   1.549   5.110   2.157
  539SOL    HW2 2517   1.474   5.208   2.050
  540SOL     OW 2518   1.736   0.535   3.823
  540SOL    HW1 2519   1.757   0.593   3.902
  540SOL    HW2 2520   1.680   0.458   3.852
  541SOL     OW 2521   4.517   5.619   3.897
  541SOL    HW1 2522   4.546   5.555   3.968
  541SOL    HW2 2523   4.597   5.660   3.854
  542SOL     OW 2524   4.197   6.541   6.308
  542SOL    HW1 2525   4.155   6.604   6.374
  542SOL    HW2 2526   4.150   6.453   6.312
  543SOL     OW 2527   6.063   3.406   3.391
  543SOL    HW1 2528   6.096   3.460   3.469
  543SOL    HW2 2529   6.120   3.426   3.311
  544SOL     OW 2530   0.610   5.387   0.060
  544SOL    HW1 2531   0.539   5.321   0.037
  544SOL    HW2 2532   0.651   5.363   0.147
  545SOL     OW 2533   4.045   1.332   0.966
  545SOL    HW1 2534   3.986   1.257   0.938
  545SOL    HW2 2535   4.140   1.305   0.958
  546SOL     OW 2536   1.891   3.829   1.883
  546SOL    HW1 2537   1.897   3.914   1.935
  546SOL    HW2 2538   1.927   3.844   1.791
  547SOL     OW 2539   3.335   2.593   1.039
  547SOL    HW1 2540   3.366   2.535   0.964
  547SOL    HW2 2541   3.328   2.539   1.123
  548SOL     OW 2542   3.422   3.633   1.662
  548SOL    HW1 2543   3.351   3.586   1.714
  548SOL    HW2 2544   3.382   3.711   1.613
  549SOL     OW 2545   5.340   2.279   1.406
  549SOL    HW1 2546   5.423   2.309   1.453
  549SOL    HW2 2547   5.353   2.186   1.372
  550SOL     OW 2548   1.022   5.655   3.238
  550SOL    HW1 2549   0.927   5.674   3.217
  550SOL    HW2 2550   1.070   5.741   3.256
  551SOL     OW 2551   6.745   0.371   1.949
  551SOL    HW1 2552   6.844   0.358   1.952
  551SOL    HW2 2553   6.712   0.400   2.039
  552SOL     OW 2554   6.030   4.126   6.010
  552SOL    HW1 2555   6.001   4.133   5.914
  552SOL    HW2 2556   6.015   4.032   6.042
  553SOL     OW 2557   2.682   6.888   3.549
  553SOL    HW1 2558   2.590   6.927   3.543
  553SOL    HW2 2559   2.686   6.804   3.496
  554SOL     OW 2560   5.231   6.795   0.459
  554SOL    HW1 2561   5.211   6.717   0.520
  554SOL    HW2 2562   5.304   6.770   0.396
  555SOL     OW 2563   2.844   4.971   4.943
  555SOL    HW1 2564   2.837   4.875   4.969
  555SOL    HW2 2565   2.940   5.000   4.952
  556SOL     OW 2566   4.852   1.713   4.218
  556SOL    HW1 2567   4.785   1.716   4.144
  556SOL    HW2 2568   4.805   1.719   4.306
  557SOL     OW 2569   6.803   4.846   6.496
  557SOL    HW1 2570   6.870   4.814   6.563
  557SOL    HW2 2571   6.717   4.797   6.509
  558SOL     OW 2572   2.922   3.393   4.135
  558SOL    HW1 2573   2.823   3.380   4.135
  558SOL    HW2 2574   2.950   3.428   4.224
  559SOL     OW 2575   0.110   5.139   5.086
  559SOL    HW1 2576   0.052   5.195   5.146
  559SOL    HW2 2577   0.155   5.069   5.141
  560SOL     OW 2578   6.571   3.817   3.356
  560SOL    HW1 2579   6.568   3.912   3.323
  560SOL    HW2 2580   6.484   3.772   3.337
  561SOL     OW 2581   0.110   2.187   0.585
  561SOL    HW1 2582   0.113   2.161   0.489
  561SOL    HW2 2583   0.015   2.202   0.613
  562SOL     OW 2584   3.898   0.603   5.918
  562SOL    HW1 2585   3.952   0.654   5.985
  562SOL    HW2 2586   3.956   0.580   5.840
  563SOL     OW 2587   2.312   1.414   3.919
  563SOL    HW1 2588   2.265   1.501   3.927
  563SOL    HW2 2589   2.249   1.339   3.940
  564SOL     OW 2590   1.053   3.145   0.152
  564SOL    HW1 2591   1.026   3.106   0.064
  564SOL    HW2 2592   1.042   3.076   0.224
  565SOL     OW 2593   3.365   3.780   4.165
  565SOL    HW1 2594   3.279   3.821   4.194
  565SOL    HW2 2595   3.379   3.797   4.068
  566SOL     OW 2596   0.934   3.735   3.911
  566SOL    HW1 2597   0.914   3.786   3.994
  566SOL    HW2 2598   1.005   3.782   3.859
  567SOL     OW 2599   3.049   2.756   1.492
  567SOL    HW1 2600   3.124   2.793   1.436
  567SOL    HW2 2601   3.075   2.758   1.588
  568SOL     OW 2602   4.183   6.870   0.288
  568SOL    HW1 2603   4.198   6.956   0.337
  568SOL    HW2 2604   4.142   6.804   0.350
  569SOL     OW 2605   1.070   3.494   0.577
  569SOL    HW1 2606   0.974   3.486   0.605
  569SOL    HW2 2607   1.080   3.571   0.515
  570SOL     OW 2608   3.373   0.412   6.768
  570SOL    HW1 2609   3.354   0.482   6.699
  570SOL    HW2 2610   3.290   0.394   6.821
  571SOL     OW 2611   3.270   5.154   4.193
  571SOL    HW1 2612   3.278   5.095   4.273
  571SOL    HW2 2613   3.284   5.099   4.110
  572SOL     OW 2614   2.269   5.340   5.279
  572SOL    HW1 2615   2.217   5.424   5.296
  572SOL    HW2 2616   2.226   5.264   5.330
  573SOL     OW 2617   5.912   1.223   6.297
  573SOL    HW1 2618   5.991   1.284   6.291
  573SOL    HW2 2619   5.843   1.252   6.230
  574SOL     OW 2620   3.378   0.880   4.497
  574SOL    HW1 2621   3.356   0.923   4.585
  574SOL    HW2 2622   3.376   0.949   4.425
  575SOL     OW 2623   4.445   3.003   1.702
  575SOL    HW1 2624   4.519   3.020   1.767
  575SOL    HW2 2625   4.464   3.053   1.617
  576SOL     OW 2626   1.383   3.104   3.271
  576SOL    HW1 2627   1.326   3.100   3.353
  576SOL    HW2 2628   1.386   3.013   3.228
  577SOL     OW 2629   1.750   0.953   2.211
  577SOL    HW1 2630   1.729   0.875   2.153
  577SOL    HW2 2631   1.683   0.959   2.285
  578SOL     OW 2632   0.446   5.050   4.438
  578SOL    HW1 2633   0.424   4.957   4.467
  578SOL    HW2 2634   0.382   5.115   4.480
  579SOL     OW 2635   1.484   4.125   3.583
  579SOL    HW1 2636   1.518   4.049   3.528
  579SOL    HW2 2637   1.529   4.210   3.553
  580SOL     OW 2638   4.430   5.123   5.421
  580SOL    HW1 2639   4.363   5.155   5.355
  580SOL    HW2 2640   4.511   5.089   5.372
  581SOL     OW 2641   2.035   2.903   1.886
  581SOL    HW1 2642   2.090   2.908   1.969
  581SOL    HW2 2643   1.987   2.816   1.882
  582SOL     OW 2644   4.508   5.438   2.587
  582SOL    HW1 2645   4.422   5.415   2.542
  582SOL    HW2 2646   4.534   5.363   2.649
  583SOL     OW 2647   2.296   6.135   4.968
  583SOL    HW1 2648   2.379   6.097   4.926
  583SOL    HW2 2649   2.275   6.223   4.925
  584SOL     OW 2650   3.086   6.526   6.576
  584SOL    HW1 2651   3.119   6.446   6.526
  584SOL    HW2 2652   3.061   6.598   6.511
  585SOL     OW 2653   4.234   1.045   0.389
  585SOL    HW1 2654   4.169   1.022   0.317
  585SOL    HW2 2655   4.318   1.081   0.348
  586SOL     OW 2656   3.267   0.408   0.095
  586SOL    HW1 2657   3.366   0.405   0.104
  586SOL    HW2 2658   3.226   0.335   0.149
  587SOL     OW 2659   4.632   2.376   3.450
  587SOL    HW1 2660   4.675   2.345   3.366
  587SOL    HW2 2661   4.639   2.476   3.457
  588SOL     OW 2662   1.980   4.842   1.622
  588SOL    HW1 2663   2.076   4.839   1.651
  588SOL    HW2 2664   1.972   4.806   1.529
  589SOL     OW 2665   3.661   5.592   1.841
  589SOL    HW1 2666   3.582   5.566   1.897
  589SOL    HW2 2667   3.665   5.692   1.833
  590SOL     OW 2668   5.718   1.536   1.517
  590SOL    HW1 2669   5.809   1.495   1.517
  590SOL    HW2 2670   5.713   1.605   1.589
  591SOL     OW 2671   3.421   6.231   3.599
  591SOL    HW1 2672   3.474   6.239   3.515
  591SOL    HW2 2673   3.465   6.166   3.661
  592SOL     OW 2674   4.447   0.391   2.188
  592SOL    HW1 2675   4.502   0.451   2.247
  592SOL    HW2 2676   4.508   0.326   2.142
  593SOL     OW 2677   5.018   2.775   3.919
  593SOL    HW1 2678   5.115   2.752   3.927
  593SOL    HW2 2679   4.963   2.691   3.929
  594SOL     OW 2680   5.764   0.175   0.746
  594SOL    HW1 2681   5.699   0.126   0.805
  594SOL    HW2 2682   5.843   0.117   0.728
  595SOL     OW 2683   5.319   6.674   3.244
  595SOL    HW1 2684   5.224   6.645   3.259
  595SOL    HW2 2685   5.344   6.742   3.314
  596SOL     OW 2686   0.088   5.019   3.053
  596SOL    HW1 2687   0.119   4.939   3.103
  596SOL    HW2 2688   0.145   5.098   3.078
  597SOL     OW 2689   2.421   6.978   6.618
  597SOL    HW1 2690   2.418   6.962   6.520
  597SOL    HW2 2691   2.449   0.046   6.635
  598SOL     OW 2692   3.913   4.053   4.839
  598SOL    HW1 2693   3.865   4.067   4.753
  598SOL    HW2 2694   3.967   4.135   4.861
  599SOL     OW 2695   2.278   5.479   2.771
  599SOL    HW1 2696   2.252   5.427   2.690
  599SOL    HW2 2697   2.204   5.541   2.796
  600SOL     OW 2698   6.175   1.918   6.816
  600SOL    HW1 2699   6.267   1.902   6.779
  600SOL    HW2 2700   6.148   2.013   6.797
  601SOL     OW 2701   1.526   0.921   3.779
  601SOL    HW1 2702   1.556   0.915   3.684
  601SOL    HW2 2703   1.443   0.866   3.791
  602SOL     OW 2704   1.947   0.334   6.340
  602SOL    HW1 2705   1.963   0.424   6.380
  602SOL    HW2 2706   1.992   0.264   6.396
  603SOL     OW 2707   3.012   2.776   5.342
  603SOL    HW1 2708   3.036   2.800   5.248
  603SOL    HW2 2709   3.029   2.854   5.402
  604SOL     OW 2710   0.795   1.438   1.501
  604SOL    HW1 2711   0.825   1.372   1.432
  604SOL    HW2 2712   0.698   1.457   1.490
  605SOL     OW 2713   6.670   4.905   0.470
  605SOL    HW1 2714   6.704   4.990   0.430
  605SOL    HW2 2715   6.575   4.916   0.498
  606SOL     OW 2716   5.091   6.627   5.340
  606SOL    HW1 2717   5.180   6.610   5.298
  606SOL    HW2 2718   5.044   6.541   5.356
  607SOL     OW 2719   6.384   4.460   5.177
  607SOL    HW1 2720   6.384   4.501   5.086
  607SOL    HW2 2721   6.378   4.360   5.169
  608SOL     OW 2722   4.179   6.234   6.806
  608SOL    HW1 2723   4.101   6.232   6.868
  608SOL    HW2 2724   4.223   6.145   6.805
  609SOL     OW 2725   3.940   3.104   2.588
  609SOL    HW1 2726   3.938   3.026   2.651
  609SOL    HW2 2727   3.955   3.188   2.640
  610SOL     OW 2728   5.825   3.119   0.530
  610SOL    HW1 2729   5.884   3.059   0.477
  610SOL    HW2 2730   5.848   3.214   0.509
  611SOL     OW 2731   4.613   7.008   2.034
  611SOL    HW1 2732   4.514   6.995   2.021
  611SOL    HW2 2733   4.630   0.072   2.070
  612SOL     OW 2734   4.128   5.633   4.328
  612SOL    HW1 2735   4.052   5.591   4.277
  612SOL    HW2 2736   4.204   5.651   4.266
  613SOL     OW 2737   4.133   5.305   5.463
  613SOL    HW1 2738   4.112   5.397   5.428
  613SOL    HW2 2739   4.188   5.255   5.397
  614SOL     OW 2740   4.611   5.070   5.898
  614SOL    HW1 2741   4.607   5.140   5.970
  614SOL    HW2 2742   4.607   5.113   5.808
  615SOL     OW 2743   6.881   1.952   1.212
  615SOL    HW1 2744   6.930   1.893   1.148
  615SOL    HW2 2745   6.944   2.018   1.252
  616SOL     OW 2746   0.221   2.428   2.302
  616SOL    HW1 2747   0.154   2.361   2.333
  616SOL    HW2 2748   0.245   2.410   2.207
  617SOL     OW 2749   0.069   4.545   5.932
  617SOL    HW1 2750   0.160   4.583   5.946
  617SOL    HW2 2751   0.071   4.481   5.855
  618SOL     OW 2752   0.793   2.289   0.882
  618SOL    HW1 2753   0.799   2.191   0.862
  618SOL    HW2 2754   0.724   2.331   0.822
  619SOL     OW 2755   3.674   1.344   0.768
  619SOL    HW1 2756   3.617   1.263   0.776
  619SOL    HW2 2757   3.744   1.344   0.840
  620SOL     OW 2758   4.765   2.114   1.203
  620SOL    HW1 2759   4.724   2.068   1.281
  620SOL    HW2 2760   4.766   2.213   1.219
  621SOL     OW 2761   3.007   6.206   6.627
  621SOL    HW1 2762   2.944   6.268   6.672
  621SOL    HW2 2763   2.994   6.212   6.528
  622SOL     OW 2764   1.193   1.052   6.071
  622SOL    HW1 2765   1.134   1.131   6.084
  622SOL    HW2 2766   1.179   0.987   6.146
  623SOL     OW 2767   1.147   5.434   5.812
  623SOL    HW1 2768   1.096   5.518   5.831
  623SOL    HW2 2769   1.082   5.361   5.789
  624SOL     OW 2770   6.941   2.128   0.887
  624SOL    HW1 2771   6.918   2.149   0.792
  624SOL    HW2 2772   6.982   2.209   0.930
  625SOL     OW 2773   2.798   1.531   1.369
  625SOL    HW1 2774   2.856   1.480   1.306
  625SOL    HW2 2775   2.704   1.530   1.335
  626SOL     OW 2776   2.594   5.226   3.888
  626SOL    HW1 2777   2.669   5.162   3.873
  626SOL    HW2 2778   2.522   5.210   3.820
  627SOL     OW 2779   4.965   0.082   0.474
  627SOL    HW1 2780   5.030   0.038   0.537
  627SOL    HW2 2781   4.877   0.034   0.479
  628SOL     OW 2782   6.016   5.489   5.825
  628SOL    HW1 2783   5.980   5.469   5.733
  628SOL    HW2 2784   6.032   5.403   5.873
  629SOL     OW 2785   6.761   6.656   0.252
  629SOL    HW1 2786   6.778   6.715   0.331
  629SOL    HW2 2787   6.763   6.710   0.168
  630SOL     OW 2788   6.901   1.564   2.177
  630SOL    HW1 2789   6.905   1.467   2.157
  630SOL    HW2 2790   6.923   1.579   2.274
  631SOL     OW 2791   3.194   6.519   4.804
  631SOL    HW1 2792   3.277   6.548   4.851
  631SOL    HW2 2793   3.190   6.419   4.801
  632SOL     OW 2794   2.907   1.337   0.602
  632SOL    HW1 2795   2.972   1.400   0.645
  632SOL    HW2 2796   2.948   1.299   0.519
  633SOL     OW 2797   5.232   4.412   0.332
  633SOL    HW1 2798   5.200   4.478   0.400
  633SOL    HW2 2799   5.178   4.420   0.249
  634SOL     OW 2800   4.788   4.101   1.810
  634SOL    HW1 2801   4.738   4.133   1.891
  634SOL    HW2 2802   4.849   4.172   1.777
  635SOL     OW 2803   4.852   5.020   0.949
  635SOL    HW1 2804   4.797   5.090   0.995
  635SOL    HW2 2805   4.832   5.022   0.851
  636SOL     OW 2806   4.325   5.986   6.822
  636SOL    HW1 2807   4.417   5.996   6.860
  636SOL    HW2 2808   4.308   5.890   6.801
  637SOL     OW 2809   6.734   3.289   1.941
  637SOL    HW1 2810   6.684   3.234   1.876
  637SOL    HW2 2811   6.698   3.383   1.941
  638SOL     OW 2812   5.720   2.404   2.405
  638SOL    HW1 2813   5.629   2.364   2.410
  638SOL    HW2 2814   5.781   2.354   2.466
  639SOL     OW 2815   5.304   4.217   2.617
  639SOL    HW1 2816   5.233   4.229   2.687
  639SOL    HW2 2817   5.386   4.177   2.659
  640SOL     OW 2818   0.705   5.158   4.389
  640SOL    HW1 2819   0.744   5.110   4.310
  640SOL    HW2 2820   0.607   5.143   4.391
  641SOL     OW 2821   7.001   5.737   4.560
  641SOL    HW1 2822   6.993   5.836   4.568
  641SOL    HW2 2823   7.020   5.712   4.465
  642SOL     OW 2824   6.996   3.788   4.368
  642SOL    HW1 2825   0.015   3.857   4.424
  642SOL    HW2 2826   6.987   3.822   4.275
  643SOL     OW 2827   5.497   5.208   5.055
  643SOL    HW1 2828   5.405   5.186   5.086
  643SOL    HW2 2829   5.547   5.253   5.129
  644SOL     OW 2830   1.155   6.729   4.195
  644SOL    HW1 2831   1.132   6.734   4.098
  644SOL    HW2 2832   1.076   6.697   4.247
  645SOL     OW 2833   5.435   1.989   4.074
  645SOL    HW1 2834   5.467   1.931   3.999
  645SOL    HW2 2835   5.384   1.934   4.140
  646SOL     OW 2836   2.445   1.317   3.366
  646SOL    HW1 2837   2.487   1.308   3.276
  646SOL    HW2 2838   2.511   1.294   3.437
  647SOL     OW 2839   5.579   2.257   5.664
  647SOL    HW1 2840   5.513   2.277   5.737
  647SOL    HW2 2841   5.592   2.158   5.657
  648SOL     OW 2842   6.534   4.080   3.241
  648SOL    HW1 2843   6.462   4.049   3.179
  648SOL    HW2 2844   6.619   4.091   3.190
  649SOL     OW 2845   4.207   4.045   0.862
  649SOL    HW1 2846   4.157   4.113   0.809
  649SOL    HW2 2847   4.153   3.960   0.866
  650SOL     OW 2848   5.587   4.162   1.078
  650SOL    HW1 2849   5.646   4.189   1.154
  650SOL    HW2 2850   5.621   4.078   1.038
  651SOL     OW 2851   6.642   6.476   6.494
  651SOL    HW1 2852   6.644   6.393   6.438
  651SOL    HW2 2853   6.710   6.470   6.566
  652SOL     OW 2854   5.933   5.959   3.570
  652SOL    HW1 2855   5.960   6.005   3.485
  652SOL    HW2 2856   5.833   5.951   3.572
  653SOL     OW 2857   3.340   6.451   5.067
  653SOL    HW1 2858   3.391   6.394   5.131
  653SOL    HW2 2859   3.365   6.426   4.973
  654SOL     OW 2860   0.105   3.838   5.470
  654SOL    HW1 2861   0.045   3.836   5.390
  654SOL    HW2 2862   0.078   3.766   5.533
  655SOL     OW 2863   0.820   0.124   2.056
  655SOL    HW1 2864   0.883   0.122   2.133
  655SOL    HW2 2865   0.729   0.097   2.086
  656SOL     OW 2866   2.073   5.248   1.735
  656SOL    HW1 2867   2.098   5.342   1.755
  656SOL    HW2 2868   1.992   5.222   1.787
  657SOL     OW 2869   1.864   1.842   1.593
  657SOL    HW1 2870   1.768   1.830   1.617
  657SOL    HW2 2871   1.882   1.938   1.575
  658SOL     OW 2872   2.884   3.994   6.348
  658SOL    HW1 2873   2.961   4.056   6.360
  658SOL    HW2 2874   2.824   4.027   6.276
  659SOL     OW 2875   2.166   6.287   5.899
  659SOL    HW1 2876   2.176   6.268   5.801
  659SOL    HW2 2877   2.201   6.209   5.952
  660SOL     OW 2878   5.247   4.295   2.002
  660SOL    HW1 2879   5.302   4.374   1.977
  660SOL    HW2 2880   5.208   4.309   2.093
  661SOL     OW 2881   4.388   6.525   3.538
  661SOL    HW1 2882   4.394   6.565   3.629
  661SOL    HW2 2883   4.293   6.499   3.519
  662SOL     OW 2884   4.188   1.015   5.537
  662SOL    HW1 2885   4.143   0.993   5.624
  662SOL    HW2 2886   4.119   1.041   5.469
  663SOL     OW 2887   2.630   4.168   6.340
  663SOL    HW1 2888   2.547   4.112   6.341
  663SOL    HW2 2889   2.666   4.171   6.247
  664SOL     OW 2890   0.395   5.768   5.918
  664SOL    HW1 2891   0.317   5.709   5.897
  664SOL    HW2 2892   0.371   5.830   5.992
  665SOL     OW 2893   4.654   5.335   1.761
  665SOL    HW1 2894   4.613   5.386   1.837
  665SOL    HW2 2895   4.665   5.395   1.682
  666SOL     OW 2896   5.390   1.771   1.816
  666SOL    HW1 2897   5.404   1.869   1.832
  666SOL    HW2 2898   5.457   1.719   1.869
  667SOL     OW 2899   1.064   4.620   3.132
  667SOL    HW1 2900   1.108   4.694   3.183
  667SOL    HW2 2901   0.965   4.630   3.138
  668SOL     OW 2902   4.783   6.438   5.729
  668SOL    HW1 2903   4.688   6.459   5.703
  668SOL    HW2 2904   4.840   6.518   5.710
  669SOL     OW 2905   5.318   0.157   3.070
  669SOL    HW1 2906   5.316   0.058   3.088
  669SOL    HW2 2907   5.250   0.202   3.127
  670SOL     OW 2908   3.012   2.699   1.764
  670SOL    HW1 2909   3.111   2.694   1.749
  670SOL    HW2 2910   2.982   2.618   1.814
  671SOL     OW 2911   2.995   6.275   0.996
  671SOL    HW1 2912   3.034   6.342   1.059
  671SOL    HW2 2913   2.927   6.319   0.937
  672SOL     OW 2914   0.156   5.463   1.687
  672SOL    HW1 2915   0.113   5.418   1.764
  672SOL    HW2 2916   0.233   5.408   1.654
  673SOL     OW 2917   6.753   0.608   1.795
  673SOL    HW1 2918   6.803   0.571   1.717
  673SOL    HW2 2919   6.724   0.533   1.855
  674SOL     OW 2920   0.470   1.174   5.216
  674SOL    HW1 2921   0.567   1.200   5.219
  674SOL    HW2 2922   0.463   1.077   5.196
  675SOL     OW 2923   0.309   1.548   2.192
  675SOL    HW1 2924   0.356   1.636   2.185
  675SOL    HW2 2925   0.376   1.475   2.203
  676SOL     OW 2926   3.202   5.195   2.950
  676SOL    HW1 2927   3.208   5.245   2.863
  676SOL    HW2 2928   3.246   5.106   2.940
  677SOL     OW 2929   5.515   1.571   0.673
  677SOL    HW1 2930   5.592   1.607   0.620
  677SOL    HW2 2931   5.456   1.646   0.701
  678SOL     OW 2932   2.318   6.850   4.894
  678SOL    HW1 2933   2.391   6.782   4.889
  678SOL    HW2 2934   2.344   6.932   4.843
  679SOL     OW 2935   4.483   2.317   3.873
  679SOL    HW1 2936   4.438   2.352   3.955
  679SOL    HW2 2937   4.462   2.377   3.795
  680SOL     OW 2938   5.216   5.427   5.024
  680SOL    HW1 2939   5.230   5.358   5.095
  680SOL    HW2 2940   5.250   5.516   5.057
  681SOL     OW 2941   4.485   5.147   1.753
  681SOL    HW1 2942   4.513   5.080   1.684
  681SOL    HW2 2943   4.553   5.220   1.758
  682SOL     OW 2944   6.472   0.607   1.131
  682SOL    HW1 2945   6.560   0.567   1.106
  682SOL    HW2 2946   6.446   0.677   1.065
  683SOL     OW 2947   5.411   2.787   0.731
  683SOL    HW1 2948   5.342   2.856   0.755
  683SOL    HW2 2949   5.385   2.743   0.645
  684SOL     OW 2950   6.451   1.012   0.306
  684SOL    HW1 2951   6.388   1.083   0.276
  684SOL    HW2 2952   6.498   1.041   0.390
  685SOL     OW 2953   3.935   1.881   3.972
  685SOL    HW1 2954   3.902   1.908   4.063
  685SOL    HW2 2955   3.865   1.902   3.904
  686SOL     OW 2956   4.996   2.748   4.214
  686SOL    HW1 2957   4.972   2.785   4.304
  686SOL    HW2 2958   4.944   2.796   4.144
  687SOL     OW 2959   0.732   2.577   4.335
  687SOL    HW1 2960   0.766   2.669   4.315
  687SOL    HW2 2961   0.637   2.583   4.366
  688SOL     OW 2962   0.401   1.954   7.027
  688SOL    HW1 2963   0.333   1.898   0.046
  688SOL    HW2 2964   0.445   1.900   6.955
  689SOL     OW 2965   1.096   4.908   6.606
  689SOL    HW1 2966   1.093   4.809   6.620
  689SOL    HW2 2967   1.087   4.954   6.694
  690SOL     OW 2968   0.288   2.805   3.029
  690SOL    HW1 2969   0.206   2.820   3.084
  690SOL    HW2 2970   0.358   2.872   3.054
  691SOL     OW 2971   2.620   1.025   0.264
  691SOL    HW1 2972   2.696   0.969   0.233
  691SOL    HW2 2973   2.647   1.122   0.263
  692SOL     OW 2974   3.652   0.998   3.747
  692SOL    HW1 2975   3.590   0.919   3.741
  692SOL    HW2 2976   3.616   1.073   3.692
  693SOL     OW 2977   5.885   7.021   4.052
  693SOL    HW1 2978   5.828   0.054   3.996
  693SOL    HW2 2979   5.960   6.985   3.996
  694SOL     OW 2980   4.404   6.964   4.370
  694SOL    HW1 2981   4.323   6.908   4.385
  694SOL    HW2 2982   4.384   0.007   4.303
  695SOL     OW 2983   4.630   6.487   3.868
  695SOL    HW1 2984   4.551   6.545   3.850
  695SOL    HW2 2985   4.712   6.543   3.874
  696SOL     OW 2986   4.994   4.954   3.549
  696SOL    HW1 2987   5.019   4.902   3.631
  696SOL    HW2 2988   4.941   4.895   3.488
  697SOL     OW 2989   1.319   4.149   2.777
  697SOL    HW1 2990   1.284   4.071   2.725
  697SOL    HW2 2991   1.252   4.224   2.773
  698SOL     OW 2992   4.842   6.263   1.048
  698SOL    HW1 2993   4.870   6.248   1.143
  698SOL    HW2 2994   4.883   6.348   1.014
  699SOL     OW 2995   1.672   3.943   6.806
  699SOL    HW1 2996   1.666   4.030   6.854
  699SOL    HW2 2997   1.644   3.869   6.867
  700SOL     OW 2998   3.231   1.003   2.248
  700SOL    HW1 2999   3.273   1.055   2.322
  700SOL    HW2 3000   3.272   1.028   2.161
  701SOL     OW 3001   6.415   3.836   6.924
  701SOL    HW1 3002   6.409   3.821   6.826
  701SOL    HW2 3003   6.396   3.751   6.973
  702SOL     OW 3004   1.560   6.830   5.102
  702SOL    HW1 3005   1.597   6.748   5.059
  702SOL    HW2 3006   1.511   6.884   5.033
  703SOL     OW 3007   3.750   2.947   6.457
  703SOL    HW1 3008   3.693   3.018   6.416
  703SOL    HW2 3009   3.696   2.893   6.520
  704SOL     OW 3010   1.465   2.670   6.760
  704SOL    HW1 3011   1.380   2.720   6.777
  704SOL    HW2 3012   1.532   2.730   6.716
  705SOL     OW 3013   5.797   4.830   2.919
  705SOL    HW1 3014   5.849   4.838   2.834
  705SOL    HW2 3015   5.853   4.784   2.988
  706SOL     OW 3016   4.180   1.795   5.355
  706SOL    HW1 3017   4.090   1.774   5.394
  706SOL    HW2 3018   4.197   1.735   5.277
  707SOL     OW 3019   4.334   4.886   3.194
  707SOL    HW1 3020   4.354   4.966   3.252
  707SOL    HW2 3021   4.237   4.886   3.170
  708SOL     OW 3022   2.997   0.560   2.612
  708SOL    HW1 3023   2.921   0.507   2.574
  708SOL    HW2 3024   2.983   0.657   2.593
  709SOL     OW 3025   0.384   6.042   0.578
  709SOL    HW1 3026   0.311   6.001   0.632
  709SOL    HW2 3027   0.473   6.013   0.615
  710SOL     OW 3028   3.591   2.361   1.299
  710SOL    HW1 3029   3.622   2.424   1.370
  710SOL    HW2 3030   3.502   2.390   1.264
  711SOL     OW 3031   0.070   3.195   5.743
  711SOL    HW1 3032   0.162   3.209   5.706
  711SOL    HW2 3033   0.076   3.141   5.827
  712SOL     OW 3034   4.382   2.071   1.143
  712SOL    HW1 3035   4.384   1.974   1.170
  712SOL    HW2 3036   4.387   2.127   1.226
  713SOL     OW 3037   4.070   3.086   6.288
  713SOL    HW1 3038   4.032   2.994   6.286
  713SOL    HW2 3039   4.005   3.149   6.331
  714SOL     OW 3040   0.464   5.029   3.677
  714SOL    HW1 3041   0.441   4.942   3.634
  714SOL    HW2 3042   0.553   5.060   3.645
  715SOL     OW 3043   5.071   6.315   6.726
  715SOL    HW1 3044   5.062   6.229   6.778
  715SOL    HW2 3045   4.990   6.328   6.670
  716SOL     OW 3046   0.488   1.025   2.194
  716SOL    HW1 3047   0.574   1.032   2.143
  716SOL    HW2 3048   0.416   0.992   2.133
  717SOL     OW 3049   6.473   4.904   3.716
  717SOL    HW1 3050   6.415   4.942   3.788
  717SOL    HW2 3051   6.417   4.886   3.635
  718SOL     OW 3052   4.497   3.652   5.792
  718SOL    HW1 3053   4.410   3.655   5.743
  718SOL    HW2 3054   4.572   3.653   5.726
  719SOL     OW 3055   6.409   0.065   2.881
  719SOL    HW1 3056   6.475   0.137   2.904
  719SOL    HW2 3057   6.337   0.063   2.949
  720SOL     OW 3058   2.326   0.054   6.073
  720SOL    HW1 3059   2.411   0.055   6.021
  720SOL    HW2 3060   2.252   0.088   6.015
  721SOL     OW 3061   2.542   1.508   2.233
  721SOL    HW1 3062   2.545   1.500   2.333
  721SOL    HW2 3063   2.503   1.596   2.208
  722SOL     OW 3064   2.634   0.774   5.350
  722SOL    HW1 3065   2.556   0.833   5.371
  722SOL    HW2 3066   2.620   0.731   5.261
  723SOL     OW 3067   1.721   4.571   3.333
  723SOL    HW1 3068   1.702   4.494   3.395
  723SOL    HW2 3069   1.710   4.657   3.383
  724SOL     OW 3070   0.708   1.387   3.932
  724SOL    HW1 3071   0.800   1.350   3.945
  724SOL    HW2 3072   0.714   1.473   3.882
  725SOL     OW 3073   1.075   5.229   2.140
  725SOL    HW1 3074   1.133   5.148   2.132
  725SOL    HW2 3075   1.085   5.269   2.231
  726SOL     OW 3076   3.337   4.801   1.506
  726SOL    HW1 3077   3.284   4.851   1.575
  726SOL    HW2 3078   3.277   4.740   1.455
  727SOL     OW 3079   6.392   4.702   5.905
  727SOL    HW1 3080   6.308   4.700   5.851
  727SOL    HW2 3081   6.461   4.645   5.861
  728SOL     OW 3082   6.108   2.827   3.562
  728SOL    HW1 3083   6.033   2.768   3.593
  728SOL    HW2 3084   6.074   2.919   3.545
  729SOL     OW 3085   0.377   1.757   1.047
  729SOL    HW1 3086   0.470   1.781   1.019
  729SOL    HW2 3087   0.376   1.735   1.145
  730SOL     OW 3088   6.586   0.076   4.199
  730SOL    HW1 3089   6.648   0.114   4.131
  730SOL    HW2 3090   6.636   0.016   4.261
  731SOL     OW 3091   4.264   5.536   6.519
  731SOL    HW1 3092   4.212   5.513   6.437
  731SOL    HW2 3093   4.250   5.465   6.588
  732SOL     OW 3094   5.892   2.577   1.611
  732SOL    HW1 3095   5.921   2.665   1.574
  732SOL    HW2 3096   5.881   2.585   1.710
  733SOL     OW 3097   5.648   0.476   4.363
  733SOL    HW1 3098   5.663   0.474   4.264
  733SOL    HW2 3099   5.584   0.404   4.388
  734SOL     OW 3100   5.955   4.689   3.079
  734SOL    HW1 3101   6.038   4.667   3.029
  734SOL    HW2 3102   5.911   4.605   3.110
  735SOL     OW 3103   4.184   1.700   0.805
  735SOL    HW1 3104   4.281   1.722   0.820
  735SOL    HW2 3105   4.176   1.637   0.728
  736SOL     OW 3106   0.757   1.764   3.496
  736SOL    HW1 3107   0.768   1.772   3.397
  736SOL    HW2 3108   0.835   1.714   3.533
  737SOL     OW 3109   5.164   2.284   5.785
  737SOL    HW1 3110   5.194   2.344   5.711
  737SOL    HW2 3111   5.186   2.326   5.873
  738SOL     OW 3112   2.900   3.782   1.506
  738SOL    HW1 3113   2.812   3.771   1.551
  738SOL    HW2 3114   2.904   3.871   1.461
  739SOL     OW 3115   5.146   0.779   4.653
  739SOL    HW1 3116   5.095   0.779   4.739
  739SOL    HW2 3117   5.171   0.685   4.629
  740SOL     OW 3118   5.552   1.214   2.224
  740SOL    HW1 3119   5.586   1.242   2.314
  740SOL    HW2 3120   5.626   1.173   2.171
  741SOL     OW 3121   1.727   0.420   3.270
  741SOL    HW1 3122   1.735   0.435   3.368
  741SOL    HW2 3123   1.773   0.493   3.220
  742SOL     OW 3124   2.235   0.146   2.068
  742SOL    HW1 3125   2.262   0.057   2.031
  742SOL    HW2 3126   2.143   0.168   2.036
  743SOL     OW 3127   0.745   5.295   2.957
  743SOL    HW1 3128   0.675   5.281   3.028
  743SOL    HW2 3129   0.794   5.380   2.975
  744SOL     OW 3130   5.714   0.525   1.149
  744SOL    HW1 3131   5.786   0.464   1.184
  744SOL    HW2 3132   5.657   0.557   1.225
  745SOL     OW 3133   1.644   5.813   5.088
  745SOL    HW1 3134   1.725   5.838   5.142
  745SOL    HW2 3135   1.612   5.723   5.116
  746SOL     OW 3136   6.285   4.042   5.906
  746SOL    HW1 3137   6.282   3.942   5.906
  746SOL    HW2 3138   6.224   4.077   5.977
  747SOL     OW 3139   3.854   6.226   4.775
  747SOL    HW1 3140   3.813   6.171   4.702
  747SOL    HW2 3141   3.892   6.310   4.735
  748SOL     OW 3142   4.069   5.463   2.810
  748SOL    HW1 3143   4.162   5.431   2.829
  748SOL    HW2 3144   4.006   5.425   2.877
  749SOL     OW 3145   6.458   4.185   4.315
  749SOL    HW1 3146   6.435   4.147   4.404
  749SOL    HW2 3147   6.444   4.284   4.316
  750SOL     OW 3148   3.027   1.045   1.425
  750SOL    HW1 3149   3.096   0.972   1.432
  750SOL    HW2 3150   2.976   1.050   1.511
  751SOL     OW 3151   4.511   1.546   6.809
  751SOL    HW1 3152   4.605   1.533   6.777
  751SOL    HW2 3153   4.462   1.606   6.745
  752SOL     OW 3154   2.630   2.717   0.894
  752SOL    HW1 3155   2.607   2.751   0.985
  752SOL    HW2 3156   2.625   2.791   0.828
  753SOL     OW 3157   1.028   3.501   6.285
  753SOL    HW1 3158   0.968   3.453   6.221
  753SOL    HW2 3159   1.008   3.472   6.378
  754SOL     OW 3160   4.855   1.159   6.176
  754SOL    HW1 3161   4.806   1.110   6.247
  754SOL    HW2 3162   4.941   1.195   6.213
  755SOL     OW 3163   1.559   4.596   5.373
  755SOL    HW1 3164   1.586   4.692   5.360
  755SOL    HW2 3165   1.639   4.537   5.360
  756SOL     OW 3166   2.650   5.925   7.010
  756SOL    HW1 3167   2.599   5.991   6.954
  756SOL    HW2 3168   2.597   5.902   0.064
  757SOL     OW 3169   0.263   6.377   4.420
  757SOL    HW1 3170   0.351   6.425   4.420
  757SOL    HW2 3171   0.253   6.326   4.335
  758SOL     OW 3172   4.107   0.559   3.602
  758SOL    HW1 3173   4.134   0.588   3.694
  758SOL    HW2 3174   4.022   0.507   3.607
  759SOL     OW 3175   0.763   2.863   2.115
  759SOL    HW1 3176   0.785   2.799   2.041
  759SOL    HW2 3177   0.844   2.876   2.172
  760SOL     OW 3178   6.458   0.130   3.397
  760SOL    HW1 3179   6.435   0.068   3.472
  760SOL    HW2 3180   6.505   0.079   3.325
  761SOL     OW 3181   5.351   4.080   6.450
  761SOL    HW1 3182   5.450   4.081   6.463
  761SOL    HW2 3183   5.310   4.010   6.507
  762SOL     OW 3184   3.039   0.150   5.411
  762SOL    HW1 3185   3.069   0.140   5.506
  762SOL    HW2 3186   3.097   0.216   5.365
  763SOL     OW 3187   4.002   5.712   6.240
  763SOL    HW1 3188   3.913   5.682   6.275
  763SOL    HW2 3189   4.029   5.796   6.286
  764SOL     OW 3190   5.484   0.879   5.612
  764SOL    HW1 3191   5.393   0.873   5.654
  764SOL    HW2 3192   5.552   0.846   5.677
  765SOL     OW 3193   1.478   5.584   0.903
  765SOL    HW1 3194   1.406   5.549   0.962
  765SOL    HW2 3195   1.496   5.518   0.829
  766SOL     OW 3196   2.699   2.134   5.565
  766SOL    HW1 3197   2.639   2.181   5.501
  766SOL    HW2 3198   2.795   2.151   5.541
  767SOL     OW 3199   6.378   6.236   3.238
  767SOL    HW1 3200   6.425   6.324   3.229
  767SOL    HW2 3201   6.334   6.213   3.152
  768SOL     OW 3202   1.842   5.178   2.838
  768SOL    HW1 3203   1.895   5.205   2.918
  768SOL    HW2 3204   1.855   5.080   2.821
  769SOL     OW 3205   2.569   1.179   5.166
  769SOL    HW1 3206   2.547   1.149   5.259
  769SOL    HW2 3207   2.574   1.279   5.164
  770SOL     OW 3208   1.561   5.563   3.972
  770SOL    HW1 3209   1.621   5.496   4.017
  770SOL    HW2 3210   1.511   5.615   4.041
  771SOL     OW 3211   1.058   5.067   2.954
  771SOL    HW1 3212   1.115   5.134   3.001
  771SOL    HW2 3213   1.109   4.982   2.943
  772SOL     OW 3214   5.603   4.568   6.753
  772SOL    HW1 3215   5.521   4.625   6.748
  772SOL    HW2 3216   5.580   4.475   6.724
  773SOL     OW 3217   0.323   4.326   3.462
  773SOL    HW1 3218   0.344   4.229   3.449
  773SOL    HW2 3219   0.404   4.381   3.439
  774SOL     OW 3220   1.754   1.213   1.592
  774SOL    HW1 3221   1.712   1.136   1.639
  774SOL    HW2 3222   1.796   1.181   1.507
  775SOL     OW 3223   2.033   2.321   3.859
  775SOL    HW1 3224   2.016   2.293   3.765
  775SOL    HW2 3225   1.947   2.343   3.904
  776SOL     OW 3226   0.288   0.007   6.394
  776SOL    HW1 3227   0.223   0.047   6.459
  776SOL    HW2 3228   0.247   0.005   6.302
  777SOL     OW 3229   2.085   4.528   1.047
  777SOL    HW1 3230   2.177   4.518   1.083
  777SOL    HW2 3231   2.068   4.459   0.977
  778SOL     OW 3232   2.114   0.530   1.530
  778SOL    HW1 3233   2.030   0.499   1.486
  778SOL    HW2 3234   2.129   0.627   1.510
  779SOL     OW 3235   6.954   2.347   2.466
  779SOL    HW1 3236   6.991   2.275   2.408
  779SOL    HW2 3237   6.921   2.308   2.552
  780SOL     OW 3238   0.825   2.908   4.495
  780SOL    HW1 3239   0.827   2.870   4.403
  780SOL    HW2 3240   0.861   2.840   4.560
  781SOL     OW 3241   5.514   6.404   0.852
  781SOL    HW1 3242   5.466   6.450   0.927
  781SOL    HW2 3243   5.503   6.455   0.767
  782SOL     OW 3244   1.529   3.366   6.309
  782SOL    HW1 3245   1.466   3.376   6.232
  782SOL    HW2 3246   1.485   3.399   6.393
  783SOL     OW 3247   5.128   4.910   1.959
  783SOL    HW1 3248   5.165   5.000   1.937
  783SOL    HW2 3249   5.126   4.853   1.877
  784SOL     OW 3250   4.174   4.768   0.919
  784SOL    HW1 3251   4.152   4.673   0.899
  784SOL    HW2 3252   4.168   4.822   0.835
  785SOL     OW 3253   0.495   1.839   3.550
  785SOL    HW1 3254   0.591   1.817   3.532
  785SOL    HW2 3255   0.436   1.772   3.504
  786SOL     OW 3256   0.423   0.177   2.485
  786SOL    HW1 3257   0.380   0.092   2.515
  786SOL    HW2 3258   0.463   0.164   2.394
  787SOL     OW 3259   1.374   1.429   6.572
  787SOL    HW1 3260   1.389   1.527   6.558
  787SOL    HW2 3261   1.452   1.390   6.622
  788SOL     OW 3262   4.276   1.633   1.067
  788SOL    HW1 3263   4.280   1.535   1.087
  788SOL    HW2 3264   4.235   1.646   0.976
  789SOL     OW 3265   4.492   4.527   1.815
  789SOL    HW1 3266   4.471   4.431   1.801
  789SOL    HW2 3267   4.566   4.535   1.882
  790SOL     OW 3268   2.492   1.707   2.933
  790SOL    HW1 3269   2.539   1.669   3.013
  790SOL    HW2 3270   2.559   1.730   2.863
  791SOL     OW 3271   1.557   6.686   4.616
  791SOL    HW1 3272   1.457   6.691   4.609
  791SOL    HW2 3273   1.583   6.593   4.641
  792SOL     OW 3274   0.903   1.006   2.042
  792SOL    HW1 3275   0.880   1.046   2.131
  792SOL    HW2 3276   0.835   1.034   1.974
  793SOL     OW 3277   5.129   5.500   4.370
  793SOL    HW1 3278   5.113   5.598   4.360
  793SOL    HW2 3279   5.046   5.449   4.347
  794SOL     OW 3280   2.888   3.958   5.847
  794SOL    HW1 3281   2.793   3.968   5.877
  794SOL    HW2 3282   2.947   4.017   5.903
  795SOL     OW 3283   4.064   0.245   5.377
  795SOL    HW1 3284   4.126   0.249   5.455
  795SOL    HW2 3285   4.103   0.187   5.306
  796SOL     OW 3286   1.078   2.585   6.815
  796SOL    HW1 3287   1.152   2.544   6.869
  796SOL    HW2 3288   1.038   2.516   6.756
  797SOL     OW 3289   4.819   0.399   0.869
  797SOL    HW1 3290   4.790   0.337   0.797
  797SOL    HW2 3291   4.790   0.364   0.958
  798SOL     OW 3292   3.667   6.699   2.260
  798SOL    HW1 3293   3.702   6.766   2.194
  798SOL    HW2 3294   3.619   6.747   2.333
  799SOL     OW 3295   0.295   6.775   6.440
  799SOL    HW1 3296   0.275   6.775   6.538
  799SOL    HW2 3297   0.309   6.870   6.409
  800SOL     OW 3298   6.152   0.722   2.560
  800SOL    HW1 3299   6.179   0.706   2.465
  800SOL    HW2 3300   6.070   0.668   2.581
  801SOL     OW 3301   2.049   4.602   4.942
  801SOL    HW1 3302   2.123   4.603   5.009
  801SOL    HW2 3303   1.966   4.638   4.984
  802SOL     OW 3304   2.975   2.814   0.515
  802SOL    HW1 3305   3.029   2.804   0.599
  802SOL    HW2 3306   2.888   2.766   0.526
  803SOL     OW 3307   1.563   0.492   6.045
  803SOL    HW1 3308   1.492   0.447   6.099
  803SOL    HW2 3309   1.644   0.506   6.102
  804SOL     OW 3310   5.994   6.550   0.948
  804SOL    HW1 3311   6.006   6.452   0.966
  804SOL    HW2 3312   6.063   6.581   0.883
  805SOL     OW 3313   1.966   1.154   4.642
  805SOL    HW1 3314   2.057   1.144   4.603
  805SOL    HW2 3315   1.959   1.099   4.726
  806SOL     OW 3316   5.338   0.340   5.295
  806SOL    HW1 3317   5.375   0.396   5.369
  806SOL    HW2 3318   5.390   0.255   5.287
  807SOL     OW 3319   0.271   0.651   4.983
  807SOL    HW1 3320   0.201   0.678   5.049
  807SOL    HW2 3321   0.250   0.690   4.893
  808SOL     OW 3322   4.529   3.901   6.856
  808SOL    HW1 3323   4.475   3.847   6.921
  808SOL    HW2 3324   4.547   3.847   6.774
  809SOL     OW 3325   0.445   4.989   0.836
  809SOL    HW1 3326   0.469   4.901   0.797
  809SOL    HW2 3327   0.416   5.051   0.764
  810SOL     OW 3328   3.294   4.436   0.551
  810SOL    HW1 3329   3.223   4.463   0.616
  810SOL    HW2 3330   3.320   4.515   0.496
  811SOL     OW 3331   5.422   5.817   4.623
  811SOL    HW1 3332   5.394   5.755   4.696
  811SOL    HW2 3333   5.364   5.899   4.625
  812SOL     OW 3334   7.003   1.200   2.765
  812SOL    HW1 3335   6.999   1.100   2.760
  812SOL    HW2 3336   7.013   1.227   2.861
  813SOL     OW 3337   3.976   7.026   4.426
  813SOL    HW1 3338   3.974   0.078   4.486
  813SOL    HW2 3339   3.891   7.021   4.373
  814SOL     OW 3340   6.463   5.633   2.354
  814SOL    HW1 3341   6.562   5.641   2.363
  814SOL    HW2 3342   6.441   5.595   2.264
  815SOL     OW 3343   6.584   3.074   3.380
  815SOL    HW1 3344   6.626   3.080   3.289
  815SOL    HW2 3345   6.644   3.118   3.447
  816SOL     OW 3346   5.670   5.397   0.593
  816SOL    HW1 3347   5.621   5.358   0.670
  816SOL    HW2 3348   5.618   5.383   0.509
  817SOL     OW 3349   0.921   5.290   1.353
  817SOL    HW1 3350   0.948   5.382   1.381
  817SOL    HW2 3351   0.943   5.225   1.426
  818SOL     OW 3352   6.146   3.233   3.677
  818SOL    HW1 3353   6.071   3.169   3.691
  818SOL    HW2 3354   6.189   3.216   3.589
  819SOL     OW 3355   6.431   3.285   1.451
  819SOL    HW1 3356   6.331   3.276   1.447
  819SOL    HW2 3357   6.467   3.221   1.520
  820SOL     OW 3358   2.466   2.240   5.134
  820SOL    HW1 3359   2.529   2.318   5.136
  820SOL    HW2 3360   2.518   2.155   5.135
  821SOL     OW 3361   6.494   4.742   6.576
  821SOL    HW1 3362   6.396   4.744   6.557
  821SOL    HW2 3363   6.529   4.650   6.561
  822SOL     OW 3364   0.339   3.105   3.452
  822SOL    HW1 3365   0.240   3.096   3.448
  822SOL    HW2 3366   0.368   3.112   3.547
  823SOL     OW 3367   6.636   4.484   6.063
  823SOL    HW1 3368   6.696   4.519   6.134
  823SOL    HW2 3369   6.683   4.486   5.975
  824SOL     OW 3370   4.121   1.003   6.197
  824SOL    HW1 3371   4.104   0.921   6.143
  824SOL    HW2 3372   4.154   0.977   6.288
  825SOL     OW 3373   6.767   5.613   1.167
  825SOL    HW1 3374   6.711   5.672   1.111
  825SOL    HW2 3375   6.823   5.669   1.229
  826SOL     OW 3376   4.205   2.363   5.586
  826SOL    HW1 3377   4.189   2.269   5.616
  826SOL    HW2 3378   4.204   2.424   5.665
  827SOL     OW 3379   2.253   4.484   5.124
  827SOL    HW1 3380   2.294   4.400   5.156
  827SOL    HW2 3381   2.247   4.550   5.199
  828SOL     OW 3382   5.381   6.782   6.741
  828SOL    HW1 3383   5.310   6.776   6.812
  828SOL    HW2 3384   5.392   6.878   6.714
  829SOL     OW 3385   3.970   3.640   2.022
  829SOL    HW1 3386   3.871   3.624   2.027
  829SOL    HW2 3387   4.015   3.587   2.094
  830SOL     OW 3388   5.455   4.746   6.286
  830SOL    HW1 3389   5.509   4.825   6.316
  830SOL    HW2 3390   5.439   4.685   6.363
  831SOL     OW 3391   5.784   6.802   0.255
  831SOL    HW1 3392   5.818   6.813   0.162
  831SOL    HW2 3393   5.834   6.729   0.301
  832SOL     OW 3394   4.216   2.047   3.732
  832SOL    HW1 3395   4.315   2.045   3.745
  832SOL    HW2 3396   4.180   1.953   3.729
  833SOL     OW 3397   1.915   3.907   6.441
  833SOL    HW1 3398   1.977   3.852   6.497
  833SOL    HW2 3399   1.857   3.846   6.386
  834SOL     OW 3400   5.064   3.514   1.144
  834SOL    HW1 3401   5.159   3.514   1.113
  834SOL    HW2 3402   5.036   3.420   1.165
  835SOL     OW 3403   3.245   6.964   5.277
  835SOL    HW1 3404   3.317   6.899   5.252
  835SOL    HW2 3405   3.181   6.920   5.340
  836SOL     OW 3406   3.921   6.925   4.733
  836SOL    HW1 3407   3.933   7.002   4.796
  836SOL    HW2 3408   3.826   6.893   4.739
  837SOL     OW 3409   6.906   0.693   1.285
  837SOL    HW1 3410   6.867   0.766   1.341
  837SOL    HW2 3411   6.984   0.653   1.332
  838SOL     OW 3412   2.390   6.731   4.304
  838SOL    HW1 3413   2.443   6.748   4.221
  838SOL    HW2 3414   2.351   6.817   4.337
  839SOL     OW 3415   2.071   1.162   1.892
  839SOL    HW1 3416   2.151   1.202   1.848
  839SOL    HW2 3417   2.083   1.063   1.897
  840SOL     OW 3418   6.215   5.935   6.943
  840SOL    HW1 3419   6.122   5.915   6.974
  840SOL    HW2 3420   6.230   5.892   6.854
  841SOL     OW 3421   3.396   5.205   6.197
  841SOL    HW1 3422   3.422   5.113   6.168
  841SOL    HW2 3423   3.476   5.252   6.235
  842SOL     OW 3424   3.799   0.301   5.390
  842SOL    HW1 3425   3.754   0.388   5.369
  842SOL    HW2 3426   3.885   0.295   5.340
  843SOL     OW 3427   1.144   1.944   1.663
  843SOL    HW1 3428   1.206   1.895   1.602
  843SOL    HW2 3429   1.183   1.946   1.755
  844SOL     OW 3430   6.642   0.123   0.309
  844SOL    HW1 3431   6.629   0.220   0.287
  844SOL    HW2 3432   6.562   0.089   0.358
  845SOL     OW 3433   5.034   4.112   3.730
  845SOL    HW1 3434   5.026   4.013   3.719
  845SOL    HW2 3435   5.074   4.132   3.819
  846SOL     OW 3436   2.177   1.029   5.963
  846SOL    HW1 3437   2.270   1.033   5.926
  846SOL    HW2 3438   2.175   1.073   6.053
  847SOL     OW 3439   1.120   3.463   1.147
  847SOL    HW1 3440   1.163   3.538   1.096
  847SOL    HW2 3441   1.036   3.436   1.101
  848SOL     OW 3442   6.684   0.020   6.033
  848SOL    HW1 3443   6.687   0.017   5.934
  848SOL    HW2 3444   6.762   6.998   6.071
  849SOL     OW 3445   5.937   4.290   6.537
  849SOL    HW1 3446   6.034   4.310   6.529
  849SOL    HW2 3447   5.919   4.252   6.628
  850SOL     OW 3448   5.874   1.021   4.661
  850SOL    HW1 3449   5.778   1.000   4.644
  850SOL    HW2 3450   5.902   0.983   4.749
  851SOL     OW 3451   7.009   2.680   0.930
  851SOL    HW1 3452   6.992   2.755   0.867
  851SOL    HW2 3453   0.049   2.617   0.890
  852SOL     OW 3454   0.708   4.385   0.615
  852SOL    HW1 3455   0.783   4.451   0.617
  852SOL    HW2 3456   0.719   4.319   0.689
  853SOL     OW 3457   0.926   4.554   0.618
  853SOL    HW1 3458   1.022   4.536   0.639
  853SOL    HW2 3459   0.907   4.651   0.634
  854SOL     OW 3460   5.175   5.940   1.036
  854SOL    HW1 3461   5.142   5.969   0.946
  854SOL    HW2 3462   5.160   5.841   1.046
  855SOL     OW 3463   6.620   6.721   1.080
  855SOL    HW1 3464   6.574   6.685   1.161
  855SOL    HW2 3465   6.695   6.660   1.054
  856SOL     OW 3466   1.337   1.720   6.542
  856SOL    HW1 3467   1.375   1.805   6.577
  856SOL    HW2 3468   1.250   1.701   6.588
  857SOL     OW 3469   6.121   5.223   2.061
  857SOL    HW1 3470   6.076   5.135   2.044
  857SOL    HW2 3471   6.066   5.297   2.024
  858SOL     OW 3472   3.006   3.980   1.310
  858SOL    HW1 3473   2.998   3.906   1.243
  858SOL    HW2 3474   3.079   4.042   1.283
  859SOL     OW 3475   5.727   6.861   5.104
  859SOL    HW1 3476   5.806   6.897   5.153
  859SOL    HW2 3477   5.644   6.906   5.137
  860SOL     OW 3478   6.392   2.848   6.889
  860SOL    HW1 3479   6.325   2.832   6.817
  860SOL    HW2 3480   6.349   2.897   6.965
  861SOL     OW 3481   2.432   4.970   3.824
  861SOL    HW1 3482   2.494   4.977   3.902
  861SOL    HW2 3483   2.451   5.044   3.759
  862SOL     OW 3484   1.514   4.110   3.123
  862SOL    HW1 3485   1.518   4.022   3.077
  862SOL    HW2 3486   1.588   4.116   3.191
  863SOL     OW 3487   5.749   0.724   6.727
  863SOL    HW1 3488   5.691   0.772   6.794
  863SOL    HW2 3489   5.765   0.630   6.759
  864SOL     OW 3490   3.548   5.853   3.942
  864SOL    HW1 3491   3.474   5.914   3.912
  864SOL    HW2 3492   3.583   5.884   4.030
  865SOL     OW 3493   1.672   0.133   6.065
  865SOL    HW1 3494   1.635   0.096   5.980
  865SOL    HW2 3495   1.765   0.167   6.049
  866SOL     OW 3496   2.704   1.075   0.593
  866SOL    HW1 3497   2.736   1.156   0.643
  866SOL    HW2 3498   2.629   1.100   0.532
  867SOL     OW 3499   5.149   3.803   0.234
  867SOL    HW1 3500   5.213   3.822   0.159
  867SOL    HW2 3501   5.199   3.761   0.310
  868SOL     OW 3502   6.447   0.874   1.547
  868SOL    HW1 3503   6.492   0.935   1.482
  868SOL    HW2 3504   6.352   0.861   1.520
  869SOL     OW 3505   0.194   4.346   2.768
  869SOL    HW1 3506   0.271   4.387   2.817
  869SOL    HW2 3507   0.218   4.333   2.672
  870SOL     OW 3508   4.009   3.833   0.945
  870SOL    HW1 3509   3.912   3.858   0.933
  870SOL    HW2 3510   4.020   3.735   0.931
  871SOL     OW 3511   5.157   2.389   3.222
  871SOL    HW1 3512   5.256   2.396   3.218
  871SOL    HW2 3513   5.129   2.370   3.316
  872SOL     OW 3514   6.069   3.585   3.993
  872SOL    HW1 3515   6.114   3.661   3.948
  872SOL    HW2 3516   6.038   3.519   3.924
  873SOL     OW 3517   5.294   5.647   5.203
  873SOL    HW1 3518   5.348   5.730   5.196
  873SOL    HW2 3519   5.215   5.662   5.264
  874SOL     OW 3520   6.726   3.831   6.266
  874SOL    HW1 3521   6.741   3.864   6.359
  874SOL    HW2 3522   6.650   3.766   6.265
  875SOL     OW 3523   5.157   5.040   0.583
  875SOL    HW1 3524   5.072   5.071   0.625
  875SOL    HW2 3525   5.175   4.945   0.608
  876SOL     OW 3526   0.063   4.898   2.780
  876SOL    HW1 3527   0.029   4.954   2.856
  876SOL    HW2 3528   0.159   4.919   2.763
  877SOL     OW 3529   3.643   5.005   5.608
  877SOL    HW1 3530   3.612   5.093   5.570
  877SOL    HW2 3531   3.625   4.932   5.542
  878SOL     OW 3532   4.675   6.480   4.830
  878SOL    HW1 3533   4.617   6.450   4.905
  878SOL    HW2 3534   4.633   6.558   4.784
  879SOL     OW 3535   4.401   1.193   1.422
  879SOL    HW1 3536   4.470   1.192   1.494
  879SOL    HW2 3537   4.338   1.269   1.437
  880SOL     OW 3538   3.166   3.995   4.271
  880SOL    HW1 3539   3.076   3.971   4.308
  880SOL    HW2 3540   3.232   4.005   4.345
  881SOL     OW 3541   5.519   3.905   5.341
  881SOL    HW1 3542   5.616   3.896   5.320
  881SOL    HW2 3543   5.496   3.849   5.421
  882SOL     OW 3544   1.256   2.231   3.763
  882SOL    HW1 3545   1.196   2.269   3.833
  882SOL    HW2 3546   1.202   2.202   3.684
  883SOL     OW 3547   3.423   0.486   0.500
  883SOL    HW1 3548   3.513   0.525   0.476
  883SOL    HW2 3549   3.423   0.462   0.597
  884SOL     OW 3550   6.979   4.129   7.019
  884SOL    HW1 3551   7.008   4.117   6.924
  884SOL    HW2 3552   0.031   4.115   0.052
  885SOL     OW 3553   4.584   0.360   4.940
  885SOL    HW1 3554   4.556   0.264   4.952
  885SOL    HW2 3555   4.506   0.419   4.956
  886SOL     OW 3556   3.706   0.527   0.433
  886SOL    HW1 3557   3.707   0.427   0.443
  886SOL    HW2 3558   3.792   0.556   0.391
  887SOL     OW 3559   3.830   6.139   3.921
  887SOL    HW1 3560   3.902   6.105   3.982
  887SOL    HW2 3561   3.872   6.177   3.838
  888SOL     OW 3562   0.039   6.252   3.728
  888SOL    HW1 3563   0.137   6.246   3.746
  888SOL    HW2 3564   0.023   6.248   3.629
  889SOL     OW 3565   6.944   1.084   6.616
  889SOL    HW1 3566   6.915   1.046   6.704
  889SOL    HW2 3567   0.014   1.065   6.603
  890SOL     OW 3568   2.534   4.820   2.664
  890SOL    HW1 3569   2.539   4.721   2.673
  890SOL    HW2 3570   2.530   4.862   2.754
  891SOL     OW 3571   6.609   3.769   0.905
  891SOL    HW1 3572   6.653   3.845   0.952
  891SOL    HW2 3573   6.557   3.804   0.828
  892SOL     OW 3574   3.419   3.573   4.899
  892SOL    HW1 3575   3.358   3.530   4.832
  892SOL    HW2 3576   3.364   3.608   4.976
  893SOL     OW 3577   2.171   6.854   3.166
  893SOL    HW1 3578   2.140   6.819   3.078
  893SOL    HW2 3579   2.260   6.815   3.189
  894SOL     OW 3580   1.322   2.863   2.767
  894SOL    HW1 3581   1.399   2.890   2.710
  894SOL    HW2 3582   1.333   2.901   2.859
  895SOL     OW 3583   1.062   5.512   4.218
  895SOL    HW1 3584   1.150   5.467   4.203
  895SOL    HW2 3585   1.078   5.601   4.261
  896SOL     OW 3586   5.782   5.097   1.582
  896SOL    HW1 3587   5.802   5.154   1.662
  896SOL    HW2 3588   5.821   5.006   1.597
  897SOL     OW 3589   4.294   0.985   6.964
  897SOL    HW1 3590   4.262   0.894   6.990
  897SOL    HW2 3591   4.389   0.979   6.932
  898SOL     OW 3592   4.296   6.613   2.729
  898SOL    HW1 3593   4.358   6.600   2.807
  898SOL    HW2 3594   4.336   6.679   2.666
  899SOL     OW 3595   0.283   6.099   0.146
  899SOL    HW1 3596   0.379   6.126   0.160
  899SOL    HW2 3597   0.266   6.087   0.048
  900SOL     OW 3598   5.170   0.134   0.015
  900SOL    HW1 3599   5.085   0.119   0.064
  900SOL    HW2 3600   5.236   0.180   0.074
  901SOL     OW 3601   1.186   0.915   3.906
  901SOL    HW1 3602   1.252   0.872   3.844
  901SOL    HW2 3603   1.137   0.988   3.858
  902SOL     OW 3604   1.285   2.868   1.549
  902SOL    HW1 3605   1.185   2.872   1.558
  902SOL    HW2 3606   1.318   2.779   1.580
  903SOL     OW 3607   0.710   3.492   6.930
  903SOL    HW1 3608   0.769   3.413   6.914
  903SOL    HW2 3609   0.766   3.571   6.955
  904SOL     OW 3610   2.137   2.685   2.430
  904SOL    HW1 3611   2.126   2.598   2.382
  904SOL    HW2 3612   2.185   2.670   2.517
  905SOL     OW 3613   4.808   3.865   6.558
  905SOL    HW1 3614   4.785   3.899   6.467
  905SOL    HW2 3615   4.728   3.822   6.599
  906SOL     OW 3616   0.476   2.007   6.366
  906SOL    HW1 3617   0.410   2.082   6.379
  906SOL    HW2 3618   0.447   1.951   6.289
  907SOL     OW 3619   4.900   2.487   1.111
  907SOL    HW1 3620   4.864   2.549   1.040
  907SOL    HW2 3621   4.995   2.511   1.131
  908SOL     OW 3622   2.532   4.589   3.327
  908SOL    HW1 3623   2.538   4.559   3.423
  908SOL    HW2 3624   2.496   4.682   3.323
  909SOL     OW 3625   3.961   6.282   2.058
  909SOL    HW1 3626   3.869   6.243   2.049
  909SOL    HW2 3627   3.961   6.350   2.131
  910SOL     OW 3628   3.357   1.741   1.402
  910SOL    HW1 3629   3.273   1.691   1.423
  910SOL    HW2 3630   3.394   1.780   1.487
  911SOL     OW 3631   1.403   6.283   6.712
  911SOL    HW1 3632   1.396   6.231   6.797
  911SOL    HW2 3633   1.494   6.325   6.707
  912SOL     OW 3634   5.664   1.260   3.041
  912SOL    HW1 3635   5.659   1.304   2.951
  912SOL    HW2 3636   5.640   1.164   3.032
  913SOL     OW 3637   2.863   0.822   4.052
  913SOL    HW1 3638   2.763   0.832   4.048
  913SOL    HW2 3639   2.892   0.822   4.148
  914SOL     OW 3640   2.195   6.752   5.474
  914SOL    HW1 3641   2.277   6.807   5.491
  914SOL    HW2 3642   2.115   6.813   5.469
  915SOL     OW 3643   0.117   2.940   0.481
  915SOL    HW1 3644   0.169   2.891   0.551
  915SOL    HW2 3645   0.021   2.913   0.486
  916SOL     OW 3646   1.857   3.217   2.528
  916SOL    HW1 3647   1.871   3.163   2.611
  916SOL    HW2 3648   1.937   3.210   2.469
  917SOL     OW 3649   0.566   6.537   1.791
  917SOL    HW1 3650   0.638   6.594   1.831
  917SOL    HW2 3651   0.508   6.500   1.863
  918SOL     OW 3652   3.686   0.246   0.797
  918SOL    HW1 3653   3.623   0.205   0.862
  918SOL    HW2 3654   3.652   0.336   0.769
  919SOL     OW 3655   6.964   6.409   3.051
  919SOL    HW1 3656   6.977   6.398   3.149
  919SOL    HW2 3657   6.900   6.484   3.034
  920SOL     OW 3658   2.460   4.571   2.451
  920SOL    HW1 3659   2.511   4.599   2.532
  920SOL    HW2 3660   2.518   4.582   2.370
  921SOL     OW 3661   3.702   5.353   3.846
  921SOL    HW1 3662   3.656   5.442   3.835
  921SOL    HW2 3663   3.706   5.329   3.943
  922SOL     OW 3664   3.046   4.034   4.597
  922SOL    HW1 3665   3.001   4.120   4.622
  922SOL    HW2 3666   3.064   3.981   4.679
  923SOL     OW 3667   2.557   3.734   6.048
  923SOL    HW1 3668   2.565   3.643   6.088
  923SOL    HW2 3669   2.460   3.756   6.036
  924SOL     OW 3670   6.332   3.333   2.239
  924SOL    HW1 3671   6.248   3.285   2.264
  924SOL    HW2 3672   6.410   3.291   2.285
  925SOL     OW 3673   0.083   2.210   0.113
  925SOL    HW1 3674   0.032   2.210   0.027
  925SOL    HW2 3675   0.181   2.214   0.094
  926SOL     OW 3676   6.202   0.447   1.149
  926SOL    HW1 3677   6.282   0.503   1.126
  926SOL    HW2 3678   6.189   0.446   1.248
  927SOL     OW 3679   5.689   4.221   3.164
  927SOL    HW1 3680   5.683   4.182   3.256
  927SOL    HW2 3681   5.769   4.184   3.117
  928SOL     OW 3682   1.616   6.333   0.093
  928SOL    HW1 3683   1.651   6.342   7.027
  928SOL    HW2 3684   1.620   6.422   0.139
  929SOL     OW 3685   1.030   0.456   6.682
  929SOL    HW1 3686   0.973   0.450   6.600
  929SOL    HW2 3687   0.995   0.528   6.742
  930SOL     OW 3688   5.228   5.962   5.294
  930SOL    HW1 3689   5.216   5.975   5.196
  930SOL    HW2 3690   5.273   6.042   5.333
  931SOL     OW 3691   6.084   1.420   5.102
  931SOL    HW1 3692   6.115   1.396   5.009
  931SOL    HW2 3693   6.076   1.520   5.109
  932SOL     OW 3694   3.285   0.605   3.419
  932SOL    HW1 3695   3.207   0.668   3.422
  932SOL    HW2 3696   3.262   0.526   3.362
  933SOL     OW 3697   1.943   6.449   3.392
  933SOL    HW1 3698   1.898   6.360   3.404
  933SOL    HW2 3699   1.893   6.503   3.324
  934SOL     OW 3700   2.261   6.414   0.197
  934SOL    HW1 3701   2.296   6.499   0.234
  934SOL    HW2 3702   2.274   6.413   0.098
  935SOL     OW 3703   5.287   4.005   4.590
  935SOL    HW1 3704   5.234   3.927   4.624
  935SOL    HW2 3705   5.240   4.045   4.512
  936SOL     OW 3706   0.159   0.375   6.302
  936SOL    HW1 3707   0.137   0.396   6.398
  936SOL    HW2 3708   0.106   0.295   6.273
  937SOL     OW 3709   5.301   1.813   6.138
  937SOL    HW1 3710   5.333   1.739   6.078
  937SOL    HW2 3711   5.350   1.808   6.225
  938SOL     OW 3712   5.585   4.876   6.632
  938SOL    HW1 3713   5.607   4.934   6.553
  938SOL    HW2 3714   5.610   4.923   6.716
  939SOL     OW 3715   0.252   0.048   4.260
  939SOL    HW1 3716   0.302   0.031   4.175
  939SOL    HW2 3717   0.158   0.076   4.239
  940SOL     OW 3718   0.646   3.977   1.759
  940SOL    HW1 3719   0.744   3.973   1.780
  940SOL    HW2 3720   0.625   4.067   1.722
  941SOL     OW 3721   5.843   1.598   6.709
  941SOL    HW1 3722   5.925   1.592   6.765
  941SOL    HW2 3723   5.762   1.587   6.766
  942SOL     OW 3724   5.527   6.585   2.861
  942SOL    HW1 3725   5.434   6.574   2.825
  942SOL    HW2 3726   5.547   6.682   2.873
  943SOL     OW 3727   1.708   4.030   3.297
  943SOL    HW1 3728   1.799   4.048   3.260
  943SOL    HW2 3729   1.691   3.932   3.300
  944SOL     OW 3730   0.081   4.927   5.655
  944SOL    HW1 3731   0.134   4.967   5.730
  944SOL    HW2 3732   7.023   4.889   5.692
  945SOL     OW 3733   0.548   3.702   6.264
  945SOL    HW1 3734   0.599   3.786   6.286
  945SOL    HW2 3735   0.464   3.699   6.318
  946SOL     OW 3736   4.903   4.390   5.213
  946SOL    HW1 3737   4.905   4.336   5.129
  946SOL    HW2 3738   4.854   4.339   5.284
  947SOL     OW 3739   3.711   2.888   3.622
  947SOL    HW1 3740   3.722   2.888   3.523
  947SOL    HW2 3741   3.790   2.932   3.665
  948SOL     OW 3742   5.118   0.909   2.981
  948SOL    HW1 3743   5.115   0.861   2.893
  948SOL    HW2 3744   5.027   0.943   3.003
  949SOL     OW 3745   1.783   5.930   0.588
  949SOL    HW1 3746   1.855   5.967   0.647
  949SOL    HW2 3747   1.744   5.848   0.630
  950SOL     OW 3748   4.984   5.872   2.343
  950SOL    HW1 3749   5.064   5.897   2.289
  950SOL    HW2 3750   4.906   5.929   2.316
  951SOL     OW 3751   1.335   0.718   3.753
  951SOL    HW1 3752   1.353   0.632   3.800
  951SOL    HW2 3753   1.252   0.710   3.699
  952SOL     OW 3754   4.148   2.262   3.560
  952SOL    HW1 3755   4.218   2.196   3.587
  952SOL    HW2 3756   4.062   2.239   3.606
  953SOL     OW 3757   5.601   5.488   4.293
  953SOL    HW1 3758   5.658   5.526   4.366
  953SOL    HW2 3759   5.509   5.469   4.328
  954SOL     OW 3760   4.205   5.600   1.737
  954SOL    HW1 3761   4.280   5.646   1.784
  954SOL    HW2 3762   4.170   5.658   1.664
  955SOL     OW 3763   0.252   3.681   1.589
  955SOL    HW1 3764   0.305   3.751   1.541
  955SOL    HW2 3765   0.296   3.661   1.677
  956SOL     OW 3766   6.290   0.542   1.930
  956SOL    HW1 3767   6.278   0.464   1.868
  956SOL    HW2 3768   6.318   0.510   2.020
  957SOL     OW 3769   5.893   2.905   3.362
  957SOL    HW1 3770   5.973   2.964   3.350
  957SOL    HW2 3771   5.812   2.953   3.330
  958SOL     OW 3772   4.168   0.912   1.557
  958SOL    HW1 3773   4.133   0.998   1.520
  958SOL    HW2 3774   4.252   0.929   1.609
  959SOL     OW 3775   3.352   6.275   4.631
  959SOL    HW1 3776   3.395   6.301   4.717
  959SOL    HW2 3777   3.410   6.304   4.555
  960SOL     OW 3778   0.461   0.619   2.392
  960SOL    HW1 3779   0.460   0.714   2.422
  960SOL    HW2 3780   0.534   0.605   2.325
  961SOL     OW 3781   4.142   6.485   3.436
  961SOL    HW1 3782   4.105   6.556   3.376
  961SOL    HW2 3783   4.133   6.396   3.392
  962SOL     OW 3784   0.209   1.293   5.147
  962SOL    HW1 3785   0.301   1.253   5.148
  962SOL    HW2 3786   0.152   1.245   5.080
  963SOL     OW 3787   5.180   1.271   6.013
  963SOL    HW1 3788   5.232   1.332   6.073
  963SOL    HW2 3789   5.100   1.319   5.979
  964SOL     OW 3790   5.453   5.099   0.113
  964SOL    HW1 3791   5.389   5.109   0.189
  964SOL    HW2 3792   5.411   5.041   0.043
  965SOL     OW 3793   5.621   1.667   1.938
  965SOL    HW1 3794   5.606   1.570   1.955
  965SOL    HW2 3795   5.662   1.679   1.847
  966SOL     OW 3796   5.849   3.139   2.160
  966SOL    HW1 3797   5.902   3.222   2.177
  966SOL    HW2 3798   5.881   3.097   2.075
  967SOL     OW 3799   2.770   4.074   1.392
  967SOL    HW1 3800   2.861   4.037   1.374
  967SOL    HW2 3801   2.723   4.092   1.306
  968SOL     OW 3802   3.878   0.751   2.246
  968SOL    HW1 3803   3.959   0.808   2.239
  968SOL    HW2 3804   3.807   0.800   2.298
  969SOL     OW 3805   2.648   4.592   5.545
  969SOL    HW1 3806   2.600   4.541   5.617
  969SOL    HW2 3807   2.670   4.530   5.470
  970SOL     OW 3808   5.502   0.925   6.608
  970SOL    HW1 3809   5.516   0.865   6.686
  970SOL    HW2 3810   5.524   0.876   6.524
  971SOL     OW 3811   0.433   2.629   2.013
  971SOL    HW1 3812   0.481   2.676   2.087
  971SOL    HW2 3813   0.345   2.674   1.996
  972SOL     OW 3814   5.860   1.824   1.408
  972SOL    HW1 3815   5.889   1.781   1.323
  972SOL    HW2 3816   5.835   1.919   1.390
  973SOL     OW 3817   0.850   5.292   6.603
  973SOL    HW1 3818   0.820   5.253   6.515
  973SOL    HW2 3819   0.773   5.292   6.667
  974SOL     OW 3820   5.544   6.540   2.299
  974SOL    HW1 3821   5.517   6.444   2.306
  974SOL    HW2 3822   5.644   6.546   2.297
  975SOL     OW 3823   1.792   0.465   6.718
  975SOL    HW1 3824   1.853   0.539   6.746
  975SOL    HW2 3825   1.697   0.494   6.730
  976SOL     OW 3826   7.007   3.861   1.655
  976SOL    HW1 3827   0.063   3.806   1.658
  976SOL    HW2 3828   7.021   3.939   1.593
  977SOL     OW 3829   0.615   0.477   1.937
  977SOL    HW1 3830   0.590   0.478   2.034
  977SOL    HW2 3831   0.667   0.559   1.915
  978SOL     OW 3832   5.520   2.761   6.236
  978SOL    HW1 3833   5.422   2.780   6.225
  978SOL    HW2 3834   5.543   2.677   6.187
  979SOL     OW 3835   0.762   2.609   6.946
  979SOL    HW1 3836   0.784   2.629   0.014
  979SOL    HW2 3837   0.765   2.693   6.892
  980SOL     OW 3838   5.335   2.137   3.696
  980SOL    HW1 3839   5.352   2.132   3.598
  980SOL    HW2 3840   5.287   2.054   3.725
  981SOL     OW 3841   0.100   1.923   4.992
  981SOL    HW1 3842   0.080   2.020   5.009
  981SOL    HW2 3843   0.092   1.904   4.895
  982SOL     OW 3844   1.049   1.379   4.536
  982SOL    HW1 3845   1.068   1.353   4.631
  982SOL    HW2 3846   1.135   1.382   4.484
  983SOL     OW 3847   6.237   2.651   3.309
  983SOL    HW1 3848   6.233   2.738   3.359
  983SOL    HW2 3849   6.287   2.584   3.364
  984SOL     OW 3850   2.682   2.147   4.618
  984SOL    HW1 3851   2.620   2.160   4.542
  984SOL    HW2 3852   2.697   2.234   4.666
  985SOL     OW 3853   6.546   3.086   5.062
  985SOL    HW1 3854   6.493   3.018   5.113
  985SOL    HW2 3855   6.614   3.127   5.123
  986SOL     OW 3856   4.922   4.685   0.710
  986SOL    HW1 3857   4.957   4.672   0.617
  986SOL    HW2 3858   4.999   4.686   0.775
  987SOL     OW 3859   4.827   6.755   2.667
  987SOL    HW1 3860   4.789   6.799   2.586
  987SOL    HW2 3861   4.828   6.820   2.743
  988SOL     OW 3862   3.426   3.927   1.850
  988SOL    HW1 3863   3.524   3.921   1.869
  988SOL    HW2 3864   3.374   3.914   1.935
  989SOL     OW 3865   6.592   2.195   6.962
  989SOL    HW1 3866   6.551   2.281   6.994
  989SOL    HW2 3867   6.691   2.206   6.956
  990SOL     OW 3868   3.536   1.072   2.212
  990SOL    HW1 3869   3.490   1.123   2.140
  990SOL    HW2 3870   3.562   0.982   2.178
  991SOL     OW 3871   0.762   3.570   4.278
  991SOL    HW1 3872   0.686   3.632   4.261
  991SOL    HW2 3873   0.741   3.511   4.356
  992SOL     OW 3874   0.687   3.303   1.595
  992SOL    HW1 3875   0.706   3.367   1.521
  992SOL    HW2 3876   0.654   3.353   1.675
  993SOL     OW 3877   6.775   4.653   0.408
  993SOL    HW1 3878   6.858   4.668   0.353
  993SOL    HW2 3879   6.735   4.742   0.432
  994SOL     OW 3880   4.211   5.168   1.816
  994SOL    HW1 3881   4.181   5.107   1.890
  994SOL    HW2 3882   4.305   5.146   1.791
  995SOL     OW 3883   4.103   2.966   5.826
  995SOL    HW1 3884   4.154   2.895   5.875
  995SOL    HW2 3885   4.112   2.952   5.728
  996SOL     OW 3886   3.094   5.379   4.771
  996SOL    HW1 3887   3.045   5.352   4.688
  996SOL    HW2 3888   3.087   5.478   4.783
  997SOL     OW 3889   0.905   6.967   3.082
  997SOL    HW1 3890   0.954   6.928   3.003
  997SOL    HW2 3891   0.943   0.030   3.103
  998SOL     OW 3892   5.638   0.627   5.476
  998SOL    HW1 3893   5.546   0.592   5.492
  998SOL    HW2 3894   5.642   0.724   5.499
  999SOL     OW 3895   5.275   4.580   2.372
  999SOL    HW1 3896   5.263   4.625   2.284
  999SOL    HW2 3897   5.258   4.482   2.363
 1000SOL     OW 3898   3.830   1.833   1.718
 1000SOL    HW1 3899   3.809   1.828   1.620
 1000SOL    HW2 3900   3.830   1.929   1.746
 1001SOL     OW 3901   4.736   5.757   1.173
 1001SOL    HW1 3902   4.770   5.735   1.081
 1001SOL    HW2 3903   4.665   5.828   1.167
 1002SOL     OW 3904   5.637   1.618   1.266
 1002SOL    HW1 3905   5.635   1.598   1.364
 1002SOL    HW2 3906   5.730   1.610   1.232
 1003SOL     OW 3907   1.980   6.206   2.782
 1003SOL    HW1 3908   2.060   6.254   2.746
 1003SOL    HW2 3909   1.900   6.228   2.727
 1004SOL     OW 3910   0.480   0.652   1.495
 1004SOL    HW1 3911   0.410   0.602   1.443
 1004SOL    HW2 3912   0.545   0.586   1.533
 1005SOL     OW 3913   1.955   2.728   3.831
 1005SOL    HW1 3914   2.045   2.697   3.861
 1005SOL    HW2 3915   1.966   2.796   3.758
 1006SOL     OW 3916   0.863   4.482   0.091
 1006SOL    HW1 3917   0.902   4.394   0.063
 1006SOL    HW2 3918   0.869   4.490   0.191
 1007SOL     OW 3919   4.595   1.014   5.362
 1007SOL    HW1 3920   4.580   1.011   5.263
 1007SOL    HW2 3921   4.519   1.060   5.406
 1008SOL     OW 3922   0.629   2.746   6.211
 1008SOL    HW1 3923   0.668   2.837   6.229
 1008SOL    HW2 3924   0.701   2.677   6.218
 1009SOL     OW 3925   0.512   4.950   5.278
 1009SOL    HW1 3926   0.533   5.018   5.207
 1009SOL    HW2 3927   0.580   4.877   5.274
 1010SOL     OW 3928   2.678   2.286   0.417
 1010SOL    HW1 3929   2.659   2.202   0.467
 1010SOL    HW2 3930   2.756   2.332   0.457
 1011SOL     OW 3931   1.263   5.504   3.238
 1011SOL    HW1 3932   1.341   5.566   3.243
 1011SOL    HW2 3933   1.179   5.556   3.220
 1012SOL     OW 3934   0.565   6.891   2.339
 1012SOL    HW1 3935   0.622   6.866   2.261
 1012SOL    HW2 3936   0.591   6.983   2.370
 1013SOL     OW 3937   0.978   1.758   6.191
 1013SOL    HW1 3938   1.073   1.729   6.191
 1013SOL    HW2 3939   0.942   1.757   6.097
 1014SOL     OW 3940   0.659   4.344   6.015
 1014SOL    HW1 3941   0.606   4.308   6.092
 1014SOL    HW2 3942   0.629   4.302   5.930
 1015SOL     OW 3943   2.749   6.897   5.783
 1015SOL    HW1 3944   2.829   6.873   5.728
 1015SOL    HW2 3945   2.774   6.891   5.880
 1016SOL     OW 3946   4.427   3.778   0.092
 1016SOL    HW1 3947   4.353   3.834   0.129
 1016SOL    HW2 3948   4.514   3.825   0.105
 1017SOL     OW 3949   4.491   2.338   1.117
 1017SOL    HW1 3950   4.491   2.240   1.097
 1017SOL    HW2 3951   4.566   2.360   1.180
 1018SOL     OW 3952   0.991   4.427   4.015
 1018SOL    HW1 3953   1.000   4.469   4.105
 1018SOL    HW2 3954   0.917   4.472   3.964
 1019SOL     OW 3955   0.163   6.220   0.972
 1019SOL    HW1 3956   0.101   6.286   1.015
 1019SOL    HW2 3957   0.244   6.207   1.031
 1020SOL     OW 3958   6.274   0.719   1.303
 1020SOL    HW1 3959   6.247   0.660   1.380
 1020SOL    HW2 3960   6.349   0.675   1.253
 1021SOL     OW 3961   5.585   0.010   1.802
 1021SOL    HW1 3962   5.488   0.006   1.825
 1021SOL    HW2 3963   5.596   0.012   1.703
 1022SOL     OW 3964   2.861   4.689   5.402
 1022SOL    HW1 3965   2.878   4.630   5.323
 1022SOL    HW2 3966   2.797   4.643   5.464
 1023SOL     OW 3967   0.569   0.778   2.772
 1023SOL    HW1 3968   0.490   0.744   2.720
 1023SOL    HW2 3969   0.650   0.725   2.747
 1024SOL     OW 3970   0.586   2.820   4.062
 1024SOL    HW1 3971   0.651   2.818   3.987
 1024SOL    HW2 3972   0.560   2.726   4.086
 1025SOL     OW 3973   3.399   3.285   1.397
 1025SOL    HW1 3974   3.424   3.191   1.377
 1025SOL    HW2 3975   3.445   3.314   1.481
 1026SOL     OW 3976   2.703   2.687   1.711
 1026SOL    HW1 3977   2.799   2.694   1.683
 1026SOL    HW2 3978   2.685   2.597   1.748
 1027SOL     OW 3979   3.491   0.116   2.026
 1027SOL    HW1 3980   3.393   0.135   2.025
 1027SOL    HW2 3981   3.519   0.078   1.938
 1028SOL     OW 3982   1.721   0.184   2.669
 1028SOL    HW1 3983   1.809   0.204   2.712
 1028SOL    HW2 3984   1.685   0.097   2.704
 1029SOL     OW 3985   1.035   1.270   6.126
 1029SOL    HW1 3986   1.106   1.339   6.118
 1029SOL    HW2 3987   0.999   1.270   6.219
 1030SOL     OW 3988   3.672   3.396   2.006
 1030SOL    HW1 3989   3.627   3.330   1.946
 1030SOL    HW2 3990   3.744   3.350   2.058
 1031SOL     OW 3991   4.703   3.557   1.426
 1031SOL    HW1 3992   4.670   3.609   1.505
 1031SOL    HW2 3993   4.803   3.556   1.427
 1032SOL     OW 3994   0.899   1.488   5.557
 1032SOL    HW1 3995   0.887   1.446   5.467
 1032SOL    HW2 3996   0.889   1.418   5.628
 1033SOL     OW 3997   1.268   5.524   1.058
 1033SOL    HW1 3998   1.178   5.491   1.030
 1033SOL    HW2 3999   1.257   5.594   1.129
 1034SOL     OW 4000   1.478   5.241   4.589
 1034SOL    HW1 4001   1.462   5.336   4.563
 1034SOL    HW2 4002   1.499   5.236   4.687
 1035SOL     OW 4003   6.970   1.230   6.212
 1035SOL    HW1 4004   6.929   1.270   6.130
 1035SOL    HW2 4005   6.937   1.137   6.224
 1036SOL     OW 4006   4.109   0.890   2.197
 1036SOL    HW1 4007   4.134   0.940   2.114
 1036SOL    HW2 4008   4.129   0.948   2.277
 1037SOL     OW 4009   1.378   1.432   2.751
 1037SOL    HW1 4010   1.334   1.430   2.841
 1037SOL    HW2 4011   1.473   1.462   2.762
 1038SOL     OW 4012   1.760   1.002   5.393
 1038SOL    HW1 4013   1.780   0.987   5.296
 1038SOL    HW2 4014   1.846   1.016   5.443
 1039SOL     OW 4015   3.803   3.834   4.540
 1039SOL    HW1 4016   3.756   3.919   4.518
 1039SOL    HW2 4017   3.742   3.776   4.595
 1040SOL     OW 4018   4.606   0.672   2.616
 1040SOL    HW1 4019   4.671   0.747   2.630
 1040SOL    HW2 4020   4.537   0.673   2.688
 1041SOL     OW 4021   6.970   6.469   3.305
 1041SOL    HW1 4022   0.000   6.500   3.381
 1041SOL    HW2 4023   6.901   6.406   3.339
 1042SOL     OW 4024   3.980   5.417   2.559
 1042SOL    HW1 4025   3.909   5.347   2.567
 1042SOL    HW2 4026   4.016   5.439   2.650
 1043SOL     OW 4027   3.440   2.076   3.614
 1043SOL    HW1 4028   3.491   2.082   3.529
 1043SOL    HW2 4029   3.497   2.107   3.690
 1044SOL     OW 4030   5.918   5.082   2.323
 1044SOL    HW1 4031   5.822   5.089   2.352
 1044SOL    HW2 4032   5.976   5.130   2.388
 1045SOL     OW 4033   4.128   0.606   2.309
 1045SOL    HW1 4034   4.121   0.639   2.403
 1045SOL    HW2 4035   4.148   0.683   2.248
 1046SOL     OW 4036   1.922   1.070   0.356
 1046SOL    HW1 4037   1.960   1.140   0.295
 1046SOL    HW2 4038   1.978   0.987   0.351
 1047SOL     OW 4039   2.432   7.027   3.527
 1047SOL    HW1 4040   2.379   0.032   3.605
 1047SOL    HW2 4041   2.463   0.077   3.473
 1048SOL     OW 4042   3.378   6.327   3.195
 1048SOL    HW1 4043   3.345   6.411   3.236
 1048SOL    HW2 4044   3.304   6.284   3.142
 1049SOL     OW 4045   6.460   6.753   3.999
 1049SOL    HW1 4046   6.420   6.728   4.087
 1049SOL    HW2 4047   6.450   6.677   3.935
 1050SOL     OW 4048   3.403   5.222   2.299
 1050SOL    HW1 4049   3.485   5.193   2.250
 1050SOL    HW2 4050   3.428   5.285   2.372
 1051SOL     OW 4051   0.449   5.198   0.662
 1051SOL    HW1 4052   0.388   5.156   0.594
 1051SOL    HW2 4053   0.397   5.264   0.716
 1052SOL     OW 4054   4.427   1.172   5.538
 1052SOL    HW1 4055   4.340   1.122   5.534
 1052SOL    HW2 4056   4.427   1.244   5.469
 1053SOL     OW 4057   5.902   3.926   3.328
 1053SOL    HW1 4058   5.850   3.910   3.412
 1053SOL    HW2 4059   5.894   4.022   3.301
 1054SOL     OW 4060   3.128   3.268   0.854
 1054SOL    HW1 4061   3.068   3.346   0.836
 1054SOL    HW2 4062   3.157   3.268   0.949
 1055SOL     OW 4063   4.085   6.749   5.284
 1055SOL    HW1 4064   4.035   6.795   5.210
 1055SOL    HW2 4065   4.086   6.808   5.365
 1056SOL     OW 4066   2.049   3.595   0.196
 1056SOL    HW1 4067   2.105   3.662   0.149
 1056SOL    HW2 4068   2.008   3.532   0.130
 1057SOL     OW 4069   3.165   3.184   1.529
 1057SOL    HW1 4070   3.192   3.123   1.604
 1057SOL    HW2 4071   3.247   3.218   1.483
 1058SOL     OW 4072   5.589   2.879   3.511
 1058SOL    HW1 4073   5.632   2.925   3.433
 1058SOL    HW2 4074   5.493   2.860   3.490
 1059SOL     OW 4075   2.116   0.761   2.136
 1059SOL    HW1 4076   2.170   0.691   2.184
 1059SOL    HW2 4077   2.170   0.797   2.059
 1060SOL     OW 4078   0.178   4.727   4.291
 1060SOL    HW1 4079   0.087   4.766   4.305
 1060SOL    HW2 4080   0.206   4.739   4.196
 1061SOL     OW 4081   6.618   3.619   6.608
 1061SOL    HW1 4082   6.557   3.568   6.668
 1061SOL    HW2 4083   6.592   3.604   6.513
 1062SOL     OW 4084   5.712   5.282   5.860
 1062SOL    HW1 4085   5.641   5.229   5.813
 1062SOL    HW2 4086   5.748   5.228   5.936
 1063SOL     OW 4087   1.094   5.559   0.576
 1063SOL    HW1 4088   1.161   5.599   0.513
 1063SOL    HW2 4089   1.037   5.494   0.527
 1064SOL     OW 4090   1.384   4.704   3.308
 1064SOL    HW1 4091   1.442   4.784   3.292
 1064SOL    HW2 4092   1.440   4.621   3.299
 1065SOL     OW 4093   4.748   0.852   3.195
 1065SOL    HW1 4094   4.666   0.800   3.172
 1065SOL    HW2 4095   4.739   0.888   3.288
 1066SOL     OW 4096   4.835   6.905   2.898
 1066SOL    HW1 4097   4.861   6.849   2.976
 1066SOL    HW2 4098   4.771   6.976   2.927
 1067SOL     OW 4099   0.762   2.693   0.201
 1067SOL    HW1 4100   0.855   2.719   0.229
 1067SOL    HW2 4101   0.696   2.735   0.263
 1068SOL     OW 4102   6.419   4.948   2.070
 1068SOL    HW1 4103   6.515   4.973   2.081
 1068SOL    HW2 4104   6.361   5.006   2.128
 1069SOL     OW 4105   4.972   5.590   0.436
 1069SOL    HW1 4106   5.034   5.641   0.494
 1069SOL    HW2 4107   4.890   5.645   0.417
 1070SOL     OW 4108   1.027   0.295   1.318
 1070SOL    HW1 4109   1.107   0.347   1.289
 1070SOL    HW2 4110   1.006   0.316   1.413
 1071SOL     OW 4111   1.437   1.176   3.864
 1071SOL    HW1 4112   1.477   1.196   3.954
 1071SOL    HW2 4113   1.472   1.088   3.831
 1072SOL     OW 4114   1.988   0.643   1.225
 1072SOL    HW1 4115   1.938   0.649   1.138
 1072SOL    HW2 4116   2.081   0.609   1.207
 1073SOL     OW 4117   5.162   0.455   3.694
 1073SOL    HW1 4118   5.187   0.504   3.610
 1073SOL    HW2 4119   5.148   0.521   3.768
 1074SOL     OW 4120   2.329   5.370   1.528
 1074SOL    HW1 4121   2.242   5.368   1.577
 1074SOL    HW2 4122   2.389   5.299   1.564
 1075SOL     OW 4123   5.368   6.991   3.321
 1075SOL    HW1 4124   5.352   0.062   3.334
 1075SOL    HW2 4125   5.360   6.944   3.409
 1076SOL     OW 4126   1.009   2.530   5.880
 1076SOL    HW1 4127   1.091   2.487   5.842
 1076SOL    HW2 4128   1.032   2.622   5.913
 1077SOL     OW 4129   6.317   6.916   0.420
 1077SOL    HW1 4130   6.367   6.992   0.463
 1077SOL    HW2 4131   6.368   6.831   0.433
 1078SOL     OW 4132   6.857   0.820   2.519
 1078SOL    HW1 4133   6.781   0.825   2.583
 1078SOL    HW2 4134   6.887   0.912   2.495
 1079SOL     OW 4135   1.634   6.148   2.142
 1079SOL    HW1 4136   1.731   6.143   2.162
 1079SOL    HW2 4137   1.620   6.155   2.044
 1080SOL     OW 4138   2.129   5.355   3.515
 1080SOL    HW1 4139   2.140   5.359   3.614
 1080SOL    HW2 4140   2.038   5.319   3.493
 1081SOL     OW 4141   6.660   5.133   5.107
 1081SOL    HW1 4142   6.752   5.114   5.072
 1081SOL    HW2 4143   6.660   5.223   5.151
 1082SOL     OW 4144   5.377   2.415   5.392
 1082SOL    HW1 4145   5.374   2.326   5.346
 1082SOL    HW2 4146   5.287   2.458   5.388
 1083SOL     OW 4147   4.564   4.301   0.284
 1083SOL    HW1 4148   4.508   4.224   0.316
 1083SOL    HW2 4149   4.635   4.322   0.351
 1084SOL     OW 4150   6.178   6.445   6.415
 1084SOL    HW1 4151   6.227   6.394   6.344
 1084SOL    HW2 4152   6.083   6.458   6.386
 1085SOL     OW 4153   1.426   3.858   4.790
 1085SOL    HW1 4154   1.493   3.796   4.830
 1085SOL    HW2 4155   1.344   3.807   4.764
 1086SOL     OW 4156   7.011   4.516   0.292
 1086SOL    HW1 4157   6.936   4.457   0.262
 1086SOL    HW2 4158   0.063   4.501   0.233
 1087SOL     OW 4159   0.251   2.432   4.982
 1087SOL    HW1 4160   0.318   2.466   5.049
 1087SOL    HW2 4161   0.247   2.495   4.904
 1088SOL     OW 4162   0.410   3.337   2.606
 1088SOL    HW1 4163   0.404   3.435   2.587
 1088SOL    HW2 4164   0.476   3.296   2.543
 1089SOL     OW 4165   6.953   6.022   4.587
 1089SOL    HW1 4166   6.887   6.055   4.654
 1089SOL    HW2 4167   6.928   6.055   4.496
 1090SOL     OW 4168   3.061   1.626   3.468
 1090SOL    HW1 4169   3.116   1.673   3.399
 1090SOL    HW2 4170   3.085   1.660   3.559
 1091SOL     OW 4171   2.449   2.251   4.827
 1091SOL    HW1 4172   2.537   2.262   4.781
 1091SOL    HW2 4173   2.451   2.299   4.915
 1092SOL     OW 4174   0.822   4.519   0.360
 1092SOL    HW1 4175   0.878   4.504   0.441
 1092SOL    HW2 4176   0.731   4.550   0.388
 1093SOL     OW 4177   2.468   0.106   1.482
 1093SOL    HW1 4178   2.414   0.135   1.561
 1093SOL    HW2 4179   2.485   0.184   1.423
 1094SOL     OW 4180   1.420   6.990   3.182
 1094SOL    HW1 4181   1.487   6.916   3.190
 1094SOL    HW2 4182   1.466   0.051   3.196
 1095SOL     OW 4183   1.113   2.746   6.065
 1095SOL    HW1 4184   1.144   2.741   6.160
 1095SOL    HW2 4185   1.181   2.794   6.010
 1096SOL     OW 4186   3.360   4.266   1.575
 1096SOL    HW1 4187   3.385   4.182   1.527
 1096SOL    HW2 4188   3.442   4.314   1.605
 1097SOL     OW 4189   2.557   4.694   4.216
 1097SOL    HW1 4190   2.462   4.698   4.245
 1097SOL    HW2 4191   2.561   4.665   4.120
 1098SOL     OW 4192   4.381   3.428   6.985
 1098SOL    HW1 4193   4.311   3.439   0.028
 1098SOL    HW2 4194   4.338   3.436   6.894
 1099SOL     OW 4195   3.640   0.740   5.851
 1099SOL    HW1 4196   3.708   0.705   5.915
 1099SOL    HW2 4197   3.655   0.700   5.761
 1100SOL     OW 4198   4.151   1.667   4.926
 1100SOL    HW1 4199   4.123   1.750   4.973
 1100SOL    HW2 4200   4.079   1.639   4.862
 1101SOL     OW 4201   5.509   2.965   5.845
 1101SOL    HW1 4202   5.562   3.005   5.770
 1101SOL    HW2 4203   5.490   3.034   5.914
 1102SOL     OW 4204   0.916   0.769   4.669
 1102SOL    HW1 4205   0.908   0.726   4.579
 1102SOL    HW2 4206   1.001   0.740   4.712
 1103SOL     OW 4207   3.938   1.385   0.293
 1103SOL    HW1 4208   3.937   1.360   0.390
 1103SOL    HW2 4209   3.992   1.318   0.242
 1104SOL     OW 4210   1.984   3.300   4.966
 1104SOL    HW1 4211   1.931   3.311   4.882
 1104SOL    HW2 4212   1.986   3.204   4.993
 1105SOL     OW 4213   5.934   3.198   4.665
 1105SOL    HW1 4214   5.917   3.247   4.750
 1105SOL    HW2 4215   5.852   3.201   4.607
 1106SOL     OW 4216   0.177   2.551   0.754
 1106SOL    HW1 4217   0.225   2.484   0.811
 1106SOL    HW2 4218   0.204   2.538   0.659
 1107SOL     OW 4219   1.171   0.295   6.855
 1107SOL    HW1 4220   1.261   0.324   6.890
 1107SOL    HW2 4221   1.134   0.367   6.797
 1108SOL     OW 4222   3.419   6.762   5.677
 1108SOL    HW1 4223   3.365   6.759   5.593
 1108SOL    HW2 4224   3.497   6.700   5.670
 1109SOL     OW 4225   5.476   0.730   3.818
 1109SOL    HW1 4226   5.459   0.635   3.790
 1109SOL    HW2 4227   5.557   0.764   3.769
 1110SOL     OW 4228   4.075   2.072   3.222
 1110SOL    HW1 4229   4.102   2.069   3.126
 1110SOL    HW2 4230   4.151   2.038   3.278
 1111SOL     OW 4231   5.168   5.945   6.670
 1111SOL    HW1 4232   5.264   5.919   6.659
 1111SOL    HW2 4233   5.127   5.960   6.580
 1112SOL     OW 4234   5.578   0.872   2.385
 1112SOL    HW1 4235   5.589   0.805   2.458
 1112SOL    HW2 4236   5.663   0.923   2.373
 1113SOL     OW 4237   6.015   4.299   1.481
 1113SOL    HW1 4238   5.983   4.330   1.391
 1113SOL    HW2 4239   6.110   4.268   1.474
 1114SOL     OW 4240   3.088   1.323   5.780
 1114SOL    HW1 4241   3.105   1.230   5.814
 1114SOL    HW2 4242   3.172   1.359   5.738
 1115SOL     OW 4243   3.684   3.505   6.149
 1115SOL    HW1 4244   3.745   3.458   6.085
 1115SOL    HW2 4245   3.599   3.453   6.159
 1116SOL     OW 4246   4.385   6.493   5.973
 1116SOL    HW1 4247   4.345   6.436   6.045
 1116SOL    HW2 4248   4.322   6.567   5.950
 1117SOL     OW 4249   2.037   1.989   1.842
 1117SOL    HW1 4250   2.054   2.025   1.750
 1117SOL    HW2 4251   1.942   2.005   1.867
 1118SOL     OW 4252   2.426   4.577   0.835
 1118SOL    HW1 4253   2.515   4.618   0.854
 1118SOL    HW2 4254   2.358   4.649   0.820
 1119SOL     OW 4255   3.990   4.561   1.699
 1119SOL    HW1 4256   3.937   4.645   1.713
 1119SOL    HW2 4257   4.069   4.560   1.761
 1120SOL     OW 4258   5.726   5.804   0.880
 1120SOL    HW1 4259   5.747   5.894   0.841
 1120SOL    HW2 4260   5.801   5.775   0.940
 1121SOL     OW 4261   6.719   4.619   4.611
 1121SOL    HW1 4262   6.629   4.659   4.627
 1121SOL    HW2 4263   6.789   4.675   4.654
 1122SOL     OW 4264   5.183   2.686   1.663
 1122SOL    HW1 4265   5.116   2.624   1.622
 1122SOL    HW2 4266   5.276   2.653   1.641
 1123SOL     OW 4267   4.753   2.369   3.076
 1123SOL    HW1 4268   4.654   2.358   3.068
 1123SOL    HW2 4269   4.784   2.440   3.013
 1124SOL     OW 4270   0.016   3.418   5.381
 1124SOL    HW1 4271   0.019   3.371   5.292
 1124SOL    HW2 4272   0.091   3.483   5.387
 1125SOL     OW 4273   2.385   1.618   3.701
 1125SOL    HW1 4274   2.355   1.529   3.733
 1125SOL    HW2 4275   2.469   1.608   3.647
 1126SOL     OW 4276   5.466   5.925   6.425
 1126SOL    HW1 4277   5.487   5.830   6.402
 1126SOL    HW2 4278   5.368   5.941   6.414
 1127SOL     OW 4279   5.393   6.427   4.317
 1127SOL    HW1 4280   5.419   6.348   4.372
 1127SOL    HW2 4281   5.400   6.404   4.220
 1128SOL     OW 4282   6.190   1.521   3.798
 1128SOL    HW1 4283   6.129   1.533   3.719
 1128SOL    HW2 4284   6.285   1.527   3.768
 1129SOL     OW 4285   1.807   7.001   0.515
 1129SOL    HW1 4286   1.743   0.035   0.562
 1129SOL    HW2 4287   1.898   7.012   0.554
 1130SOL     OW 4288   2.243   5.171   0.726
 1130SOL    HW1 4289   2.192   5.256   0.708
 1130SOL    HW2 4290   2.195   5.117   0.794
 1131SOL     OW 4291   1.155   6.421   5.607
 1131SOL    HW1 4292   1.252   6.433   5.626
 1131SOL    HW2 4293   1.101   6.451   5.685
 1132SOL     OW 4294   5.313   0.030   2.817
 1132SOL    HW1 4295   5.340   0.061   2.726
 1132SOL    HW2 4296   5.326   0.105   2.883
 1133SOL     OW 4297   1.413   0.954   0.336
 1133SOL    HW1 4298   1.396   0.912   0.247
 1133SOL    HW2 4299   1.340   0.929   0.400
 1134SOL     OW 4300   5.117   6.786   2.605
 1134SOL    HW1 4301   5.134   6.723   2.528
 1134SOL    HW2 4302   5.108   6.734   2.689
 1135SOL     OW 4303   2.873   6.759   3.757
 1135SOL    HW1 4304   2.830   6.669   3.745
 1135SOL    HW2 4305   2.817   6.829   3.712
 1136SOL     OW 4306   4.256   4.665   3.374
 1136SOL    HW1 4307   4.326   4.597   3.350
 1136SOL    HW2 4308   4.244   4.728   3.298
 1137SOL     OW 4309   1.617   6.813   0.166
 1137SOL    HW1 4310   1.575   6.815   0.075
 1137SOL    HW2 4311   1.669   6.898   0.180
 1138SOL     OW 4312   0.233   0.887   6.227
 1138SOL    HW1 4313   0.231   0.907   6.324
 1138SOL    HW2 4314   0.207   0.968   6.175
 1139SOL     OW 4315   3.085   4.843   2.796
 1139SOL    HW1 4316   2.995   4.857   2.754
 1139SOL    HW2 4317   3.156   4.878   2.735
 1140SOL     OW 4318   2.670   1.055   2.392
 1140SOL    HW1 4319   2.647   1.023   2.300
 1140SOL    HW2 4320   2.592   1.105   2.430
 1141SOL     OW 4321   0.828   6.248   0.102
 1141SOL    HW1 4322   0.806   6.173   0.040
 1141SOL    HW2 4323   0.852   6.212   0.192
 1142SOL     OW 4324   3.474   0.168   3.606
 1142SOL    HW1 4325   3.480   0.155   3.705
 1142SOL    HW2 4326   3.404   0.237   3.585
 1143SOL     OW 4327   2.295   2.722   3.354
 1143SOL    HW1 4328   2.196   2.720   3.372
 1143SOL    HW2 4329   2.328   2.817   3.362
 1144SOL     OW 4330   6.189   4.168   3.841
 1144SOL    HW1 4331   6.243   4.139   3.763
 1144SOL    HW2 4332   6.198   4.101   3.915
 1145SOL     OW 4333   6.416   3.245   1.106
 1145SOL    HW1 4334   6.398   3.321   1.044
 1145SOL    HW2 4335   6.464   3.279   1.187
 1146SOL     OW 4336   6.977   0.669   2.068
 1146SOL    HW1 4337   6.978   0.597   2.138
 1146SOL    HW2 4338   6.976   0.628   1.977
 1147SOL     OW 4339   3.361   5.855   2.030
 1147SOL    HW1 4340   3.343   5.927   1.963
 1147SOL    HW2 4341   3.312   5.875   2.114
 1148SOL     OW 4342   4.712   6.134   0.276
 1148SOL    HW1 4343   4.654   6.145   0.195
 1148SOL    HW2 4344   4.757   6.220   0.297
 1149SOL     OW 4345   6.057   2.653   2.747
 1149SOL    HW1 4346   6.077   2.749   2.768
 1149SOL    HW2 4347   5.958   2.640   2.744
 1150SOL     OW 4348   0.655   3.970   0.078
 1150SOL    HW1 4349   0.610   4.049   0.120
 1150SOL    HW2 4350   0.618   3.954   7.014
 1151SOL     OW 4351   5.815   4.743   5.637
 1151SOL    HW1 4352   5.783   4.681   5.708
 1151SOL    HW2 4353   5.776   4.716   5.549
 1152SOL     OW 4354   4.536   5.633   6.533
 1152SOL    HW1 4355   4.441   5.649   6.507
 1152SOL    HW2 4356   4.592   5.710   6.502
 1153SOL     OW 4357   0.174   0.112   2.169
 1153SOL    HW1 4358   0.265   0.152   2.154
 1153SOL    HW2 4359   0.182   0.013   2.178
 1154SOL     OW 4360   0.199   4.313   1.223
 1154SOL    HW1 4361   0.148   4.377   1.280
 1154SOL    HW2 4362   0.296   4.316   1.247
 1155SOL     OW 4363   2.471   4.886   6.200
 1155SOL    HW1 4364   2.429   4.795   6.201
 1155SOL    HW2 4365   2.540   4.892   6.271
 1156SOL     OW 4366   4.345   1.732   4.714
 1156SOL    HW1 4367   4.282   1.689   4.778
 1156SOL    HW2 4368   4.294   1.775   4.639
 1157SOL     OW 4369   5.229   1.072   6.220
 1157SOL    HW1 4370   5.309   1.110   6.266
 1157SOL    HW2 4371   5.217   1.117   6.131
 1158SOL     OW 4372   6.905   4.985   5.069
 1158SOL    HW1 4373   6.911   4.886   5.065
 1158SOL    HW2 4374   6.996   5.023   5.087
 1159SOL     OW 4375   6.639   0.155   3.804
 1159SOL    HW1 4376   6.639   0.087   3.730
 1159SOL    HW2 4377   6.575   0.125   3.875
 1160SOL     OW 4378   5.333   4.507   0.980
 1160SOL    HW1 4379   5.307   4.458   1.063
 1160SOL    HW2 4380   5.427   4.481   0.955
 1161SOL     OW 4381   6.701   5.351   5.893
 1161SOL    HW1 4382   6.678   5.297   5.974
 1161SOL    HW2 4383   6.753   5.432   5.920
 1162SOL     OW 4384   2.315   1.978   6.584
 1162SOL    HW1 4385   2.218   1.981   6.608
 1162SOL    HW2 4386   2.356   2.068   6.599
 1163SOL     OW 4387   6.489   4.116   1.661
 1163SOL    HW1 4388   6.398   4.144   1.631
 1163SOL    HW2 4389   6.539   4.195   1.696
 1164SOL     OW 4390   5.350   3.007   3.829
 1164SOL    HW1 4391   5.320   2.915   3.854
 1164SOL    HW2 4392   5.415   3.041   3.896
 1165SOL     OW 4393   3.964   5.517   3.813
 1165SOL    HW1 4394   3.905   5.444   3.847
 1165SOL    HW2 4395   3.919   5.605   3.826
 1166SOL     OW 4396   3.132   6.293   0.723
 1166SOL    HW1 4397   3.140   6.330   0.816
 1166SOL    HW2 4398   3.219   6.305   0.676
 1167SOL     OW 4399   3.703   6.809   0.745
 1167SOL    HW1 4400   3.728   6.845   0.836
 1167SOL    HW2 4401   3.665   6.883   0.690
 1168SOL     OW 4402   5.461   2.643   1.642
 1168SOL    HW1 4403   5.489   2.549   1.622
 1168SOL    HW2 4404   5.507   2.674   1.726
 1169SOL     OW 4405   4.675   2.508   6.079
 1169SOL    HW1 4406   4.664   2.532   5.983
 1169SOL    HW2 4407   4.636   2.581   6.136
 1170SOL     OW 4408   5.149   7.021   2.507
 1170SOL    HW1 4409   5.223   0.048   2.548
 1170SOL    HW2 4410   5.142   6.933   2.554
 1171SOL     OW 4411   3.186   6.562   6.833
 1171SOL    HW1 4412   3.129   6.493   6.878
 1171SOL    HW2 4413   3.170   6.560   6.734
 1172SOL     OW 4414   3.598   3.881   1.271
 1172SOL    HW1 4415   3.546   3.859   1.189
 1172SOL    HW2 4416   3.696   3.886   1.248
 1173SOL     OW 4417   3.453   0.942   0.896
 1173SOL    HW1 4418   3.550   0.964   0.883
 1173SOL    HW2 4419   3.425   0.876   0.825
 1174SOL     OW 4420   2.458   4.513   1.487
 1174SOL    HW1 4421   2.526   4.530   1.559
 1174SOL    HW2 4422   2.490   4.440   1.428
 1175SOL     OW 4423   4.108   4.820   6.419
 1175SOL    HW1 4424   4.031   4.881   6.431
 1175SOL    HW2 4425   4.141   4.824   6.324
 1176SOL     OW 4426   5.739   3.614   6.856
 1176SOL    HW1 4427   5.717   3.582   6.948
 1176SOL    HW2 4428   5.743   3.535   6.794
 1177SOL     OW 4429   0.101   3.705   4.771
 1177SOL    HW1 4430   0.022   3.767   4.770
 1177SOL    HW2 4431   0.185   3.758   4.757
 1178SOL     OW 4432   3.613   4.226   1.032
 1178SOL    HW1 4433   3.587   4.248   0.938
 1178SOL    HW2 4434   3.532   4.229   1.091
 1179SOL     OW 4435   2.772   5.615   1.055
 1179SOL    HW1 4436   2.820   5.576   1.133
 1179SOL    HW2 4437   2.673   5.605   1.067
 1180SOL     OW 4438   2.395   5.319   4.212
 1180SOL    HW1 4439   2.419   5.352   4.303
 1180SOL    HW2 4440   2.381   5.397   4.151
 1181SOL     OW 4441   0.416   5.076   4.802
 1181SOL    HW1 4442   0.489   5.127   4.757
 1181SOL    HW2 4443   0.330   5.127   4.793
 1182SOL     OW 4444   4.420   5.784   3.674
 1182SOL    HW1 4445   4.463   5.764   3.762
 1182SOL    HW2 4446   4.330   5.741   3.669
 1183SOL     OW 4447   3.106   4.269   0.983
 1183SOL    HW1 4448   3.134   4.247   1.076
 1183SOL    HW2 4449   3.008   4.256   0.973
 1184SOL     OW 4450   0.030   1.386   5.323
 1184SOL    HW1 4451   0.107   1.380   5.259
 1184SOL    HW2 4452   6.973   1.402   5.272
 1185SOL     OW 4453   1.232   0.975   0.931
 1185SOL    HW1 4454   1.301   1.036   0.891
 1185SOL    HW2 4455   1.149   0.978   0.875
 1186SOL     OW 4456   4.604   6.413   5.422
 1186SOL    HW1 4457   4.608   6.364   5.335
 1186SOL    HW2 4458   4.544   6.363   5.485
 1187SOL     OW 4459   4.834   0.420   5.662
 1187SOL    HW1 4460   4.791   0.490   5.720
 1187SOL    HW2 4461   4.931   0.413   5.685
 1188SOL     OW 4462   3.318   6.091   6.291
 1188SOL    HW1 4463   3.290   6.009   6.242
 1188SOL    HW2 4464   3.375   6.148   6.232
 1189SOL     OW 4465   6.051   1.470   1.586
 1189SOL    HW1 4466   6.130   1.463   1.524
 1189SOL    HW2 4467   6.012   1.379   1.598
 1190SOL     OW 4468   3.224   6.037   3.585
 1190SOL    HW1 4469   3.284   6.117   3.579
 1190SOL    HW2 4470   3.218   5.994   3.495
 1191SOL     OW 4471   4.242   5.432   4.974
 1191SOL    HW1 4472   4.229   5.333   4.962
 1191SOL    HW2 4473   4.279   5.471   4.890
 1192SOL     OW 4474   5.102   4.748   3.077
 1192SOL    HW1 4475   5.098   4.739   2.978
 1192SOL    HW2 4476   5.098   4.657   3.119
 1193SOL     OW 4477   0.283   2.424   5.393
 1193SOL    HW1 4478   0.214   2.354   5.374
 1193SOL    HW2 4479   0.373   2.380   5.401
 1194SOL     OW 4480   5.922   0.031   1.255
 1194SOL    HW1 4481   6.018   0.011   1.277
 1194SOL    HW2 4482   5.902   0.002   1.162
 1195SOL     OW 4483   0.032   4.217   1.003
 1195SOL    HW1 4484   0.101   4.260   1.061
 1195SOL    HW2 4485   0.069   4.203   0.911
 1196SOL     OW 4486   6.420   4.921   3.385
 1196SOL    HW1 4487   6.391   5.014   3.410
 1196SOL    HW2 4488   6.518   4.921   3.366
 1197SOL     OW 4489   4.734   7.024   4.818
 1197SOL    HW1 4490   4.646   6.981   4.796
 1197SOL    HW2 4491   4.802   6.954   4.836
 1198SOL     OW 4492   1.690   3.325   2.715
 1198SOL    HW1 4493   1.757   3.267   2.669
 1198SOL    HW2 4494   1.705   3.420   2.689
 1199SOL     OW 4495   3.703   3.709   1.545
 1199SOL    HW1 4496   3.604   3.704   1.558
 1199SOL    HW2 4497   3.749   3.691   1.632
 1200SOL     OW 4498   3.441   3.981   4.677
 1200SOL    HW1 4499   3.487   3.892   4.669
 1200SOL    HW2 4500   3.485   4.035   4.749
 1201SOL     OW 4501   1.334   1.691   3.882
 1201SOL    HW1 4502   1.382   1.638   3.953
 1201SOL    HW2 4503   1.395   1.703   3.804
 1202SOL     OW 4504   0.624   5.367   4.959
 1202SOL    HW1 4505   0.719   5.367   4.990
 1202SOL    HW2 4506   0.591   5.462   4.953
 1203SOL     OW 4507   0.294   5.718   0.005
 1203SOL    HW1 4508   0.352   5.669   0.070
 1203SOL    HW2 4509   0.198   5.695   0.023
 1204SOL     OW 4510   4.729   1.210   1.641
 1204SOL    HW1 4511   4.783   1.242   1.718
 1204SOL    HW2 4512   4.760   1.254   1.557
 1205SOL     OW 4513   3.797   3.326   0.978
 1205SOL    HW1 4514   3.706   3.308   1.017
 1205SOL    HW2 4515   3.860   3.253   1.006
 1206SOL     OW 4516   2.602   2.484   5.186
 1206SOL    HW1 4517   2.639   2.537   5.262
 1206SOL    HW2 4518   2.555   2.545   5.123
 1207SOL     OW 4519   2.099   6.415   1.236
 1207SOL    HW1 4520   2.042   6.334   1.222
 1207SOL    HW2 4521   2.196   6.388   1.239
 1208SOL     OW 4522   3.973   3.373   1.498
 1208SOL    HW1 4523   3.981   3.457   1.444
 1208SOL    HW2 4524   3.963   3.395   1.595
 1209SOL     OW 4525   4.730   0.549   3.758
 1209SOL    HW1 4526   4.648   0.606   3.764
 1209SOL    HW2 4527   4.768   0.554   3.666
 1210SOL     OW 4528   4.039   6.692   3.301
 1210SOL    HW1 4529   4.075   6.784   3.288
 1210SOL    HW2 4530   3.973   6.691   3.376
 1211SOL     OW 4531   0.982   3.588   2.875
 1211SOL    HW1 4532   0.981   3.508   2.815
 1211SOL    HW2 4533   0.901   3.644   2.857
 1212SOL     OW 4534   6.134   0.418   6.648
 1212SOL    HW1 4535   6.207   0.397   6.713
 1212SOL    HW2 4536   6.047   0.422   6.697
 1213SOL     OW 4537   5.922   2.743   1.221
 1213SOL    HW1 4538   5.934   2.715   1.126
 1213SOL    HW2 4539   5.918   2.843   1.227
 1214SOL     OW 4540   0.900   4.014   6.947
 1214SOL    HW1 4541   0.829   3.959   6.992
 1214SOL    HW2 4542   0.884   4.014   6.849
 1215SOL     OW 4543   0.988   4.552   3.502
 1215SOL    HW1 4544   1.074   4.502   3.510
 1215SOL    HW2 4545   1.002   4.633   3.445
 1216SOL     OW 4546   4.886   0.057   0.802
 1216SOL    HW1 4547   4.930   0.004   0.730
 1216SOL    HW2 4548   4.825   0.125   0.761
 1217SOL     OW 4549   2.449   4.315   1.223
 1217SOL    HW1 4550   2.388   4.237   1.239
 1217SOL    HW2 4551   2.395   4.395   1.198
 1218SOL     OW 4552   1.079   3.192   4.740
 1218SOL    HW1 4553   0.987   3.166   4.711
 1218SOL    HW2 4554   1.110   3.130   4.811
 1219SOL     OW 4555   5.047   6.148   1.972
 1219SOL    HW1 4556   5.096   6.198   1.900
 1219SOL    HW2 4557   5.103   6.146   2.055
 1220SOL     OW 4558   1.111   4.748   3.365
 1220SOL    HW1 4559   1.124   4.847   3.363
 1220SOL    HW2 4560   1.200   4.703   3.363
 1221SOL     OW 4561   4.231   4.352   6.169
 1221SOL    HW1 4562   4.225   4.284   6.242
 1221SOL    HW2 4563   4.140   4.368   6.131
 1222SOL     OW 4564   6.599   0.903   0.088
 1222SOL    HW1 4565   6.563   0.945   0.005
 1222SOL    HW2 4566   6.542   0.929   0.166
 1223SOL     OW 4567   4.144   2.100   0.206
 1223SOL    HW1 4568   4.065   2.072   0.260
 1223SOL    HW2 4569   4.148   2.045   0.123
 1224SOL     OW 4570   3.479   5.121   0.784
 1224SOL    HW1 4571   3.577   5.099   0.787
 1224SOL    HW2 4572   3.431   5.050   0.733
 1225SOL     OW 4573   3.135   3.231   6.778
 1225SOL    HW1 4574   3.194   3.223   6.858
 1225SOL    HW2 4575   3.088   3.320   6.780
 1226SOL     OW 4576   2.105   6.250   1.923
 1226SOL    HW1 4577   2.035   6.241   1.852
 1226SOL    HW2 4578   2.163   6.168   1.924
 1227SOL     OW 4579   6.594   4.539   5.746
 1227SOL    HW1 4580   6.657   4.465   5.767
 1227SOL    HW2 4581   6.620   4.582   5.660
 1228SOL     OW 4582   3.194   2.200   6.099
 1228SOL    HW1 4583   3.183   2.101   6.097
 1228SOL    HW2 4584   3.104   2.244   6.096
 1229SOL     OW 4585   3.609   5.285   5.797
 1229SOL    HW1 4586   3.674   5.356   5.824
 1229SOL    HW2 4587   3.588   5.295   5.699
 1230SOL     OW 4588   4.539   6.805   2.668
 1230SOL    HW1 4589   4.576   6.728   2.616
 1230SOL    HW2 4590   4.477   6.857   2.610
 1231SOL     OW 4591   1.665   2.381   4.430
 1231SOL    HW1 4592   1.667   2.296   4.376
 1231SOL    HW2 4593   1.754   2.394   4.475
 1232SOL     OW 4594   0.428   1.723   5.768
 1232SOL    HW1 4595   0.355   1.786   5.795
 1232SOL    HW2 4596   0.425   1.710   5.668
 1233SOL     OW 4597   1.121   4.853   4.995
 1233SOL    HW1 4598   1.050   4.914   5.031
 1233SOL    HW2 4599   1.197   4.908   4.960
 1234SOL     OW 4600   6.178   3.207   5.952
 1234SOL    HW1 4601   6.217   3.256   5.875
 1234SOL    HW2 4602   6.252   3.164   6.005
 1235SOL     OW 4603   6.761   5.722   2.654
 1235SOL    HW1 4604   6.811   5.675   2.727
 1235SOL    HW2 4605   6.767   5.821   2.668
 1236SOL     OW 4606   4.847   1.392   7.023
 1236SOL    HW1 4607   4.869   1.476   0.046
 1236SOL    HW2 4608   4.824   1.414   6.928
 1237SOL     OW 4609   2.364   4.457   6.421
 1237SOL    HW1 4610   2.284   4.517   6.430
 1237SOL    HW2 4611   2.394   4.428   6.512
 1238SOL     OW 4612   2.031   1.083   0.633
 1238SOL    HW1 4613   1.966   1.072   0.558
 1238SOL    HW2 4614   2.041   1.180   0.654
 1239SOL     OW 4615   6.949   6.822   6.526
 1239SOL    HW1 4616   6.911   6.911   6.505
 1239SOL    HW2 4617   6.879   6.751   6.514
 1240SOL     OW 4618   5.278   6.530   1.407
 1240SOL    HW1 4619   5.235   6.473   1.337
 1240SOL    HW2 4620   5.316   6.472   1.478
 1241SOL     OW 4621   5.214   3.662   4.253
 1241SOL    HW1 4622   5.192   3.757   4.272
 1241SOL    HW2 4623   5.144   3.602   4.293
 1242SOL     OW 4624   0.348   3.553   1.833
 1242SOL    HW1 4625   0.349   3.460   1.796
 1242SOL    HW2 4626   0.415   3.560   1.907
 1243SOL     OW 4627   6.756   6.539   4.519
 1243SOL    HW1 4628   6.759   6.601   4.441
 1243SOL    HW2 4629   6.781   6.589   4.602
 1244SOL     OW 4630   6.334   0.347   4.224
 1244SOL    HW1 4631   6.375   0.266   4.265
 1244SOL    HW2 4632   6.308   0.327   4.130
 1245SOL     OW 4633   5.314   5.308   0.637
 1245SOL    HW1 4634   5.255   5.228   0.633
 1245SOL    HW2 4635   5.265   5.383   0.681
 1246SOL     OW 4636   2.523   6.519   1.512
 1246SOL    HW1 4637   2.608   6.566   1.486
 1246SOL    HW2 4638   2.456   6.587   1.543
 1247SOL     OW 4639   1.917   7.024   6.786
 1247SOL    HW1 4640   1.870   0.043   6.711
 1247SOL    HW2 4641   1.868   6.940   6.809
 1248SOL     OW 4642   2.328   6.863   5.190
 1248SOL    HW1 4643   2.295   6.950   5.228
 1248SOL    HW2 4644   2.301   6.856   5.094
 1249SOL     OW 4645   6.616   2.048   2.605
 1249SOL    HW1 4646   6.609   2.030   2.507
 1249SOL    HW2 4647   6.683   2.121   2.621
 1250SOL     OW 4648   6.029   5.535   4.232
 1250SOL    HW1 4649   5.999   5.479   4.154
 1250SOL    HW2 4650   6.070   5.476   4.301
 1251SOL     OW 4651   2.992   0.693   3.812
 1251SOL    HW1 4652   2.965   0.760   3.881
 1251SOL    HW2 4653   2.989   0.601   3.852
 1252SOL     OW 4654   4.213   3.816   5.987
 1252SOL    HW1 4655   4.227   3.811   5.888
 1252SOL    HW2 4656   4.179   3.907   6.012
 1253SOL     OW 4657   2.942   5.657   2.695
 1253SOL    HW1 4658   2.878   5.622   2.763
 1253SOL    HW2 4659   2.934   5.756   2.689
 1254SOL     OW 4660   1.193   2.280   2.351
 1254SOL    HW1 4661   1.159   2.369   2.381
 1254SOL    HW2 4662   1.121   2.212   2.364
 1255SOL     OW 4663   6.500   1.935   5.243
 1255SOL    HW1 4664   6.545   1.968   5.160
 1255SOL    HW2 4665   6.548   1.970   5.324
 1256SOL     OW 4666   6.709   6.338   3.433
 1256SOL    HW1 4667   6.639   6.387   3.381
 1256SOL    HW2 4668   6.683   6.335   3.530
 1257SOL     OW 4669   0.159   6.150   5.339
 1257SOL    HW1 4670   0.210   6.066   5.316
 1257SOL    HW2 4671   0.122   6.190   5.255
 1258SOL     OW 4672   1.612   5.327   3.405
 1258SOL    HW1 4673   1.565   5.249   3.446
 1258SOL    HW2 4674   1.586   5.334   3.309
 1259SOL     OW 4675   4.142   1.055   4.394
 1259SOL    HW1 4676   4.102   0.966   4.370
 1259SOL    HW2 4677   4.154   1.109   4.311
 1260SOL     OW 4678   1.819   1.586   0.355
 1260SOL    HW1 4679   1.843   1.597   0.451
 1260SOL    HW2 4680   1.877   1.515   0.314
 1261SOL     OW 4681   0.346   5.682   6.483
 1261SOL    HW1 4682   0.376   5.673   6.578
 1261SOL    HW2 4683   0.399   5.621   6.425
 1262SOL     OW 4684   5.100   4.571   1.348
 1262SOL    HW1 4685   5.182   4.593   1.401
 1262SOL    HW2 4686   5.023   4.623   1.384
 1263SOL     OW 4687   0.385   2.085   2.458
 1263SOL    HW1 4688   0.386   2.011   2.390
 1263SOL    HW2 4689   0.293   2.125   2.461
 1264SOL     OW 4690   6.046   4.388   0.384
 1264SOL    HW1 4691   6.094   4.302   0.372
 1264SOL    HW2 4692   6.112   4.462   0.398
 1265SOL     OW 4693   5.783   5.352   4.689
 1265SOL    HW1 4694   5.767   5.272   4.632
 1265SOL    HW2 4695   5.701   5.373   4.743
 1266SOL     OW 4696   0.396   1.178   4.257
 1266SOL    HW1 4697   0.315   1.217   4.301
 1266SOL    HW2 4698   0.458   1.252   4.230
 1267SOL     OW 4699   5.467   0.916   1.159
 1267SOL    HW1 4700   5.519   0.979   1.102
 1267SOL    HW2 4701   5.527   0.877   1.229
 1268SOL     OW 4702   3.332   2.982   6.936
 1268SOL    HW1 4703   3.276   3.005   7.016
 1268SOL    HW2 4704   3.332   2.883   6.923
 1269SOL     OW 4705   6.106   3.939   4.376
 1269SOL    HW1 4706   6.086   4.002   4.301
 1269SOL    HW2 4707   6.109   3.845   4.341
 1270SOL     OW 4708   1.771   3.940   2.856
 1270SOL    HW1 4709   1.789   4.038   2.868
 1270SOL    HW2 4710   1.683   3.916   2.896
 1271SOL     OW 4711   3.775   1.840   2.224
 1271SOL    HW1 4712   3.833   1.825   2.303
 1271SOL    HW2 4713   3.772   1.938   2.202
 1272SOL     OW 4714   5.508   4.252   0.046
 1272SOL    HW1 4715   5.540   4.160   0.024
 1272SOL    HW2 4716   5.429   4.275   7.016
 1273SOL     OW 4717   0.526   3.516   6.730
 1273SOL    HW1 4718   0.604   3.523   6.792
 1273SOL    HW2 4719   0.524   3.425   6.689
 1274SOL     OW 4720   6.882   4.475   1.324
 1274SOL    HW1 4721   6.899   4.425   1.409
 1274SOL    HW2 4722   6.960   4.534   1.304
 1275SOL     OW 4723   4.179   1.462   3.863
 1275SOL    HW1 4724   4.202   1.457   3.766
 1275SOL    HW2 4725   4.209   1.550   3.899
 1276SOL     OW 4726   6.190   5.002   5.016
 1276SOL    HW1 4727   6.203   5.092   5.058
 1276SOL    HW2 4728   6.270   4.945   5.033
 1277SOL     OW 4729   1.890   5.758   6.406
 1277SOL    HW1 4730   1.965   5.772   6.472
 1277SOL    HW2 4731   1.929   5.730   6.318
 1278SOL     OW 4732   1.100   0.026   4.960
 1278SOL    HW1 4733   1.016   0.077   4.940
 1278SOL    HW2 4734   1.119   6.990   4.886
 1279SOL     OW 4735   1.665   5.121   6.997
 1279SOL    HW1 4736   1.743   5.100   0.029
 1279SOL    HW2 4737   1.602   5.044   6.996
 1280SOL     OW 4738   4.212   0.261   4.453
 1280SOL    HW1 4739   4.186   0.198   4.380
 1280SOL    HW2 4740   4.297   0.306   4.429
 1281SOL     OW 4741   2.736   5.944   2.991
 1281SOL    HW1 4742   2.730   5.897   3.079
 1281SOL    HW2 4743   2.645   5.943   2.947
 1282SOL     OW 4744   6.506   2.297   6.572
 1282SOL    HW1 4745   6.484   2.220   6.511
 1282SOL    HW2 4746   6.468   2.279   6.663
 1283SOL     OW 4747   6.595   3.463   4.985
 1283SOL    HW1 4748   6.615   3.388   4.922
 1283SOL    HW2 4749   6.662   3.462   5.060
 1284SOL     OW 4750   4.680   1.998   1.907
 1284SOL    HW1 4751   4.667   2.040   1.997
 1284SOL    HW2 4752   4.776   1.971   1.897
 1285SOL     OW 4753   4.619   1.997   5.903
 1285SOL    HW1 4754   4.698   1.951   5.862
 1285SOL    HW2 4755   4.617   1.978   6.002
 1286SOL     OW 4756   4.168   3.657   1.277
 1286SOL    HW1 4757   4.070   3.657   1.294
 1286SOL    HW2 4758   4.205   3.565   1.295
 1287SOL     OW 4759   5.466   4.494   5.003
 1287SOL    HW1 4760   5.432   4.411   4.960
 1287SOL    HW2 4761   5.548   4.526   4.955
 1288SOL     OW 4762   3.361   3.602   6.487
 1288SOL    HW1 4763   3.446   3.654   6.486
 1288SOL    HW2 4764   3.329   3.589   6.393
 1289SOL     OW 4765   0.220   6.800   0.886
 1289SOL    HW1 4766   0.285   6.839   0.951
 1289SOL    HW2 4767   0.261   6.798   0.795
 1290SOL     OW 4768   1.052   6.440   0.457
 1290SOL    HW1 4769   1.023   6.526   0.415
 1290SOL    HW2 4770   1.111   6.390   0.394
 1291SOL     OW 4771   0.710   4.498   3.891
 1291SOL    HW1 4772   0.697   4.453   3.802
 1291SOL    HW2 4773   0.723   4.596   3.877
 1292SOL     OW 4774   0.640   5.729   2.439
 1292SOL    HW1 4775   0.718   5.747   2.498
 1292SOL    HW2 4776   0.576   5.668   2.486
 1293SOL     OW 4777   2.043   2.147   7.004
 1293SOL    HW1 4778   2.036   2.114   0.071
 1293SOL    HW2 4779   2.087   2.077   6.947
 1294SOL     OW 4780   0.333   3.780   5.724
 1294SOL    HW1 4781   0.294   3.740   5.641
 1294SOL    HW2 4782   0.267   3.773   5.799
 1295SOL     OW 4783   0.083   3.532   1.166
 1295SOL    HW1 4784   0.033   3.606   1.211
 1295SOL    HW2 4785   0.095   3.554   1.069
 1296SOL     OW 4786   3.844   6.266   5.311
 1296SOL    HW1 4787   3.825   6.352   5.263
 1296SOL    HW2 4788   3.809   6.271   5.404
 1297SOL     OW 4789   0.551   0.031   1.189
 1297SOL    HW1 4790   0.548   6.994   1.265
 1297SOL    HW2 4791   0.644   0.066   1.178
 1298SOL     OW 4792   5.142   5.500   3.531
 1298SOL    HW1 4793   5.068   5.480   3.594
 1298SOL    HW2 4794   5.228   5.463   3.566
 1299SOL     OW 4795   2.459   2.358   3.719
 1299SOL    HW1 4796   2.410   2.409   3.649
 1299SOL    HW2 4797   2.495   2.421   3.788
 1300SOL     OW 4798   1.878   3.034   0.233
 1300SOL    HW1 4799   1.800   2.992   0.186
 1300SOL    HW2 4800   1.945   3.065   0.166
 1301SOL     OW 4801   0.514   6.578   1.550
 1301SOL    HW1 4802   0.538   6.565   1.646
 1301SOL    HW2 4803   0.545   6.669   1.520
 1302SOL     OW 4804   4.913   6.749   5.163
 1302SOL    HW1 4805   4.821   6.736   5.198
 1302SOL    HW2 4806   4.980   6.723   5.233
 1303SOL     OW 4807   3.983   1.671   1.387
 1303SOL    HW1 4808   4.028   1.686   1.476
 1303SOL    HW2 4809   3.963   1.759   1.345
 1304SOL     OW 4810   1.512   0.071   0.354
 1304SOL    HW1 4811   1.564   0.048   0.272
 1304SOL    HW2 4812   1.564   0.139   0.407
 1305SOL     OW 4813   5.660   3.621   0.411
 1305SOL    HW1 4814   5.596   3.584   0.478
 1305SOL    HW2 4815   5.745   3.646   0.457
 1306SOL     OW 4816   1.422   6.009   3.903
 1306SOL    HW1 4817   1.361   6.007   3.982
 1306SOL    HW2 4818   1.504   5.956   3.922
 1307SOL     OW 4819   2.300   4.206   4.010
 1307SOL    HW1 4820   2.293   4.185   4.108
 1307SOL    HW2 4821   2.211   4.239   3.978
 1308SOL     OW 4822   6.388   0.286   5.919
 1308SOL    HW1 4823   6.309   0.226   5.912
 1308SOL    HW2 4824   6.415   0.317   5.827
 1309SOL     OW 4825   5.930   5.260   5.655
 1309SOL    HW1 4826   5.997   5.187   5.670
 1309SOL    HW2 4827   5.851   5.245   5.714
 1310SOL     OW 4828   0.137   3.687   3.567
 1310SOL    HW1 4829   0.160   3.590   3.561
 1310SOL    HW2 4830   0.057   3.699   3.626
 1311SOL     OW 4831   6.495   5.744   6.035
 1311SOL    HW1 4832   6.507   5.646   6.047
 1311SOL    HW2 4833   6.555   5.777   5.962
 1312SOL     OW 4834   1.495   6.672   6.948
 1312SOL    HW1 4835   1.496   6.602   6.876
 1312SOL    HW2 4836   1.434   6.642   7.022
 1313SOL     OW 4837   7.016   4.494   2.941
 1313SOL    HW1 4838   0.073   4.440   2.946
 1313SOL    HW2 4839   6.975   4.500   3.031
 1314SOL     OW 4840   4.020   1.641   4.682
 1314SOL    HW1 4841   4.087   1.588   4.629
 1314SOL    HW2 4842   4.037   1.739   4.668
 1315SOL     OW 4843   0.217   1.812   2.768
 1315SOL    HW1 4844   0.305   1.861   2.771
 1315SOL    HW2 4845   0.233   1.714   2.778
 1316SOL     OW 4846   3.191   6.759   5.833
 1316SOL    HW1 4847   3.177   6.842   5.886
 1316SOL    HW2 4848   3.284   6.757   5.796
 1317SOL     OW 4849   2.094   4.327   6.165
 1317SOL    HW1 4850   2.085   4.228   6.172
 1317SOL    HW2 4851   2.132   4.352   6.076
 1318SOL     OW 4852   0.772   2.555   0.997
 1318SOL    HW1 4853   0.850   2.607   0.962
 1318SOL    HW2 4854   0.779   2.460   0.964
 1319SOL     OW 4855   0.009   6.006   1.340
 1319SOL    HW1 4856   6.966   6.051   1.395
 1319SOL    HW2 4857   0.090   6.065   1.333
 1320SOL     OW 4858   3.979   4.185   6.507
 1320SOL    HW1 4859   3.882   4.207   6.511
 1320SOL    HW2 4860   4.016   4.179   6.599
 1321SOL     OW 4861   5.226   2.841   6.616
 1321SOL    HW1 4862   5.223   2.941   6.616
 1321SOL    HW2 4863   5.319   2.809   6.632
 1322SOL     OW 4864   4.219   1.815   4.006
 1322SOL    HW1 4865   4.217   1.727   4.054
 1322SOL    HW2 4866   4.125   1.846   3.991
 1323SOL     OW 4867   3.949   6.806   6.376
 1323SOL    HW1 4868   3.932   6.885   6.316
 1323SOL    HW2 4869   3.864   6.757   6.392
 1324SOL     OW 4870   0.485   3.467   0.080
 1324SOL    HW1 4871   0.539   3.503   0.156
 1324SOL    HW2 4872   0.543   3.455   0.000
 1325SOL     OW 4873   2.945   6.359   4.689
 1325SOL    HW1 4874   2.878   6.364   4.763
 1325SOL    HW2 4875   3.032   6.324   4.725
 1326SOL     OW 4876   5.183   3.324   5.001
 1326SOL    HW1 4877   5.130   3.400   5.039
 1326SOL    HW2 4878   5.280   3.338   5.019
 1327SOL     OW 4879   1.072   6.211   1.281
 1327SOL    HW1 4880   1.108   6.298   1.316
 1327SOL    HW2 4881   1.043   6.224   1.186
 1328SOL     OW 4882   3.025   3.108   0.649
 1328SOL    HW1 4883   3.104   3.135   0.704
 1328SOL    HW2 4884   2.991   3.020   0.681
 1329SOL     OW 4885   0.987   2.053   2.053
 1329SOL    HW1 4886   0.955   2.116   2.123
 1329SOL    HW2 4887   0.915   1.987   2.033
 1330SOL     OW 4888   1.365   1.118   1.252
 1330SOL    HW1 4889   1.313   1.195   1.289
 1330SOL    HW2 4890   1.463   1.135   1.266
 1331SOL     OW 4891   4.746   2.819   3.031
 1331SOL    HW1 4892   4.703   2.737   3.070
 1331SOL    HW2 4893   4.705   2.839   2.943
 1332SOL     OW 4894   2.619   0.221   0.417
 1332SOL    HW1 4895   2.539   0.161   0.424
 1332SOL    HW2 4896   2.595   0.303   0.365
 1333SOL     OW 4897   2.867   3.457   3.506
 1333SOL    HW1 4898   2.802   3.499   3.570
 1333SOL    HW2 4899   2.877   3.516   3.426
 1334SOL     OW 4900   6.581   1.821   3.659
 1334SOL    HW1 4901   6.664   1.840   3.607
 1334SOL    HW2 4902   6.514   1.893   3.642
 1335SOL     OW 4903   3.003   1.826   2.016
 1335SOL    HW1 4904   2.968   1.848   1.924
 1335SOL    HW2 4905   3.042   1.908   2.057
 1336SOL     OW 4906   2.229   2.151   5.195
 1336SOL    HW1 4907   2.318   2.179   5.158
 1336SOL    HW2 4908   2.240   2.123   5.290
 1337SOL     OW 4909   1.198   1.694   3.123
 1337SOL    HW1 4910   1.245   1.651   3.200
 1337SOL    HW2 4911   1.131   1.760   3.156
 1338SOL     OW 4912   7.023   2.852   4.514
 1338SOL    HW1 4913   6.949   2.878   4.576
 1338SOL    HW2 4914   7.026   2.753   4.505
 1339SOL     OW 4915   6.719   1.797   0.139
 1339SOL    HW1 4916   6.801   1.840   0.175
 1339SOL    HW2 4917   6.675   1.743   0.211
 1340SOL     OW 4918   5.598   2.031   2.343
 1340SOL    HW1 4919   5.514   2.081   2.324
 1340SOL    HW2 4920   5.595   1.942   2.298
 1341SOL     OW 4921   4.041   6.542   6.662
 1341SOL    HW1 4922   4.072   6.636   6.644
 1341SOL    HW2 4923   4.104   6.498   6.726
 1342SOL     OW 4924   3.235   5.885   6.095
 1342SOL    HW1 4925   3.229   5.936   6.009
 1342SOL    HW2 4926   3.146   5.886   6.140
 1343SOL     OW 4927   4.886   5.450   2.803
 1343SOL    HW1 4928   4.863   5.352   2.795
 1343SOL    HW2 4929   4.810   5.498   2.848
 1344SOL     OW 4930   0.205   5.994   4.490
 1344SOL    HW1 4931   0.257   5.958   4.567
 1344SOL    HW2 4932   0.112   6.016   4.519
 1345SOL     OW 4933   1.018   6.085   2.638
 1345SOL    HW1 4934   0.978   6.173   2.665
 1345SOL    HW2 4935   1.098   6.100   2.580
 1346SOL     OW 4936   1.563   6.103   4.404
 1346SOL    HW1 4937   1.508   6.187   4.399
 1346SOL    HW2 4938   1.639   6.109   4.340
 1347SOL     OW 4939   6.961   0.012   5.980
 1347SOL    HW1 4940   6.931   0.075   5.909
 1347SOL    HW2 4941   6.989   6.952   5.938
 1348SOL     OW 4942   5.990   6.613   4.260
 1348SOL    HW1 4943   6.035   6.654   4.340
 1348SOL    HW2 4944   6.048   6.626   4.179
 1349SOL     OW 4945   5.312   3.371   5.267
 1349SOL    HW1 4946   5.300   3.272   5.255
 1349SOL    HW2 4947   5.373   3.406   5.197
 1350SOL     OW 4948   5.191   5.306   5.472
 1350SOL    HW1 4949   5.222   5.211   5.472
 1350SOL    HW2 4950   5.213   5.348   5.560
 1351SOL     OW 4951   6.455   1.929   2.818
 1351SOL    HW1 4952   6.483   1.980   2.899
 1351SOL    HW2 4953   6.489   1.974   2.736
 1352SOL     OW 4954   6.613   5.623   4.193
 1352SOL    HW1 4955   6.538   5.666   4.243
 1352SOL    HW2 4956   6.634   5.534   4.233
 1353SOL     OW 4957   0.675   2.598   0.592
 1353SOL    HW1 4958   0.606   2.656   0.634
 1353SOL    HW2 4959   0.660   2.594   0.493
 1354SOL     OW 4960   0.387   4.162   1.551
 1354SOL    HW1 4961   0.383   4.248   1.500
 1354SOL    HW2 4962   0.318   4.164   1.624
 1355SOL     OW 4963   5.775   3.296   4.323
 1355SOL    HW1 4964   5.763   3.233   4.400
 1355SOL    HW2 4965   5.838   3.369   4.349
 1356SOL     OW 4966   3.263   3.369   2.229
 1356SOL    HW1 4967   3.175   3.321   2.228
 1356SOL    HW2 4968   3.276   3.412   2.318
 1357SOL     OW 4969   0.271   4.469   6.272
 1357SOL    HW1 4970   0.350   4.431   6.223
 1357SOL    HW2 4971   0.187   4.435   6.230
 1358SOL     OW 4972   5.242   6.808   6.299
 1358SOL    HW1 4973   5.233   6.743   6.374
 1358SOL    HW2 4974   5.234   6.759   6.212
 1359SOL     OW 4975   5.548   4.954   2.893
 1359SOL    HW1 4976   5.564   5.032   2.832
 1359SOL    HW2 4977   5.636   4.920   2.926
 1360SOL     OW 4978   2.725   3.991   0.406
 1360SOL    HW1 4979   2.685   3.901   0.422
 1360SOL    HW2 4980   2.758   3.996   0.312
 1361SOL     OW 4981   6.211   4.710   5.016
 1361SOL    HW1 4982   6.255   4.732   5.103
 1361SOL    HW2 4983   6.155   4.788   4.986
 1362SOL     OW 4984   3.961   3.816   3.698
 1362SOL    HW1 4985   4.046   3.795   3.745
 1362SOL    HW2 4986   3.891   3.842   3.765
 1363SOL     OW 4987   6.622   5.344   3.568
 1363SOL    HW1 4988   6.631   5.251   3.604
 1363SOL    HW2 4989   6.569   5.399   3.631
 1364SOL     OW 4990   5.510   4.406   1.305
 1364SOL    HW1 4991   5.534   4.479   1.370
 1364SOL    HW2 4992   5.589   4.347   1.291
 1365SOL     OW 4993   0.448   4.218   6.481
 1365SOL    HW1 4994   0.474   4.311   6.508
 1365SOL    HW2 4995   0.356   4.198   6.512
 1366SOL     OW 4996   1.537   5.573   0.543
 1366SOL    HW1 4997   1.619   5.607   0.589
 1366SOL    HW2 4998   1.460   5.632   0.563
 1367SOL     OW 4999   2.658   0.225   2.983
 1367SOL    HW1 5000   2.664   0.295   3.054
 1367SOL    HW2 5001   2.740   0.167   2.986
 1368SOL     OW 5002   5.915   0.503   3.868
 1368SOL    HW1 5003   5.830   0.548   3.841
 1368SOL    HW2 5004   5.992   0.543   3.818
 1369SOL     OW 5005   1.890   6.175   2.243
 1369SOL    HW1 5006   1.888   6.219   2.333
 1369SOL    HW2 5007   1.981   6.136   2.228
 1370SOL     OW 5008   3.360   0.820   0.652
 1370SOL    HW1 5009   3.453   0.794   0.627
 1370SOL    HW2 5010   3.298   0.744   0.636
 1371SOL     OW 5011   5.639   1.519   3.970
 1371SOL    HW1 5012   5.668   1.529   4.065
 1371SOL    HW2 5013   5.719   1.504   3.912
 1372SOL     OW 5014   1.159   2.948   0.897
 1372SOL    HW1 5015   1.134   2.870   0.955
 1372SOL    HW2 5016   1.181   3.027   0.954
 1373SOL     OW 5017   5.967   3.861   7.017
 1373SOL    HW1 5018   5.994   3.957   7.011
 1373SOL    HW2 5019   5.869   3.854   6.998
 1374SOL     OW 5020   4.308   2.441   0.504
 1374SOL    HW1 5021   4.278   2.368   0.566
 1374SOL    HW2 5022   4.306   2.407   0.410
 1375SOL     OW 5023   6.652   4.231   6.414
 1375SOL    HW1 5024   6.589   4.241   6.337
 1375SOL    HW2 5025   6.736   4.282   6.395
 1376SOL     OW 5026   5.027   3.673   3.670
 1376SOL    HW1 5027   5.046   3.595   3.729
 1376SOL    HW2 5028   5.010   3.641   3.576
 1377SOL     OW 5029   6.966   3.807   5.243
 1377SOL    HW1 5030   6.962   3.897   5.201
 1377SOL    HW2 5031   6.997   3.740   5.176
 1378SOL     OW 5032   6.354   1.239   4.897
 1378SOL    HW1 5033   6.433   1.293   4.868
 1378SOL    HW2 5034   6.381   1.143   4.905
 1379SOL     OW 5035   3.232   0.221   2.312
 1379SOL    HW1 5036   3.325   0.217   2.347
 1379SOL    HW2 5037   3.167   0.221   2.388
 1380SOL     OW 5038   0.749   0.090   2.408
 1380SOL    HW1 5039   0.793   0.153   2.472
 1380SOL    HW2 5040   0.819   0.033   2.364
 1381SOL     OW 5041   5.379   2.792   6.886
 1381SOL    HW1 5042   5.397   2.697   6.860
 1381SOL    HW2 5043   5.424   2.812   6.973
 1382SOL     OW 5044   5.064   4.441   0.127
 1382SOL    HW1 5045   4.986   4.439   0.189
 1382SOL    HW2 5046   5.057   4.520   0.066
 1383SOL     OW 5047   0.623   0.694   0.434
 1383SOL    HW1 5048   0.644   0.783   0.393
 1383SOL    HW2 5049   0.651   0.622   0.371
 1384SOL     OW 5050   3.534   1.179   2.716
 1384SOL    HW1 5051   3.474   1.107   2.751
 1384SOL    HW2 5052   3.614   1.138   2.673
 1385SOL     OW 5053   0.824   3.147   2.835
 1385SOL    HW1 5054   0.744   3.206   2.837
 1385SOL    HW2 5055   0.870   3.151   2.924
 1386SOL     OW 5056   2.406   1.333   4.677
 1386SOL    HW1 5057   2.358   1.340   4.764
 1386SOL    HW2 5058   2.374   1.405   4.615
 1387SOL     OW 5059   3.827   6.950   3.559
 1387SOL    HW1 5060   3.783   6.997   3.484
 1387SOL    HW2 5061   3.763   6.886   3.602
 1388SOL     OW 5062   0.487   6.528   4.325
 1388SOL    HW1 5063   0.532   6.453   4.277
 1388SOL    HW2 5064   0.448   6.592   4.259
 1389SOL     OW 5065   0.249   1.097   3.484
 1389SOL    HW1 5066   0.205   1.081   3.396
 1389SOL    HW2 5067   0.180   1.126   3.550
 1390SOL     OW 5068   4.775   1.512   6.473
 1390SOL    HW1 5069   4.772   1.612   6.465
 1390SOL    HW2 5070   4.847   1.476   6.414
 1391SOL     OW 5071   6.500   1.568   5.565
 1391SOL    HW1 5072   6.406   1.546   5.541
 1391SOL    HW2 5073   6.546   1.487   5.601
 1392SOL     OW 5074   5.466   5.418   5.266
 1392SOL    HW1 5075   5.553   5.455   5.298
 1392SOL    HW2 5076   5.402   5.493   5.249
 1393SOL     OW 5077   6.028   3.091   6.527
 1393SOL    HW1 5078   5.990   3.096   6.619
 1393SOL    HW2 5079   5.954   3.092   6.460
 1394SOL     OW 5080   3.974   6.782   3.829
 1394SOL    HW1 5081   3.990   6.691   3.790
 1394SOL    HW2 5082   3.954   6.847   3.756
 1395SOL     OW 5083   0.990   3.911   2.831
 1395SOL    HW1 5084   1.075   3.905   2.779
 1395SOL    HW2 5085   1.011   3.942   2.924
 1396SOL     OW 5086   1.426   6.939   3.584
 1396SOL    HW1 5087   1.452   0.002   3.552
 1396SOL    HW2 5088   1.453   6.871   3.515
 1397SOL     OW 5089   0.205   6.467   4.944
 1397SOL    HW1 5090   0.210   6.387   5.005
 1397SOL    HW2 5091   0.110   6.496   4.935
 1398SOL     OW 5092   1.403   1.473   0.922
 1398SOL    HW1 5093   1.398   1.561   0.874
 1398SOL    HW2 5094   1.488   1.426   0.898
 1399SOL     OW 5095   4.227   0.581   0.644
 1399SOL    HW1 5096   4.246   0.640   0.565
 1399SOL    HW2 5097   4.134   0.545   0.636
 1400SOL     OW 5098   6.473   0.867   4.281
 1400SOL    HW1 5099   6.408   0.790   4.285
 1400SOL    HW2 5100   6.457   0.919   4.197
 1401SOL     OW 5101   6.033   6.863   4.529
 1401SOL    HW1 5102   5.966   6.805   4.576
 1401SOL    HW2 5103   5.986   6.940   4.486
 1402SOL     OW 5104   5.957   4.459   0.100
 1402SOL    HW1 5105   5.965   4.390   0.028
 1402SOL    HW2 5106   6.007   4.429   0.181
 1403SOL     OW 5107   2.041   3.150   0.053
 1403SOL    HW1 5108   2.025   3.056   0.021
 1403SOL    HW2 5109   2.131   3.154   0.096
 1404SOL     OW 5110   4.430   6.955   1.110
 1404SOL    HW1 5111   4.445   0.011   1.163
 1404SOL    HW2 5112   4.353   6.967   1.048
 1405SOL     OW 5113   1.987   3.309   0.688
 1405SOL    HW1 5114   2.040   3.285   0.606
 1405SOL    HW2 5115   1.972   3.408   0.690
 1406SOL     OW 5116   1.759   4.362   1.597
 1406SOL    HW1 5117   1.719   4.454   1.596
 1406SOL    HW2 5118   1.844   4.363   1.649
 1407SOL     OW 5119   1.576   3.680   2.781
 1407SOL    HW1 5120   1.668   3.642   2.773
 1407SOL    HW2 5121   1.534   3.685   2.690
 1408SOL     OW 5122   5.641   6.694   6.848
 1408SOL    HW1 5123   5.566   6.749   6.810
 1408SOL    HW2 5124   5.683   6.641   6.775
 1409SOL     OW 5125   0.306   0.399   6.046
 1409SOL    HW1 5126   0.270   0.492   6.051
 1409SOL    HW2 5127   0.264   0.343   6.117
 1410SOL     OW 5128   2.563   3.775   6.673
 1410SOL    HW1 5129   2.593   3.786   6.578
 1410SOL    HW2 5130   2.500   3.698   6.679
 1411SOL     OW 5131   3.492   6.328   6.555
 1411SOL    HW1 5132   3.405   6.308   6.599
 1411SOL    HW2 5133   3.484   6.412   6.501
 1412SOL     OW 5134   0.534   3.717   1.267
 1412SOL    HW1 5135   0.465   3.778   1.305
 1412SOL    HW2 5136   0.580   3.761   1.191
 1413SOL     OW 5137   1.490   2.013   4.423
 1413SOL    HW1 5138   1.515   1.998   4.519
 1413SOL    HW2 5139   1.564   2.061   4.376
 1414SOL     OW 5140   1.362   2.605   1.660
 1414SOL    HW1 5141   1.458   2.578   1.649
 1414SOL    HW2 5142   1.303   2.529   1.633
 1415SOL     OW 5143   2.631   2.420   4.700
 1415SOL    HW1 5144   2.701   2.492   4.706
 1415SOL    HW2 5145   2.561   2.448   4.634
 1416SOL     OW 5146   4.429   0.822   4.570
 1416SOL    HW1 5147   4.455   0.894   4.505
 1416SOL    HW2 5148   4.507   0.763   4.587
 1417SOL     OW 5149   3.687   3.085   5.946
 1417SOL    HW1 5150   3.776   3.124   5.969
 1417SOL    HW2 5151   3.621   3.158   5.929
 1418SOL     OW 5152   3.137   4.010   0.592
 1418SOL    HW1 5153   3.196   4.004   0.512
 1418SOL    HW2 5154   3.179   4.071   0.660
 1419SOL     OW 5155   1.718   5.423   4.148
 1419SOL    HW1 5156   1.739   5.469   4.234
 1419SOL    HW2 5157   1.725   5.324   4.160
 1420SOL     OW 5158   4.172   5.222   3.134
 1420SOL    HW1 5159   4.249   5.226   3.198
 1420SOL    HW2 5160   4.094   5.177   3.178
 1421SOL     OW 5161   0.968   4.548   4.287
 1421SOL    HW1 5162   0.996   4.615   4.356
 1421SOL    HW2 5163   0.868   4.545   4.283
 1422SOL     OW 5164   2.451   5.067   5.972
 1422SOL    HW1 5165   2.465   5.012   6.054
 1422SOL    HW2 5166   2.362   5.045   5.932
 1423SOL     OW 5167   4.076   1.889   4.594
 1423SOL    HW1 5168   4.014   1.967   4.581
 1423SOL    HW2 5169   4.154   1.898   4.532
 1424SOL     OW 5170   6.255   3.830   6.516
 1424SOL    HW1 5171   6.303   3.885   6.585
 1424SOL    HW2 5172   6.219   3.891   6.445
 1425SOL     OW 5173   2.510   6.031   4.846
 1425SOL    HW1 5174   2.563   6.106   4.806
 1425SOL    HW2 5175   2.572   5.957   4.873
 1426SOL     OW 5176   1.751   1.934   6.270
 1426SOL    HW1 5177   1.668   1.935   6.327
 1426SOL    HW2 5178   1.771   1.840   6.243
 1427SOL     OW 5179   0.439   0.529   3.628
 1427SOL    HW1 5180   0.499   0.474   3.686
 1427SOL    HW2 5181   0.408   0.609   3.679
 1428SOL     OW 5182   0.282   2.203   1.260
 1428SOL    HW1 5183   0.238   2.206   1.170
 1428SOL    HW2 5184   0.380   2.222   1.251
 1429SOL     OW 5185   6.100   1.636   6.783
 1429SOL    HW1 5186   6.138   1.556   6.737
 1429SOL    HW2 5187   6.101   1.714   6.720
 1430SOL     OW 5188   2.242   4.220   4.678
 1430SOL    HW1 5189   2.234   4.239   4.776
 1430SOL    HW2 5190   2.171   4.154   4.651
 1431SOL     OW 5191   2.662   2.554   5.914
 1431SOL    HW1 5192   2.660   2.461   5.879
 1431SOL    HW2 5193   2.756   2.577   5.940
 1432SOL     OW 5194   2.157   1.579   0.667
 1432SOL    HW1 5195   2.059   1.582   0.685
 1432SOL    HW2 5196   2.197   1.670   0.682
 1433SOL     OW 5197   3.953   0.171   3.653
 1433SOL    HW1 5198   3.904   0.083   3.649
 1433SOL    HW2 5199   3.984   0.188   3.747
 1434SOL     OW 5200   6.856   1.360   6.558
 1434SOL    HW1 5201   6.858   1.421   6.638
 1434SOL    HW2 5202   6.897   1.272   6.582
 1435SOL     OW 5203   0.281   0.655   4.064
 1435SOL    HW1 5204   0.345   0.683   4.135
 1435SOL    HW2 5205   0.233   0.572   4.094
 1436SOL     OW 5206   6.166   3.619   0.381
 1436SOL    HW1 5207   6.177   3.520   0.392
 1436SOL    HW2 5208   6.169   3.642   0.284
 1437SOL     OW 5209   3.203   0.920   5.337
 1437SOL    HW1 5210   3.217   1.017   5.321
 1437SOL    HW2 5211   3.116   0.891   5.297
 1438SOL     OW 5212   3.315   1.223   1.780
 1438SOL    HW1 5213   3.299   1.311   1.734
 1438SOL    HW2 5214   3.386   1.172   1.731
 1439SOL     OW 5215   0.874   5.751   0.481
 1439SOL    HW1 5216   0.913   5.751   0.573
 1439SOL    HW2 5217   0.776   5.771   0.487
 1440SOL     OW 5218   3.514   3.285   4.516
 1440SOL    HW1 5219   3.448   3.277   4.441
 1440SOL    HW2 5220   3.470   3.257   4.601
 1441SOL     OW 5221   6.753   3.573   3.327
 1441SOL    HW1 5222   6.701   3.521   3.259
 1441SOL    HW2 5223   6.727   3.669   3.321
 1442SOL     OW 5224   5.318   5.094   0.360
 1442SOL    HW1 5225   5.382   5.029   0.399
 1442SOL    HW2 5226   5.249   5.118   0.428
 1443SOL     OW 5227   0.934   0.759   3.934
 1443SOL    HW1 5228   1.020   0.743   3.983
 1443SOL    HW2 5229   0.933   0.851   3.897
 1444SOL     OW 5230   3.917   5.622   3.263
 1444SOL    HW1 5231   3.954   5.661   3.179
 1444SOL    HW2 5232   3.818   5.613   3.256
 1445SOL     OW 5233   0.715   2.781   1.743
 1445SOL    HW1 5234   0.670   2.846   1.804
 1445SOL    HW2 5235   0.654   2.759   1.666
 1446SOL     OW 5236   5.535   2.836   0.085
 1446SOL    HW1 5237   5.452   2.856   0.136
 1446SOL    HW2 5238   5.579   2.754   0.122
 1447SOL     OW 5239   6.606   0.668   5.284
 1447SOL    HW1 5240   6.601   0.576   5.244
 1447SOL    HW2 5241   6.517   0.713   5.276
 1448SOL     OW 5242   5.977   1.685   0.322
 1448SOL    HW1 5243   5.955   1.771   0.368
 1448SOL    HW2 5244   5.931   1.609   0.368
 1449SOL     OW 5245   5.821   6.907   7.000
 1449SOL    HW1 5246   5.799   6.870   6.910
 1449SOL    HW2 5247   5.864   6.997   6.989
 1450SOL     OW 5248   0.049   1.923   2.341
 1450SOL    HW1 5249   7.024   1.928   2.256
 1450SOL    HW2 5250   0.108   1.842   2.339
 1451SOL     OW 5251   3.073   1.024   2.864
 1451SOL    HW1 5252   3.132   1.104   2.878
 1451SOL    HW2 5253   2.977   1.052   2.870
 1452SOL     OW 5254   5.003   1.981   4.741
 1452SOL    HW1 5255   5.045   2.071   4.733
 1452SOL    HW2 5256   5.069   1.910   4.716
 1453SOL     OW 5257   5.903   3.614   4.726
 1453SOL    HW1 5258   5.947   3.704   4.724
 1453SOL    HW2 5259   5.807   3.624   4.699
 1454SOL     OW 5260   5.964   2.905   2.504
 1454SOL    HW1 5261   6.032   2.912   2.432
 1454SOL    HW2 5262   6.007   2.924   2.593
 1455SOL     OW 5263   0.998   0.395   1.968
 1455SOL    HW1 5264   0.944   0.335   1.909
 1455SOL    HW2 5265   1.061   0.448   1.912
 1456SOL     OW 5266   6.922   6.454   5.189
 1456SOL    HW1 5267   6.985   6.531   5.198
 1456SOL    HW2 5268   6.899   6.420   5.280
 1457SOL     OW 5269   1.426   0.472   1.918
 1457SOL    HW1 5270   1.357   0.519   1.973
 1457SOL    HW2 5271   1.463   0.536   1.850
 1458SOL     OW 5272   5.594   6.559   4.454
 1458SOL    HW1 5273   5.614   6.513   4.541
 1458SOL    HW2 5274   5.508   6.524   4.417
 1459SOL     OW 5275   2.531   4.158   6.645
 1459SOL    HW1 5276   2.607   4.117   6.695
 1459SOL    HW2 5277   2.546   4.148   6.547
 1460SOL     OW 5278   6.873   5.594   5.958
 1460SOL    HW1 5279   6.931   5.584   6.039
 1460SOL    HW2 5280   6.781   5.621   5.987
 1461SOL     OW 5281   6.699   4.874   3.379
 1461SOL    HW1 5282   6.739   4.899   3.291
 1461SOL    HW2 5283   6.763   4.898   3.452
 1462SOL     OW 5284   6.533   1.808   6.932
 1462SOL    HW1 5285   6.610   1.816   6.996
 1462SOL    HW2 5286   6.515   1.897   6.890
 1463SOL     OW 5287   0.208   6.408   5.868
 1463SOL    HW1 5288   0.125   6.399   5.923
 1463SOL    HW2 5289   0.252   6.496   5.887
 1464SOL     OW 5290   6.972   6.991   0.800
 1464SOL    HW1 5291   6.963   6.900   0.760
 1464SOL    HW2 5292   0.002   0.021   0.742
 1465SOL     OW 5293   1.223   1.320   3.277
 1465SOL    HW1 5294   1.313   1.309   3.234
 1465SOL    HW2 5295   1.234   1.329   3.376
 1466SOL     OW 5296   0.415   6.780   3.316
 1466SOL    HW1 5297   0.406   6.811   3.221
 1466SOL    HW2 5298   0.507   6.799   3.349
 1467SOL     OW 5299   1.765   0.218   2.223
 1467SOL    HW1 5300   1.862   0.201   2.208
 1467SOL    HW2 5301   1.735   0.295   2.167
 1468SOL     OW 5302   5.742   5.865   2.893
 1468SOL    HW1 5303   5.811   5.930   2.926
 1468SOL    HW2 5304   5.678   5.845   2.967
 1469SOL     OW 5305   0.474   0.933   2.979
 1469SOL    HW1 5306   0.394   0.946   2.921
 1469SOL    HW2 5307   0.549   0.897   2.925
 1470SOL     OW 5308   0.864   0.781   2.212
 1470SOL    HW1 5309   0.918   0.697   2.208
 1470SOL    HW2 5310   0.838   0.799   2.307
 1471SOL     OW 5311   0.977   0.610   6.927
 1471SOL    HW1 5312   1.075   0.589   6.934
 1471SOL    HW2 5313   0.962   0.706   6.948
 1472SOL     OW 5314   4.554   5.651   4.586
 1472SOL    HW1 5315   4.630   5.705   4.621
 1472SOL    HW2 5316   4.496   5.708   4.529
 1473SOL     OW 5317   6.088   6.129   3.826
 1473SOL    HW1 5318   6.017   6.085   3.770
 1473SOL    HW2 5319   6.170   6.141   3.770
 1474SOL     OW 5320   6.649   6.027   3.575
 1474SOL    HW1 5321   6.576   5.966   3.607
 1474SOL    HW2 5322   6.703   5.980   3.505
 1475SOL     OW 5323   0.393   0.371   1.781
 1475SOL    HW1 5324   0.464   0.410   1.841
 1475SOL    HW2 5325   0.323   0.440   1.764
 1476SOL     OW 5326   1.633   0.702   1.091
 1476SOL    HW1 5327   1.571   0.777   1.070
 1476SOL    HW2 5328   1.710   0.704   1.028
 1477SOL     OW 5329   2.784   0.125   6.722
 1477SOL    HW1 5330   2.716   0.151   6.791
 1477SOL    HW2 5331   2.855   0.196   6.717
 1478SOL     OW 5332   5.583   4.282   0.471
 1478SOL    HW1 5333   5.612   4.378   0.466
 1478SOL    HW2 5334   5.525   4.261   0.393
 1479SOL     OW 5335   1.349   4.604   0.235
 1479SOL    HW1 5336   1.424   4.544   0.206
 1479SOL    HW2 5337   1.371   4.644   0.324
 1480SOL     OW 5338   2.521   0.815   0.430
 1480SOL    HW1 5339   2.463   0.881   0.478
 1480SOL    HW2 5340   2.569   0.861   0.355
 1481SOL     OW 5341   6.138   1.890   4.701
 1481SOL    HW1 5342   6.125   1.958   4.773
 1481SOL    HW2 5343   6.172   1.935   4.618
 1482SOL     OW 5344   5.578   1.531   0.970
 1482SOL    HW1 5345   5.525   1.602   1.016
 1482SOL    HW2 5346   5.555   1.530   0.873
 1483SOL     OW 5347   0.527   3.110   6.098
 1483SOL    HW1 5348   0.577   3.082   6.017
 1483SOL    HW2 5349   0.470   3.189   6.077
 1484SOL     OW 5350   6.726   4.224   3.553
 1484SOL    HW1 5351   6.660   4.176   3.496
 1484SOL    HW2 5352   6.678   4.278   3.622
 1485SOL     OW 5353   4.365   2.409   2.601
 1485SOL    HW1 5354   4.312   2.433   2.520
 1485SOL    HW2 5355   4.458   2.447   2.593
 1486SOL     OW 5356   4.605   2.691   3.458
 1486SOL    HW1 5357   4.602   2.785   3.423
 1486SOL    HW2 5358   4.602   2.692   3.557
 1487SOL     OW 5359   6.683   1.802   6.607
 1487SOL    HW1 5360   6.605   1.864   6.609
 1487SOL    HW2 5361   6.653   1.710   6.582
 1488SOL     OW 5362   6.064   2.152   2.856
 1488SOL    HW1 5363   6.040   2.137   2.761
 1488SOL    HW2 5364   6.140   2.217   2.862
 1489SOL     OW 5365   3.821   4.957   4.575
 1489SOL    HW1 5366   3.779   4.951   4.665
 1489SOL    HW2 5367   3.887   5.032   4.573
 1490SOL     OW 5368   1.410   2.760   1.198
 1490SOL    HW1 5369   1.337   2.828   1.194
 1490SOL    HW2 5370   1.492   2.797   1.153
 1491SOL     OW 5371   0.118   3.734   3.027
 1491SOL    HW1 5372   0.078   3.748   3.117
 1491SOL    HW2 5373   0.057   3.677   2.972
 1492SOL     OW 5374   5.997   1.727   1.620
 1492SOL    HW1 5375   5.959   1.775   1.541
 1492SOL    HW2 5376   6.034   1.639   1.591
 1493SOL     OW 5377   4.826   0.709   4.840
 1493SOL    HW1 5378   4.901   0.764   4.877
 1493SOL    HW2 5379   4.821   0.622   4.888
 1494SOL     OW 5380   4.221   2.582   5.748
 1494SOL    HW1 5381   4.170   2.645   5.689
 1494SOL    HW2 5382   4.279   2.634   5.810
 1495SOL     OW 5383   0.943   3.399   3.488
 1495SOL    HW1 5384   0.972   3.424   3.581
 1495SOL    HW2 5385   1.000   3.447   3.421
 1496SOL     OW 5386   0.428   0.844   1.960
 1496SOL    HW1 5387   0.385   0.882   1.879
 1496SOL    HW2 5388   0.512   0.797   1.934
 1497SOL     OW 5389   0.123   4.045   3.391
 1497SOL    HW1 5390   0.210   4.048   3.439
 1497SOL    HW2 5391   0.048   4.061   3.455
 1498SOL     OW 5392   1.720   5.072   6.728
 1498SOL    HW1 5393   1.679   5.096   6.816
 1498SOL    HW2 5394   1.788   5.001   6.741
 1499SOL     OW 5395   1.133   3.578   4.922
 1499SOL    HW1 5396   1.229   3.550   4.914
 1499SOL    HW2 5397   1.081   3.505   4.966
 1500SOL     OW 5398   5.604   0.035   0.039
 1500SOL    HW1 5399   5.678   6.996   0.031
 1500SOL    HW2 5400   5.518   7.021   0.008
 1501SOL     OW 5401   4.425   0.888   6.130
 1501SOL    HW1 5402   4.374   0.811   6.168
 1501SOL    HW2 5403   4.445   0.954   6.203
 1502SOL     OW 5404   6.180   6.684   0.802
 1502SOL    HW1 5405   6.263   6.739   0.811
 1502SOL    HW2 5406   6.179   6.640   0.712
 1503SOL     OW 5407   2.506   2.762   1.168
 1503SOL    HW1 5408   2.512   2.668   1.135
 1503SOL    HW2 5409   2.516   2.764   1.267
 1504SOL     OW 5410   2.434   0.240   4.671
 1504SOL    HW1 5411   2.404   0.336   4.667
 1504SOL    HW2 5412   2.529   0.234   4.641
 1505SOL     OW 5413   5.160   0.571   6.699
 1505SOL    HW1 5414   5.257   0.551   6.712
 1505SOL    HW2 5415   5.108   0.535   6.776
 1506SOL     OW 5416   1.252   5.236   3.085
 1506SOL    HW1 5417   1.314   5.287   3.025
 1506SOL    HW2 5418   1.276   5.254   3.180
 1507SOL     OW 5419   1.515   1.911   4.674
 1507SOL    HW1 5420   1.415   1.907   4.680
 1507SOL    HW2 5421   1.555   1.886   4.762
 1508SOL     OW 5422   4.717   6.892   0.636
 1508SOL    HW1 5423   4.806   6.849   0.646
 1508SOL    HW2 5424   4.672   6.857   0.554
 1509SOL     OW 5425   4.006   2.722   5.963
 1509SOL    HW1 5426   4.028   2.633   5.923
 1509SOL    HW2 5427   3.917   2.752   5.931
 1510SOL     OW 5428   5.739   1.811   3.854
 1510SOL    HW1 5429   5.692   1.749   3.916
 1510SOL    HW2 5430   5.831   1.777   3.836
 1511SOL     OW 5431   2.473   2.235   6.683
 1511SOL    HW1 5432   2.533   2.312   6.704
 1511SOL    HW2 5433   2.455   2.184   6.768
 1512SOL     OW 5434   6.873   6.361   1.795
 1512SOL    HW1 5435   6.943   6.302   1.836
 1512SOL    HW2 5436   6.906   6.394   1.706
 1513SOL     OW 5437   4.486   0.737   3.794
 1513SOL    HW1 5438   4.393   0.701   3.801
 1513SOL    HW2 5439   4.528   0.739   3.885
 1514SOL     OW 5440   5.210   2.049   4.516
 1514SOL    HW1 5441   5.177   2.101   4.595
 1514SOL    HW2 5442   5.304   2.020   4.532
 1515SOL     OW 5443   6.754   2.852   5.973
 1515SOL    HW1 5444   6.836   2.857   6.030
 1515SOL    HW2 5445   6.774   2.894   5.884
 1516SOL     OW 5446   0.745   0.560   0.652
 1516SOL    HW1 5447   0.819   0.579   0.716
 1516SOL    HW2 5448   0.722   0.643   0.602
 1517SOL     OW 5449   5.083   5.628   3.849
 1517SOL    HW1 5450   5.091   5.650   3.946
 1517SOL    HW2 5451   5.101   5.710   3.795
 1518SOL     OW 5452   0.175   2.982   6.924
 1518SOL    HW1 5453   0.137   3.073   6.908
 1518SOL    HW2 5454   0.108   2.925   6.973
 1519SOL     OW 5455   6.996   4.687   1.849
 1519SOL    HW1 5456   0.000   4.687   1.944
 1519SOL    HW2 5457   6.961   4.777   1.826
 1520SOL     OW 5458   1.815   3.491   2.179
 1520SOL    HW1 5459   1.806   3.521   2.084
 1520SOL    HW2 5460   1.894   3.430   2.187
 1521SOL     OW 5461   2.211   3.426   6.905
 1521SOL    HW1 5462   2.151   3.489   6.855
 1521SOL    HW2 5463   2.306   3.456   6.895
 1522SOL     OW 5464   6.818   1.607   5.837
 1522SOL    HW1 5465   6.773   1.531   5.789
 1522SOL    HW2 5466   6.758   1.642   5.908
 1523SOL     OW 5467   5.049   3.965   6.685
 1523SOL    HW1 5468   5.127   3.907   6.662
 1523SOL    HW2 5469   4.970   3.940   6.629
 1524SOL     OW 5470   1.034   2.177   1.597
 1524SOL    HW1 5471   1.077   2.088   1.609
 1524SOL    HW2 5472   0.961   2.189   1.665
 1525SOL     OW 5473   4.950   2.632   5.862
 1525SOL    HW1 5474   5.048   2.643   5.842
 1525SOL    HW2 5475   4.923   2.698   5.932
 1526SOL     OW 5476   0.865   1.278   0.932
 1526SOL    HW1 5477   0.961   1.278   0.958
 1526SOL    HW2 5478   0.829   1.371   0.937
 1527SOL     OW 5479   3.698   1.140   4.581
 1527SOL    HW1 5480   3.792   1.172   4.570
 1527SOL    HW2 5481   3.662   1.170   4.669
 1528SOL     OW 5482   4.845   6.083   3.009
 1528SOL    HW1 5483   4.820   6.064   3.104
 1528SOL    HW2 5484   4.783   6.033   2.948
 1529SOL     OW 5485   4.032   1.294   6.239
 1529SOL    HW1 5486   4.050   1.229   6.313
 1529SOL    HW2 5487   4.078   1.380   6.259
 1530SOL     OW 5488   3.372   0.430   0.975
 1530SOL    HW1 5489   3.295   0.368   0.988
 1530SOL    HW2 5490   3.447   0.403   1.036
 1531SOL     OW 5491   6.138   1.377   4.849
 1531SOL    HW1 5492   6.212   1.312   4.864
 1531SOL    HW2 5493   6.175   1.463   4.815
 1532SOL     OW 5494   2.507   2.493   4.478
 1532SOL    HW1 5495   2.442   2.561   4.444
 1532SOL    HW2 5496   2.471   2.401   4.460
 1533SOL     OW 5497   6.983   3.430   6.550
 1533SOL    HW1 5498   0.047   3.405   6.581
 1533SOL    HW2 5499   6.917   3.415   6.623
 1534SOL     OW 5500   1.206   5.048   0.073
 1534SOL    HW1 5501   1.255   5.017   7.019
 1534SOL    HW2 5502   1.108   5.046   0.055
 1535SOL     OW 5503   5.990   6.052   4.349
 1535SOL    HW1 5504   6.011   6.149   4.349
 1535SOL    HW2 5505   5.938   6.029   4.266
 1536SOL     OW 5506   3.639   5.243   4.852
 1536SOL    HW1 5507   3.731   5.246   4.892
 1536SOL    HW2 5508   3.630   5.160   4.796
 1537SOL     OW 5509   3.655   5.566   3.244
 1537SOL    HW1 5510   3.561   5.534   3.256
 1537SOL    HW2 5511   3.660   5.622   3.161
 1538SOL     OW 5512   3.551   5.625   5.324
 1538SOL    HW1 5513   3.566   5.593   5.418
 1538SOL    HW2 5514   3.522   5.548   5.267
 1539SOL     OW 5515   4.145   4.396   1.385
 1539SOL    HW1 5516   4.127   4.471   1.321
 1539SOL    HW2 5517   4.190   4.321   1.336
 1540SOL     OW 5518   0.703   6.706   5.272
 1540SOL    HW1 5519   0.618   6.654   5.279
 1540SOL    HW2 5520   0.730   6.713   5.176
 1541SOL     OW 5521   4.078   2.295   1.118
 1541SOL    HW1 5522   4.133   2.296   1.202
 1541SOL    HW2 5523   3.981   2.284   1.142
 1542SOL     OW 5524   6.414   5.876   1.825
 1542SOL    HW1 5525   6.397   5.778   1.809
 1542SOL    HW2 5526   6.454   5.888   1.916
 1543SOL     OW 5527   3.035   3.594   3.895
 1543SOL    HW1 5528   3.078   3.504   3.902
 1543SOL    HW2 5529   3.026   3.633   3.987
 1544SOL     OW 5530   3.323   4.071   2.411
 1544SOL    HW1 5531   3.276   4.119   2.486
 1544SOL    HW2 5532   3.420   4.064   2.432
 1545SOL     OW 5533   5.759   1.072   5.613
 1545SOL    HW1 5534   5.699   1.141   5.571
 1545SOL    HW2 5535   5.703   0.996   5.646
 1546SOL     OW 5536   4.713   6.940   5.979
 1546SOL    HW1 5537   4.796   6.978   5.939
 1546SOL    HW2 5538   4.706   6.966   6.075
 1547SOL     OW 5539   1.900   3.794   2.531
 1547SOL    HW1 5540   1.876   3.890   2.517
 1547SOL    HW2 5541   1.903   3.747   2.443
 1548SOL     OW 5542   4.541   3.952   5.298
 1548SOL    HW1 5543   4.603   3.877   5.322
 1548SOL    HW2 5544   4.451   3.914   5.276
 1549SOL     OW 5545   6.054   1.029   2.241
 1549SOL    HW1 5546   6.053   1.124   2.273
 1549SOL    HW2 5547   6.146   1.004   2.211
 1550SOL     OW 5548   3.029   6.398   5.807
 1550SOL    HW1 5549   2.995   6.482   5.849
 1550SOL    HW2 5550   2.965   6.366   5.738
 1551SOL     OW 5551   1.529   3.229   1.059
 1551SOL    HW1 5552   1.582   3.287   1.120
 1551SOL    HW2 5553   1.507   3.143   1.105
 1552SOL     OW 5554   0.896   7.004   1.370
 1552SOL    HW1 5555   0.896   6.923   1.311
 1552SOL    HW2 5556   0.903   0.059   1.313
 1553SOL     OW 5557   6.238   2.259   6.370
 1553SOL    HW1 5558   6.302   2.297   6.302
 1553SOL    HW2 5559   6.273   2.276   6.462
 1554SOL     OW 5560   3.709   2.106   2.936
 1554SOL    HW1 5561   3.784   2.144   2.880
 1554SOL    HW2 5562   3.747   2.065   3.019
 1555SOL     OW 5563   4.544   2.573   5.672
 1555SOL    HW1 5564   4.507   2.612   5.757
 1555SOL    HW2 5565   4.481   2.502   5.638
 1556SOL     OW 5566   3.931   0.778   0.531
 1556SOL    HW1 5567   3.911   0.693   0.580
 1556SOL    HW2 5568   3.901   0.770   0.436
 1557SOL     OW 5569   2.856   2.397   0.634
 1557SOL    HW1 5570   2.779   2.404   0.698
 1557SOL    HW2 5571   2.941   2.386   0.684
 1558SOL     OW 5572   5.776   2.469   4.468
 1558SOL    HW1 5573   5.765   2.539   4.397
 1558SOL    HW2 5574   5.811   2.512   4.552
 1559SOL     OW 5575   0.712   2.710   1.393
 1559SOL    HW1 5576   0.791   2.674   1.444
 1559SOL    HW2 5577   0.730   2.804   1.365
 1560SOL     OW 5578   3.132   1.252   6.687
 1560SOL    HW1 5579   3.151   1.308   6.767
 1560SOL    HW2 5580   3.062   1.184   6.709
 1561SOL     OW 5581   4.636   5.010   3.424
 1561SOL    HW1 5582   4.655   5.072   3.500
 1561SOL    HW2 5583   4.721   4.967   3.393
 1562SOL     OW 5584   3.695   6.159   2.375
 1562SOL    HW1 5585   3.727   6.195   2.462
 1562SOL    HW2 5586   3.687   6.059   2.380
 1563SOL     OW 5587   2.317   1.787   5.461
 1563SOL    HW1 5588   2.385   1.815   5.529
 1563SOL    HW2 5589   2.335   1.834   5.375
 1564SOL     OW 5590   1.611   1.754   2.162
 1564SOL    HW1 5591   1.618   1.842   2.209
 1564SOL    HW2 5592   1.681   1.692   2.197
 1565SOL     OW 5593   4.516   5.284   4.743
 1565SOL    HW1 5594   4.448   5.355   4.760
 1565SOL    HW2 5595   4.527   5.228   4.826
 1566SOL     OW 5596   6.411   5.039   4.286
 1566SOL    HW1 5597   6.391   5.123   4.234
 1566SOL    HW2 5598   6.487   5.055   4.348
 1567SOL     OW 5599   5.958   5.658   0.153
 1567SOL    HW1 5600   6.027   5.597   0.191
 1567SOL    HW2 5601   5.868   5.631   0.188
 1568SOL     OW 5602   2.542   6.340   3.173
 1568SOL    HW1 5603   2.444   6.360   3.160
 1568SOL    HW2 5604   2.567   6.355   3.269
 1569SOL     OW 5605   3.796   6.979   3.083
 1569SOL    HW1 5606   3.834   0.031   3.034
 1569SOL    HW2 5607   3.697   6.991   3.093
 1570SOL     OW 5608   2.358   6.495   6.551
 1570SOL    HW1 5609   2.297   6.431   6.505
 1570SOL    HW2 5610   2.435   6.518   6.491
 1571SOL     OW 5611   1.110   2.614   2.864
 1571SOL    HW1 5612   1.155   2.651   2.945
 1571SOL    HW2 5613   1.059   2.686   2.818
 1572SOL     OW 5614   1.649   5.370   2.285
 1572SOL    HW1 5615   1.745   5.379   2.262
 1572SOL    HW2 5616   1.596   5.350   2.203
 1573SOL     OW 5617   5.347   5.054   2.559
 1573SOL    HW1 5618   5.281   5.054   2.635
 1573SOL    HW2 5619   5.413   4.981   2.573
 1574SOL     OW 5620   6.564   2.932   2.199
 1574SOL    HW1 5621   6.582   3.029   2.185
 1574SOL    HW2 5622   6.469   2.920   2.229
 1575SOL     OW 5623   2.545   0.308   1.297
 1575SOL    HW1 5624   2.495   0.286   1.214
 1575SOL    HW2 5625   2.539   0.406   1.314
 1576SOL     OW 5626   0.668   6.335   3.338
 1576SOL    HW1 5627   0.699   6.365   3.428
 1576SOL    HW2 5628   0.568   6.333   3.336
 1577SOL     OW 5629   2.551   0.474   6.247
 1577SOL    HW1 5630   2.528   0.524   6.164
 1577SOL    HW2 5631   2.485   0.496   6.319
 1578SOL     OW 5632   5.067   1.235   6.369
 1578SOL    HW1 5633   5.031   1.196   6.454
 1578SOL    HW2 5634   5.128   1.169   6.325
 1579SOL     OW 5635   6.820   2.339   1.189
 1579SOL    HW1 5636   6.917   2.330   1.167
 1579SOL    HW2 5637   6.790   2.260   1.242
 1580SOL     OW 5638   3.009   3.963   3.330
 1580SOL    HW1 5639   2.947   4.036   3.360
 1580SOL    HW2 5640   3.098   3.976   3.373
 1581SOL     OW 5641   0.029   4.031   5.849
 1581SOL    HW1 5642   0.059   4.061   5.759
 1581SOL    HW2 5643   0.104   4.043   5.915
 1582SOL     OW 5644   3.300   5.981   4.490
 1582SOL    HW1 5645   3.211   5.960   4.532
 1582SOL    HW2 5646   3.352   6.039   4.553
 1583SOL     OW 5647   0.824   5.719   4.375
 1583SOL    HW1 5648   0.858   5.788   4.311
 1583SOL    HW2 5649   0.724   5.715   4.370
 1584SOL     OW 5650   1.915   4.866   6.764
 1584SOL    HW1 5651   1.860   4.784   6.758
 1584SOL    HW2 5652   2.006   4.843   6.798
 1585SOL     OW 5653   4.178   1.595   3.025
 1585SOL    HW1 5654   4.090   1.550   3.013
 1585SOL    HW2 5655   4.172   1.659   3.103
 1586SOL     OW 5656   2.937   4.756   3.031
 1586SOL    HW1 5657   2.991   4.712   2.959
 1586SOL    HW2 5658   2.961   4.853   3.037
 1587SOL     OW 5659   1.961   5.082   5.426
 1587SOL    HW1 5660   1.977   5.111   5.331
 1587SOL    HW2 5661   2.005   5.147   5.488
 1588SOL     OW 5662   4.946   0.648   2.730
 1588SOL    HW1 5663   4.928   0.550   2.723
 1588SOL    HW2 5664   4.872   0.693   2.780
 1589SOL     OW 5665   0.101   3.070   2.616
 1589SOL    HW1 5666   0.045   3.083   2.535
 1589SOL    HW2 5667   0.119   3.158   2.659
 1590SOL     OW 5668   4.683   0.963   3.716
 1590SOL    HW1 5669   4.761   0.972   3.777
 1590SOL    HW2 5670   4.645   0.871   3.724
 1591SOL     OW 5671   0.371   6.272   1.154
 1591SOL    HW1 5672   0.409   6.276   1.246
 1591SOL    HW2 5673   0.374   6.363   1.112
 1592SOL     OW 5674   1.876   3.861   0.045
 1592SOL    HW1 5675   1.876   3.780   7.014
 1592SOL    HW2 5676   1.801   3.856   0.110
 1593SOL     OW 5677   0.682   6.785   6.240
 1593SOL    HW1 5678   0.701   6.755   6.146
 1593SOL    HW2 5679   0.598   6.742   6.272
 1594SOL     OW 5680   6.945   5.811   2.282
 1594SOL    HW1 5681   6.889   5.893   2.292
 1594SOL    HW2 5682   6.956   5.789   2.185
 1595SOL     OW 5683   0.545   4.350   0.404
 1595SOL    HW1 5684   0.533   4.445   0.378
 1595SOL    HW2 5685   0.599   4.345   0.489
 1596SOL     OW 5686   6.640   3.196   2.210
 1596SOL    HW1 5687   6.702   3.231   2.141
 1596SOL    HW2 5688   6.635   3.260   2.287
 1597SOL     OW 5689   2.284   5.956   1.258
 1597SOL    HW1 5690   2.251   5.994   1.344
 1597SOL    HW2 5691   2.211   5.904   1.213
 1598SOL     OW 5692   1.383   5.223   6.572
 1598SOL    HW1 5693   1.343   5.315   6.571
 1598SOL    HW2 5694   1.480   5.229   6.549
 1599SOL     OW 5695   5.288   5.060   5.492
 1599SOL    HW1 5696   5.236   4.975   5.485
 1599SOL    HW2 5697   5.368   5.046   5.550
 1600SOL     OW 5698   2.850   1.247   2.264
 1600SOL    HW1 5699   2.834   1.344   2.248
 1600SOL    HW2 5700   2.773   1.209   2.315
 1601SOL     OW 5701   0.636   6.588   4.541
 1601SOL    HW1 5702   0.590   6.539   4.615
 1601SOL    HW2 5703   0.580   6.586   4.458
 1602SOL     OW 5704   4.688   5.244   4.523
 1602SOL    HW1 5705   4.676   5.147   4.500
 1602SOL    HW2 5706   4.611   5.275   4.579
 1603SOL     OW 5707   2.741   5.158   3.526
 1603SOL    HW1 5708   2.792   5.100   3.590
 1603SOL    HW2 5709   2.706   5.102   3.451
 1604SOL     OW 5710   3.790   5.111   1.385
 1604SOL    HW1 5711   3.714   5.171   1.408
 1604SOL    HW2 5712   3.829   5.073   1.468
 1605SOL     OW 5713   6.750   5.496   1.542
 1605SOL    HW1 5714   6.842   5.486   1.505
 1605SOL    HW2 5715   6.683   5.481   1.470
 1606SOL     OW 5716   4.047   5.581   5.372
 1606SOL    HW1 5717   3.963   5.634   5.366
 1606SOL    HW2 5718   4.095   5.581   5.284
 1607SOL     OW 5719   4.215   0.296   0.687
 1607SOL    HW1 5720   4.221   0.265   0.592
 1607SOL    HW2 5721   4.238   0.393   0.692
 1608SOL     OW 5722   6.701   0.701   2.999
 1608SOL    HW1 5723   6.664   0.791   2.976
 1608SOL    HW2 5724   6.635   0.631   2.972
 1609SOL     OW 5725   3.395   6.890   0.897
 1609SOL    HW1 5726   3.410   6.794   0.876
 1609SOL    HW2 5727   3.304   6.902   0.936
 1610SOL     OW 5728   4.717   6.068   0.844
 1610SOL    HW1 5729   4.617   6.060   0.845
 1610SOL    HW2 5730   4.745   6.139   0.908
 1611SOL     OW 5731   1.660   3.247   0.805
 1611SOL    HW1 5732   1.591   3.241   0.877
 1611SOL    HW2 5733   1.728   3.174   0.816
 1612SOL     OW 5734   3.471   6.729   1.736
 1612SOL    HW1 5735   3.491   6.631   1.737
 1612SOL    HW2 5736   3.381   6.746   1.776
 1613SOL     OW 5737   0.523   5.440   2.027
 1613SOL    HW1 5738   0.587   5.454   1.952
 1613SOL    HW2 5739   0.487   5.529   2.056
 1614SOL     OW 5740   5.647   1.908   6.209
 1614SOL    HW1 5741   5.655   1.917   6.308
 1614SOL    HW2 5742   5.608   1.991   6.170
 1615SOL     OW 5743   6.596   5.908   6.444
 1615SOL    HW1 5744   6.554   5.913   6.353
 1615SOL    HW2 5745   6.665   5.836   6.445
 1616SOL     OW 5746   4.380   0.196   3.440
 1616SOL    HW1 5747   4.388   0.295   3.441
 1616SOL    HW2 5748   4.283   0.170   3.435
 1617SOL     OW 5749   4.905   6.336   3.102
 1617SOL    HW1 5750   4.889   6.243   3.070
 1617SOL    HW2 5751   4.842   6.399   3.056
 1618SOL     OW 5752   1.125   6.457   3.125
 1618SOL    HW1 5753   1.148   6.440   3.220
 1618SOL    HW2 5754   1.180   6.533   3.090
 1619SOL     OW 5755   0.200   5.317   0.134
 1619SOL    HW1 5756   0.112   5.307   0.179
 1619SOL    HW2 5757   0.186   5.355   0.042
 1620SOL     OW 5758   3.303   4.593   1.709
 1620SOL    HW1 5759   3.366   4.596   1.787
 1620SOL    HW2 5760   3.336   4.656   1.638
 1621SOL     OW 5761   5.906   6.958   0.718
 1621SOL    HW1 5762   5.873   6.869   0.687
 1621SOL    HW2 5763   5.980   6.989   0.657
 1622SOL     OW 5764   0.510   3.295   5.486
 1622SOL    HW1 5765   0.431   3.314   5.428
 1622SOL    HW2 5766   0.590   3.342   5.450
 1623SOL     OW 5767   0.490   2.419   4.742
 1623SOL    HW1 5768   0.450   2.330   4.720
 1623SOL    HW2 5769   0.419   2.490   4.736
 1624SOL     OW 5770   4.342   1.567   5.704
 1624SOL    HW1 5771   4.372   1.568   5.608
 1624SOL    HW2 5772   4.415   1.530   5.761
 1625SOL     OW 5773   1.487   5.335   6.949
 1625SOL    HW1 5774   1.572   5.294   6.982
 1625SOL    HW2 5775   1.422   5.263   6.925
 1626SOL     OW 5776   3.306   1.452   1.365
 1626SOL    HW1 5777   3.368   1.400   1.423
 1626SOL    HW2 5778   3.212   1.440   1.396
 1627SOL     OW 5779   5.643   3.043   3.724
 1627SOL    HW1 5780   5.599   2.993   3.799
 1627SOL    HW2 5781   5.642   2.986   3.642
 1628SOL     OW 5782   4.293   5.740   6.760
 1628SOL    HW1 5783   4.257   5.713   6.671
 1628SOL    HW2 5784   4.379   5.693   6.777
 1629SOL     OW 5785   2.530   1.253   3.997
 1629SOL    HW1 5786   2.618   1.283   4.033
 1629SOL    HW2 5787   2.473   1.333   3.978
 1630SOL     OW 5788   6.690   4.389   5.435
 1630SOL    HW1 5789   6.632   4.312   5.458
 1630SOL    HW2 5790   6.642   4.474   5.455
 1631SOL     OW 5791   0.588   2.780   0.393
 1631SOL    HW1 5792   0.494   2.787   0.359
 1631SOL    HW2 5793   0.588   2.792   0.493
 1632SOL     OW 5794   4.940   3.367   2.568
 1632SOL    HW1 5795   4.916   3.275   2.539
 1632SOL    HW2 5796   5.000   3.409   2.501
 1633SOL     OW 5797   5.119   4.229   4.663
 1633SOL    HW1 5798   5.194   4.167   4.641
 1633SOL    HW2 5799   5.031   4.186   4.641
 1634SOL     OW 5800   4.869   0.619   4.155
 1634SOL    HW1 5801   4.837   0.671   4.234
 1634SOL    HW2 5802   4.969   0.611   4.157
 1635SOL     OW 5803   0.501   5.011   6.593
 1635SOL    HW1 5804   0.530   5.008   6.689
 1635SOL    HW2 5805   0.580   4.992   6.534
 1636SOL     OW 5806   3.231   5.091   1.844
 1636SOL    HW1 5807   3.201   5.182   1.873
 1636SOL    HW2 5808   3.270   5.043   1.922
 1637SOL     OW 5809   6.889   6.683   3.866
 1637SOL    HW1 5810   6.962   6.749   3.877
 1637SOL    HW2 5811   6.928   6.594   3.841
 1638SOL     OW 5812   0.903   3.094   2.326
 1638SOL    HW1 5813   0.961   3.022   2.289
 1638SOL    HW2 5814   0.904   3.173   2.264
 1639SOL     OW 5815   5.592   5.320   1.961
 1639SOL    HW1 5816   5.593   5.221   1.944
 1639SOL    HW2 5817   5.672   5.344   2.016
 1640SOL     OW 5818   5.969   0.105   6.939
 1640SOL    HW1 5819   5.944   0.200   6.960
 1640SOL    HW2 5820   6.068   0.093   6.952
 1641SOL     OW 5821   6.670   2.317   3.065
 1641SOL    HW1 5822   6.725   2.233   3.064
 1641SOL    HW2 5823   6.693   2.373   2.985
 1642SOL     OW 5824   6.742   3.118   6.468
 1642SOL    HW1 5825   6.659   3.164   6.499
 1642SOL    HW2 5826   6.738   3.021   6.493
 1643SOL     OW 5827   2.695   4.670   2.957
 1643SOL    HW1 5828   2.637   4.750   2.943
 1643SOL    HW2 5829   2.787   4.699   2.980
 1644SOL     OW 5830   5.300   3.533   6.580
 1644SOL    HW1 5831   5.365   3.587   6.526
 1644SOL    HW2 5832   5.308   3.437   6.556
 1645SOL     OW 5833   3.232   6.305   6.015
 1645SOL    HW1 5834   3.150   6.283   6.068
 1645SOL    HW2 5835   3.256   6.401   6.027
 1646SOL     OW 5836   2.347   6.962   0.569
 1646SOL    HW1 5837   2.441   6.927   0.569
 1646SOL    HW2 5838   2.283   6.885   0.577
 1647SOL     OW 5839   6.434   2.381   4.135
 1647SOL    HW1 5840   6.336   2.363   4.123
 1647SOL    HW2 5841   6.468   2.430   4.055
 1648SOL     OW 5842   5.562   6.465   0.573
 1648SOL    HW1 5843   5.546   6.559   0.605
 1648SOL    HW2 5844   5.541   6.459   0.476
 1649SOL     OW 5845   3.706   1.263   4.838
 1649SOL    HW1 5846   3.608   1.271   4.856
 1649SOL    HW2 5847   3.745   1.355   4.826
 1650SOL     OW 5848   0.907   5.677   4.811
 1650SOL    HW1 5849   0.935   5.751   4.749
 1650SOL    HW2 5850   0.978   5.606   4.812
 1651SOL     OW 5851   0.752   2.342   2.518
 1651SOL    HW1 5852   0.690   2.319   2.442
 1651SOL    HW2 5853   0.702   2.396   2.586
 1652SOL     OW 5854   1.337   3.599   2.246
 1652SOL    HW1 5855   1.247   3.624   2.211
 1652SOL    HW2 5856   1.329   3.567   2.340
 1653SOL     OW 5857   0.343   6.535   1.008
 1653SOL    HW1 5858   0.345   6.615   1.067
 1653SOL    HW2 5859   0.249   6.501   1.002
 1654SOL     OW 5860   6.897   3.427   0.942
 1654SOL    HW1 5861   6.825   3.454   0.879
 1654SOL    HW2 5862   6.950   3.508   0.969
 1655SOL     OW 5863   6.911   1.662   4.345
 1655SOL    HW1 5864   6.819   1.693   4.370
 1655SOL    HW2 5865   6.912   1.636   4.248
 1656SOL     OW 5866   1.726   5.407   3.096
 1656SOL    HW1 5867   1.699   5.457   3.178
 1656SOL    HW2 5868   1.800   5.343   3.118
 1657SOL     OW 5869   5.534   0.271   3.970
 1657SOL    HW1 5870   5.511   0.226   4.056
 1657SOL    HW2 5871   5.579   0.205   3.910
 1658SOL     OW 5872   6.326   0.168   1.275
 1658SOL    HW1 5873   6.374   0.203   1.355
 1658SOL    HW2 5874   6.305   0.243   1.213
 1659SOL     OW 5875   3.541   0.389   0.141
 1659SOL    HW1 5876   3.547   0.471   0.083
 1659SOL    HW2 5877   3.632   0.349   0.152
 1660SOL     OW 5878   2.063   6.519   2.341
 1660SOL    HW1 5879   2.082   6.617   2.344
 1660SOL    HW2 5880   2.129   6.474   2.282
 1661SOL     OW 5881   1.773   5.867   1.784
 1661SOL    HW1 5882   1.807   5.872   1.878
 1661SOL    HW2 5883   1.847   5.841   1.723
 1662SOL     OW 5884   0.079   0.915   4.332
 1662SOL    HW1 5885   0.093   0.903   4.234
 1662SOL    HW2 5886   7.009   0.925   4.352
 1663SOL     OW 5887   4.769   5.344   3.534
 1663SOL    HW1 5888   4.680   5.379   3.506
 1663SOL    HW2 5889   4.800   5.393   3.616
 1664SOL     OW 5890   2.093   6.006   5.477
 1664SOL    HW1 5891   2.006   6.049   5.450
 1664SOL    HW2 5892   2.122   5.942   5.406
 1665SOL     OW 5893   6.500   3.636   1.678
 1665SOL    HW1 5894   6.437   3.638   1.756
 1665SOL    HW2 5895   6.562   3.558   1.687
 1666SOL     OW 5896   5.574   0.348   0.389
 1666SOL    HW1 5897   5.558   0.262   0.438
 1666SOL    HW2 5898   5.572   0.424   0.453
 1667SOL     OW 5899   6.826   5.737   1.671
 1667SOL    HW1 5900   6.802   5.661   1.610
 1667SOL    HW2 5901   6.851   5.701   1.761
 1668SOL     OW 5902   5.114   4.923   3.822
 1668SOL    HW1 5903   5.085   5.015   3.847
 1668SOL    HW2 5904   5.070   4.856   3.882
 1669SOL     OW 5905   6.698   4.843   5.951
 1669SOL    HW1 5906   6.684   4.918   5.886
 1669SOL    HW2 5907   6.610   4.816   5.990
 1670SOL     OW 5908   0.696   4.730   5.236
 1670SOL    HW1 5909   0.647   4.649   5.202
 1670SOL    HW2 5910   0.776   4.701   5.289
 1671SOL     OW 5911   5.663   1.192   3.357
 1671SOL    HW1 5912   5.754   1.216   3.391
 1671SOL    HW2 5913   5.656   1.213   3.260
 1672SOL     OW 5914   2.623   3.720   0.517
 1672SOL    HW1 5915   2.619   3.662   0.436
 1672SOL    HW2 5916   2.532   3.755   0.538
 1673SOL     OW 5917   1.107   1.758   4.627
 1673SOL    HW1 5918   1.176   1.763   4.699
 1673SOL    HW2 5919   1.132   1.820   4.552
 1674SOL     OW 5920   0.362   3.290   2.105
 1674SOL    HW1 5921   0.281   3.320   2.055
 1674SOL    HW2 5922   0.381   3.194   2.084
 1675SOL     OW 5923   4.567   0.354   0.051
 1675SOL    HW1 5924   4.659   0.389   0.071
 1675SOL    HW2 5925   4.500   0.423   0.077
 1676SOL     OW 5926   2.154   2.630   2.101
 1676SOL    HW1 5927   2.241   2.589   2.072
 1676SOL    HW2 5928   2.167   2.728   2.115
 1677SOL     OW 5929   4.142   3.693   3.860
 1677SOL    HW1 5930   4.148   3.734   3.951
 1677SOL    HW2 5931   4.109   3.599   3.867
 1678SOL     OW 5932   6.735   5.248   2.012
 1678SOL    HW1 5933   6.830   5.260   2.040
 1678SOL    HW2 5934   6.715   5.305   1.933
 1679SOL     OW 5935   1.546   1.302   4.515
 1679SOL    HW1 5936   1.500   1.317   4.427
 1679SOL    HW2 5937   1.644   1.296   4.501
 1680SOL     OW 5938   6.377   4.365   5.720
 1680SOL    HW1 5939   6.443   4.440   5.721
 1680SOL    HW2 5940   6.425   4.278   5.717
 1681SOL     OW 5941   1.147   5.883   6.128
 1681SOL    HW1 5942   1.236   5.927   6.124
 1681SOL    HW2 5943   1.117   5.860   6.036
 1682SOL     OW 5944   1.705   0.595   5.563
 1682SOL    HW1 5945   1.699   0.524   5.494
 1682SOL    HW2 5946   1.667   0.681   5.528
 1683SOL     OW 5947   6.177   5.603   2.443
 1683SOL    HW1 5948   6.199   5.519   2.491
 1683SOL    HW2 5949   6.254   5.628   2.383
 1684SOL     OW 5950   0.189   5.436   2.240
 1684SOL    HW1 5951   0.265   5.496   2.214
 1684SOL    HW2 5952   0.218   5.378   2.316
 1685SOL     OW 5953   2.031   1.407   5.927
 1685SOL    HW1 5954   2.011   1.400   5.829
 1685SOL    HW2 5955   1.987   1.331   5.975
 1686SOL     OW 5956   2.976   6.081   4.340
 1686SOL    HW1 5957   2.969   5.990   4.300
 1686SOL    HW2 5958   3.057   6.127   4.304
 1687SOL     OW 5959   1.137   2.398   1.856
 1687SOL    HW1 5960   1.053   2.344   1.859
 1687SOL    HW2 5961   1.160   2.429   1.948
 1688SOL     OW 5962   1.758   1.205   3.751
 1688SOL    HW1 5963   1.740   1.270   3.825
 1688SOL    HW2 5964   1.692   1.219   3.678
 1689SOL     OW 5965   6.277   0.703   2.986
 1689SOL    HW1 5966   6.246   0.609   2.970
 1689SOL    HW2 5967   6.217   0.746   3.054
 1690SOL     OW 5968   1.530   3.233   4.486
 1690SOL    HW1 5969   1.467   3.303   4.520
 1690SOL    HW2 5970   1.496   3.143   4.511
 1691SOL     OW 5971   6.227   3.304   3.923
 1691SOL    HW1 5972   6.236   3.284   3.825
 1691SOL    HW2 5973   6.146   3.259   3.959
 1692SOL     OW 5974   4.886   6.181   1.625
 1692SOL    HW1 5975   4.896   6.278   1.648
 1692SOL    HW2 5976   4.976   6.139   1.612
 1693SOL     OW 5977   6.764   2.383   3.351
 1693SOL    HW1 5978   6.854   2.368   3.311
 1693SOL    HW2 5979   6.697   2.397   3.277
 1694SOL     OW 5980   6.477   1.570   3.684
 1694SOL    HW1 5981   6.539   1.501   3.723
 1694SOL    HW2 5982   6.523   1.659   3.683
 1695SOL     OW 5983   3.140   0.605   6.502
 1695SOL    HW1 5984   3.222   0.613   6.445
 1695SOL    HW2 5985   3.076   0.678   6.478
 1696SOL     OW 5986   3.129   5.804   0.887
 1696SOL    HW1 5987   3.216   5.824   0.843
 1696SOL    HW2 5988   3.091   5.889   0.926
 1697SOL     OW 5989   6.625   1.540   0.807
 1697SOL    HW1 5990   6.579   1.457   0.775
 1697SOL    HW2 5991   6.664   1.524   0.898
 1698SOL     OW 5992   4.018   0.145   1.301
 1698SOL    HW1 5993   4.057   0.156   1.392
 1698SOL    HW2 5994   3.936   0.088   1.307
 1699SOL     OW 5995   1.806   1.707   5.844
 1699SOL    HW1 5996   1.827   1.700   5.746
 1699SOL    HW2 5997   1.860   1.782   5.883
 1700SOL     OW 5998   6.664   4.081   2.828
 1700SOL    HW1 5999   6.666   4.112   2.733
 1700SOL    HW2 6000   6.610   3.997   2.834
 1701SOL     OW 6001   5.803   6.113   5.449
 1701SOL    HW1 6002   5.735   6.056   5.494
 1701SOL    HW2 6003   5.883   6.058   5.423
 1702SOL     OW 6004   6.990   1.154   1.242
 1702SOL    HW1 6005   0.055   1.167   1.207
 1702SOL    HW2 6006   6.930   1.125   1.168
 1703SOL     OW 6007   3.834   1.197   6.984
 1703SOL    HW1 6008   3.831   1.174   6.887
 1703SOL    HW2 6009   3.929   1.194   7.016
 1704SOL     OW 6010   1.411   2.710   0.267
 1704SOL    HW1 6011   1.380   2.616   0.254
 1704SOL    HW2 6012   1.361   2.752   0.343
 1705SOL     OW 6013   3.409   2.417   1.751
 1705SOL    HW1 6014   3.378   2.342   1.692
 1705SOL    HW2 6015   3.499   2.395   1.788
 1706SOL     OW 6016   4.157   1.890   2.080
 1706SOL    HW1 6017   4.108   1.964   2.034
 1706SOL    HW2 6018   4.158   1.906   2.178
 1707SOL     OW 6019   4.824   2.672   2.721
 1707SOL    HW1 6020   4.813   2.769   2.701
 1707SOL    HW2 6021   4.830   2.659   2.820
 1708SOL     OW 6022   4.450   5.411   1.362
 1708SOL    HW1 6023   4.457   5.474   1.439
 1708SOL    HW2 6024   4.386   5.337   1.383
 1709SOL     OW 6025   3.570   6.762   2.509
 1709SOL    HW1 6026   3.477   6.769   2.544
 1709SOL    HW2 6027   3.599   6.666   2.510
 1710SOL     OW 6028   4.500   4.830   3.651
 1710SOL    HW1 6029   4.569   4.902   3.646
 1710SOL    HW2 6030   4.481   4.796   3.558
 1711SOL     OW 6031   1.907   5.397   4.589
 1711SOL    HW1 6032   2.007   5.401   4.594
 1711SOL    HW2 6033   1.877   5.433   4.500
 1712SOL     OW 6034   0.064   2.211   5.015
 1712SOL    HW1 6035   0.057   2.208   5.115
 1712SOL    HW2 6036   0.131   2.281   4.989
 1713SOL     OW 6037   4.395   1.273   2.586
 1713SOL    HW1 6038   4.350   1.325   2.513
 1713SOL    HW2 6039   4.489   1.306   2.597
 1714SOL     OW 6040   4.212   1.628   5.938
 1714SOL    HW1 6041   4.279   1.629   5.864
 1714SOL    HW2 6042   4.246   1.681   6.015
 1715SOL     OW 6043   1.934   6.275   3.039
 1715SOL    HW1 6044   1.957   6.252   2.945
 1715SOL    HW2 6045   2.005   6.240   3.100
 1716SOL     OW 6046   4.456   0.173   4.013
 1716SOL    HW1 6047   4.443   0.271   4.003
 1716SOL    HW2 6048   4.552   0.150   3.994
 1717SOL     OW 6049   3.246   5.789   4.311
 1717SOL    HW1 6050   3.259   5.867   4.373
 1717SOL    HW2 6051   3.232   5.822   4.218
 1718SOL     OW 6052   2.565   1.250   2.088
 1718SOL    HW1 6053   2.545   1.341   2.124
 1718SOL    HW2 6054   2.485   1.191   2.101
 1719SOL     OW 6055   1.959   3.443   0.961
 1719SOL    HW1 6056   1.932   3.392   0.879
 1719SOL    HW2 6057   2.003   3.382   1.026
 1720SOL     OW 6058   0.102   3.063   5.967
 1720SOL    HW1 6059   0.200   3.048   5.982
 1720SOL    HW2 6060   0.053   2.977   5.981
 1721SOL     OW 6061   1.542   6.883   1.461
 1721SOL    HW1 6062   1.628   6.841   1.429
 1721SOL    HW2 6063   1.540   6.884   1.561
 1722SOL     OW 6064   4.353   1.456   3.633
 1722SOL    HW1 6065   4.445   1.481   3.604
 1722SOL    HW2 6066   4.336   1.360   3.610
 1723SOL     OW 6067   4.998   2.603   0.024
 1723SOL    HW1 6068   4.959   2.575   0.112
 1723SOL    HW2 6069   4.974   2.536   6.981
 1724SOL     OW 6070   6.996   2.474   1.959
 1724SOL    HW1 6071   6.979   2.563   2.003
 1724SOL    HW2 6072   6.914   2.445   1.910
 1725SOL     OW 6073   1.849   5.128   0.179
 1725SOL    HW1 6074   1.896   5.183   0.248
 1725SOL    HW2 6075   1.907   5.052   0.151
 1726SOL     OW 6076   5.181   3.743   4.568
 1726SOL    HW1 6077   5.210   3.697   4.652
 1726SOL    HW2 6078   5.082   3.736   4.560
 1727SOL     OW 6079   4.077   3.576   3.597
 1727SOL    HW1 6080   4.057   3.671   3.620
 1727SOL    HW2 6081   4.084   3.522   3.680
 1728SOL     OW 6082   5.464   4.746   5.470
 1728SOL    HW1 6083   5.555   4.720   5.439
 1728SOL    HW2 6084   5.472   4.801   5.553
 1729SOL     OW 6085   1.737   3.400   3.019
 1729SOL    HW1 6086   1.724   3.306   3.053
 1729SOL    HW2 6087   1.745   3.398   2.919
 1730SOL     OW 6088   2.798   0.067   4.904
 1730SOL    HW1 6089   2.754   7.024   4.848
 1730SOL    HW2 6090   2.893   0.078   4.874
 1731SOL     OW 6091   6.578   4.602   3.438
 1731SOL    HW1 6092   6.628   4.675   3.391
 1731SOL    HW2 6093   6.567   4.524   3.376
 1732SOL     OW 6094   2.153   4.615   6.502
 1732SOL    HW1 6095   2.078   4.651   6.447
 1732SOL    HW2 6096   2.119   4.590   6.593
 1733SOL     OW 6097   2.093   4.038   1.744
 1733SOL    HW1 6098   2.097   4.138   1.743
 1733SOL    HW2 6099   2.009   4.007   1.698
 1734SOL     OW 6100   5.753   2.853   1.840
 1734SOL    HW1 6101   5.654   2.842   1.848
 1734SOL    HW2 6102   5.797   2.764   1.838
 1735SOL     OW 6103   4.840   5.622   5.978
 1735SOL    HW1 6104   4.931   5.581   5.977
 1735SOL    HW2 6105   4.827   5.677   5.895
 1736SOL     OW 6106   3.945   3.604   0.629
 1736SOL    HW1 6107   3.853   3.568   0.615
 1736SOL    HW2 6108   3.972   3.589   0.725
 1737SOL     OW 6109   5.068   6.762   4.701
 1737SOL    HW1 6110   5.041   6.817   4.622
 1737SOL    HW2 6111   5.011   6.786   4.780
 1738SOL     OW 6112   2.238   2.998   3.711
 1738SOL    HW1 6113   2.286   2.963   3.791
 1738SOL    HW2 6114   2.210   3.093   3.728
 1739SOL     OW 6115   6.527   1.461   4.587
 1739SOL    HW1 6116   6.551   1.447   4.683
 1739SOL    HW2 6117   6.451   1.402   4.562
 1740SOL     OW 6118   6.805   1.876   5.091
 1740SOL    HW1 6119   6.725   1.915   5.046
 1740SOL    HW2 6120   6.842   1.943   5.156
 1741SOL     OW 6121   2.628   0.941   4.653
 1741SOL    HW1 6122   2.642   0.951   4.554
 1741SOL    HW2 6123   2.642   1.030   4.697
 1742SOL     OW 6124   5.447   0.533   5.771
 1742SOL    HW1 6125   5.400   0.536   5.859
 1742SOL    HW2 6126   5.544   0.514   5.785
 1743SOL     OW 6127   0.689   1.068   2.784
 1743SOL    HW1 6128   0.628   0.993   2.760
 1743SOL    HW2 6129   0.722   1.113   2.701
 1744SOL     OW 6130   5.970   3.245   3.111
 1744SOL    HW1 6131   6.045   3.310   3.129
 1744SOL    HW2 6132   5.887   3.278   3.155
 1745SOL     OW 6133   5.522   6.288   2.361
 1745SOL    HW1 6134   5.567   6.275   2.449
 1745SOL    HW2 6135   5.449   6.221   2.350
 1746SOL     OW 6136   1.655   4.614   4.006
 1746SOL    HW1 6137   1.692   4.553   4.075
 1746SOL    HW2 6138   1.555   4.611   4.007
 1747SOL     OW 6139   3.355   1.582   2.840
 1747SOL    HW1 6140   3.335   1.502   2.783
 1747SOL    HW2 6141   3.301   1.577   2.925
 1748SOL     OW 6142   6.566   2.152   4.142
 1748SOL    HW1 6143   6.504   2.231   4.141
 1748SOL    HW2 6144   6.656   2.181   4.175
 1749SOL     OW 6145   2.046   6.944   6.329
 1749SOL    HW1 6146   2.130   6.893   6.309
 1749SOL    HW2 6147   1.980   6.884   6.374
 1750SOL     OW 6148   5.568   0.430   3.742
 1750SOL    HW1 6149   5.540   0.399   3.832
 1750SOL    HW2 6150   5.645   0.374   3.709
 1751SOL     OW 6151   5.496   1.628   5.003
 1751SOL    HW1 6152   5.480   1.673   5.091
 1751SOL    HW2 6153   5.595   1.623   4.986
 1752SOL     OW 6154   5.906   0.637   1.364
 1752SOL    HW1 6155   5.808   0.651   1.382
 1752SOL    HW2 6156   5.924   0.653   1.267
 1753SOL     OW 6157   6.752   0.809   2.010
 1753SOL    HW1 6158   6.696   0.766   1.939
 1753SOL    HW2 6159   6.829   0.750   2.032
 1754SOL     OW 6160   1.750   5.486   6.657
 1754SOL    HW1 6161   1.781   5.562   6.600
 1754SOL    HW2 6162   1.828   5.429   6.682
 1755SOL     OW 6163   0.185   6.234   6.713
 1755SOL    HW1 6164   0.147   6.173   6.642
 1755SOL    HW2 6165   0.111   6.284   6.756
 1756SOL     OW 6166   4.395   5.894   6.379
 1756SOL    HW1 6167   4.493   5.912   6.378
 1756SOL    HW2 6168   4.373   5.826   6.309
 1757SOL     OW 6169   3.541   5.825   5.122
 1757SOL    HW1 6170   3.562   5.763   5.047
 1757SOL    HW2 6171   3.508   5.773   5.201
 1758SOL     OW 6172   1.734   0.655   4.582
 1758SOL    HW1 6173   1.659   0.708   4.544
 1758SOL    HW2 6174   1.700   0.595   4.655
 1759SOL     OW 6175   1.813   6.584   5.623
 1759SOL    HW1 6176   1.783   6.540   5.708
 1759SOL    HW2 6177   1.912   6.573   5.613
 1760SOL     OW 6178   5.831   0.866   3.821
 1760SOL    HW1 6179   5.927   0.885   3.803
 1760SOL    HW2 6180   5.821   0.830   3.914
 1761SOL     OW 6181   6.816   0.535   1.547
 1761SOL    HW1 6182   6.735   0.566   1.497
 1761SOL    HW2 6183   6.898   0.575   1.506
 1762SOL     OW 6184   0.119   1.798   4.376
 1762SOL    HW1 6185   0.026   1.772   4.402
 1762SOL    HW2 6186   0.171   1.715   4.351
 1763SOL     OW 6187   1.493   4.841   4.353
 1763SOL    HW1 6188   1.582   4.857   4.311
 1763SOL    HW2 6189   1.492   4.750   4.396
 1764SOL     OW 6190   1.119   3.663   2.110
 1764SOL    HW1 6191   1.109   3.608   2.027
 1764SOL    HW2 6192   1.041   3.646   2.171
 1765SOL     OW 6193   3.806   1.459   1.330
 1765SOL    HW1 6194   3.735   1.513   1.286
 1765SOL    HW2 6195   3.894   1.504   1.320
 1766SOL     OW 6196   5.458   4.518   3.973
 1766SOL    HW1 6197   5.482   4.431   4.015
 1766SOL    HW2 6198   5.517   4.591   4.009
 1767SOL     OW 6199   0.755   4.931   3.410
 1767SOL    HW1 6200   0.796   4.988   3.339
 1767SOL    HW2 6201   0.772   4.973   3.499
 1768SOL     OW 6202   3.638   1.003   6.898
 1768SOL    HW1 6203   3.633   1.044   6.807
 1768SOL    HW2 6204   3.708   1.049   6.952
 1769SOL     OW 6205   5.808   0.909   6.991
 1769SOL    HW1 6206   5.735   0.977   7.001
 1769SOL    HW2 6207   5.889   0.953   6.952
 1770SOL     OW 6208   0.556   4.464   5.166
 1770SOL    HW1 6209   0.607   4.411   5.233
 1770SOL    HW2 6210   0.609   4.472   5.082
 1771SOL     OW 6211   1.393   5.102   0.484
 1771SOL    HW1 6212   1.305   5.138   0.515
 1771SOL    HW2 6213   1.378   5.032   0.415
 1772SOL     OW 6214   3.583   5.522   4.210
 1772SOL    HW1 6215   3.543   5.460   4.142
 1772SOL    HW2 6216   3.520   5.533   4.287
 1773SOL     OW 6217   2.066   2.260   5.710
 1773SOL    HW1 6218   2.056   2.355   5.740
 1773SOL    HW2 6219   2.017   2.246   5.624
 1774SOL     OW 6220   5.173   6.297   2.211
 1774SOL    HW1 6221   5.250   6.319   2.152
 1774SOL    HW2 6222   5.204   6.237   2.285
 1775SOL     OW 6223   2.404   5.871   6.418
 1775SOL    HW1 6224   2.377   5.776   6.403
 1775SOL    HW2 6225   2.480   5.894   6.356
 1776SOL     OW 6226   5.036   0.747   6.053
 1776SOL    HW1 6227   4.968   0.748   5.980
 1776SOL    HW2 6228   5.017   0.822   6.117
 1777SOL     OW 6229   3.647   6.999   6.399
 1777SOL    HW1 6230   3.634   7.009   6.300
 1777SOL    HW2 6231   3.706   6.920   6.417
 1778SOL     OW 6232   4.737   1.696   4.488
 1778SOL    HW1 6233   4.822   1.669   4.533
 1778SOL    HW2 6234   4.678   1.616   4.478
 1779SOL     OW 6235   4.634   0.257   5.738
 1779SOL    HW1 6236   4.644   0.161   5.711
 1779SOL    HW2 6237   4.711   0.310   5.701
 1780SOL     OW 6238   1.654   3.870   5.080
 1780SOL    HW1 6239   1.696   3.862   5.171
 1780SOL    HW2 6240   1.561   3.833   5.083
 1781SOL     OW 6241   5.380   6.734   5.258
 1781SOL    HW1 6242   5.377   6.833   5.249
 1781SOL    HW2 6243   5.415   6.694   5.173
 1782SOL     OW 6244   2.393   1.196   2.830
 1782SOL    HW1 6245   2.352   1.115   2.787
 1782SOL    HW2 6246   2.373   1.277   2.775
 1783SOL     OW 6247   2.325   3.560   6.341
 1783SOL    HW1 6248   2.394   3.505   6.294
 1783SOL    HW2 6249   2.244   3.504   6.359
 1784SOL     OW 6250   2.250   1.301   1.626
 1784SOL    HW1 6251   2.233   1.210   1.587
 1784SOL    HW2 6252   2.336   1.337   1.590
 1785SOL     OW 6253   0.042   6.603   4.167
 1785SOL    HW1 6254   0.106   6.527   4.182
 1785SOL    HW2 6255   6.995   6.572   4.108
 1786SOL     OW 6256   2.087   5.380   0.652
 1786SOL    HW1 6257   2.118   5.467   0.614
 1786SOL    HW2 6258   2.000   5.354   0.610
 1787SOL     OW 6259   1.556   1.955   5.577
 1787SOL    HW1 6260   1.492   1.940   5.503
 1787SOL    HW2 6261   1.650   1.953   5.542
 1788SOL     OW 6262   4.656   4.065   6.384
 1788SOL    HW1 6263   4.736   4.109   6.423
 1788SOL    HW2 6264   4.673   4.044   6.288
 1789SOL     OW 6265   6.254   2.851   1.721
 1789SOL    HW1 6266   6.344   2.890   1.701
 1789SOL    HW2 6267   6.184   2.906   1.675
 1790SOL     OW 6268   2.787   1.327   4.104
 1790SOL    HW1 6269   2.823   1.263   4.172
 1790SOL    HW2 6270   2.783   1.418   4.144
 1791SOL     OW 6271   6.556   1.293   3.239
 1791SOL    HW1 6272   6.456   1.297   3.247
 1791SOL    HW2 6273   6.586   1.363   3.174
 1792SOL     OW 6274   0.244   2.263   4.408
 1792SOL    HW1 6275   0.295   2.185   4.444
 1792SOL    HW2 6276   0.147   2.251   4.427
 1793SOL     OW 6277   6.453   1.683   4.439
 1793SOL    HW1 6278   6.477   1.601   4.490
 1793SOL    HW2 6279   6.499   1.762   4.480
 1794SOL     OW 6280   5.680   0.127   5.660
 1794SOL    HW1 6281   5.779   0.122   5.647
 1794SOL    HW2 6282   5.660   0.175   5.745
 1795SOL     OW 6283   5.966   5.115   1.326
 1795SOL    HW1 6284   5.922   5.204   1.327
 1795SOL    HW2 6285   6.019   5.103   1.410
 1796SOL     OW 6286   2.164   1.286   5.497
 1796SOL    HW1 6287   2.082   1.329   5.535
 1796SOL    HW2 6288   2.205   1.346   5.428
 1797SOL     OW 6289   0.970   0.220   5.537
 1797SOL    HW1 6290   0.947   0.193   5.630
 1797SOL    HW2 6291   1.014   0.310   5.539
 1798SOL     OW 6292   3.711   2.940   4.684
 1798SOL    HW1 6293   3.689   2.845   4.707
 1798SOL    HW2 6294   3.761   2.982   4.760
 1799SOL     OW 6295   4.078   2.514   6.565
 1799SOL    HW1 6296   4.041   2.584   6.627
 1799SOL    HW2 6297   4.152   2.554   6.510
 1800SOL     OW 6298   5.329   4.538   3.693
 1800SOL    HW1 6299   5.427   4.524   3.682
 1800SOL    HW2 6300   5.283   4.523   3.606
 1801SOL     OW 6301   0.756   1.842   2.062
 1801SOL    HW1 6302   0.717   1.832   1.971
 1801SOL    HW2 6303   0.690   1.810   2.130
 1802SOL     OW 6304   6.119   5.603   2.976
 1802SOL    HW1 6305   6.104   5.591   2.878
 1802SOL    HW2 6306   6.054   5.547   3.027
 1803SOL     OW 6307   0.177   6.547   2.593
 1803SOL    HW1 6308   0.203   6.635   2.632
 1803SOL    HW2 6309   0.131   6.561   2.505
 1804SOL     OW 6310   3.799   3.206   5.453
 1804SOL    HW1 6311   3.802   3.200   5.353
 1804SOL    HW2 6312   3.722   3.262   5.481
 1805SOL     OW 6313   1.284   5.430   6.246
 1805SOL    HW1 6314   1.340   5.448   6.327
 1805SOL    HW2 6315   1.256   5.517   6.205
 1806SOL     OW 6316   0.507   2.767   2.228
 1806SOL    HW1 6317   0.429   2.829   2.233
 1806SOL    HW2 6318   0.591   2.820   2.217
 1807SOL     OW 6319   6.088   3.629   6.962
 1807SOL    HW1 6320   6.126   3.645   6.871
 1807SOL    HW2 6321   6.037   3.709   6.992
 1808SOL     OW 6322   6.002   3.490   4.452
 1808SOL    HW1 6323   6.082   3.546   4.472
 1808SOL    HW2 6324   5.926   3.520   4.510
 1809SOL     OW 6325   3.138   1.294   5.135
 1809SOL    HW1 6326   3.171   1.203   5.109
 1809SOL    HW2 6327   3.189   1.325   5.215
 1810SOL     OW 6328   0.126   1.122   4.955
 1810SOL    HW1 6329   0.218   1.099   4.922
 1810SOL    HW2 6330   0.067   1.041   4.947
 1811SOL     OW 6331   5.005   4.798   1.546
 1811SOL    HW1 6332   5.023   4.888   1.507
 1811SOL    HW2 6333   4.930   4.755   1.496
 1812SOL     OW 6334   4.243   6.716   6.098
 1812SOL    HW1 6335   4.245   6.654   6.177
 1812SOL    HW2 6336   4.331   6.764   6.092
 1813SOL     OW 6337   4.690   4.286   2.222
 1813SOL    HW1 6338   4.640   4.271   2.136
 1813SOL    HW2 6339   4.626   4.297   2.297
 1814SOL     OW 6340   6.203   6.555   0.559
 1814SOL    HW1 6341   6.222   6.466   0.601
 1814SOL    HW2 6342   6.283   6.587   0.510
 1815SOL     OW 6343   5.698   6.358   2.929
 1815SOL    HW1 6344   5.660   6.448   2.905
 1815SOL    HW2 6345   5.737   6.315   2.848
 1816SOL     OW 6346   3.777   5.610   6.307
 1816SOL    HW1 6347   3.737   5.539   6.248
 1816SOL    HW2 6348   3.706   5.675   6.333
 1817SOL     OW 6349   3.290   1.358   3.266
 1817SOL    HW1 6350   3.373   1.305   3.250
 1817SOL    HW2 6351   3.222   1.300   3.310
 1818SOL     OW 6352   1.680   6.578   0.538
 1818SOL    HW1 6353   1.748   6.631   0.589
 1818SOL    HW2 6354   1.684   6.483   0.567
 1819SOL     OW 6355   1.411   4.878   2.141
 1819SOL    HW1 6356   1.339   4.927   2.091
 1819SOL    HW2 6357   1.489   4.938   2.154
 1820SOL     OW 6358   3.951   0.540   3.127
 1820SOL    HW1 6359   3.863   0.586   3.140
 1820SOL    HW2 6360   4.023   0.608   3.113
 1821SOL     OW 6361   3.517   1.375   1.504
 1821SOL    HW1 6362   3.578   1.441   1.462
 1821SOL    HW2 6363   3.571   1.309   1.557
 1822SOL     OW 6364   1.330   3.224   1.988
 1822SOL    HW1 6365   1.365   3.303   2.038
 1822SOL    HW2 6366   1.381   3.214   1.902
 1823SOL     OW 6367   3.221   6.495   3.643
 1823SOL    HW1 6368   3.197   6.440   3.564
 1823SOL    HW2 6369   3.139   6.542   3.677
 1824SOL     OW 6370   3.611   3.787   0.395
 1824SOL    HW1 6371   3.710   3.784   0.408
 1824SOL    HW2 6372   3.569   3.709   0.440
 1825SOL     OW 6373   0.322   2.958   5.012
 1825SOL    HW1 6374   0.346   2.986   5.105
 1825SOL    HW2 6375   0.387   2.888   4.981
 1826SOL     OW 6376   3.866   1.597   0.641
 1826SOL    HW1 6377   3.884   1.638   0.730
 1826SOL    HW2 6378   3.887   1.499   0.644
 1827SOL     OW 6379   5.180   5.502   0.797
 1827SOL    HW1 6380   5.186   5.579   0.734
 1827SOL    HW2 6381   5.246   5.514   0.871
 1828SOL     OW 6382   1.942   3.576   6.868
 1828SOL    HW1 6383   1.883   3.548   6.792
 1828SOL    HW2 6384   1.939   3.507   6.939
 1829SOL     OW 6385   3.682   0.117   3.421
 1829SOL    HW1 6386   3.603   0.132   3.480
 1829SOL    HW2 6387   3.705   0.201   3.373
 1830SOL     OW 6388   6.025   6.694   4.815
 1830SOL    HW1 6389   5.965   6.742   4.751
 1830SOL    HW2 6390   5.989   6.602   4.832
 1831SOL     OW 6391   4.737   6.174   2.685
 1831SOL    HW1 6392   4.813   6.117   2.715
 1831SOL    HW2 6393   4.764   6.226   2.605
 1832SOL     OW 6394   2.970   3.482   0.129
 1832SOL    HW1 6395   2.959   3.490   0.228
 1832SOL    HW2 6396   3.047   3.420   0.108
 1833SOL     OW 6397   5.027   0.046   1.045
 1833SOL    HW1 6398   4.957   0.056   0.974
 1833SOL    HW2 6399   5.072   0.134   1.058
 1834SOL     OW 6400   2.832   2.750   1.170
 1834SOL    HW1 6401   2.788   2.661   1.156
 1834SOL    HW2 6402   2.926   2.746   1.137
 1835SOL     OW 6403   0.111   5.162   1.493
 1835SOL    HW1 6404   0.135   5.256   1.469
 1835SOL    HW2 6405   0.187   5.101   1.470
 1836SOL     OW 6406   5.729   2.007   2.053
 1836SOL    HW1 6407   5.761   1.943   2.123
 1836SOL    HW2 6408   5.722   2.099   2.092
 1837SOL     OW 6409   2.034   0.680   5.673
 1837SOL    HW1 6410   2.124   0.682   5.630
 1837SOL    HW2 6411   1.964   0.667   5.602
 1838SOL     OW 6412   6.563   0.370   6.745
 1838SOL    HW1 6413   6.469   0.358   6.776
 1838SOL    HW2 6414   6.586   0.467   6.743
 1839SOL     OW 6415   7.018   1.739   6.710
 1839SOL    HW1 6416   6.985   1.830   6.737
 1839SOL    HW2 6417   0.087   1.730   6.733
 1840SOL     OW 6418   3.961   0.869   2.747
 1840SOL    HW1 6419   3.915   0.957   2.732
 1840SOL    HW2 6420   3.899   0.809   2.798
 1841SOL     OW 6421   2.351   0.829   2.431
 1841SOL    HW1 6422   2.379   0.816   2.337
 1841SOL    HW2 6423   2.260   0.791   2.445
 1842SOL     OW 6424   1.342   4.909   0.242
 1842SOL    HW1 6425   1.279   4.960   0.183
 1842SOL    HW2 6426   1.413   4.866   0.185
 1843SOL     OW 6427   4.753   0.816   4.440
 1843SOL    HW1 6428   4.685   0.887   4.422
 1843SOL    HW2 6429   4.719   0.753   4.509
 1844SOL     OW 6430   5.307   1.858   5.172
 1844SOL    HW1 6431   5.214   1.823   5.165
 1844SOL    HW2 6432   5.360   1.803   5.237
 1845SOL     OW 6433   2.875   0.366   3.186
 1845SOL    HW1 6434   2.912   0.456   3.205
 1845SOL    HW2 6435   2.950   0.301   3.173
 1846SOL     OW 6436   5.518   1.032   2.938
 1846SOL    HW1 6437   5.484   0.981   3.017
 1846SOL    HW2 6438   5.464   1.115   2.927
 1847SOL     OW 6439   1.601   0.555   5.189
 1847SOL    HW1 6440   1.533   0.586   5.256
 1847SOL    HW2 6441   1.683   0.611   5.196
 1848SOL     OW 6442   1.886   6.284   4.279
 1848SOL    HW1 6443   1.792   6.316   4.277
 1848SOL    HW2 6444   1.903   6.236   4.365
 1849SOL     OW 6445   4.996   3.113   1.955
 1849SOL    HW1 6446   4.990   3.163   1.868
 1849SOL    HW2 6447   4.909   3.069   1.974
 1850SOL     OW 6448   5.359   1.614   2.352
 1850SOL    HW1 6449   5.393   1.570   2.269
 1850SOL    HW2 6450   5.415   1.587   2.430
 1851SOL     OW 6451   0.753   3.165   6.566
 1851SOL    HW1 6452   0.713   3.146   6.476
 1851SOL    HW2 6453   0.681   3.180   6.633
 1852SOL     OW 6454   6.708   4.864   1.149
 1852SOL    HW1 6455   6.693   4.765   1.150
 1852SOL    HW2 6456   6.739   4.892   1.058
 1853SOL     OW 6457   0.092   2.491   3.780
 1853SOL    HW1 6458   0.097   2.469   3.683
 1853SOL    HW2 6459   0.183   2.483   3.821
 1854SOL     OW 6460   1.469   5.513   3.540
 1854SOL    HW1 6461   1.511   5.571   3.610
 1854SOL    HW2 6462   1.540   5.453   3.501
 1855SOL     OW 6463   5.478   3.171   4.695
 1855SOL    HW1 6464   5.523   3.170   4.785
 1855SOL    HW2 6465   5.452   3.078   4.670
 1856SOL     OW 6466   4.390   3.375   6.506
 1856SOL    HW1 6467   4.343   3.435   6.441
 1856SOL    HW2 6468   4.357   3.281   6.495
 1857SOL     OW 6469   5.370   0.944   0.539
 1857SOL    HW1 6470   5.287   0.962   0.593
 1857SOL    HW2 6471   5.449   0.984   0.585
 1858SOL     OW 6472   5.324   2.774   3.461
 1858SOL    HW1 6473   5.330   2.782   3.362
 1858SOL    HW2 6474   5.245   2.717   3.486
 1859SOL     OW 6475   5.139   1.874   3.769
 1859SOL    HW1 6476   5.078   1.903   3.696
 1859SOL    HW2 6477   5.150   1.774   3.767
 1860SOL     OW 6478   0.680   2.188   5.219
 1860SOL    HW1 6479   0.596   2.177   5.167
 1860SOL    HW2 6480   0.753   2.221   5.159
 1861SOL     OW 6481   5.570   0.463   2.919
 1861SOL    HW1 6482   5.593   0.548   2.966
 1861SOL    HW2 6483   5.527   0.483   2.832
 1862SOL     OW 6484   1.313   7.011   0.080
 1862SOL    HW1 6485   1.296   6.970   0.169
 1862SOL    HW2 6486   1.293   6.944   0.008
 1863SOL     OW 6487   0.170   2.840   1.070
 1863SOL    HW1 6488   0.150   2.934   1.095
 1863SOL    HW2 6489   0.093   2.800   1.020
 1864SOL     OW 6490   2.932   5.444   4.252
 1864SOL    HW1 6491   2.895   5.475   4.339
 1864SOL    HW2 6492   2.884   5.361   4.222
 1865SOL     OW 6493   3.789   1.211   1.412
 1865SOL    HW1 6494   3.789   1.308   1.388
 1865SOL    HW2 6495   3.882   1.174   1.404
 1866SOL     OW 6496   6.506   4.510   4.283
 1866SOL    HW1 6497   6.544   4.559   4.205
 1866SOL    HW2 6498   6.412   4.541   4.300
 1867SOL     OW 6499   2.409   3.255   1.181
 1867SOL    HW1 6500   2.358   3.272   1.265
 1867SOL    HW2 6501   2.360   3.295   1.103
 1868SOL     OW 6502   4.878   3.508   5.460
 1868SOL    HW1 6503   4.900   3.496   5.363
 1868SOL    HW2 6504   4.787   3.548   5.468
 1869SOL     OW 6505   5.378   2.901   4.272
 1869SOL    HW1 6506   5.440   2.943   4.206
 1869SOL    HW2 6507   5.401   2.805   4.284
 1870SOL     OW 6508   0.531   3.246   4.571
 1870SOL    HW1 6509   0.507   3.149   4.573
 1870SOL    HW2 6510   0.461   3.297   4.521
 1871SOL     OW 6511   6.688   6.390   0.277
 1871SOL    HW1 6512   6.712   6.485   0.255
 1871SOL    HW2 6513   6.606   6.364   0.226
 1872SOL     OW 6514   3.372   2.627   0.671
 1872SOL    HW1 6515   3.464   2.662   0.690
 1872SOL    HW2 6516   3.363   2.535   0.709
 1873SOL     OW 6517   6.352   0.844   6.488
 1873SOL    HW1 6518   6.344   0.858   6.389
 1873SOL    HW2 6519   6.286   0.774   6.517
 1874SOL     OW 6520   1.117   0.889   6.716
 1874SOL    HW1 6521   1.215   0.873   6.731
 1874SOL    HW2 6522   1.086   0.966   6.772
 1875SOL     OW 6523   6.268   5.755   0.686
 1875SOL    HW1 6524   6.208   5.724   0.612
 1875SOL    HW2 6525   6.349   5.798   0.648
 1876SOL     OW 6526   5.563   6.545   5.911
 1876SOL    HW1 6527   5.581   6.610   5.984
 1876SOL    HW2 6528   5.548   6.594   5.825
 1877SOL     OW 6529   0.014   1.395   2.598
 1877SOL    HW1 6530   0.049   1.359   2.512
 1877SOL    HW2 6531   7.026   1.320   2.662
 1878SOL     OW 6532   7.000   4.427   3.306
 1878SOL    HW1 6533   6.934   4.468   3.242
 1878SOL    HW2 6534   6.957   4.415   3.395
 1879SOL     OW 6535   2.657   4.955   4.012
 1879SOL    HW1 6536   2.693   4.889   3.946
 1879SOL    HW2 6537   2.618   4.906   4.090
 1880SOL     OW 6538   0.873   2.466   2.960
 1880SOL    HW1 6539   0.963   2.475   2.916
 1880SOL    HW2 6540   0.811   2.535   2.924
 1881SOL     OW 6541   0.871   2.082   3.330
 1881SOL    HW1 6542   0.883   2.111   3.235
 1881SOL    HW2 6543   0.800   2.138   3.373
 1882SOL     OW 6544   1.191   6.303   6.576
 1882SOL    HW1 6545   1.114   6.328   6.634
 1882SOL    HW2 6546   1.272   6.288   6.633
 1883SOL     OW 6547   1.615   3.771   3.267
 1883SOL    HW1 6548   1.615   3.787   3.169
 1883SOL    HW2 6549   1.553   3.695   3.288
 1884SOL     OW 6550   5.105   0.562   1.801
 1884SOL    HW1 6551   5.125   0.660   1.808
 1884SOL    HW2 6552   5.019   0.548   1.752
 1885SOL     OW 6553   6.634   2.021   0.792
 1885SOL    HW1 6554   6.609   2.071   0.709
 1885SOL    HW2 6555   6.731   2.039   0.813
 1886SOL     OW 6556   2.024   1.991   0.198
 1886SOL    HW1 6557   2.083   1.963   0.274
 1886SOL    HW2 6558   1.940   1.936   0.199
 1887SOL     OW 6559   0.237   4.186   6.008
 1887SOL    HW1 6560   0.200   4.247   6.079
 1887SOL    HW2 6561   0.240   4.235   5.921
 1888SOL     OW 6562   2.265   1.453   6.051
 1888SOL    HW1 6563   2.308   1.377   6.100
 1888SOL    HW2 6564   2.182   1.421   6.006
 1889SOL     OW 6565   4.391   3.985   6.358
 1889SOL    HW1 6566   4.411   3.925   6.281
 1889SOL    HW2 6567   4.476   4.029   6.388
 1890SOL     OW 6568   1.638   5.764   6.560
 1890SOL    HW1 6569   1.577   5.687   6.545
 1890SOL    HW2 6570   1.716   5.758   6.498
 1891SOL     OW 6571   5.110   2.360   5.245
 1891SOL    HW1 6572   5.101   2.283   5.308
 1891SOL    HW2 6573   5.095   2.328   5.151
 1892SOL     OW 6574   3.894   5.991   1.008
 1892SOL    HW1 6575   3.826   5.951   0.947
 1892SOL    HW2 6576   3.937   6.069   0.962
 1893SOL     OW 6577   3.601   2.044   4.716
 1893SOL    HW1 6578   3.677   2.079   4.771
 1893SOL    HW2 6579   3.516   2.052   4.769
 1894SOL     OW 6580   4.340   3.653   1.663
 1894SOL    HW1 6581   4.286   3.569   1.664
 1894SOL    HW2 6582   4.299   3.720   1.725
 1895SOL     OW 6583   6.408   0.500   2.654
 1895SOL    HW1 6584   6.334   0.455   2.606
 1895SOL    HW2 6585   6.396   0.599   2.649
 1896SOL     OW 6586   6.485   0.852   3.399
 1896SOL    HW1 6587   6.460   0.929   3.457
 1896SOL    HW2 6588   6.499   0.771   3.455
 1897SOL     OW 6589   6.384   5.218   3.410
 1897SOL    HW1 6590   6.332   5.288   3.460
 1897SOL    HW2 6591   6.481   5.229   3.430
 1898SOL     OW 6592   3.599   6.375   1.526
 1898SOL    HW1 6593   3.605   6.315   1.446
 1898SOL    HW2 6594   3.689   6.413   1.546
 1899SOL     OW 6595   1.088   3.695   2.623
 1899SOL    HW1 6596   1.008   3.708   2.564
 1899SOL    HW2 6597   1.062   3.645   2.705
 1900SOL     OW 6598   0.956   6.845   6.200
 1900SOL    HW1 6599   0.954   6.921   6.136
 1900SOL    HW2 6600   0.865   6.830   6.237
 1901SOL     OW 6601   2.237   1.390   0.491
 1901SOL    HW1 6602   2.201   1.456   0.557
 1901SOL    HW2 6603   2.182   1.392   0.408
 1902SOL     OW 6604   1.516   2.721   4.487
 1902SOL    HW1 6605   1.579   2.729   4.410
 1902SOL    HW2 6606   1.468   2.633   4.482
 1903SOL     OW 6607   0.360   3.624   3.155
 1903SOL    HW1 6608   0.297   3.677   3.098
 1903SOL    HW2 6609   0.336   3.636   3.252
 1904SOL     OW 6610   6.746   7.013   4.406
 1904SOL    HW1 6611   6.820   0.018   4.347
 1904SOL    HW2 6612   6.783   6.992   4.497
 1905SOL     OW 6613   0.438   2.831   3.755
 1905SOL    HW1 6614   0.414   2.928   3.751
 1905SOL    HW2 6615   0.530   2.821   3.794
 1906SOL     OW 6616   2.797   0.113   5.597
 1906SOL    HW1 6617   2.841   0.082   5.512
 1906SOL    HW2 6618   2.756   0.035   5.643
 1907SOL     OW 6619   3.242   0.044   3.532
 1907SOL    HW1 6620   3.233   6.987   3.479
 1907SOL    HW2 6621   3.339   0.057   3.556
 1908SOL     OW 6622   4.705   1.364   5.425
 1908SOL    HW1 6623   4.630   1.301   5.447
 1908SOL    HW2 6624   4.670   1.458   5.429
 1909SOL     OW 6625   2.280   4.237   4.286
 1909SOL    HW1 6626   2.259   4.321   4.336
 1909SOL    HW2 6627   2.239   4.159   4.333
 1910SOL     OW 6628   5.588   2.714   6.507
 1910SOL    HW1 6629   5.586   2.746   6.412
 1910SOL    HW2 6630   5.561   2.788   6.568
 1911SOL     OW 6631   6.687   1.931   5.486
 1911SOL    HW1 6632   6.755   1.873   5.531
 1911SOL    HW2 6633   6.619   1.961   5.552
 1912SOL     OW 6634   3.862   6.214   2.709
 1912SOL    HW1 6635   3.946   6.180   2.666
 1912SOL    HW2 6636   3.820   6.283   2.650
 1913SOL     OW 6637   1.616   6.562   4.977
 1913SOL    HW1 6638   1.517   6.553   4.972
 1913SOL    HW2 6639   1.655   6.485   5.027
 1914SOL     OW 6640   2.663   2.110   6.524
 1914SOL    HW1 6641   2.604   2.163   6.585
 1914SOL    HW2 6642   2.755   2.150   6.523
 1915SOL     OW 6643   3.852   1.282   6.010
 1915SOL    HW1 6644   3.923   1.284   6.081
 1915SOL    HW2 6645   3.857   1.366   5.955
 1916SOL     OW 6646   3.853   5.682   0.942
 1916SOL    HW1 6647   3.832   5.732   0.857
 1916SOL    HW2 6648   3.950   5.657   0.942
 1917SOL     OW 6649   3.655   3.261   4.906
 1917SOL    HW1 6650   3.575   3.235   4.853
 1917SOL    HW2 6651   3.718   3.183   4.913
 1918SOL     OW 6652   6.237   6.525   6.013
 1918SOL    HW1 6653   6.270   6.506   5.920
 1918SOL    HW2 6654   6.284   6.465   6.077
 1919SOL     OW 6655   1.441   6.787   1.714
 1919SOL    HW1 6656   1.387   6.744   1.642
 1919SOL    HW2 6657   1.414   6.748   1.803
 1920SOL     OW 6658   0.478   4.768   3.575
 1920SOL    HW1 6659   0.571   4.738   3.552
 1920SOL    HW2 6660   0.430   4.796   3.491
 1921SOL     OW 6661   0.443   5.155   0.040
 1921SOL    HW1 6662   0.384   5.204   0.104
 1921SOL    HW2 6663   0.387   5.097   7.009
 1922SOL     OW 6664   4.059   3.284   1.179
 1922SOL    HW1 6665   3.977   3.236   1.212
 1922SOL    HW2 6666   4.114   3.312   1.258
 1923SOL     OW 6667   2.869   1.343   0.063
 1923SOL    HW1 6668   2.906   1.434   0.043
 1923SOL    HW2 6669   2.935   1.274   0.035
 1924SOL     OW 6670   5.635   5.144   2.461
 1924SOL    HW1 6671   5.606   5.157   2.556
 1924SOL    HW2 6672   5.582   5.069   2.420
 1925SOL     OW 6673   2.954   3.647   1.800
 1925SOL    HW1 6674   2.879   3.649   1.733
 1925SOL    HW2 6675   2.968   3.739   1.836
 1926SOL     OW 6676   1.210   0.181   3.896
 1926SOL    HW1 6677   1.204   0.280   3.905
 1926SOL    HW2 6678   1.125   0.146   3.857
 1927SOL     OW 6679   3.831   5.138   6.286
 1927SOL    HW1 6680   3.809   5.046   6.317
 1927SOL    HW2 6681   3.929   5.154   6.294
 1928SOL     OW 6682   0.064   3.599   6.224
 1928SOL    HW1 6683   0.046   3.519   6.166
 1928SOL    HW2 6684   0.146   3.582   6.279
 1929SOL     OW 6685   0.719   5.566   1.449
 1929SOL    HW1 6686   0.774   5.594   1.371
 1929SOL    HW2 6687   0.647   5.503   1.419
 1930SOL     OW 6688   5.278   4.363   6.947
 1930SOL    HW1 6689   5.188   4.387   6.984
 1930SOL    HW2 6690   5.267   4.308   6.865
 1931SOL     OW 6691   0.194   3.418   3.064
 1931SOL    HW1 6692   0.255   3.496   3.051
 1931SOL    HW2 6693   0.128   3.439   3.136
 1932SOL     OW 6694   5.388   3.492   3.158
 1932SOL    HW1 6695   5.388   3.541   3.245
 1932SOL    HW2 6696   5.404   3.395   3.175
 1933SOL     OW 6697   2.190   4.927   1.302
 1933SOL    HW1 6698   2.196   5.026   1.304
 1933SOL    HW2 6699   2.271   4.887   1.346
 1934SOL     OW 6700   0.452   0.269   5.726
 1934SOL    HW1 6701   0.432   0.332   5.801
 1934SOL    HW2 6702   0.461   0.321   5.641
 1935SOL     OW 6703   3.049   0.796   4.935
 1935SOL    HW1 6704   2.978   0.839   4.879
 1935SOL    HW2 6705   3.071   0.706   4.897
 1936SOL     OW 6706   5.821   4.519   4.226
 1936SOL    HW1 6707   5.873   4.464   4.160
 1936SOL    HW2 6708   5.877   4.596   4.257
 1937SOL     OW 6709   4.155   6.598   1.860
 1937SOL    HW1 6710   4.076   6.655   1.885
 1937SOL    HW2 6711   4.176   6.535   1.934
 1938SOL     OW 6712   4.651   1.669   2.992
 1938SOL    HW1 6713   4.656   1.769   2.995
 1938SOL    HW2 6714   4.626   1.640   2.899
 1939SOL     OW 6715   0.720   6.681   4.119
 1939SOL    HW1 6716   0.636   6.655   4.167
 1939SOL    HW2 6717   0.742   6.776   4.140
 1940SOL     OW 6718   4.844   5.155   5.613
 1940SOL    HW1 6719   4.754   5.181   5.649
 1940SOL    HW2 6720   4.860   5.203   5.527
 1941SOL     OW 6721   0.087   3.797   3.301
 1941SOL    HW1 6722   0.120   3.757   3.386
 1941SOL    HW2 6723   0.069   3.895   3.314
 1942SOL     OW 6724   6.840   6.983   2.756
 1942SOL    HW1 6725   6.806   0.049   2.740
 1942SOL    HW2 6726   6.764   6.919   2.753
 1943SOL     OW 6727   3.141   6.141   2.505
 1943SOL    HW1 6728   3.153   6.198   2.424
 1943SOL    HW2 6729   3.098   6.055   2.479
 1944SOL     OW 6730   5.072   2.422   6.245
 1944SOL    HW1 6731   5.029   2.369   6.172
 1944SOL    HW2 6732   5.059   2.376   6.333
 1945SOL     OW 6733   3.906   5.693   2.826
 1945SOL    HW1 6734   3.910   5.725   2.732
 1945SOL    HW2 6735   3.955   5.606   2.834
 1946SOL     OW 6736   6.989   0.702   0.177
 1946SOL    HW1 6737   0.052   0.662   0.193
 1946SOL    HW2 6738   6.921   0.628   0.171
 1947SOL     OW 6739   5.140   6.534   3.560
 1947SOL    HW1 6740   5.095   6.624   3.552
 1947SOL    HW2 6741   5.077   6.470   3.605
 1948SOL     OW 6742   6.490   5.569   3.661
 1948SOL    HW1 6743   6.495   5.610   3.570
 1948SOL    HW2 6744   6.497   5.641   3.730
 1949SOL     OW 6745   4.497   4.658   5.904
 1949SOL    HW1 6746   4.431   4.732   5.897
 1949SOL    HW2 6747   4.449   4.571   5.913
 1950SOL     OW 6748   4.047   3.994   1.181
 1950SOL    HW1 6749   3.965   4.050   1.175
 1950SOL    HW2 6750   4.053   3.934   1.102
 1951SOL     OW 6751   6.680   3.636   0.474
 1951SOL    HW1 6752   6.648   3.687   0.554
 1951SOL    HW2 6753   6.731   3.698   0.413
 1952SOL     OW 6754   3.506   2.123   6.582
 1952SOL    HW1 6755   3.431   2.095   6.521
 1952SOL    HW2 6756   3.471   2.187   6.650
 1953SOL     OW 6757   6.331   2.527   6.771
 1953SOL    HW1 6758   6.320   2.502   6.868
 1953SOL    HW2 6759   6.429   2.529   6.749
 1954SOL     OW 6760   5.883   1.362   3.957
 1954SOL    HW1 6761   5.820   1.304   4.008
 1954SOL    HW2 6762   5.861   1.359   3.860
 1955SOL     OW 6763   1.418   6.703   1.977
 1955SOL    HW1 6764   1.502   6.650   1.964
 1955SOL    HW2 6765   1.417   6.743   2.068
 1956SOL     OW 6766   6.085   6.841   2.451
 1956SOL    HW1 6767   6.082   6.933   2.489
 1956SOL    HW2 6768   6.008   6.788   2.485
 1957SOL     OW 6769   6.467   4.996   4.788
 1957SOL    HW1 6770   6.503   4.986   4.695
 1957SOL    HW2 6771   6.502   5.081   4.828
 1958SOL     OW 6772   6.104   2.674   4.113
 1958SOL    HW1 6773   6.014   2.701   4.146
 1958SOL    HW2 6774   6.168   2.669   4.190
 1959SOL     OW 6775   0.057   2.092   6.128
 1959SOL    HW1 6776   0.123   2.166   6.113
 1959SOL    HW2 6777   0.102   2.016   6.174
 1960SOL     OW 6778   6.418   4.933   0.574
 1960SOL    HW1 6779   6.341   4.990   0.546
 1960SOL    HW2 6780   6.399   4.893   0.663
 1961SOL     OW 6781   6.091   4.666   4.626
 1961SOL    HW1 6782   6.050   4.583   4.663
 1961SOL    HW2 6783   6.021   4.737   4.617
 1962SOL     OW 6784   2.926   6.058   3.122
 1962SOL    HW1 6785   2.865   6.044   3.045
 1962SOL    HW2 6786   2.878   6.107   3.195
 1963SOL     OW 6787   0.673   1.097   0.961
 1963SOL    HW1 6788   0.736   1.174   0.947
 1963SOL    HW2 6789   0.718   1.027   1.016
 1964SOL     OW 6790   4.427   2.496   1.517
 1964SOL    HW1 6791   4.507   2.440   1.493
 1964SOL    HW2 6792   4.436   2.527   1.612
 1965SOL     OW 6793   1.488   3.489   3.104
 1965SOL    HW1 6794   1.430   3.496   3.024
 1965SOL    HW2 6795   1.583   3.473   3.076
 1966SOL     OW 6796   6.864   5.454   5.039
 1966SOL    HW1 6797   6.860   5.448   4.940
 1966SOL    HW2 6798   6.925   5.529   5.065
 1967SOL     OW 6799   4.871   2.046   5.210
 1967SOL    HW1 6800   4.855   2.104   5.130
 1967SOL    HW2 6801   4.792   2.051   5.271
 1968SOL     OW 6802   2.747   5.915   0.744
 1968SOL    HW1 6803   2.817   5.849   0.772
 1968SOL    HW2 6804   2.721   5.897   0.649
 1969SOL     OW 6805   0.389   1.463   1.169
 1969SOL    HW1 6806   0.375   1.414   1.083
 1969SOL    HW2 6807   0.311   1.447   1.229
 1970SOL     OW 6808   2.504   0.215   6.689
 1970SOL    HW1 6809   2.572   0.213   6.616
 1970SOL    HW2 6810   2.499   0.307   6.728
 1971SOL     OW 6811   6.139   6.759   6.112
 1971SOL    HW1 6812   6.196   6.689   6.068
 1971SOL    HW2 6813   6.196   6.816   6.171
 1972SOL     OW 6814   6.837   2.840   2.957
 1972SOL    HW1 6815   6.882   2.853   2.869
 1972SOL    HW2 6816   6.888   2.773   3.011
 1973SOL     OW 6817   2.861   3.459   1.191
 1973SOL    HW1 6818   2.807   3.375   1.187
 1973SOL    HW2 6819   2.920   3.456   1.272
 1974SOL     OW 6820   6.482   5.912   4.074
 1974SOL    HW1 6821   6.507   5.925   4.170
 1974SOL    HW2 6822   6.383   5.903   4.066
 1975SOL     OW 6823   2.325   1.357   3.049
 1975SOL    HW1 6824   2.344   1.293   2.974
 1975SOL    HW2 6825   2.397   1.426   3.052
 1976SOL     OW 6826   0.631   5.584   6.516
 1976SOL    HW1 6827   0.683   5.640   6.451
 1976SOL    HW2 6828   0.676   5.587   6.605
 1977SOL     OW 6829   1.826   2.878   3.415
 1977SOL    HW1 6830   1.794   2.797   3.366
 1977SOL    HW2 6831   1.885   2.850   3.491
 1978SOL     OW 6832   0.772   0.643   3.749
 1978SOL    HW1 6833   0.828   0.709   3.799
 1978SOL    HW2 6834   0.797   0.642   3.653
 1979SOL     OW 6835   6.888   3.892   4.776
 1979SOL    HW1 6836   6.844   3.940   4.700
 1979SOL    HW2 6837   6.885   3.950   4.858
 1980SOL     OW 6838   2.912   1.026   6.115
 1980SOL    HW1 6839   2.954   1.092   6.178
 1980SOL    HW2 6840   2.814   1.020   6.134
 1981SOL     OW 6841   6.434   1.826   2.344
 1981SOL    HW1 6842   6.463   1.894   2.411
 1981SOL    HW2 6843   6.473   1.849   2.254
 1982SOL     OW 6844   0.081   4.081   5.588
 1982SOL    HW1 6845   0.084   3.996   5.537
 1982SOL    HW2 6846   7.021   4.127   5.571
 1983SOL     OW 6847   0.906   2.119   2.624
 1983SOL    HW1 6848   0.881   2.216   2.625
 1983SOL    HW2 6849   0.887   2.079   2.714
 1984SOL     OW 6850   5.650   0.879   4.613
 1984SOL    HW1 6851   5.649   0.825   4.529
 1984SOL    HW2 6852   5.589   0.838   4.681
 1985SOL     OW 6853   0.777   0.803   2.466
 1985SOL    HW1 6854   0.699   0.862   2.447
 1985SOL    HW2 6855   0.748   0.725   2.521
 1986SOL     OW 6856   1.330   0.346   0.592
 1986SOL    HW1 6857   1.356   0.311   0.682
 1986SOL    HW2 6858   1.413   0.368   0.540
 1987SOL     OW 6859   1.578   2.980   1.706
 1987SOL    HW1 6860   1.489   3.025   1.702
 1987SOL    HW2 6861   1.595   2.931   1.620
 1988SOL     OW 6862   4.678   4.449   1.146
 1988SOL    HW1 6863   4.762   4.502   1.145
 1988SOL    HW2 6864   4.608   4.498   1.198
 1989SOL     OW 6865   2.617   6.520   5.081
 1989SOL    HW1 6866   2.543   6.544   5.144
 1989SOL    HW2 6867   2.685   6.465   5.128
 1990SOL     OW 6868   3.231   6.503   0.911
 1990SOL    HW1 6869   3.220   6.488   1.010
 1990SOL    HW2 6870   3.313   6.557   0.895
 1991SOL     OW 6871   4.311   5.065   6.253
 1991SOL    HW1 6872   4.301   4.982   6.198
 1991SOL    HW2 6873   4.300   5.042   6.350
 1992SOL     OW 6874   1.294   0.045   6.732
 1992SOL    HW1 6875   1.273   6.985   6.777
 1992SOL    HW2 6876   1.243   0.119   6.776
 1993SOL     OW 6877   4.091   3.655   5.148
 1993SOL    HW1 6878   3.993   3.672   5.143
 1993SOL    HW2 6879   4.128   3.646   5.056
 1994SOL     OW 6880   1.481   1.593   1.211
 1994SOL    HW1 6881   1.468   1.505   1.165
 1994SOL    HW2 6882   1.540   1.651   1.155
 1995SOL     OW 6883   6.158   2.197   1.481
 1995SOL    HW1 6884   6.212   2.199   1.397
 1995SOL    HW2 6885   6.215   2.229   1.558
 1996SOL     OW 6886   3.071   3.759   0.794
 1996SOL    HW1 6887   2.974   3.733   0.795
 1996SOL    HW2 6888   3.080   3.853   0.760
 1997SOL     OW 6889   4.838   0.338   5.388
 1997SOL    HW1 6890   4.818   0.358   5.484
 1997SOL    HW2 6891   4.935   0.316   5.378
 1998SOL     OW 6892   3.170   3.523   6.666
 1998SOL    HW1 6893   3.075   3.534   6.638
 1998SOL    HW2 6894   3.230   3.570   6.601
 1999SOL     OW 6895   2.914   6.569   1.925
 1999SOL    HW1 6896   3.003   6.550   1.966
 1999SOL    HW2 6897   2.883   6.489   1.874
 2000SOL     OW 6898   3.989   2.160   5.439
 2000SOL    HW1 6899   4.013   2.257   5.446
 2000SOL    HW2 6900   4.044   2.107   5.504
 2001SOL     OW 6901   3.509   2.085   1.802
 2001SOL    HW1 6902   3.548   2.176   1.787
 2001SOL    HW2 6903   3.582   2.022   1.830
 2002SOL     OW 6904   1.379   5.657   5.987
 2002SOL    HW1 6905   1.283   5.672   5.963
 2002SOL    HW2 6906   1.406   5.565   5.961
 2003SOL     OW 6907   5.705   6.899   3.560
 2003SOL    HW1 6908   5.680   6.993   3.536
 2003SOL    HW2 6909   5.799   6.881   3.533
 2004SOL     OW 6910   5.356   1.455   5.210
 2004SOL    HW1 6911   5.323   1.499   5.294
 2004SOL    HW2 6912   5.380   1.525   5.143
 2005SOL     OW 6913   0.993   5.517   6.626
 2005SOL    HW1 6914   0.931   5.441   6.607
 2005SOL    HW2 6915   0.976   5.552   6.718
 2006SOL     OW 6916   5.069   4.392   4.085
 2006SOL    HW1 6917   5.018   4.397   3.999
 2006SOL    HW2 6918   5.043   4.309   4.135
 2007SOL     OW 6919   4.129   5.349   0.733
 2007SOL    HW1 6920   4.065   5.297   0.676
 2007SOL    HW2 6921   4.089   5.436   0.758
 2008SOL     OW 6922   1.014   6.111   3.323
 2008SOL    HW1 6923   1.090   6.047   3.315
 2008SOL    HW2 6924   1.008   6.144   3.418
 2009SOL     OW 6925   6.703   6.848   1.419
 2009SOL    HW1 6926   6.689   6.901   1.503
 2009SOL    HW2 6927   6.617   6.841   1.369
 2010SOL     OW 6928   1.474   0.911   1.048
 2010SOL    HW1 6929   1.488   0.975   1.124
 2010SOL    HW2 6930   1.380   0.917   1.016
 2011SOL     OW 6931   0.373   2.147   5.548
 2011SOL    HW1 6932   0.281   2.186   5.560
 2011SOL    HW2 6933   0.365   2.052   5.516
 2012SOL     OW 6934   0.826   3.136   1.770
 2012SOL    HW1 6935   0.743   3.101   1.813
 2012SOL    HW2 6936   0.802   3.184   1.685
 2013SOL     OW 6937   5.721   0.342   3.368
 2013SOL    HW1 6938   5.652   0.319   3.300
 2013SOL    HW2 6939   5.737   0.441   3.366
 2014SOL     OW 6940   1.725   5.495   2.600
 2014SOL    HW1 6941   1.751   5.495   2.696
 2014SOL    HW2 6942   1.688   5.405   2.575
 2015SOL     OW 6943   2.275   1.406   6.600
 2015SOL    HW1 6944   2.306   1.348   6.676
 2015SOL    HW2 6945   2.353   1.458   6.564
 2016SOL     OW 6946   1.369   5.614   5.315
 2016SOL    HW1 6947   1.344   5.711   5.320
 2016SOL    HW2 6948   1.338   5.567   5.397
 2017SOL     OW 6949   2.835   6.564   4.514
 2017SOL    HW1 6950   2.871   6.482   4.559
 2017SOL    HW2 6951   2.899   6.593   4.443
 2018SOL     OW 6952   5.976   6.893   5.905
 2018SOL    HW1 6953   6.042   6.907   5.979
 2018SOL    HW2 6954   5.982   6.798   5.874
 2019SOL     OW 6955   4.567   1.967   2.296
 2019SOL    HW1 6956   4.538   1.982   2.202
 2019SOL    HW2 6957   4.625   2.042   2.326
 2020SOL     OW 6958   1.503   5.672   5.614
 2020SOL    HW1 6959   1.414   5.637   5.586
 2020SOL    HW2 6960   1.492   5.730   5.695
 2021SOL     OW 6961   2.064   5.951   3.889
 2021SOL    HW1 6962   2.146   5.948   3.833
 2021SOL    HW2 6963   1.987   5.985   3.835
 2022SOL     OW 6964   2.094   3.555   2.477
 2022SOL    HW1 6965   2.090   3.467   2.430
 2022SOL    HW2 6966   2.082   3.629   2.411
 2023SOL     OW 6967   6.817   1.573   6.769
 2023SOL    HW1 6968   6.738   1.618   6.726
 2023SOL    HW2 6969   6.899   1.628   6.753
 2024SOL     OW 6970   6.965   0.670   2.874
 2024SOL    HW1 6971   6.983   0.577   2.840
 2024SOL    HW2 6972   6.877   0.672   2.922
 2025SOL     OW 6973   2.127   2.928   2.145
 2025SOL    HW1 6974   2.034   2.959   2.166
 2025SOL    HW2 6975   2.179   2.920   2.230
 2026SOL     OW 6976   0.985   2.236   6.417
 2026SOL    HW1 6977   0.889   2.247   6.391
 2026SOL    HW2 6978   1.016   2.144   6.391
 2027SOL     OW 6979   0.836   1.260   1.303
 2027SOL    HW1 6980   0.752   1.253   1.249
 2027SOL    HW2 6981   0.911   1.215   1.254
 2028SOL     OW 6982   3.316   1.387   6.350
 2028SOL    HW1 6983   3.319   1.471   6.295
 2028SOL    HW2 6984   3.239   1.330   6.319
 2029SOL     OW 6985   6.988   0.306   0.729
 2029SOL    HW1 6986   0.012   0.222   0.711
 2029SOL    HW2 6987   6.964   0.349   0.641
 2030SOL     OW 6988   2.653   0.797   3.790
 2030SOL    HW1 6989   2.625   0.871   3.730
 2030SOL    HW2 6990   2.736   0.754   3.755
 2031SOL     OW 6991   5.083   6.277   2.713
 2031SOL    HW1 6992   5.040   6.187   2.719
 2031SOL    HW2 6993   5.012   6.347   2.708
 2032SOL     OW 6994   3.693   6.908   2.083
 2032SOL    HW1 6995   3.638   6.921   2.000
 2032SOL    HW2 6996   3.772   6.969   2.081
 2033SOL     OW 6997   3.695   4.512   6.899
 2033SOL    HW1 6998   3.669   4.470   6.986
 2033SOL    HW2 6999   3.673   4.609   6.901
 2034SOL     OW 7000   3.345   6.932   4.473
 2034SOL    HW1 7001   3.354   6.958   4.377
 2034SOL    HW2 7002   3.250   6.943   4.502
 2035SOL     OW 7003   0.193   0.832   2.150
 2035SOL    HW1 7004   0.259   0.821   2.076
 2035SOL    HW2 7005   0.104   0.797   2.121
 2036SOL     OW 7006   0.775   5.742   3.207
 2036SOL    HW1 7007   0.680   5.719   3.187
 2036SOL    HW2 7008   0.778   5.818   3.271
 2037SOL     OW 7009   0.492   2.532   6.285
 2037SOL    HW1 7010   0.543   2.616   6.268
 2037SOL    HW2 7011   0.497   2.473   6.204
 2038SOL     OW 7012   1.475   1.969   6.589
 2038SOL    HW1 7013   1.525   2.041   6.637
 2038SOL    HW2 7014   1.486   1.980   6.490
 2039SOL     OW 7015   0.310   4.885   2.148
 2039SOL    HW1 7016   0.323   4.916   2.242
 2039SOL    HW2 7017   0.227   4.926   2.110
 2040SOL     OW 7018   3.160   3.254   5.344
 2040SOL    HW1 7019   3.171   3.353   5.356
 2040SOL    HW2 7020   3.247   3.214   5.314
 2041SOL     OW 7021   6.994   5.785   5.571
 2041SOL    HW1 7022   6.924   5.834   5.519
 2041SOL    HW2 7023   6.981   5.802   5.668
 2042SOL     OW 7024   5.280   5.161   6.764
 2042SOL    HW1 7025   5.218   5.238   6.778
 2042SOL    HW2 7026   5.374   5.195   6.762
 2043SOL     OW 7027   6.307   4.231   2.509
 2043SOL    HW1 7028   6.394   4.196   2.477
 2043SOL    HW2 7029   6.242   4.156   2.519
 2044SOL     OW 7030   4.687   0.255   2.107
 2044SOL    HW1 7031   4.763   0.288   2.163
 2044SOL    HW2 7032   4.697   0.290   2.013
 2045SOL     OW 7033   1.948   4.695   4.697
 2045SOL    HW1 7034   1.896   4.768   4.743
 2045SOL    HW2 7035   2.010   4.652   4.762
 2046SOL     OW 7036   0.106   1.206   4.389
 2046SOL    HW1 7037   0.123   1.113   4.358
 2046SOL    HW2 7038   0.159   1.225   4.471
 2047SOL     OW 7039   4.720   2.235   0.180
 2047SOL    HW1 7040   4.700   2.216   0.276
 2047SOL    HW2 7041   4.749   2.330   0.171
 2048SOL     OW 7042   2.084   5.822   0.665
 2048SOL    HW1 7043   2.030   5.790   0.743
 2048SOL    HW2 7044   2.118   5.743   0.613
 2049SOL     OW 7045   4.508   1.354   6.357
 2049SOL    HW1 7046   4.553   1.437   6.390
 2049SOL    HW2 7047   4.529   1.342   6.260
 2050SOL     OW 7048   6.807   2.254   2.681
 2050SOL    HW1 7049   6.767   2.345   2.688
 2050SOL    HW2 7050   6.830   2.220   2.772
 2051SOL     OW 7051   0.332   5.888   0.806
 2051SOL    HW1 7052   0.239   5.890   0.843
 2051SOL    HW2 7053   0.390   5.830   0.863
 2052SOL     OW 7054   0.298   4.496   0.721
 2052SOL    HW1 7055   0.339   4.416   0.678
 2052SOL    HW2 7056   0.224   4.531   0.663
 2053SOL     OW 7057   6.315   0.643   5.881
 2053SOL    HW1 7058   6.287   0.739   5.889
 2053SOL    HW2 7059   6.401   0.638   5.830
 2054SOL     OW 7060   4.284   2.662   1.329
 2054SOL    HW1 7061   4.285   2.624   1.422
 2054SOL    HW2 7062   4.283   2.762   1.334
 2055SOL     OW 7063   6.338   3.448   2.891
 2055SOL    HW1 7064   6.252   3.444   2.840
 2055SOL    HW2 7065   6.413   3.466   2.828
 2056SOL     OW 7066   2.535   0.645   3.121
 2056SOL    HW1 7067   2.444   0.611   3.140
 2056SOL    HW2 7068   2.534   0.745   3.121
 2057SOL     OW 7069   5.662   3.047   3.314
 2057SOL    HW1 7070   5.649   3.002   3.226
 2057SOL    HW2 7071   5.616   3.136   3.314
 2058SOL     OW 7072   1.276   1.621   3.379
 2058SOL    HW1 7073   1.295   1.583   3.469
 2058SOL    HW2 7074   1.359   1.618   3.323
 2059SOL     OW 7075   2.626   6.183   6.593
 2059SOL    HW1 7076   2.665   6.227   6.674
 2059SOL    HW2 7077   2.530   6.209   6.583
 2060SOL     OW 7078   5.901   4.247   0.648
 2060SOL    HW1 7079   5.814   4.295   0.653
 2060SOL    HW2 7080   5.962   4.294   0.584
 2061SOL     OW 7081   0.906   1.571   2.960
 2061SOL    HW1 7082   0.986   1.546   2.906
 2061SOL    HW2 7083   0.926   1.557   3.057
 2062SOL     OW 7084   6.049   0.432   3.452
 2062SOL    HW1 7085   6.020   0.393   3.365
 2062SOL    HW2 7086   6.133   0.484   3.440
 2063SOL     OW 7087   2.060   0.541   5.983
 2063SOL    HW1 7088   2.150   0.516   6.020
 2063SOL    HW2 7089   2.058   0.638   5.963
 2064SOL     OW 7090   1.128   2.069   6.043
 2064SOL    HW1 7091   1.160   2.160   6.017
 2064SOL    HW2 7092   1.155   2.003   5.973
 2065SOL     OW 7093   7.026   3.531   3.239
 2065SOL    HW1 7094   0.052   3.612   3.263
 2065SOL    HW2 7095   6.930   3.546   3.263
 2066SOL     OW 7096   0.340   5.808   3.457
 2066SOL    HW1 7097   0.265   5.871   3.477
 2066SOL    HW2 7098   0.307   5.734   3.398
 2067SOL     OW 7099   6.895   5.614   0.835
 2067SOL    HW1 7100   6.833   5.536   0.843
 2067SOL    HW2 7101   6.848   5.690   0.790
 2068SOL     OW 7102   1.338   1.621   5.341
 2068SOL    HW1 7103   1.336   1.548   5.273
 2068SOL    HW2 7104   1.254   1.618   5.396
 2069SOL     OW 7105   1.214   3.192   3.486
 2069SOL    HW1 7106   1.224   3.134   3.567
 2069SOL    HW2 7107   1.186   3.284   3.514
 2070SOL     OW 7108   1.216   0.560   2.058
 2070SOL    HW1 7109   1.178   0.651   2.076
 2070SOL    HW2 7110   1.224   0.509   2.143
 2071SOL     OW 7111   6.312   6.065   5.142
 2071SOL    HW1 7112   6.252   5.990   5.115
 2071SOL    HW2 7113   6.260   6.132   5.196
 2072SOL     OW 7114   4.286   6.808   2.502
 2072SOL    HW1 7115   4.269   6.828   2.405
 2072SOL    HW2 7116   4.226   6.865   2.558
 2073SOL     OW 7117   3.865   0.172   4.598
 2073SOL    HW1 7118   3.895   0.261   4.631
 2073SOL    HW2 7119   3.856   0.109   4.676
 2074SOL     OW 7120   1.251   3.222   0.334
 2074SOL    HW1 7121   1.196   3.176   0.264
 2074SOL    HW2 7122   1.208   3.210   0.423
 2075SOL     OW 7123   5.654   2.978   1.452
 2075SOL    HW1 7124   5.589   3.043   1.491
 2075SOL    HW2 7125   5.605   2.899   1.417
 2076SOL     OW 7126   4.765   0.068   6.662
 2076SOL    HW1 7127   4.702   0.080   6.739
 2076SOL    HW2 7128   4.718   0.023   6.586
 2077SOL     OW 7129   5.431   2.397   2.756
 2077SOL    HW1 7130   5.527   2.402   2.782
 2077SOL    HW2 7131   5.382   2.340   2.822
 2078SOL     OW 7132   1.608   6.251   6.498
 2078SOL    HW1 7133   1.627   6.172   6.557
 2078SOL    HW2 7134   1.514   6.247   6.466
 2079SOL     OW 7135   5.896   1.689   3.173
 2079SOL    HW1 7136   5.959   1.718   3.100
 2079SOL    HW2 7137   5.924   1.599   3.206
 2080SOL     OW 7138   1.175   0.619   4.403
 2080SOL    HW1 7139   1.214   0.711   4.410
 2080SOL    HW2 7140   1.076   0.624   4.419
 2081SOL     OW 7141   1.973   5.742   4.313
 2081SOL    HW1 7142   2.011   5.670   4.369
 2081SOL    HW2 7143   1.992   5.723   4.216
 2082SOL     OW 7144   0.067   0.038   3.240
 2082SOL    HW1 7145   7.005   0.053   3.283
 2082SOL    HW2 7146   0.053   7.021   3.151
 2083SOL     OW 7147   5.429   5.132   5.882
 2083SOL    HW1 7148   5.360   5.191   5.924
 2083SOL    HW2 7149   5.416   5.038   5.914
 2084SOL     OW 7150   0.346   4.042   4.146
 2084SOL    HW1 7151   0.304   3.958   4.110
 2084SOL    HW2 7152   0.425   4.067   4.090
 2085SOL     OW 7153   4.530   0.458   6.533
 2085SOL    HW1 7154   4.527   0.558   6.529
 2085SOL    HW2 7155   4.556   0.429   6.625
 2086SOL     OW 7156   3.902   7.017   6.200
 2086SOL    HW1 7157   3.862   7.021   6.109
 2086SOL    HW2 7158   3.955   0.073   6.217
 2087SOL     OW 7159   5.221   0.122   1.291
 2087SOL    HW1 7160   5.196   0.187   1.220
 2087SOL    HW2 7161   5.142   0.105   1.350
 2088SOL     OW 7162   2.825   5.895   1.106
 2088SOL    HW1 7163   2.807   5.797   1.098
 2088SOL    HW2 7164   2.740   5.944   1.126
 2089SOL     OW 7165   5.469   2.470   6.449
 2089SOL    HW1 7166   5.491   2.560   6.487
 2089SOL    HW2 7167   5.380   2.474   6.404
 2090SOL     OW 7168   3.582   3.367   5.575
 2090SOL    HW1 7169   3.488   3.400   5.566
 2090SOL    HW2 7170   3.628   3.418   5.648
 2091SOL     OW 7171   0.099   5.685   0.326
 2091SOL    HW1 7172   0.008   5.713   0.356
 2091SOL    HW2 7173   0.160   5.764   0.326
 2092SOL     OW 7174   5.004   4.370   6.852
 2092SOL    HW1 7175   5.059   4.389   6.770
 2092SOL    HW2 7176   4.966   4.456   6.887
 2093SOL     OW 7177   2.369   2.540   1.392
 2093SOL    HW1 7178   2.411   2.458   1.430
 2093SOL    HW2 7179   2.388   2.618   1.451
 2094SOL     OW 7180   5.625   1.145   1.287
 2094SOL    HW1 7181   5.575   1.230   1.302
 2094SOL    HW2 7182   5.721   1.165   1.269
 2095SOL     OW 7183   5.450   0.431   4.901
 2095SOL    HW1 7184   5.457   0.475   4.991
 2095SOL    HW2 7185   5.356   0.400   4.887
 2096SOL     OW 7186   5.115   4.099   3.314
 2096SOL    HW1 7187   5.084   4.194   3.313
 2096SOL    HW2 7188   5.037   4.038   3.299
 2097SOL     OW 7189   2.074   3.013   6.616
 2097SOL    HW1 7190   2.121   3.064   6.688
 2097SOL    HW2 7191   2.134   2.941   6.582
 2098SOL     OW 7192   4.283   5.998   2.988
 2098SOL    HW1 7193   4.373   5.965   3.017
 2098SOL    HW2 7194   4.212   5.947   3.036
 2099SOL     OW 7195   2.749   3.141   5.352
 2099SOL    HW1 7196   2.713   3.168   5.441
 2099SOL    HW2 7197   2.677   3.095   5.300
 2100SOL     OW 7198   4.759   2.991   5.843
 2100SOL    HW1 7199   4.773   2.982   5.744
 2100SOL    HW2 7200   4.662   2.981   5.864
 2101SOL     OW 7201   1.413   6.051   2.309
 2101SOL    HW1 7202   1.496   6.089   2.269
 2101SOL    HW2 7203   1.434   5.963   2.352
 2102SOL     OW 7204   6.050   5.097   1.781
 2102SOL    HW1 7205   6.017   5.190   1.765
 2102SOL    HW2 7206   5.994   5.054   1.852
 2103SOL     OW 7207   3.738   4.281   6.063
 2103SOL    HW1 7208   3.664   4.283   5.996
 2103SOL    HW2 7209   3.819   4.239   6.024
 2104SOL     OW 7210   1.566   2.893   1.030
 2104SOL    HW1 7211   1.496   2.922   0.964
 2104SOL    HW2 7212   1.656   2.894   0.985
 2105SOL     OW 7213   5.524   5.981   4.932
 2105SOL    HW1 7214   5.563   5.890   4.919
 2105SOL    HW2 7215   5.470   5.983   5.016
 2106SOL     OW 7216   4.695   4.289   0.728
 2106SOL    HW1 7217   4.733   4.256   0.642
 2106SOL    HW2 7218   4.690   4.389   0.726
 2107SOL     OW 7219   5.383   2.597   5.139
 2107SOL    HW1 7220   5.298   2.613   5.191
 2107SOL    HW2 7221   5.402   2.499   5.134
 2108SOL     OW 7222   6.552   5.901   5.190
 2108SOL    HW1 7223   6.484   5.966   5.154
 2108SOL    HW2 7224   6.523   5.869   5.280
 2109SOL     OW 7225   4.059   6.323   2.876
 2109SOL    HW1 7226   4.046   6.414   2.916
 2109SOL    HW2 7227   3.979   6.298   2.822
 2110SOL     OW 7228   2.926   1.606   6.776
 2110SOL    HW1 7229   2.932   1.703   6.752
 2110SOL    HW2 7230   2.965   1.591   6.866
 2111SOL     OW 7231   1.008   2.657   0.287
 2111SOL    HW1 7232   1.082   2.648   0.355
 2111SOL    HW2 7233   1.028   2.598   0.209
 2112SOL     OW 7234   5.299   2.836   0.207
 2112SOL    HW1 7235   5.217   2.874   0.252
 2112SOL    HW2 7236   5.280   2.742   0.179
 2113SOL     OW 7237   0.986   1.579   5.017
 2113SOL    HW1 7238   1.048   1.501   5.008
 2113SOL    HW2 7239   0.909   1.567   4.954
 2114SOL     OW 7240   1.261   2.651   0.878
 2114SOL    HW1 7241   1.256   2.587   0.802
 2114SOL    HW2 7242   1.335   2.716   0.862
 2115SOL     OW 7243   2.141   3.464   2.722
 2115SOL    HW1 7244   2.157   3.501   2.630
 2115SOL    HW2 7245   2.139   3.365   2.718
 2116SOL     OW 7246   6.746   4.750   2.942
 2116SOL    HW1 7247   6.683   4.702   3.004
 2116SOL    HW2 7248   6.709   4.746   2.849
 2117SOL     OW 7249   6.355   4.734   1.888
 2117SOL    HW1 7250   6.343   4.795   1.966
 2117SOL    HW2 7251   6.453   4.723   1.869
 2118SOL     OW 7252   6.157   3.480   1.639
 2118SOL    HW1 7253   6.206   3.406   1.685
 2118SOL    HW2 7254   6.166   3.564   1.692
 2119SOL     OW 7255   2.508   5.952   1.113
 2119SOL    HW1 7256   2.479   5.922   1.022
 2119SOL    HW2 7257   2.430   5.947   1.175
 2120SOL     OW 7258   0.034   5.062   3.988
 2120SOL    HW1 7259   0.057   5.034   3.895
 2120SOL    HW2 7260   0.119   5.081   4.038
 2121SOL     OW 7261   1.068   3.422   5.695
 2121SOL    HW1 7262   1.060   3.505   5.750
 2121SOL    HW2 7263   0.989   3.363   5.712
 2122SOL     OW 7264   5.816   4.329   5.833
 2122SOL    HW1 7265   5.907   4.360   5.804
 2122SOL    HW2 7266   5.782   4.261   5.768
 2123SOL     OW 7267   6.439   5.879   2.095
 2123SOL    HW1 7268   6.427   5.781   2.111
 2123SOL    HW2 7269   6.350   5.925   2.098
 2124SOL     OW 7270   2.972   1.721   1.433
 2124SOL    HW1 7271   3.039   1.697   1.503
 2124SOL    HW2 7272   2.894   1.658   1.438
 2125SOL     OW 7273   1.978   0.659   1.809
 2125SOL    HW1 7274   1.899   0.662   1.749
 2125SOL    HW2 7275   1.998   0.564   1.834
 2126SOL     OW 7276   3.736   1.184   6.691
 2126SOL    HW1 7277   3.786   1.137   6.618
 2126SOL    HW2 7278   3.648   1.214   6.656
 2127SOL     OW 7279   6.730   3.365   4.392
 2127SOL    HW1 7280   6.771   3.385   4.481
 2127SOL    HW2 7281   6.800   3.324   4.332
 2128SOL     OW 7282   0.013   3.186   3.401
 2128SOL    HW1 7283   6.996   3.205   3.313
 2128SOL    HW2 7284   0.006   3.088   3.420
 2129SOL     OW 7285   4.015   3.865   5.606
 2129SOL    HW1 7286   3.956   3.788   5.632
 2129SOL    HW2 7287   3.960   3.949   5.602
 2130SOL     OW 7288   3.664   0.907   1.822
 2130SOL    HW1 7289   3.568   0.898   1.848
 2130SOL    HW2 7290   3.698   0.996   1.854
 2131SOL     OW 7291   6.256   0.157   7.020
 2131SOL    HW1 7292   6.240   0.152   0.092
 2131SOL    HW2 7293   6.302   0.074   6.989
 2132SOL     OW 7294   3.490   1.600   1.715
 2132SOL    HW1 7295   3.469   1.568   1.808
 2132SOL    HW2 7296   3.465   1.529   1.649
 2133SOL     OW 7297   3.241   3.306   0.113
 2133SOL    HW1 7298   3.208   3.211   0.118
 2133SOL    HW2 7299   3.301   3.317   0.034
 2134SOL     OW 7300   0.091   2.285   6.800
 2134SOL    HW1 7301   0.096   2.185   6.799
 2134SOL    HW2 7302   0.043   2.317   6.718
 2135SOL     OW 7303   0.510   3.781   4.300
 2135SOL    HW1 7304   0.507   3.765   4.399
 2135SOL    HW2 7305   0.417   3.784   4.263
 2136SOL     OW 7306   1.450   4.297   2.500
 2136SOL    HW1 7307   1.440   4.217   2.560
 2136SOL    HW2 7308   1.394   4.284   2.418
 2137SOL     OW 7309   2.405   5.882   5.478
 2137SOL    HW1 7310   2.476   5.812   5.473
 2137SOL    HW2 7311   2.373   5.904   5.386
 2138SOL     OW 7312   6.795   6.586   2.961
 2138SOL    HW1 7313   6.711   6.556   2.915
 2138SOL    HW2 7314   6.852   6.636   2.895
 2139SOL     OW 7315   4.721   1.022   3.437
 2139SOL    HW1 7316   4.689   1.010   3.531
 2139SOL    HW2 7317   4.812   1.061   3.438
 2140SOL     OW 7318   3.553   0.121   3.920
 2140SOL    HW1 7319   3.541   0.219   3.938
 2140SOL    HW2 7320   3.651   0.101   3.914
 2141SOL     OW 7321   6.619   3.011   1.883
 2141SOL    HW1 7322   6.703   3.054   1.852
 2141SOL    HW2 7323   6.611   3.022   1.982
 2142SOL     OW 7324   1.477   1.573   3.195
 2142SOL    HW1 7325   1.533   1.655   3.177
 2142SOL    HW2 7326   1.514   1.496   3.143
 2143SOL     OW 7327   3.143   4.497   1.477
 2143SOL    HW1 7328   3.210   4.546   1.421
 2143SOL    HW2 7329   3.052   4.512   1.439
 2144SOL     OW 7330   1.215   5.755   4.338
 2144SOL    HW1 7331   1.221   5.679   4.402
 2144SOL    HW2 7332   1.293   5.816   4.352
 2145SOL     OW 7333   3.808   6.473   4.079
 2145SOL    HW1 7334   3.733   6.411   4.057
 2145SOL    HW2 7335   3.778   6.567   4.063
 2146SOL     OW 7336   2.314   3.375   0.967
 2146SOL    HW1 7337   2.216   3.388   0.953
 2146SOL    HW2 7338   2.363   3.400   0.883
 2147SOL     OW 7339   6.502   1.825   5.706
 2147SOL    HW1 7340   6.500   1.749   5.642
 2147SOL    HW2 7341   6.408   1.855   5.726
 2148SOL     OW 7342   5.955   3.490   5.949
 2148SOL    HW1 7343   5.970   3.445   5.861
 2148SOL    HW2 7344   5.907   3.428   6.011
 2149SOL     OW 7345   3.079   1.855   1.093
 2149SOL    HW1 7346   3.159   1.906   1.124
 2149SOL    HW2 7347   3.071   1.771   1.146
 2150SOL     OW 7348   2.360   2.451   2.084
 2150SOL    HW1 7349   2.317   2.393   2.016
 2150SOL    HW2 7350   2.459   2.434   2.084
 2151SOL     OW 7351   1.768   6.969   5.845
 2151SOL    HW1 7352   1.837   6.950   5.915
 2151SOL    HW2 7353   1.790   0.027   5.798
 2152SOL     OW 7354   3.147   5.283   2.230
 2152SOL    HW1 7355   3.148   5.383   2.225
 2152SOL    HW2 7356   3.233   5.251   2.272
 2153SOL     OW 7357   4.921   1.603   2.940
 2153SOL    HW1 7358   4.822   1.610   2.949
 2153SOL    HW2 7359   4.966   1.660   3.008
 2154SOL     OW 7360   5.297   1.067   4.842
 2154SOL    HW1 7361   5.316   1.004   4.918
 2154SOL    HW2 7362   5.224   1.130   4.869
 2155SOL     OW 7363   3.882   6.737   0.993
 2155SOL    HW1 7364   3.951   6.716   1.062
 2155SOL    HW2 7365   3.794   6.754   1.038
 2156SOL     OW 7366   1.038   1.987   5.185
 2156SOL    HW1 7367   1.031   2.062   5.251
 2156SOL    HW2 7368   1.128   1.990   5.142
 2157SOL     OW 7369   5.785   0.057   2.981
 2157SOL    HW1 7370   5.797   0.011   3.069
 2157SOL    HW2 7371   5.781   7.016   2.908
 2158SOL     OW 7372   3.524   5.628   0.941
 2158SOL    HW1 7373   3.492   5.541   0.904
 2158SOL    HW2 7374   3.618   5.619   0.973
 2159SOL     OW 7375   1.373   0.207   5.112
 2159SOL    HW1 7376   1.418   0.277   5.057
 2159SOL    HW2 7377   1.354   0.127   5.056
 2160SOL     OW 7378   4.870   4.206   6.496
 2160SOL    HW1 7379   4.901   4.282   6.439
 2160SOL    HW2 7380   4.935   4.190   6.570
 2161SOL     OW 7381   5.842   4.702   2.439
 2161SOL    HW1 7382   5.807   4.630   2.498
 2161SOL    HW2 7383   5.785   4.709   2.357
 2162SOL     OW 7384   3.779   0.489   2.301
 2162SOL    HW1 7385   3.842   0.562   2.275
 2162SOL    HW2 7386   3.744   0.445   2.218
 2163SOL     OW 7387   1.860   4.284   7.014
 2163SOL    HW1 7388   1.950   4.247   0.007
 2163SOL    HW2 7389   1.841   4.361   0.047
 2164SOL     OW 7390   2.088   2.365   6.386
 2164SOL    HW1 7391   2.167   2.355   6.447
 2164SOL    HW2 7392   2.111   2.430   6.313
 2165SOL     OW 7393   0.245   2.511   3.243
 2165SOL    HW1 7394   0.159   2.462   3.256
 2165SOL    HW2 7395   0.307   2.456   3.187
 2166SOL     OW 7396   1.547   2.726   4.760
 2166SOL    HW1 7397   1.543   2.704   4.662
 2166SOL    HW2 7398   1.559   2.642   4.813
 2167SOL     OW 7399   1.444   2.486   3.117
 2167SOL    HW1 7400   1.495   2.551   3.173
 2167SOL    HW2 7401   1.487   2.479   3.027
 2168SOL     OW 7402   0.657   2.328   3.833
 2168SOL    HW1 7403   0.619   2.406   3.784
 2168SOL    HW2 7404   0.623   2.243   3.793
 2169SOL     OW 7405   5.892   1.911   6.964
 2169SOL    HW1 7406   5.934   1.847   6.900
 2169SOL    HW2 7407   5.933   2.002   6.952
 2170SOL     OW 7408   6.830   4.080   4.961
 2170SOL    HW1 7409   6.804   4.173   4.936
 2170SOL    HW2 7410   6.900   4.082   5.032
 2171SOL     OW 7411   7.023   5.144   0.960
 2171SOL    HW1 7412   6.952   5.213   0.975
 2171SOL    HW2 7413   0.047   5.131   1.045
 2172SOL     OW 7414   2.205   1.688   6.433
 2172SOL    HW1 7415   2.110   1.672   6.459
 2172SOL    HW2 7416   2.265   1.654   6.505
 2173SOL     OW 7417   3.968   0.829   5.368
 2173SOL    HW1 7418   4.059   0.789   5.360
 2173SOL    HW2 7419   3.902   0.770   5.321
 2174SOL     OW 7420   6.662   5.884   4.938
 2174SOL    HW1 7421   6.667   5.873   5.038
 2174SOL    HW2 7422   6.573   5.855   4.905
 2175SOL     OW 7423   1.875   2.453   4.620
 2175SOL    HW1 7424   1.873   2.509   4.702
 2175SOL    HW2 7425   1.833   2.364   4.639
 2176SOL     OW 7426   5.532   2.089   0.158
 2176SOL    HW1 7427   5.569   1.999   0.136
 2176SOL    HW2 7428   5.435   2.081   0.181
 2177SOL     OW 7429   7.016   2.068   3.799
 2177SOL    HW1 7430   0.027   2.074   3.891
 2177SOL    HW2 7431   6.942   2.135   3.790
 2178SOL     OW 7432   2.334   1.932   1.898
 2178SOL    HW1 7433   2.240   1.961   1.881
 2178SOL    HW2 7434   2.396   1.981   1.836
 2179SOL     OW 7435   2.109   5.265   5.570
 2179SOL    HW1 7436   2.171   5.214   5.629
 2179SOL    HW2 7437   2.084   5.351   5.614
 2180SOL     OW 7438   2.190   2.227   1.965
 2180SOL    HW1 7439   2.100   2.187   1.947
 2180SOL    HW2 7440   2.225   2.195   2.053
 2181SOL     OW 7441   4.862   4.886   4.784
 2181SOL    HW1 7442   4.907   4.803   4.817
 2181SOL    HW2 7443   4.809   4.865   4.702
 2182SOL     OW 7444   1.836   4.140   3.539
 2182SOL    HW1 7445   1.932   4.117   3.555
 2182SOL    HW2 7446   1.789   4.060   3.501
 2183SOL     OW 7447   1.969   4.738   6.332
 2183SOL    HW1 7448   1.952   4.667   6.264
 2183SOL    HW2 7449   1.887   4.796   6.341
 2184SOL     OW 7450   4.521   1.111   5.817
 2184SOL    HW1 7451   4.460   1.142   5.745
 2184SOL    HW2 7452   4.493   1.152   5.904
 2185SOL     OW 7453   0.533   0.273   0.784
 2185SOL    HW1 7454   0.469   0.345   0.756
 2185SOL    HW2 7455   0.486   0.184   0.780
 2186SOL     OW 7456   0.131   5.601   0.880
 2186SOL    HW1 7457   0.131   5.605   0.980
 2186SOL    HW2 7458   0.038   5.609   0.846
 2187SOL     OW 7459   6.496   5.970   2.844
 2187SOL    HW1 7460   6.533   5.906   2.910
 2187SOL    HW2 7461   6.426   5.925   2.789
 2188SOL     OW 7462   6.833   5.417   4.629
 2188SOL    HW1 7463   6.754   5.471   4.657
 2188SOL    HW2 7464   6.903   5.477   4.589
 2189SOL     OW 7465   2.165   6.803   1.007
 2189SOL    HW1 7466   2.259   6.798   0.975
 2189SOL    HW2 7467   2.111   6.857   0.943
 2190SOL     OW 7468   0.596   2.978   1.913
 2190SOL    HW1 7469   0.503   3.007   1.937
 2190SOL    HW2 7470   0.647   2.958   1.997
 2191SOL     OW 7471   2.751   1.555   6.135
 2191SOL    HW1 7472   2.660   1.516   6.119
 2191SOL    HW2 7473   2.745   1.625   6.206
 2192SOL     OW 7474   5.197   0.923   2.679
 2192SOL    HW1 7475   5.175   0.886   2.589
 2192SOL    HW2 7476   5.131   0.996   2.701
 2193SOL     OW 7477   5.580   6.232   6.867
 2193SOL    HW1 7478   5.655   6.263   6.808
 2193SOL    HW2 7479   5.498   6.216   6.812
 2194SOL     OW 7480   2.088   4.748   5.917
 2194SOL    HW1 7481   2.096   4.815   5.990
 2194SOL    HW2 7482   1.993   4.715   5.912
 2195SOL     OW 7483   0.375   0.185   5.101
 2195SOL    HW1 7484   0.457   0.238   5.078
 2195SOL    HW2 7485   0.317   0.177   5.020
 2196SOL     OW 7486   3.904   0.562   5.069
 2196SOL    HW1 7487   3.975   0.621   5.030
 2196SOL    HW2 7488   3.815   0.587   5.032
 2197SOL     OW 7489   2.707   3.363   0.115
 2197SOL    HW1 7490   2.645   3.435   0.087
 2197SOL    HW2 7491   2.800   3.399   0.119
 2198SOL     OW 7492   5.348   0.222   0.642
 2198SOL    HW1 7493   5.351   0.300   0.705
 2198SOL    HW2 7494   5.441   0.193   0.621
 2199SOL     OW 7495   4.986   0.094   3.438
 2199SOL    HW1 7496   4.963   0.008   3.393
 2199SOL    HW2 7497   5.064   0.137   3.393
 2200SOL     OW 7498   2.151   1.917   4.159
 2200SOL    HW1 7499   2.118   1.992   4.215
 2200SOL    HW2 7500   2.078   1.849   4.148
 2201SOL     OW 7501   6.452   2.869   3.494
 2201SOL    HW1 7502   6.504   2.935   3.439
 2201SOL    HW2 7503   6.433   2.909   3.584
 2202SOL     OW 7504   3.109   5.549   2.151
 2202SOL    HW1 7505   3.100   5.584   2.058
 2202SOL    HW2 7506   3.023   5.560   2.200
 2203SOL     OW 7507   1.860   3.048   0.932
 2203SOL    HW1 7508   1.955   3.077   0.927
 2203SOL    HW2 7509   1.841   3.011   1.023
 2204SOL     OW 7510   4.666   1.423   1.229
 2204SOL    HW1 7511   4.727   1.403   1.305
 2204SOL    HW2 7512   4.637   1.519   1.234
 2205SOL     OW 7513   0.487   6.617   6.321
 2205SOL    HW1 7514   0.419   6.661   6.380
 2205SOL    HW2 7515   0.456   6.620   6.226
 2206SOL     OW 7516   3.627   5.311   6.269
 2206SOL    HW1 7517   3.701   5.244   6.276
 2206SOL    HW2 7518   3.638   5.364   6.185
 2207SOL     OW 7519   2.734   5.076   6.746
 2207SOL    HW1 7520   2.807   5.108   6.686
 2207SOL    HW2 7521   2.669   5.022   6.694
 2208SOL     OW 7522   1.440   5.717   2.990
 2208SOL    HW1 7523   1.411   5.813   2.987
 2208SOL    HW2 7524   1.430   5.682   3.083
 2209SOL     OW 7525   1.228   0.151   5.749
 2209SOL    HW1 7526   1.191   0.198   5.668
 2209SOL    HW2 7527   1.165   0.079   5.778
 2210SOL     OW 7528   0.219   4.749   4.679
 2210SOL    HW1 7529   0.229   4.776   4.775
 2210SOL    HW2 7530   0.142   4.800   4.638
 2211SOL     OW 7531   6.493   0.046   0.556
 2211SOL    HW1 7532   6.473   0.138   0.588
 2211SOL    HW2 7533   6.575   0.011   0.602
 2212SOL     OW 7534   2.512   5.893   0.256
 2212SOL    HW1 7535   2.424   5.876   0.302
 2212SOL    HW2 7536   2.585   5.894   0.325
 2213SOL     OW 7537   3.086   1.817   5.107
 2213SOL    HW1 7538   3.166   1.760   5.128
 2213SOL    HW2 7539   3.005   1.776   5.148
 2214SOL     OW 7540   3.357   3.715   5.457
 2214SOL    HW1 7541   3.454   3.694   5.465
 2214SOL    HW2 7542   3.330   3.772   5.535
 2215SOL     OW 7543   6.132   1.250   0.001
 2215SOL    HW1 7544   6.097   1.177   6.969
 2215SOL    HW2 7545   6.229   1.264   7.010
 2216SOL     OW 7546   1.707   0.816   6.060
 2216SOL    HW1 7547   1.742   0.723   6.057
 2216SOL    HW2 7548   1.782   0.881   6.051
 2217SOL     OW 7549   3.882   0.050   2.153
 2217SOL    HW1 7550   3.879   0.074   2.250
 2217SOL    HW2 7551   3.950   0.107   2.107
 2218SOL     OW 7552   6.463   5.458   6.541
 2218SOL    HW1 7553   6.456   5.403   6.625
 2218SOL    HW2 7554   6.547   5.434   6.493
 2219SOL     OW 7555   5.328   1.706   0.839
 2219SOL    HW1 7556   5.377   1.740   0.919
 2219SOL    HW2 7557   5.252   1.648   0.869
 2220SOL     OW 7558   2.012   6.706   5.167
 2220SOL    HW1 7559   1.948   6.755   5.227
 2220SOL    HW2 7560   2.095   6.684   5.218
 2221SOL     OW 7561   6.157   1.463   5.759
 2221SOL    HW1 7562   6.128   1.558   5.753
 2221SOL    HW2 7563   6.229   1.445   5.692
 2222SOL     OW 7564   5.379   0.977   0.244
 2222SOL    HW1 7565   5.383   0.947   0.340
 2222SOL    HW2 7566   5.462   0.949   0.197
 2223SOL     OW 7567   5.873   1.250   5.221
 2223SOL    HW1 7568   5.958   1.299   5.201
 2223SOL    HW2 7569   5.804   1.315   5.252
 2224SOL     OW 7570   0.207   3.107   1.143
 2224SOL    HW1 7571   0.199   3.186   1.204
 2224SOL    HW2 7572   0.175   3.133   1.052
 2225SOL     OW 7573   6.621   6.991   3.613
 2225SOL    HW1 7574   6.656   6.930   3.684
 2225SOL    HW2 7575   6.622   6.943   3.525
 2226SOL     OW 7576   3.391   5.296   1.252
 2226SOL    HW1 7577   3.382   5.393   1.231
 2226SOL    HW2 7578   3.331   5.243   1.192
 2227SOL     OW 7579   5.433   3.350   6.814
 2227SOL    HW1 7580   5.337   3.325   6.800
 2227SOL    HW2 7581   5.488   3.267   6.826
 2228SOL     OW 7582   3.887   4.912   0.944
 2228SOL    HW1 7583   3.899   4.952   1.035
 2228SOL    HW2 7584   3.966   4.935   0.887
 2229SOL     OW 7585   4.491   2.581   5.370
 2229SOL    HW1 7586   4.433   2.662   5.366
 2229SOL    HW2 7587   4.563   2.594   5.439
 2230SOL     OW 7588   5.559   6.519   0.316
 2230SOL    HW1 7589   5.643   6.573   0.314
 2230SOL    HW2 7590   5.558   6.457   0.237
 2231SOL     OW 7591   0.823   0.561   1.252
 2231SOL    HW1 7592   0.797   0.465   1.240
 2231SOL    HW2 7593   0.759   0.620   1.202
 2232SOL     OW 7594   1.209   2.664   4.581
 2232SOL    HW1 7595   1.196   2.740   4.518
 2232SOL    HW2 7596   1.124   2.613   4.591
 2233SOL     OW 7597   1.670   3.362   0.202
 2233SOL    HW1 7598   1.731   3.362   0.282
 2233SOL    HW2 7599   1.597   3.296   0.216
 2234SOL     OW 7600   4.264   1.418   1.496
 2234SOL    HW1 7601   4.221   1.488   1.439
 2234SOL    HW2 7602   4.193   1.369   1.547
 2235SOL     OW 7603   2.975   6.886   1.579
 2235SOL    HW1 7604   2.881   6.910   1.602
 2235SOL    HW2 7605   3.021   6.964   1.537
 2236SOL     OW 7606   2.087   4.154   6.555
 2236SOL    HW1 7607   2.065   4.222   6.485
 2236SOL    HW2 7608   2.025   4.164   6.632
 2237SOL     OW 7609   5.980   4.744   4.272
 2237SOL    HW1 7610   6.009   4.776   4.182
 2237SOL    HW2 7611   5.911   4.807   4.309
 2238SOL     OW 7612   4.959   4.562   1.829
 2238SOL    HW1 7613   4.965   4.650   1.782
 2238SOL    HW2 7614   5.035   4.504   1.801
 2239SOL     OW 7615   3.537   5.200   4.266
 2239SOL    HW1 7616   3.491   5.121   4.306
 2239SOL    HW2 7617   3.487   5.230   4.185
 2240SOL     OW 7618   3.981   5.754   3.488
 2240SOL    HW1 7619   3.964   5.689   3.414
 2240SOL    HW2 7620   3.894   5.786   3.525
 2241SOL     OW 7621   0.602   5.718   3.513
 2241SOL    HW1 7622   0.508   5.732   3.483
 2241SOL    HW2 7623   0.652   5.805   3.509
 2242SOL     OW 7624   5.599   3.310   2.847
 2242SOL    HW1 7625   5.646   3.281   2.764
 2242SOL    HW2 7626   5.511   3.351   2.824
 2243SOL     OW 7627   1.540   6.808   6.200
 2243SOL    HW1 7628   1.595   6.840   6.277
 2243SOL    HW2 7629   1.479   6.735   6.230
 2244SOL     OW 7630   1.659   6.137   1.664
 2244SOL    HW1 7631   1.575   6.158   1.614
 2244SOL    HW2 7632   1.636   6.088   1.749
 2245SOL     OW 7633   0.652   1.796   0.997
 2245SOL    HW1 7634   0.724   1.831   0.937
 2245SOL    HW2 7635   0.691   1.729   1.061
 2246SOL     OW 7636   1.454   1.064   4.602
 2246SOL    HW1 7637   1.549   1.033   4.605
 2246SOL    HW2 7638   1.452   1.160   4.573
 2247SOL     OW 7639   3.446   2.914   3.520
 2247SOL    HW1 7640   3.534   2.935   3.561
 2247SOL    HW2 7641   3.375   2.968   3.565
 2248SOL     OW 7642   6.319   3.829   5.705
 2248SOL    HW1 7643   6.389   3.760   5.686
 2248SOL    HW2 7644   6.358   3.920   5.691
 2249SOL     OW 7645   5.654   6.408   3.666
 2249SOL    HW1 7646   5.565   6.424   3.708
 2249SOL    HW2 7647   5.677   6.484   3.606
 2250SOL     OW 7648   4.053   3.340   5.655
 2250SOL    HW1 7649   4.075   3.379   5.744
 2250SOL    HW2 7650   4.024   3.413   5.593
 2251SOL     OW 7651   4.900   0.206   6.350
 2251SOL    HW1 7652   4.802   0.224   6.339
 2251SOL    HW2 7653   4.952   0.280   6.307
 2252SOL     OW 7654   4.616   2.545   2.564
 2252SOL    HW1 7655   4.668   2.464   2.539
 2252SOL    HW2 7656   4.668   2.599   2.631
 2253SOL     OW 7657   0.287   4.034   6.694
 2253SOL    HW1 7658   0.261   3.942   6.723
 2253SOL    HW2 7659   0.232   4.060   6.614
 2254SOL     OW 7660   3.596   2.804   5.205
 2254SOL    HW1 7661   3.522   2.857   5.248
 2254SOL    HW2 7662   3.591   2.709   5.237
 2255SOL     OW 7663   4.594   3.272   6.021
 2255SOL    HW1 7664   4.640   3.253   6.108
 2255SOL    HW2 7665   4.574   3.186   5.974
 2256SOL     OW 7666   4.716   6.060   2.282
 2256SOL    HW1 7667   4.751   6.093   2.194
 2256SOL    HW2 7668   4.617   6.063   2.282
 2257SOL     OW 7669   0.094   2.594   4.433
 2257SOL    HW1 7670   0.071   2.514   4.488
 2257SOL    HW2 7671   0.074   2.575   4.337
 2258SOL     OW 7672   1.541   5.300   4.861
 2258SOL    HW1 7673   1.612   5.363   4.830
 2258SOL    HW2 7674   1.548   5.288   4.960
 2259SOL     OW 7675   5.267   3.795   6.276
 2259SOL    HW1 7676   5.263   3.873   6.214
 2259SOL    HW2 7677   5.178   3.781   6.318
 2260SOL     OW 7678   6.636   4.240   2.118
 2260SOL    HW1 7679   6.675   4.315   2.064
 2260SOL    HW2 7680   6.705   4.205   2.181
 2261SOL     OW 7681   6.085   5.427   0.007
 2261SOL    HW1 7682   6.169   5.481   0.012
 2261SOL    HW2 7683   6.085   5.359   0.081
 2262SOL     OW 7684   6.124   0.886   3.163
 2262SOL    HW1 7685   6.047   0.923   3.216
 2262SOL    HW2 7686   6.175   0.962   3.123
 2263SOL     OW 7687   3.206   6.329   6.364
 2263SOL    HW1 7688   3.112   6.303   6.341
 2263SOL    HW2 7689   3.264   6.248   6.365
 2264SOL     OW 7690   2.501   4.360   0.576
 2264SOL    HW1 7691   2.409   4.391   0.598
 2264SOL    HW2 7692   2.496   4.278   0.519
 2265SOL     OW 7693   1.103   0.384   4.258
 2265SOL    HW1 7694   1.154   0.322   4.318
 2265SOL    HW2 7695   1.111   0.478   4.292
 2266SOL     OW 7696   5.099   1.923   0.123
 2266SOL    HW1 7697   5.094   1.901   0.220
 2266SOL    HW2 7698   5.006   1.936   0.087
 2267SOL     OW 7699   4.695   2.157   4.745
 2267SOL    HW1 7700   4.672   2.243   4.699
 2267SOL    HW2 7701   4.713   2.086   4.676
 2268SOL     OW 7702   6.177   4.019   6.865
 2268SOL    HW1 7703   6.207   3.926   6.886
 2268SOL    HW2 7704   6.229   4.084   6.921
 2269SOL     OW 7705   6.356   4.702   5.572
 2269SOL    HW1 7706   6.380   4.635   5.501
 2269SOL    HW2 7707   6.387   4.793   5.543
 2270SOL     OW 7708   3.258   2.671   6.310
 2270SOL    HW1 7709   3.164   2.647   6.335
 2270SOL    HW2 7710   3.259   2.714   6.220
 2271SOL     OW 7711   5.058   3.851   0.539
 2271SOL    HW1 7712   5.092   3.759   0.555
 2271SOL    HW2 7713   5.117   3.918   0.584
 2272SOL     OW 7714   6.192   2.879   6.445
 2272SOL    HW1 7715   6.138   2.957   6.476
 2272SOL    HW2 7716   6.196   2.879   6.345
 2273SOL     OW 7717   1.851   1.649   2.255
 2273SOL    HW1 7718   1.865   1.748   2.245
 2273SOL    HW2 7719   1.920   1.601   2.200
 2274SOL     OW 7720   6.991   2.376   6.564
 2274SOL    HW1 7721   6.944   2.290   6.542
 2274SOL    HW2 7722   6.929   2.453   6.545
 2275SOL     OW 7723   6.498   7.018   3.974
 2275SOL    HW1 7724   6.468   6.923   3.969
 2275SOL    HW2 7725   6.518   0.015   4.069
 2276SOL     OW 7726   2.155   5.446   0.919
 2276SOL    HW1 7727   2.119   5.435   0.827
 2276SOL    HW2 7728   2.253   5.425   0.919
 2277SOL     OW 7729   3.678   3.896   4.216
 2277SOL    HW1 7730   3.719   3.985   4.231
 2277SOL    HW2 7731   3.600   3.905   4.154
 2278SOL     OW 7732   6.434   4.609   4.634
 2278SOL    HW1 7733   6.387   4.616   4.546
 2278SOL    HW2 7734   6.409   4.523   4.679
 2279SOL     OW 7735   5.455   6.625   5.698
 2279SOL    HW1 7736   5.502   6.694   5.643
 2279SOL    HW2 7737   5.419   6.553   5.638
 2280SOL     OW 7738   6.429   6.707   4.661
 2280SOL    HW1 7739   6.514   6.664   4.630
 2280SOL    HW2 7740   6.356   6.638   4.664
 2281SOL     OW 7741   3.380   1.159   2.425
 2281SOL    HW1 7742   3.427   1.199   2.504
 2281SOL    HW2 7743   3.448   1.117   2.365
 2282SOL     OW 7744   5.735   0.377   5.074
 2282SOL    HW1 7745   5.775   0.366   5.166
 2282SOL    HW2 7746   5.775   0.457   5.030
 2283SOL     OW 7747   0.438   5.043   1.097
 2283SOL    HW1 7748   0.412   5.037   1.001
 2283SOL    HW2 7749   0.490   5.127   1.113
 2284SOL     OW 7750   1.020   2.755   6.617
 2284SOL    HW1 7751   1.109   2.801   6.606
 2284SOL    HW2 7752   1.022   2.697   6.698
 2285SOL     OW 7753   2.286   2.300   1.057
 2285SOL    HW1 7754   2.234   2.354   1.124
 2285SOL    HW2 7755   2.248   2.208   1.053
 2286SOL     OW 7756   6.958   0.136   3.754
 2286SOL    HW1 7757   6.861   0.138   3.779
 2286SOL    HW2 7758   7.004   0.218   3.788
 2287SOL     OW 7759   1.969   0.620   3.186
 2287SOL    HW1 7760   2.042   0.673   3.142
 2287SOL    HW2 7761   1.951   0.538   3.132
 2288SOL     OW 7762   6.149   4.977   4.395
 2288SOL    HW1 7763   6.191   4.951   4.482
 2288SOL    HW2 7764   6.219   5.006   4.331
 2289SOL     OW 7765   0.747   4.788   1.905
 2289SOL    HW1 7766   0.700   4.813   1.989
 2289SOL    HW2 7767   0.681   4.747   1.841
 2290SOL     OW 7768   0.505   3.853   0.812
 2290SOL    HW1 7769   0.603   3.835   0.825
 2290SOL    HW2 7770   0.470   3.902   0.892
 2291SOL     OW 7771   2.647   2.787   5.636
 2291SOL    HW1 7772   2.604   2.846   5.568
 2291SOL    HW2 7773   2.728   2.833   5.674
 2292SOL     OW 7774   6.829   2.064   5.283
 2292SOL    HW1 7775   6.871   2.134   5.342
 2292SOL    HW2 7776   6.781   1.997   5.340
 2293SOL     OW 7777   4.475   6.177   1.309
 2293SOL    HW1 7778   4.422   6.219   1.235
 2293SOL    HW2 7779   4.558   6.230   1.325
 2294SOL     OW 7780   3.120   0.487   6.892
 2294SOL    HW1 7781   3.044   0.548   6.915
 2294SOL    HW2 7782   3.163   0.454   6.976
 2295SOL     OW 7783   0.948   1.870   2.797
 2295SOL    HW1 7784   0.961   1.784   2.847
 2295SOL    HW2 7785   1.030   1.890   2.743
 2296SOL     OW 7786   4.440   5.095   1.259
 2296SOL    HW1 7787   4.360   5.051   1.219
 2296SOL    HW2 7788   4.459   5.180   1.209
 2297SOL     OW 7789   4.085   4.419   5.536
 2297SOL    HW1 7790   4.023   4.467   5.474
 2297SOL    HW2 7791   4.108   4.478   5.613
 2298SOL     OW 7792   3.971   2.869   1.643
 2298SOL    HW1 7793   4.056   2.816   1.634
 2298SOL    HW2 7794   3.977   2.950   1.585
 2299SOL     OW 7795   3.986   5.864   4.998
 2299SOL    HW1 7796   3.926   5.943   5.010
 2299SOL    HW2 7797   3.931   5.780   5.006
 2300SOL     OW 7798   2.528   5.597   1.822
 2300SOL    HW1 7799   2.563   5.607   1.915
 2300SOL    HW2 7800   2.456   5.527   1.820
 2301SOL     OW 7801   3.328   2.877   3.012
 2301SOL    HW1 7802   3.324   2.907   3.107
 2301SOL    HW2 7803   3.236   2.881   2.972
 2302SOL     OW 7804   3.869   0.295   0.580
 2302SOL    HW1 7805   3.823   0.256   0.660
 2302SOL    HW2 7806   3.924   0.224   0.535
 2303SOL     OW 7807   2.538   3.346   6.352
 2303SOL    HW1 7808   2.528   3.332   6.451
 2303SOL    HW2 7809   2.482   3.280   6.303
 2304SOL     OW 7810   4.609   0.002   3.787
 2304SOL    HW1 7811   4.637   7.000   3.878
 2304SOL    HW2 7812   4.641   0.096   3.771
 2305SOL     OW 7813   2.426   6.386   2.880
 2305SOL    HW1 7814   2.425   6.479   2.918
 2305SOL    HW2 7815   2.505   6.336   2.916
 2306SOL     OW 7816   2.981   5.094   2.455
 2306SOL    HW1 7817   3.044   5.066   2.383
 2306SOL    HW2 7818   3.028   5.156   2.518
 2307SOL     OW 7819   6.343   3.531   2.584
 2307SOL    HW1 7820   6.411   3.568   2.520
 2307SOL    HW2 7821   6.265   3.593   2.589
 2308SOL     OW 7822   0.907   5.377   1.096
 2308SOL    HW1 7823   0.928   5.314   1.022
 2308SOL    HW2 7824   0.918   5.331   1.184
 2309SOL     OW 7825   1.648   0.733   6.373
 2309SOL    HW1 7826   1.574   0.674   6.341
 2309SOL    HW2 7827   1.714   0.746   6.299
 2310SOL     OW 7828   5.154   6.379   1.221
 2310SOL    HW1 7829   5.090   6.315   1.264
 2310SOL    HW2 7830   5.232   6.328   1.184
 2311SOL     OW 7831   2.257   6.465   1.844
 2311SOL    HW1 7832   2.240   6.538   1.910
 2311SOL    HW2 7833   2.215   6.380   1.877
 2312SOL     OW 7834   3.745   6.612   3.781
 2312SOL    HW1 7835   3.749   6.697   3.834
 2312SOL    HW2 7836   3.662   6.562   3.805
 2313SOL     OW 7837   5.606   5.453   1.372
 2313SOL    HW1 7838   5.601   5.358   1.403
 2313SOL    HW2 7839   5.513   5.489   1.360
 2314SOL     OW 7840   5.934   0.005   4.332
 2314SOL    HW1 7841   5.944   0.096   4.372
 2314SOL    HW2 7842   5.925   0.013   4.233
 2315SOL     OW 7843   5.040   3.289   5.316
 2315SOL    HW1 7844   5.090   3.356   5.261
 2315SOL    HW2 7845   5.104   3.221   5.352
 2316SOL     OW 7846   3.495   0.670   4.371
 2316SOL    HW1 7847   3.411   0.617   4.358
 2316SOL    HW2 7848   3.472   0.761   4.404
 2317SOL     OW 7849   0.528   5.899   3.838
 2317SOL    HW1 7850   0.588   5.821   3.818
 2317SOL    HW2 7851   0.580   5.984   3.830
 2318SOL     OW 7852   1.959   2.869   4.557
 2318SOL    HW1 7853   2.047   2.842   4.596
 2318SOL    HW2 7854   1.966   2.963   4.524
 2319SOL     OW 7855   2.064   5.124   4.484
 2319SOL    HW1 7856   1.966   5.105   4.480
 2319SOL    HW2 7857   2.114   5.039   4.497
 2320SOL     OW 7858   0.777   2.758   4.954
 2320SOL    HW1 7859   0.741   2.841   4.911
 2320SOL    HW2 7860   0.854   2.781   5.012
 2321SOL     OW 7861   2.550   6.398   7.024
 2321SOL    HW1 7862   2.537   6.485   0.044
 2321SOL    HW2 7863   2.540   6.412   6.925
 2322SOL     OW 7864   2.213   2.603   3.831
 2322SOL    HW1 7865   2.176   2.555   3.752
 2322SOL    HW2 7866   2.270   2.541   3.885
 2323SOL     OW 7867   3.188   4.869   2.232
 2323SOL    HW1 7868   3.248   4.881   2.153
 2323SOL    HW2 7869   3.110   4.812   2.208
 2324SOL     OW 7870   6.512   6.543   0.828
 2324SOL    HW1 7871   6.493   6.640   0.810
 2324SOL    HW2 7872   6.502   6.525   0.925
 2325SOL     OW 7873   0.584   4.864   1.288
 2325SOL    HW1 7874   0.603   4.962   1.277
 2325SOL    HW2 7875   0.486   4.850   1.305
 2326SOL     OW 7876   4.041   5.454   5.917
 2326SOL    HW1 7877   4.081   5.378   5.968
 2326SOL    HW2 7878   4.078   5.456   5.824
 2327SOL     OW 7879   6.762   2.187   3.775
 2327SOL    HW1 7880   6.729   2.235   3.694
 2327SOL    HW2 7881   6.695   2.118   3.803
 2328SOL     OW 7882   2.791   1.641   2.613
 2328SOL    HW1 7883   2.882   1.671   2.584
 2328SOL    HW2 7884   2.736   1.721   2.637
 2329SOL     OW 7885   1.928   4.325   4.882
 2329SOL    HW1 7886   2.012   4.380   4.884
 2329SOL    HW2 7887   1.945   4.237   4.926
 2330SOL     OW 7888   0.788   3.967   1.348
 2330SOL    HW1 7889   0.761   3.934   1.258
 2330SOL    HW2 7890   0.886   3.987   1.348
 2331SOL     OW 7891   4.518   5.245   0.027
 2331SOL    HW1 7892   4.572   5.287   6.982
 2331SOL    HW2 7893   4.526   5.146   0.022
 2332SOL     OW 7894   4.857   1.833   4.912
 2332SOL    HW1 7895   4.757   1.837   4.905
 2332SOL    HW2 7896   4.898   1.893   4.843
 2333SOL     OW 7897   0.552   4.666   3.067
 2333SOL    HW1 7898   0.489   4.680   2.991
 2333SOL    HW2 7899   0.506   4.687   3.153
 2334SOL     OW 7900   2.013   0.574   0.218
 2334SOL    HW1 7901   1.994   0.569   0.120
 2334SOL    HW2 7902   1.959   0.506   0.266
 2335SOL     OW 7903   6.513   0.512   2.939
 2335SOL    HW1 7904   6.532   0.417   2.961
 2335SOL    HW2 7905   6.461   0.517   2.854
 2336SOL     OW 7906   4.419   2.477   4.778
 2336SOL    HW1 7907   4.413   2.411   4.702
 2336SOL    HW2 7908   4.343   2.461   4.841
 2337SOL     OW 7909   5.076   1.162   2.424
 2337SOL    HW1 7910   5.120   1.198   2.341
 2337SOL    HW2 7911   5.060   1.064   2.413
 2338SOL     OW 7912   1.623   1.937   5.259
 2338SOL    HW1 7913   1.539   1.984   5.283
 2338SOL    HW2 7914   1.602   1.856   5.204
 2339SOL     OW 7915   3.721   3.959   5.020
 2339SOL    HW1 7916   3.807   3.983   4.975
 2339SOL    HW2 7917   3.655   4.034   5.007
 2340SOL     OW 7918   5.453   4.720   0.229
 2340SOL    HW1 7919   5.454   4.704   0.130
 2340SOL    HW2 7920   5.497   4.643   0.275
 2341SOL     OW 7921   4.551   4.859   1.314
 2341SOL    HW1 7922   4.607   4.843   1.232
 2341SOL    HW2 7923   4.503   4.946   1.305
 2342SOL     OW 7924   0.287   6.759   5.289
 2342SOL    HW1 7925   0.348   6.825   5.245
 2342SOL    HW2 7926   0.337   6.712   5.362
 2343SOL     OW 7927   2.535   5.755   2.567
 2343SOL    HW1 7928   2.554   5.755   2.665
 2343SOL    HW2 7929   2.439   5.729   2.552
 2344SOL     OW 7930   1.503   6.747   0.680
 2344SOL    HW1 7931   1.551   6.749   0.767
 2344SOL    HW2 7932   1.554   6.691   0.615
 2345SOL     OW 7933   3.059   5.136   4.481
 2345SOL    HW1 7934   3.081   5.060   4.421
 2345SOL    HW2 7935   2.960   5.150   4.484
 2346SOL     OW 7936   4.857   2.213   4.990
 2346SOL    HW1 7937   4.808   2.177   4.911
 2346SOL    HW2 7938   4.930   2.274   4.959
 2347SOL     OW 7939   2.594   3.415   1.787
 2347SOL    HW1 7940   2.641   3.440   1.872
 2347SOL    HW2 7941   2.498   3.395   1.807
 2348SOL     OW 7942   3.753   6.321   3.630
 2348SOL    HW1 7943   3.838   6.324   3.682
 2348SOL    HW2 7944   3.752   6.239   3.573
 2349SOL     OW 7945   1.217   4.795   6.076
 2349SOL    HW1 7946   1.199   4.719   6.138
 2349SOL    HW2 7947   1.209   4.881   6.126
 2350SOL     OW 7948   4.600   6.597   6.158
 2350SOL    HW1 7949   4.635   6.508   6.127
 2350SOL    HW2 7950   4.534   6.583   6.232
 2351SOL     OW 7951   3.084   5.046   3.276
 2351SOL    HW1 7952   3.043   4.965   3.318
 2351SOL    HW2 7953   3.046   5.058   3.184
 2352SOL     OW 7954   0.371   4.995   1.608
 2352SOL    HW1 7955   0.455   4.941   1.600
 2352SOL    HW2 7956   0.313   4.955   1.679
 2353SOL     OW 7957   3.245   4.480   5.367
 2353SOL    HW1 7958   3.175   4.416   5.337
 2353SOL    HW2 7959   3.243   4.562   5.309
 2354SOL     OW 7960   2.298   1.644   5.857
 2354SOL    HW1 7961   2.303   1.573   5.927
 2354SOL    HW2 7962   2.390   1.679   5.839
 2355SOL     OW 7963   1.709   5.899   0.331
 2355SOL    HW1 7964   1.762   5.815   0.314
 2355SOL    HW2 7965   1.714   5.921   0.429
 2356SOL     OW 7966   1.784   4.203   0.346
 2356SOL    HW1 7967   1.792   4.173   0.441
 2356SOL    HW2 7968   1.750   4.127   0.290
 2357SOL     OW 7969   4.588   6.078   4.168
 2357SOL    HW1 7970   4.513   6.108   4.228
 2357SOL    HW2 7971   4.585   6.131   4.083
 2358SOL     OW 7972   3.491   5.366   5.243
 2358SOL    HW1 7973   3.541   5.299   5.189
 2358SOL    HW2 7974   3.394   5.362   5.220
 2359SOL     OW 7975   0.458   0.764   6.281
 2359SOL    HW1 7976   0.365   0.798   6.267
 2359SOL    HW2 7977   0.454   0.670   6.316
 2360SOL     OW 7978   5.643   5.325   6.595
 2360SOL    HW1 7979   5.726   5.274   6.573
 2360SOL    HW2 7980   5.576   5.313   6.522
 2361SOL     OW 7981   2.371   1.094   5.008
 2361SOL    HW1 7982   2.398   1.006   4.970
 2361SOL    HW2 7983   2.446   1.130   5.064
 2362SOL     OW 7984   2.377   0.442   5.391
 2362SOL    HW1 7985   2.444   0.378   5.428
 2362SOL    HW2 7986   2.375   0.525   5.448
 2363SOL     OW 7987   4.287   2.315   5.322
 2363SOL    HW1 7988   4.324   2.222   5.318
 2363SOL    HW2 7989   4.274   2.341   5.418
 2364SOL     OW 7990   0.908   2.148   2.348
 2364SOL    HW1 7991   0.884   2.149   2.445
 2364SOL    HW2 7992   0.977   2.077   2.332
 2365SOL     OW 7993   5.907   2.520   6.861
 2365SOL    HW1 7994   5.830   2.460   6.881
 2365SOL    HW2 7995   5.920   2.526   6.762
 2366SOL     OW 7996   1.268   4.382   6.094
 2366SOL    HW1 7997   1.362   4.414   6.080
 2366SOL    HW2 7998   1.270   4.291   6.137
 2367SOL     OW 7999   3.654   4.028   0.517
 2367SOL    HW1 8000   3.637   3.955   0.451
 2367SOL    HW2 8001   3.593   4.105   0.498
 2368SOL     OW 8002   4.980   7.000   3.143
 2368SOL    HW1 8003   5.070   6.957   3.131
 2368SOL    HW2 8004   4.988   0.071   3.130
 2369SOL     OW 8005   1.451   2.678   5.450
 2369SOL    HW1 8006   1.422   2.754   5.508
 2369SOL    HW2 8007   1.514   2.619   5.501
 2370SOL     OW 8008   4.706   3.974   6.138
 2370SOL    HW1 8009   4.720   3.875   6.133
 2370SOL    HW2 8010   4.651   4.003   6.060
 2371SOL     OW 8011   0.464   6.383   2.144
 2371SOL    HW1 8012   0.417   6.365   2.231
 2371SOL    HW2 8013   0.400   6.422   2.079
 2372SOL     OW 8014   6.759   1.829   1.413
 2372SOL    HW1 8015   6.794   1.865   1.326
 2372SOL    HW2 8016   6.773   1.896   1.485
 2373SOL     OW 8017   0.284   0.480   0.121
 2373SOL    HW1 8018   0.370   0.431   0.135
 2373SOL    HW2 8019   0.234   0.438   0.045
 2374SOL     OW 8020   6.275   0.765   3.848
 2374SOL    HW1 8021   6.260   0.806   3.938
 2374SOL    HW2 8022   6.342   0.691   3.857
 2375SOL     OW 8023   2.298   0.090   4.053
 2375SOL    HW1 8024   2.346   0.112   4.139
 2375SOL    HW2 8025   2.258   7.026   4.060
 2376SOL     OW 8026   6.216   2.291   4.452
 2376SOL    HW1 8027   6.205   2.330   4.360
 2376SOL    HW2 8028   6.306   2.315   4.488
 2377SOL     OW 8029   3.250   4.134   3.207
 2377SOL    HW1 8030   3.184   4.075   3.253
 2377SOL    HW2 8031   3.310   4.176   3.275
 2378SOL     OW 8032   4.858   2.749   0.472
 2378SOL    HW1 8033   4.760   2.730   0.469
 2378SOL    HW2 8034   4.876   2.813   0.547
 2379SOL     OW 8035   5.853   2.296   6.446
 2379SOL    HW1 8036   5.897   2.264   6.530
 2379SOL    HW2 8037   5.862   2.226   6.375
 2380SOL     OW 8038   0.177   6.982   6.150
 2380SOL    HW1 8039   0.218   6.926   6.077
 2380SOL    HW2 8040   0.104   0.011   6.111
 2381SOL     OW 8041   2.189   4.025   4.453
 2381SOL    HW1 8042   2.255   3.993   4.522
 2381SOL    HW2 8043   2.117   3.956   4.442
 2382SOL     OW 8044   2.400   4.705   3.740
 2382SOL    HW1 8045   2.324   4.690   3.677
 2382SOL    HW2 8046   2.411   4.804   3.756
 2383SOL     OW 8047   5.767   6.356   0.737
 2383SOL    HW1 8048   5.691   6.382   0.795
 2383SOL    HW2 8049   5.734   6.335   0.645
 2384SOL     OW 8050   6.626   6.483   2.230
 2384SOL    HW1 8051   6.617   6.442   2.139
 2384SOL    HW2 8052   6.705   6.444   2.276
 2385SOL     OW 8053   6.546   6.442   1.088
 2385SOL    HW1 8054   6.569   6.351   1.123
 2385SOL    HW2 8055   6.500   6.495   1.159
 2386SOL     OW 8056   5.363   5.697   4.302
 2386SOL    HW1 8057   5.389   5.620   4.360
 2386SOL    HW2 8058   5.357   5.780   4.358
 2387SOL     OW 8059   1.066   1.751   3.985
 2387SOL    HW1 8060   1.024   1.833   3.946
 2387SOL    HW2 8061   1.164   1.754   3.970
 2388SOL     OW 8062   1.737   2.213   3.395
 2388SOL    HW1 8063   1.798   2.140   3.363
 2388SOL    HW2 8064   1.643   2.181   3.393
 2389SOL     OW 8065   5.364   3.393   3.564
 2389SOL    HW1 8066   5.347   3.444   3.648
 2389SOL    HW2 8067   5.316   3.305   3.568
 2390SOL     OW 8068   3.681   3.580   3.889
 2390SOL    HW1 8069   3.737   3.635   3.951
 2390SOL    HW2 8070   3.596   3.554   3.934
 2391SOL     OW 8071   5.083   5.051   5.712
 2391SOL    HW1 8072   5.127   5.069   5.624
 2391SOL    HW2 8073   4.998   5.104   5.719
 2392SOL     OW 8074   3.480   0.225   5.224
 2392SOL    HW1 8075   3.438   0.187   5.307
 2392SOL    HW2 8076   3.567   0.177   5.207
 2393SOL     OW 8077   4.183   5.262   6.052
 2393SOL    HW1 8078   4.200   5.216   5.965
 2393SOL    HW2 8079   4.207   5.201   6.128
 2394SOL     OW 8080   1.866   3.396   4.751
 2394SOL    HW1 8081   1.851   3.483   4.799
 2394SOL    HW2 8082   1.843   3.408   4.654
 2395SOL     OW 8083   6.175   2.356   6.628
 2395SOL    HW1 8084   6.130   2.401   6.551
 2395SOL    HW2 8085   6.201   2.424   6.696
 2396SOL     OW 8086   3.942   5.066   1.164
 2396SOL    HW1 8087   3.967   5.160   1.142
 2396SOL    HW2 8088   3.872   5.066   1.236
 2397SOL     OW 8089   0.259   4.127   0.057
 2397SOL    HW1 8090   0.355   4.145   0.078
 2397SOL    HW2 8091   0.247   4.030   0.036
 2398SOL     OW 8092   2.845   3.800   6.540
 2398SOL    HW1 8093   2.879   3.847   6.621
 2398SOL    HW2 8094   2.855   3.860   6.460
 2399SOL     OW 8095   5.029   1.126   2.704
 2399SOL    HW1 8096   4.988   1.204   2.752
 2399SOL    HW2 8097   5.012   1.134   2.606
 2400SOL     OW 8098   3.649   5.466   0.650
 2400SOL    HW1 8099   3.572   5.443   0.709
 2400SOL    HW2 8100   3.654   5.401   0.575
 2401SOL     OW 8101   4.501   6.775   5.953
 2401SOL    HW1 8102   4.540   6.695   6.000
 2401SOL    HW2 8103   4.569   6.848   5.951
 2402SOL     OW 8104   0.832   1.180   4.489
 2402SOL    HW1 8105   0.822   1.279   4.484
 2402SOL    HW2 8106   0.796   1.139   4.406
 2403SOL     OW 8107   2.478   2.474   0.440
 2403SOL    HW1 8108   2.557   2.415   0.453
 2403SOL    HW2 8109   2.465   2.531   0.521
 2404SOL     OW 8110   5.314   0.538   1.632
 2404SOL    HW1 8111   5.247   0.556   1.705
 2404SOL    HW2 8112   5.379   0.469   1.663
 2405SOL     OW 8113   3.673   3.553   3.236
 2405SOL    HW1 8114   3.677   3.512   3.145
 2405SOL    HW2 8115   3.713   3.490   3.303
 2406SOL     OW 8116   2.221   0.484   3.171
 2406SOL    HW1 8117   2.130   0.453   3.144
 2406SOL    HW2 8118   2.279   0.405   3.189
 2407SOL     OW 8119   5.504   2.633   2.998
 2407SOL    HW1 8120   5.592   2.586   3.008
 2407SOL    HW2 8121   5.445   2.608   3.075
 2408SOL     OW 8122   4.340   4.802   3.875
 2408SOL    HW1 8123   4.254   4.853   3.873
 2408SOL    HW2 8124   4.387   4.814   3.787
 2409SOL     OW 8125   1.428   3.106   1.436
 2409SOL    HW1 8126   1.373   3.023   1.433
 2409SOL    HW2 8127   1.407   3.163   1.357
 2410SOL     OW 8128   4.752   2.594   6.726
 2410SOL    HW1 8129   4.688   2.670   6.716
 2410SOL    HW2 8130   4.845   2.626   6.707
 2411SOL     OW 8131   4.837   5.497   5.631
 2411SOL    HW1 8132   4.744   5.488   5.667
 2411SOL    HW2 8133   4.887   5.564   5.686
 2412SOL     OW 8134   3.921   4.668   0.601
 2412SOL    HW1 8135   3.940   4.658   0.699
 2412SOL    HW2 8136   3.873   4.586   0.569
 2413SOL     OW 8137   6.575   2.093   0.503
 2413SOL    HW1 8138   6.644   2.113   0.434
 2413SOL    HW2 8139   6.499   2.043   0.462
 2414SOL     OW 8140   4.844   3.916   2.176
 2414SOL    HW1 8141   4.915   3.893   2.109
 2414SOL    HW2 8142   4.797   3.833   2.205
 2415SOL     OW 8143   0.909   6.853   2.041
 2415SOL    HW1 8144   0.862   6.918   1.981
 2415SOL    HW2 8145   0.955   6.903   2.114
 2416SOL     OW 8146   3.367   2.101   4.909
 2416SOL    HW1 8147   3.396   2.133   4.999
 2416SOL    HW2 8148   3.311   2.171   4.865
 2417SOL     OW 8149   4.325   3.333   5.552
 2417SOL    HW1 8150   4.334   3.266   5.478
 2417SOL    HW2 8151   4.240   3.317   5.602
 2418SOL     OW 8152   3.529   4.145   4.121
 2418SOL    HW1 8153   3.430   4.147   4.106
 2418SOL    HW2 8154   3.575   4.173   4.037
 2419SOL     OW 8155   1.112   6.412   4.087
 2419SOL    HW1 8156   1.129   6.329   4.140
 2419SOL    HW2 8157   1.065   6.479   4.143
 2420SOL     OW 8158   3.932   1.976   1.338
 2420SOL    HW1 8159   4.022   1.976   1.383
 2420SOL    HW2 8160   3.860   1.978   1.407
 2421SOL     OW 8161   2.539   1.172   5.451
 2421SOL    HW1 8162   2.639   1.166   5.455
 2421SOL    HW2 8163   2.511   1.268   5.455
 2422SOL     OW 8164   6.224   6.952   1.613
 2422SOL    HW1 8165   6.262   0.017   1.606
 2422SOL    HW2 8166   6.292   6.890   1.652
 2423SOL     OW 8167   1.724   6.486   3.868
 2423SOL    HW1 8168   1.756   6.562   3.812
 2423SOL    HW2 8169   1.723   6.402   3.814
 2424SOL     OW 8170   6.389   6.198   5.906
 2424SOL    HW1 8171   6.318   6.165   5.968
 2424SOL    HW2 8172   6.391   6.140   5.824
 2425SOL     OW 8173   6.538   0.552   4.128
 2425SOL    HW1 8174   6.618   0.590   4.174
 2425SOL    HW2 8175   6.490   0.490   4.189
 2426SOL     OW 8176   1.088   5.494   4.899
 2426SOL    HW1 8177   1.170   5.549   4.915
 2426SOL    HW2 8178   1.111   5.397   4.905
 2427SOL     OW 8179   5.374   5.661   6.435
 2427SOL    HW1 8180   5.340   5.570   6.411
 2427SOL    HW2 8181   5.352   5.681   6.530
 2428SOL     OW 8182   6.860   0.081   3.394
 2428SOL    HW1 8183   6.810   0.162   3.427
 2428SOL    HW2 8184   6.900   0.033   3.472
 2429SOL     OW 8185   6.302   5.660   4.282
 2429SOL    HW1 8186   6.308   5.611   4.368
 2429SOL    HW2 8187   6.210   5.647   4.242
 2430SOL     OW 8188   6.195   1.448   0.737
 2430SOL    HW1 8189   6.202   1.366   0.679
 2430SOL    HW2 8190   6.235   1.429   0.826
 2431SOL     OW 8191   4.026   0.216   1.992
 2431SOL    HW1 8192   4.067   0.285   2.052
 2431SOL    HW2 8193   3.995   0.261   1.908
 2432SOL     OW 8194   3.361   6.632   2.887
 2432SOL    HW1 8195   3.352   6.533   2.875
 2432SOL    HW2 8196   3.413   6.670   2.811
 2433SOL     OW 8197   3.272   7.010   1.180
 2433SOL    HW1 8198   3.202   6.958   1.130
 2433SOL    HW2 8199   3.234   0.014   1.267
 2434SOL     OW 8200   4.500   1.129   3.871
 2434SOL    HW1 8201   4.531   1.052   3.817
 2434SOL    HW2 8202   4.567   1.151   3.942
 2435SOL     OW 8203   4.256   5.098   5.823
 2435SOL    HW1 8204   4.195   5.128   5.749
 2435SOL    HW2 8205   4.348   5.135   5.807
 2436SOL     OW 8206   1.964   6.341   1.480
 2436SOL    HW1 8207   2.030   6.379   1.414
 2436SOL    HW2 8208   1.886   6.402   1.488
 2437SOL     OW 8209   3.785   5.878   0.764
 2437SOL    HW1 8210   3.827   5.962   0.729
 2437SOL    HW2 8211   3.699   5.861   0.715
 2438SOL     OW 8212   3.749   1.524   5.884
 2438SOL    HW1 8213   3.781   1.450   5.826
 2438SOL    HW2 8214   3.657   1.552   5.855
 2439SOL     OW 8215   0.862   3.949   6.666
 2439SOL    HW1 8216   0.890   3.861   6.630
 2439SOL    HW2 8217   0.767   3.967   6.641
 2440SOL     OW 8218   5.089   6.274   4.983
 2440SOL    HW1 8219   5.146   6.357   4.991
 2440SOL    HW2 8220   5.072   6.255   4.886
 2441SOL     OW 8221   6.591   0.378   0.210
 2441SOL    HW1 8222   6.619   0.473   0.196
 2441SOL    HW2 8223   6.629   0.322   0.136
 2442SOL     OW 8224   6.574   5.321   4.254
 2442SOL    HW1 8225   6.641   5.262   4.300
 2442SOL    HW2 8226   6.567   5.294   4.158
 2443SOL     OW 8227   3.578   6.578   5.364
 2443SOL    HW1 8228   3.649   6.647   5.352
 2443SOL    HW2 8229   3.575   6.550   5.460
 2444SOL     OW 8230   3.474   4.590   5.812
 2444SOL    HW1 8231   3.484   4.689   5.805
 2444SOL    HW2 8232   3.493   4.548   5.723
 2445SOL     OW 8233   0.552   0.285   1.583
 2445SOL    HW1 8234   0.603   0.364   1.547
 2445SOL    HW2 8235   0.479   0.318   1.643
 2446SOL     OW 8236   0.152   3.946   3.741
 2446SOL    HW1 8237   0.165   3.851   3.712
 2446SOL    HW2 8238   0.057   3.972   3.725
 2447SOL     OW 8239   3.186   1.888   0.586
 2447SOL    HW1 8240   3.195   1.937   0.499
 2447SOL    HW2 8241   3.257   1.818   0.592
 2448SOL     OW 8242   0.856   0.748   5.396
 2448SOL    HW1 8243   0.897   0.839   5.382
 2448SOL    HW2 8244   0.920   0.678   5.365
 2449SOL     OW 8245   0.030   4.442   1.759
 2449SOL    HW1 8246   0.007   4.530   1.800
 2449SOL    HW2 8247   0.081   4.387   1.825
 2450SOL     OW 8248   2.706   4.865   4.629
 2450SOL    HW1 8249   2.724   4.952   4.674
 2450SOL    HW2 8250   2.680   4.797   4.697
 2451SOL     OW 8251   0.550   0.297   3.499
 2451SOL    HW1 8252   0.491   0.378   3.493
 2451SOL    HW2 8253   0.501   0.224   3.547
 2452SOL     OW 8254   2.065   2.672   2.910
 2452SOL    HW1 8255   2.080   2.759   2.862
 2452SOL    HW2 8256   2.142   2.656   2.973
 2453SOL     OW 8257   6.448   3.794   1.466
 2453SOL    HW1 8258   6.356   3.789   1.427
 2453SOL    HW2 8259   6.452   3.739   1.550
 2454SOL     OW 8260   3.315   1.369   0.555
 2454SOL    HW1 8261   3.333   1.281   0.510
 2454SOL    HW2 8262   3.401   1.415   0.575
 2455SOL     OW 8263   5.546   6.696   0.741
 2455SOL    HW1 8264   5.472   6.735   0.796
 2455SOL    HW2 8265   5.626   6.681   0.800
 2456SOL     OW 8266   6.115   0.014   0.565
 2456SOL    HW1 8267   6.201   7.001   0.533
 2456SOL    HW2 8268   6.062   0.045   0.486
 2457SOL     OW 8269   6.866   6.172   0.234
 2457SOL    HW1 8270   6.956   6.195   0.269
 2457SOL    HW2 8271   6.802   6.245   0.257
 2458SOL     OW 8272   2.630   5.486   4.129
 2458SOL    HW1 8273   2.596   5.393   4.142
 2458SOL    HW2 8274   2.669   5.520   4.215
 2459SOL     OW 8275   2.568   6.810   0.600
 2459SOL    HW1 8276   2.558   6.714   0.577
 2459SOL    HW2 8277   2.595   6.820   0.696
 2460SOL     OW 8278   2.046   0.188   0.930
 2460SOL    HW1 8279   2.133   0.139   0.926
 2460SOL    HW2 8280   1.996   0.174   0.844
 2461SOL     OW 8281   4.984   0.408   2.901
 2461SOL    HW1 8282   5.006   0.367   2.813
 2461SOL    HW2 8283   5.043   0.488   2.916
 2462SOL     OW 8284   2.400   5.577   0.215
 2462SOL    HW1 8285   2.439   5.630   0.289
 2462SOL    HW2 8286   2.346   5.636   0.156
 2463SOL     OW 8287   6.038   2.273   4.635
 2463SOL    HW1 8288   5.987   2.192   4.605
 2463SOL    HW2 8289   6.110   2.294   4.569
 2464SOL     OW 8290   1.506   4.252   1.719
 2464SOL    HW1 8291   1.586   4.299   1.680
 2464SOL    HW2 8292   1.534   4.202   1.801
 2465SOL     OW 8293   6.635   5.783   0.976
 2465SOL    HW1 8294   6.686   5.804   0.893
 2465SOL    HW2 8295   6.542   5.819   0.968
 2466SOL     OW 8296   3.257   0.802   1.549
 2466SOL    HW1 8297   3.342   0.800   1.603
 2466SOL    HW2 8298   3.197   0.729   1.580
 2467SOL     OW 8299   5.885   1.950   5.589
 2467SOL    HW1 8300   5.812   1.974   5.525
 2467SOL    HW2 8301   5.871   2.000   5.675
 2468SOL     OW 8302   6.057   6.626   2.101
 2468SOL    HW1 8303   6.080   6.671   2.014
 2468SOL    HW2 8304   5.965   6.586   2.094
 2469SOL     OW 8305   3.584   5.143   5.125
 2469SOL    HW1 8306   3.547   5.059   5.166
 2469SOL    HW2 8307   3.551   5.151   5.031
 2470SOL     OW 8308   3.081   4.388   6.128
 2470SOL    HW1 8309   3.034   4.448   6.193
 2470SOL    HW2 8310   3.153   4.439   6.081
 2471SOL     OW 8311   1.893   6.266   1.738
 2471SOL    HW1 8312   1.939   6.287   1.653
 2471SOL    HW2 8313   1.802   6.227   1.719
 2472SOL     OW 8314   5.516   1.538   4.358
 2472SOL    HW1 8315   5.578   1.596   4.411
 2472SOL    HW2 8316   5.461   1.596   4.297
 2473SOL     OW 8317   1.716   3.988   5.358
 2473SOL    HW1 8318   1.767   4.009   5.441
 2473SOL    HW2 8319   1.628   3.946   5.382
 2474SOL     OW 8320   0.499   5.637   0.154
 2474SOL    HW1 8321   0.574   5.703   0.155
 2474SOL    HW2 8322   0.531   5.551   0.115
 2475SOL     OW 8323   4.632   1.083   0.852
 2475SOL    HW1 8324   4.607   1.016   0.922
 2475SOL    HW2 8325   4.728   1.109   0.864
 2476SOL     OW 8326   0.807   2.871   3.374
 2476SOL    HW1 8327   0.898   2.913   3.381
 2476SOL    HW2 8328   0.811   2.793   3.312
 2477SOL     OW 8329   6.212   0.396   2.511
 2477SOL    HW1 8330   6.147   0.469   2.489
 2477SOL    HW2 8331   6.202   0.322   2.445
 2478SOL     OW 8332   5.341   6.686   2.203
 2478SOL    HW1 8333   5.295   6.662   2.118
 2478SOL    HW2 8334   5.417   6.623   2.219
 2479SOL     OW 8335   0.613   3.516   1.732
 2479SOL    HW1 8336   0.569   3.568   1.658
 2479SOL    HW2 8337   0.569   3.538   1.819
 2480SOL     OW 8338   6.168   3.877   0.758
 2480SOL    HW1 8339   6.184   3.864   0.660
 2480SOL    HW2 8340   6.086   3.934   0.771
 2481SOL     OW 8341   3.099   6.609   0.292
 2481SOL    HW1 8342   3.131   6.629   0.385
 2481SOL    HW2 8343   3.166   6.550   0.246
 2482SOL     OW 8344   5.236   3.105   5.429
 2482SOL    HW1 8345   5.273   3.052   5.352
 2482SOL    HW2 8346   5.229   3.046   5.509
 2483SOL     OW 8347   2.657   1.302   0.231
 2483SOL    HW1 8348   2.670   1.346   0.320
 2483SOL    HW2 8349   2.739   1.315   0.175
 2484SOL     OW 8350   1.807   0.884   0.669
 2484SOL    HW1 8351   1.903   0.911   0.661
 2484SOL    HW2 8352   1.772   0.860   0.579
 2485SOL     OW 8353   4.464   4.950   2.085
 2485SOL    HW1 8354   4.425   4.974   1.996
 2485SOL    HW2 8355   4.514   5.028   2.122
 2486SOL     OW 8356   3.123   5.642   2.982
 2486SOL    HW1 8357   3.037   5.687   3.004
 2486SOL    HW2 8358   3.120   5.547   3.012
 2487SOL     OW 8359   3.906   5.358   6.982
 2487SOL    HW1 8360   3.880   5.450   7.010
 2487SOL    HW2 8361   3.939   5.360   6.888
 2488SOL     OW 8362   2.359   4.243   1.962
 2488SOL    HW1 8363   2.369   4.326   2.017
 2488SOL    HW2 8364   2.303   4.177   2.012
 2489SOL     OW 8365   2.194   4.798   4.079
 2489SOL    HW1 8366   2.230   4.891   4.090
 2489SOL    HW2 8367   2.269   4.735   4.061
 2490SOL     OW 8368   6.210   5.520   0.804
 2490SOL    HW1 8369   6.285   5.470   0.847
 2490SOL    HW2 8370   6.236   5.615   0.791
 2491SOL     OW 8371   1.975   5.578   3.164
 2491SOL    HW1 8372   1.885   5.596   3.205
 2491SOL    HW2 8373   2.033   5.659   3.174
 2492SOL     OW 8374   3.931   3.023   6.662
 2492SOL    HW1 8375   3.897   3.029   6.755
 2492SOL    HW2 8376   3.857   2.993   6.601
 2493SOL     OW 8377   6.266   0.164   3.142
 2493SOL    HW1 8378   6.169   0.186   3.141
 2493SOL    HW2 8379   6.313   0.226   3.205
 2494SOL     OW 8380   5.391   3.477   2.423
 2494SOL    HW1 8381   5.459   3.424   2.474
 2494SOL    HW2 8382   5.306   3.424   2.416
 2495SOL     OW 8383   4.639   0.669   5.139
 2495SOL    HW1 8384   4.627   0.634   5.232
 2495SOL    HW2 8385   4.737   0.681   5.121
 2496SOL     OW 8386   0.693   5.314   6.822
 2496SOL    HW1 8387   0.691   5.309   6.922
 2496SOL    HW2 8388   0.603   5.342   6.788
 2497SOL     OW 8389   0.254   1.762   0.129
 2497SOL    HW1 8390   0.339   1.729   0.170
 2497SOL    HW2 8391   0.179   1.702   0.154
 2498SOL     OW 8392   2.727   2.221   3.313
 2498SOL    HW1 8393   2.734   2.249   3.408
 2498SOL    HW2 8394   2.632   2.228   3.283
 2499SOL     OW 8395   5.502   1.136   4.641
 2499SOL    HW1 8396   5.423   1.111   4.697
 2499SOL    HW2 8397   5.542   1.054   4.601
 2500SOL     OW 8398   4.840   3.432   5.757
 2500SOL    HW1 8399   4.839   3.447   5.658
 2500SOL    HW2 8400   4.767   3.370   5.782
 2501SOL     OW 8401   6.471   5.223   6.716
 2501SOL    HW1 8402   6.415   5.186   6.791
 2501SOL    HW2 8403   6.438   5.186   6.629
 2502SOL     OW 8404   2.709   6.288   3.682
 2502SOL    HW1 8405   2.651   6.208   3.701
 2502SOL    HW2 8406   2.805   6.259   3.678
 2503SOL     OW 8407   3.811   5.724   5.313
 2503SOL    HW1 8408   3.831   5.821   5.323
 2503SOL    HW2 8409   3.716   5.706   5.337
 2504SOL     OW 8410   2.500   5.363   4.941
 2504SOL    HW1 8411   2.403   5.352   4.964
 2504SOL    HW2 8412   2.511   5.443   4.882
 2505SOL     OW 8413   2.816   6.249   4.482
 2505SOL    HW1 8414   2.856   6.250   4.574
 2505SOL    HW2 8415   2.858   6.175   4.428
 2506SOL     OW 8416   0.296   3.398   6.216
 2506SOL    HW1 8417   0.360   3.402   6.140
 2506SOL    HW2 8418   0.207   3.366   6.184
 2507SOL     OW 8419   5.778   5.206   7.003
 2507SOL    HW1 8420   5.858   5.146   7.009
 2507SOL    HW2 8421   5.807   5.295   6.966
 2508SOL     OW 8422   2.859   1.720   1.782
 2508SOL    HW1 8423   2.930   1.749   1.717
 2508SOL    HW2 8424   2.770   1.749   1.749
 2509SOL     OW 8425   5.791   2.627   2.705
 2509SOL    HW1 8426   5.732   2.690   2.655
 2509SOL    HW2 8427   5.739   2.546   2.730
 2510SOL     OW 8428   2.694   4.411   0.800
 2510SOL    HW1 8429   2.653   4.500   0.822
 2510SOL    HW2 8430   2.650   4.373   0.718
 2511SOL     OW 8431   1.350   1.578   4.779
 2511SOL    HW1 8432   1.337   1.575   4.679
 2511SOL    HW2 8433   1.445   1.554   4.801
 2512SOL     OW 8434   5.944   4.434   4.708
 2512SOL    HW1 8435   5.981   4.374   4.637
 2512SOL    HW2 8436   5.971   4.399   4.798
 2513SOL     OW 8437   1.468   2.252   6.161
 2513SOL    HW1 8438   1.445   2.327   6.223
 2513SOL    HW2 8439   1.540   2.281   6.098
 2514SOL     OW 8440   0.632   3.187   3.689
 2514SOL    HW1 8441   0.592   3.262   3.635
 2514SOL    HW2 8442   0.714   3.153   3.643
 2515SOL     OW 8443   1.067   6.572   1.093
 2515SOL    HW1 8444   1.093   6.628   1.014
 2515SOL    HW2 8445   1.134   6.584   1.166
 2516SOL     OW 8446   6.264   5.256   2.846
 2516SOL    HW1 8447   6.335   5.327   2.840
 2516SOL    HW2 8448   6.236   5.246   2.942
 2517SOL     OW 8449   2.304   5.637   6.356
 2517SOL    HW1 8450   2.318   5.585   6.272
 2517SOL    HW2 8451   2.207   5.658   6.367
 2518SOL     OW 8452   1.920   3.391   0.048
 2518SOL    HW1 8453   1.832   3.370   0.091
 2518SOL    HW2 8454   1.977   3.308   0.048
 2519SOL     OW 8455   4.928   4.583   4.374
 2519SOL    HW1 8456   5.026   4.566   4.361
 2519SOL    HW2 8457   4.891   4.628   4.293
 2520SOL     OW 8458   1.312   2.516   1.202
 2520SOL    HW1 8459   1.368   2.456   1.259
 2520SOL    HW2 8460   1.353   2.607   1.200
 2521SOL     OW 8461   1.047   7.024   6.009
 2521SOL    HW1 8462   1.070   6.966   5.930
 2521SOL    HW2 8463   1.131   0.033   6.049
 2522SOL     OW 8464   0.767   3.271   5.042
 2522SOL    HW1 8465   0.700   3.289   4.971
 2522SOL    HW2 8466   0.747   3.183   5.085
 2523SOL     OW 8467   6.605   2.799   0.785
 2523SOL    HW1 8468   6.694   2.757   0.767
 2523SOL    HW2 8469   6.616   2.875   0.850
 2524SOL     OW 8470   0.257   6.281   4.695
 2524SOL    HW1 8471   0.232   6.222   4.772
 2524SOL    HW2 8472   0.175   6.303   4.641
 2525SOL     OW 8473   1.893   3.120   3.914
 2525SOL    HW1 8474   1.889   3.105   4.013
 2525SOL    HW2 8475   1.800   3.119   3.876
 2526SOL     OW 8476   0.296   3.332   5.324
 2526SOL    HW1 8477   0.221   3.282   5.281
 2526SOL    HW2 8478   0.300   3.424   5.286
 2527SOL     OW 8479   5.905   0.096   5.207
 2527SOL    HW1 8480   5.951   0.124   5.123
 2527SOL    HW2 8481   5.967   0.039   5.262
 2528SOL     OW 8482   5.806   4.647   1.343
 2528SOL    HW1 8483   5.840   4.581   1.276
 2528SOL    HW2 8484   5.800   4.737   1.301
 2529SOL     OW 8485   5.730   4.575   5.829
 2529SOL    HW1 8486   5.636   4.591   5.857
 2529SOL    HW2 8487   5.757   4.482   5.853
 2530SOL     OW 8488   1.187   6.693   4.552
 2530SOL    HW1 8489   1.095   6.688   4.513
 2530SOL    HW2 8490   1.234   6.774   4.517
 2531SOL     OW 8491   5.903   6.352   4.524
 2531SOL    HW1 8492   5.959   6.358   4.441
 2531SOL    HW2 8493   5.819   6.405   4.511
 2532SOL     OW 8494   0.628   5.535   0.630
 2532SOL    HW1 8495   0.556   5.470   0.607
 2532SOL    HW2 8496   0.604   5.625   0.595
 2533SOL     OW 8497   5.514   6.355   4.933
 2533SOL    HW1 8498   5.553   6.417   5.001
 2533SOL    HW2 8499   5.585   6.292   4.901
 2534SOL     OW 8500   2.282   0.714   3.278
 2534SOL    HW1 8501   2.242   0.629   3.245
 2534SOL    HW2 8502   2.264   0.725   3.375
 2535SOL     OW 8503   1.994   1.982   6.453
 2535SOL    HW1 8504   1.992   1.973   6.354
 2535SOL    HW2 8505   1.967   1.895   6.495
 2536SOL     OW 8506   0.760   1.733   3.208
 2536SOL    HW1 8507   0.730   1.804   3.145
 2536SOL    HW2 8508   0.859   1.738   3.219
 2537SOL     OW 8509   4.777   6.404   0.806
 2537SOL    HW1 8510   4.691   6.365   0.772
 2537SOL    HW2 8511   4.758   6.488   0.856
 2538SOL     OW 8512   1.733   4.194   5.131
 2538SOL    HW1 8513   1.776   4.138   5.202
 2538SOL    HW2 8514   1.742   4.148   5.042
 2539SOL     OW 8515   4.058   6.990   5.517
 2539SOL    HW1 8516   4.131   0.029   5.535
 2539SOL    HW2 8517   4.028   6.949   5.603
 2540SOL     OW 8518   5.275   0.877   1.412
 2540SOL    HW1 8519   5.346   0.868   1.341
 2540SOL    HW2 8520   5.316   0.861   1.502
 2541SOL     OW 8521   1.389   0.512   5.758
 2541SOL    HW1 8522   1.340   0.461   5.688
 2541SOL    HW2 8523   1.363   0.609   5.753
 2542SOL     OW 8524   3.908   2.147   4.518
 2542SOL    HW1 8525   3.932   2.161   4.422
 2542SOL    HW2 8526   3.810   2.126   4.526
 2543SOL     OW 8527   2.154   0.695   2.947
 2543SOL    HW1 8528   2.139   0.611   3.000
 2543SOL    HW2 8529   2.184   0.671   2.855
 2544SOL     OW 8530   0.587   4.900   2.109
 2544SOL    HW1 8531   0.493   4.874   2.132
 2544SOL    HW2 8532   0.592   4.999   2.096
 2545SOL     OW 8533   1.386   0.965   1.514
 2545SOL    HW1 8534   1.474   0.918   1.521
 2545SOL    HW2 8535   1.364   0.981   1.418
 2546SOL     OW 8536   6.853   3.103   0.690
 2546SOL    HW1 8537   6.762   3.137   0.713
 2546SOL    HW2 8538   6.918   3.179   0.689
 2547SOL     OW 8539   5.398   6.024   0.727
 2547SOL    HW1 8540   5.395   6.091   0.653
 2547SOL    HW2 8541   5.443   6.065   0.807
 2548SOL     OW 8542   2.342   0.527   4.603
 2548SOL    HW1 8543   2.343   0.533   4.702
 2548SOL    HW2 8544   2.420   0.577   4.565
 2549SOL     OW 8545   2.430   2.284   1.834
 2549SOL    HW1 8546   2.338   2.258   1.863
 2549SOL    HW2 8547   2.484   2.202   1.818
 2550SOL     OW 8548   5.505   0.787   6.896
 2550SOL    HW1 8549   5.415   0.830   6.893
 2550SOL    HW2 8550   5.504   0.712   6.963
 2551SOL     OW 8551   3.527   5.238   0.026
 2551SOL    HW1 8552   3.571   5.209   6.968
 2551SOL    HW2 8553   3.594   5.285   0.084
 2552SOL     OW 8554   2.387   5.301   6.740
 2552SOL    HW1 8555   2.478   5.307   6.781
 2552SOL    HW2 8556   2.375   5.373   6.672
 2553SOL     OW 8557   3.384   2.802   6.086
 2553SOL    HW1 8558   3.403   2.894   6.051
 2553SOL    HW2 8559   3.468   2.748   6.084
 2554SOL     OW 8560   1.771   5.795   6.819
 2554SOL    HW1 8561   1.777   5.742   6.903
 2554SOL    HW2 8562   1.699   5.758   6.761
 2555SOL     OW 8563   5.802   6.307   6.737
 2555SOL    HW1 8564   5.855   6.225   6.715
 2555SOL    HW2 8565   5.774   6.352   6.652
 2556SOL     OW 8566   3.797   6.983   1.256
 2556SOL    HW1 8567   3.831   6.890   1.267
 2556SOL    HW2 8568   3.825   7.019   1.167
 2557SOL     OW 8569   2.633   0.268   7.003
 2557SOL    HW1 8570   2.591   0.177   7.003
 2557SOL    HW2 8571   2.725   0.262   0.012
 2558SOL     OW 8572   4.423   4.043   5.575
 2558SOL    HW1 8573   4.364   4.104   5.522
 2558SOL    HW2 8574   4.500   4.013   5.518
 2559SOL     OW 8575   6.523   3.319   3.699
 2559SOL    HW1 8576   6.611   3.277   3.678
 2559SOL    HW2 8577   6.499   3.300   3.794
 2560SOL     OW 8578   5.269   3.935   3.544
 2560SOL    HW1 8579   5.180   3.975   3.564
 2560SOL    HW2 8580   5.259   3.863   3.476
 2561SOL     OW 8581   3.905   1.468   3.432
 2561SOL    HW1 8582   3.891   1.427   3.522
 2561SOL    HW2 8583   3.979   1.421   3.385
 2562SOL     OW 8584   3.113   5.699   3.334
 2562SOL    HW1 8585   3.113   5.604   3.302
 2562SOL    HW2 8586   3.157   5.703   3.424
 2563SOL     OW 8587   3.331   1.230   6.060
 2563SOL    HW1 8588   3.305   1.311   6.007
 2563SOL    HW2 8589   3.413   1.250   6.114
 2564SOL     OW 8590   1.939   6.640   0.216
 2564SOL    HW1 8591   1.839   6.632   0.208
 2564SOL    HW2 8592   1.975   6.556   0.257
 2565SOL     OW 8593   0.347   0.744   0.082
 2565SOL    HW1 8594   0.354   0.647   0.104
 2565SOL    HW2 8595   0.439   0.782   0.068
 2566SOL     OW 8596   2.318   6.664   1.642
 2566SOL    HW1 8597   2.243   6.701   1.587
 2566SOL    HW2 8598   2.283   6.590   1.700
 2567SOL     OW 8599   1.635   1.122   1.229
 2567SOL    HW1 8600   1.710   1.152   1.289
 2567SOL    HW2 8601   1.663   1.134   1.134
 2568SOL     OW 8602   2.897   6.761   0.558
 2568SOL    HW1 8603   2.987   6.778   0.599
 2568SOL    HW2 8604   2.831   6.825   0.596
 2569SOL     OW 8605   2.626   1.738   2.017
 2569SOL    HW1 8606   2.566   1.710   1.942
 2569SOL    HW2 8607   2.719   1.707   2.000
 2570SOL     OW 8608   4.598   6.196   6.335
 2570SOL    HW1 8609   4.555   6.283   6.360
 2570SOL    HW2 8610   4.546   6.155   6.260
 2571SOL     OW 8611   3.887   3.117   4.574
 2571SOL    HW1 8612   3.841   3.203   4.549
 2571SOL    HW2 8613   3.819   3.048   4.597
 2572SOL     OW 8614   2.285   6.162   0.821
 2572SOL    HW1 8615   2.241   6.221   0.753
 2572SOL    HW2 8616   2.379   6.143   0.794
 2573SOL     OW 8617   6.562   1.505   3.046
 2573SOL    HW1 8618   6.482   1.528   3.101
 2573SOL    HW2 8619   6.556   1.550   2.957
 2574SOL     OW 8620   6.192   3.670   0.928
 2574SOL    HW1 8621   6.184   3.759   0.883
 2574SOL    HW2 8622   6.284   3.658   0.964
 2575SOL     OW 8623   5.494   3.430   1.776
 2575SOL    HW1 8624   5.442   3.387   1.702
 2575SOL    HW2 8625   5.542   3.359   1.828
 2576SOL     OW 8626   3.821   0.094   3.972
 2576SOL    HW1 8627   3.863   0.011   4.009
 2576SOL    HW2 8628   3.888   0.168   3.973
 2577SOL     OW 8629   4.918   0.265   3.649
 2577SOL    HW1 8630   4.942   0.362   3.641
 2577SOL    HW2 8631   4.930   0.221   3.560
 2578SOL     OW 8632   4.817   2.502   5.185
 2578SOL    HW1 8633   4.903   2.452   5.184
 2578SOL    HW2 8634   4.827   2.586   5.133
 2579SOL     OW 8635   1.291   1.393   5.225
 2579SOL    HW1 8636   1.234   1.333   5.281
 2579SOL    HW2 8637   1.253   1.399   5.133
 2580SOL     OW 8638   2.002   2.335   6.048
 2580SOL    HW1 8639   1.934   2.282   6.098
 2580SOL    HW2 8640   2.064   2.273   5.999
 2581SOL     OW 8641   5.908   4.628   1.773
 2581SOL    HW1 8642   5.809   4.638   1.765
 2581SOL    HW2 8643   5.939   4.674   1.856
 2582SOL     OW 8644   2.279   4.888   3.072
 2582SOL    HW1 8645   2.191   4.844   3.088
 2582SOL    HW2 8646   2.276   4.981   3.109
 2583SOL     OW 8647   1.527   0.745   0.817
 2583SOL    HW1 8648   1.520   0.828   0.873
 2583SOL    HW2 8649   1.517   0.770   0.720
 2584SOL     OW 8650   4.329   5.932   0.416
 2584SOL    HW1 8651   4.308   6.025   0.448
 2584SOL    HW2 8652   4.276   5.913   0.334
 2585SOL     OW 8653   2.943   0.610   0.826
 2585SOL    HW1 8654   3.026   0.613   0.881
 2585SOL    HW2 8655   2.964   0.634   0.731
 2586SOL     OW 8656   5.304   1.675   4.200
 2586SOL    HW1 8657   5.225   1.718   4.246
 2586SOL    HW2 8658   5.282   1.580   4.180
 2587SOL     OW 8659   6.819   0.446   4.709
 2587SOL    HW1 8660   6.776   0.405   4.629
 2587SOL    HW2 8661   6.780   0.406   4.792
 2588SOL     OW 8662   4.676   0.341   0.421
 2588SOL    HW1 8663   4.744   0.316   0.353
 2588SOL    HW2 8664   4.594   0.284   0.408
 2589SOL     OW 8665   0.614   6.636   5.637
 2589SOL    HW1 8666   0.635   6.559   5.698
 2589SOL    HW2 8667   0.698   6.686   5.616
 2590SOL     OW 8668   3.816   6.749   2.910
 2590SOL    HW1 8669   3.773   6.826   2.956
 2590SOL    HW2 8670   3.913   6.768   2.896
 2591SOL     OW 8671   4.946   6.003   2.754
 2591SOL    HW1 8672   5.016   5.936   2.731
 2591SOL    HW2 8673   4.936   6.007   2.854
 2592SOL     OW 8674   2.677   6.454   1.746
 2592SOL    HW1 8675   2.712   6.447   1.652
 2592SOL    HW2 8676   2.626   6.539   1.756
 2593SOL     OW 8677   3.886   6.502   2.203
 2593SOL    HW1 8678   3.973   6.542   2.232
 2593SOL    HW2 8679   3.816   6.573   2.200
 2594SOL     OW 8680   0.187   6.028   5.752
 2594SOL    HW1 8681   0.244   5.972   5.691
 2594SOL    HW2 8682   0.141   5.969   5.818
 2595SOL     OW 8683   6.941   2.162   5.878
 2595SOL    HW1 8684   6.970   2.188   5.970
 2595SOL    HW2 8685   6.989   2.079   5.850
 2596SOL     OW 8686   3.859   2.119   2.131
 2596SOL    HW1 8687   3.778   2.153   2.082
 2596SOL    HW2 8688   3.928   2.090   2.064
 2597SOL     OW 8689   1.931   3.611   0.637
 2597SOL    HW1 8690   1.917   3.659   0.723
 2597SOL    HW2 8691   1.903   3.670   0.560
 2598SOL     OW 8692   5.671   2.210   4.414
 2598SOL    HW1 8693   5.731   2.290   4.412
 2598SOL    HW2 8694   5.635   2.193   4.322
 2599SOL     OW 8695   3.848   5.612   7.017
 2599SOL    HW1 8696   3.847   5.688   0.054
 2599SOL    HW2 8697   3.756   5.596   6.981
 2600SOL     OW 8698   4.891   3.756   4.394
 2600SOL    HW1 8699   4.877   3.738   4.491
 2600SOL    HW2 8700   4.939   3.680   4.352
 2601SOL     OW 8701   3.882   1.908   6.624
 2601SOL    HW1 8702   3.894   2.004   6.649
 2601SOL    HW2 8703   3.894   1.897   6.525
 2602SOL     OW 8704   6.830   4.787   3.761
 2602SOL    HW1 8705   6.894   4.727   3.809
 2602SOL    HW2 8706   6.740   4.743   3.758
 2603SOL     OW 8707   3.039   2.122   1.652
 2603SOL    HW1 8708   2.994   2.092   1.568
 2603SOL    HW2 8709   3.049   2.221   1.651
 2604SOL     OW 8710   4.903   1.270   1.862
 2604SOL    HW1 8711   4.944   1.258   1.953
 2604SOL    HW2 8712   4.976   1.282   1.794
 2605SOL     OW 8713   4.123   5.207   3.506
 2605SOL    HW1 8714   4.106   5.293   3.460
 2605SOL    HW2 8715   4.208   5.214   3.559
 2606SOL     OW 8716   6.417   4.577   0.331
 2606SOL    HW1 8717   6.483   4.649   0.350
 2606SOL    HW2 8718   6.336   4.590   0.389
 2607SOL     OW 8719   0.322   2.035   5.984
 2607SOL    HW1 8720   0.230   2.057   5.951
 2607SOL    HW2 8721   0.322   1.945   6.028
 2608SOL     OW 8722   4.289   6.033   2.723
 2608SOL    HW1 8723   4.290   6.008   2.820
 2608SOL    HW2 8724   4.292   6.132   2.713
 2609SOL     OW 8725   0.709   2.458   1.249
 2609SOL    HW1 8726   0.748   2.470   1.157
 2609SOL    HW2 8727   0.693   2.548   1.289
 2610SOL     OW 8728   6.746   5.349   3.980
 2610SOL    HW1 8729   6.816   5.343   3.909
 2610SOL    HW2 8730   6.736   5.259   4.024
 2611SOL     OW 8731   5.785   6.636   1.158
 2611SOL    HW1 8732   5.784   6.692   1.076
 2611SOL    HW2 8733   5.819   6.544   1.136
 2612SOL     OW 8734   6.611   6.787   5.237
 2612SOL    HW1 8735   6.527   6.792   5.292
 2612SOL    HW2 8736   6.685   6.751   5.294
 2613SOL     OW 8737   2.790   6.213   1.865
 2613SOL    HW1 8738   2.752   6.288   1.811
 2613SOL    HW2 8739   2.781   6.127   1.814
 2614SOL     OW 8740   6.440   6.506   5.798
 2614SOL    HW1 8741   6.467   6.602   5.799
 2614SOL    HW2 8742   6.507   6.452   5.850
 2615SOL     OW 8743   5.849   4.448   3.169
 2615SOL    HW1 8744   5.777   4.379   3.178
 2615SOL    HW2 8745   5.893   4.462   3.258
 2616SOL     OW 8746   3.833   3.719   4.069
 2616SOL    HW1 8747   3.931   3.734   4.075
 2616SOL    HW2 8748   3.784   3.797   4.109
 2617SOL     OW 8749   3.051   6.622   1.542
 2617SOL    HW1 8750   3.008   6.710   1.563
 2617SOL    HW2 8751   3.131   6.638   1.483
 2618SOL     OW 8752   0.302   6.762   3.785
 2618SOL    HW1 8753   0.281   6.697   3.713
 2618SOL    HW2 8754   0.232   6.756   3.857
 2619SOL     OW 8755   3.384   1.556   3.435
 2619SOL    HW1 8756   3.477   1.560   3.471
 2619SOL    HW2 8757   3.363   1.462   3.408
 2620SOL     OW 8758   0.798   5.947   3.460
 2620SOL    HW1 8759   0.856   6.007   3.405
 2620SOL    HW2 8760   0.854   5.898   3.526
 2621SOL     OW 8761   1.774   6.082   3.169
 2621SOL    HW1 8762   1.780   6.053   3.073
 2621SOL    HW2 8763   1.811   6.174   3.179
 2622SOL     OW 8764   2.546   2.158   6.019
 2622SOL    HW1 8765   2.485   2.237   6.033
 2622SOL    HW2 8766   2.607   2.150   6.097
 2623SOL     OW 8767   3.386   1.812   4.895
 2623SOL    HW1 8768   3.368   1.910   4.892
 2623SOL    HW2 8769   3.330   1.765   4.827
 2624SOL     OW 8770   6.458   3.452   4.236
 2624SOL    HW1 8771   6.517   3.420   4.311
 2624SOL    HW2 8772   6.362   3.442   4.263
 2625SOL     OW 8773   2.498   2.979   5.479
 2625SOL    HW1 8774   2.501   2.993   5.380
 2625SOL    HW2 8775   2.515   3.066   5.526
 2626SOL     OW 8776   0.661   6.849   4.391
 2626SOL    HW1 8777   0.599   6.927   4.398
 2626SOL    HW2 8778   0.625   6.773   4.444
 2627SOL     OW 8779   0.370   0.922   4.368
 2627SOL    HW1 8780   0.273   0.918   4.392
 2627SOL    HW2 8781   0.389   1.010   4.325
 2628SOL     OW 8782   3.179   5.581   6.594
 2628SOL    HW1 8783   3.199   5.679   6.602
 2628SOL    HW2 8784   3.251   5.537   6.541
 2629SOL     OW 8785   3.220   4.122   2.656
 2629SOL    HW1 8786   3.141   4.078   2.699
 2629SOL    HW2 8787   3.286   4.148   2.726
 2630SOL     OW 8788   3.550   1.629   3.128
 2630SOL    HW1 8789   3.545   1.703   3.061
 2630SOL    HW2 8790   3.458   1.604   3.157
 2631SOL     OW 8791   4.645   0.063   4.434
 2631SOL    HW1 8792   4.571   7.024   4.417
 2631SOL    HW2 8793   4.644   0.133   4.363
 2632SOL     OW 8794   2.134   2.107   5.917
 2632SOL    HW1 8795   2.107   2.152   5.833
 2632SOL    HW2 8796   2.222   2.062   5.905
 2633SOL     OW 8797   5.997   2.199   6.217
 2633SOL    HW1 8798   6.011   2.102   6.199
 2633SOL    HW2 8799   6.078   2.237   6.261
 2634SOL     OW 8800   2.202   3.950   3.032
 2634SOL    HW1 8801   2.262   3.897   2.973
 2634SOL    HW2 8802   2.131   3.891   3.070
 2635SOL     OW 8803   6.096   5.862   4.506
 2635SOL    HW1 8804   6.063   5.772   4.475
 2635SOL    HW2 8805   6.067   5.932   4.442
 2636SOL     OW 8806   4.719   0.807   6.206
 2636SOL    HW1 8807   4.760   0.859   6.132
 2636SOL    HW2 8808   4.630   0.847   6.230
 2637SOL     OW 8809   6.226   1.171   3.735
 2637SOL    HW1 8810   6.167   1.091   3.718
 2637SOL    HW2 8811   6.211   1.205   3.827
 2638SOL     OW 8812   0.223   6.793   2.718
 2638SOL    HW1 8813   0.235   6.865   2.649
 2638SOL    HW2 8814   0.305   6.790   2.776
 2639SOL     OW 8815   0.452   0.155   2.202
 2639SOL    HW1 8816   0.476   0.084   2.136
 2639SOL    HW2 8817   0.456   0.245   2.158
 2640SOL     OW 8818   6.787   5.874   5.415
 2640SOL    HW1 8819   6.797   5.829   5.327
 2640SOL    HW2 8820   6.744   5.963   5.402
 2641SOL     OW 8821   5.495   2.855   1.840
 2641SOL    HW1 8822   5.455   2.935   1.796
 2641SOL    HW2 8823   5.449   2.838   1.927
 2642SOL     OW 8824   5.523   6.836   4.534
 2642SOL    HW1 8825   5.448   6.830   4.601
 2642SOL    HW2 8826   5.556   6.744   4.514
 2643SOL     OW 8827   1.413   5.021   3.259
 2643SOL    HW1 8828   1.350   5.043   3.184
 2643SOL    HW2 8829   1.372   5.051   3.345
 2644SOL     OW 8830   6.947   4.318   5.543
 2644SOL    HW1 8831   6.974   4.400   5.594
 2644SOL    HW2 8832   6.867   4.339   5.487
 2645SOL     OW 8833   4.365   6.621   4.387
 2645SOL    HW1 8834   4.290   6.686   4.403
 2645SOL    HW2 8835   4.386   6.617   4.289
 2646SOL     OW 8836   5.631   6.712   6.374
 2646SOL    HW1 8837   5.657   6.779   6.443
 2646SOL    HW2 8838   5.545   6.668   6.401
 2647SOL     OW 8839   5.282   0.723   1.144
 2647SOL    HW1 8840   5.316   0.635   1.175
 2647SOL    HW2 8841   5.358   0.788   1.135
 2648SOL     OW 8842   6.930   0.663   4.147
 2648SOL    HW1 8843   6.920   0.685   4.050
 2648SOL    HW2 8844   6.843   0.676   4.194
 2649SOL     OW 8845   4.871   2.078   6.274
 2649SOL    HW1 8846   4.888   2.130   6.358
 2649SOL    HW2 8847   4.950   2.086   6.213
 2650SOL     OW 8848   0.617   4.141   3.736
 2650SOL    HW1 8849   0.570   4.053   3.746
 2650SOL    HW2 8850   0.709   4.125   3.702
 2651SOL     OW 8851   1.160   1.652   0.345
 2651SOL    HW1 8852   1.082   1.624   0.401
 2651SOL    HW2 8853   1.235   1.586   0.357
 2652SOL     OW 8854   3.248   3.860   3.920
 2652SOL    HW1 8855   3.296   3.785   3.875
 2652SOL    HW2 8856   3.154   3.831   3.940
 2653SOL     OW 8857   5.062   0.111   5.130
 2653SOL    HW1 8858   4.985   0.065   5.173
 2653SOL    HW2 8859   5.075   0.201   5.174
 2654SOL     OW 8860   4.562   3.499   0.812
 2654SOL    HW1 8861   4.604   3.573   0.865
 2654SOL    HW2 8862   4.583   3.511   0.715
 2655SOL     OW 8863   5.176   4.507   4.315
 2655SOL    HW1 8864   5.136   4.430   4.265
 2655SOL    HW2 8865   5.241   4.472   4.382
 2656SOL     OW 8866   4.489   4.898   4.651
 2656SOL    HW1 8867   4.394   4.895   4.619
 2656SOL    HW2 8868   4.493   4.950   4.736
 2657SOL     OW 8869   2.635   4.530   6.388
 2657SOL    HW1 8870   2.542   4.497   6.404
 2657SOL    HW2 8871   2.699   4.453   6.394
 2658SOL     OW 8872   5.195   3.604   0.510
 2658SOL    HW1 8873   5.201   3.560   0.420
 2658SOL    HW2 8874   5.285   3.604   0.553
 2659SOL     OW 8875   6.517   2.397   4.383
 2659SOL    HW1 8876   6.460   2.402   4.301
 2659SOL    HW2 8877   6.563   2.485   4.396
 2660SOL     OW 8878   0.545   1.475   1.434
 2660SOL    HW1 8879   0.555   1.465   1.335
 2660SOL    HW2 8880   0.451   1.454   1.461
 2661SOL     OW 8881   2.316   6.453   2.219
 2661SOL    HW1 8882   2.370   6.446   2.135
 2661SOL    HW2 8883   2.367   6.506   2.287
 2662SOL     OW 8884   4.499   0.050   5.304
 2662SOL    HW1 8885   4.499   0.018   5.399
 2662SOL    HW2 8886   4.522   0.148   5.302
 2663SOL     OW 8887   3.031   3.907   1.725
 2663SOL    HW1 8888   2.978   3.988   1.750
 2663SOL    HW2 8889   2.988   3.862   1.646
 2664SOL     OW 8890   4.009   3.850   4.370
 2664SOL    HW1 8891   3.976   3.916   4.303
 2664SOL    HW2 8892   3.932   3.818   4.426
 2665SOL     OW 8893   2.592   1.719   4.808
 2665SOL    HW1 8894   2.596   1.637   4.752
 2665SOL    HW2 8895   2.660   1.785   4.776
 2666SOL     OW 8896   4.205   3.852   1.794
 2666SOL    HW1 8897   4.232   3.939   1.836
 2666SOL    HW2 8898   4.124   3.867   1.738
 2667SOL     OW 8899   1.854   6.238   4.618
 2667SOL    HW1 8900   1.814   6.148   4.631
 2667SOL    HW2 8901   1.937   6.247   4.674
 2668SOL     OW 8902   6.926   2.900   3.385
 2668SOL    HW1 8903   6.888   2.838   3.454
 2668SOL    HW2 8904   6.980   2.848   3.319
 2669SOL     OW 8905   3.031   4.831   5.168
 2669SOL    HW1 8906   2.963   4.883   5.220
 2669SOL    HW2 8907   2.984   4.770   5.103
 2670SOL     OW 8908   5.835   1.743   6.466
 2670SOL    HW1 8909   5.761   1.711   6.407
 2670SOL    HW2 8910   5.833   1.693   6.552
 2671SOL     OW 8911   3.290   5.282   0.252
 2671SOL    HW1 8912   3.286   5.339   0.170
 2671SOL    HW2 8913   3.198   5.253   0.277
 2672SOL     OW 8914   0.219   5.450   6.925
 2672SOL    HW1 8915   0.230   5.532   6.980
 2672SOL    HW2 8916   0.128   5.450   6.882
 2673SOL     OW 8917   6.223   1.876   3.726
 2673SOL    HW1 8918   6.288   1.852   3.798
 2673SOL    HW2 8919   6.200   1.973   3.733
 2674SOL     OW 8920   1.996   4.003   4.695
 2674SOL    HW1 8921   1.949   3.940   4.634
 2674SOL    HW2 8922   2.067   3.954   4.745
 2675SOL     OW 8923   0.872   4.866   4.538
 2675SOL    HW1 8924   0.908   4.868   4.444
 2675SOL    HW2 8925   0.848   4.772   4.562
 2676SOL     OW 8926   4.382   0.954   2.928
 2676SOL    HW1 8927   4.323   1.002   2.863
 2676SOL    HW2 8928   4.428   1.021   2.986
 2677SOL     OW 8929   3.361   4.676   0.420
 2677SOL    HW1 8930   3.272   4.696   0.379
 2677SOL    HW2 8931   3.433   4.702   0.356
 2678SOL     OW 8932   0.103   3.911   1.357
 2678SOL    HW1 8933   0.058   4.000   1.351
 2678SOL    HW2 8934   0.037   3.839   1.336
 2679SOL     OW 8935   4.086   5.027   0.780
 2679SOL    HW1 8936   4.170   4.994   0.736
 2679SOL    HW2 8937   4.061   5.116   0.742
 2680SOL     OW 8938   1.638   1.674   0.969
 2680SOL    HW1 8939   1.601   1.646   0.880
 2680SOL    HW2 8940   1.695   1.755   0.957
 2681SOL     OW 8941   1.405   2.400   4.412
 2681SOL    HW1 8942   1.384   2.438   4.502
 2681SOL    HW2 8943   1.502   2.380   4.406
 2682SOL     OW 8944   5.401   3.765   2.423
 2682SOL    HW1 8945   5.312   3.804   2.399
 2682SOL    HW2 8946   5.396   3.665   2.417
 2683SOL     OW 8947   1.235   3.417   6.876
 2683SOL    HW1 8948   1.180   3.471   6.812
 2683SOL    HW2 8949   1.242   3.466   6.963
 2684SOL     OW 8950   4.277   5.387   2.943
 2684SOL    HW1 8951   4.251   5.331   3.022
 2684SOL    HW2 8952   4.351   5.343   2.893
 2685SOL     OW 8953   6.996   6.480   6.074
 2685SOL    HW1 8954   6.952   6.458   5.987
 2685SOL    HW2 8955   6.997   6.579   6.087
 2686SOL     OW 8956   1.496   1.708   5.667
 2686SOL    HW1 8957   1.512   1.661   5.580
 2686SOL    HW2 8958   1.526   1.803   5.660
 2687SOL     OW 8959   4.067   4.836   3.084
 2687SOL    HW1 8960   4.033   4.819   2.991
 2687SOL    HW2 8961   3.990   4.831   3.148
 2688SOL     OW 8962   4.767   5.575   6.678
 2688SOL    HW1 8963   4.820   5.642   6.626
 2688SOL    HW2 8964   4.670   5.595   6.667
 2689SOL     OW 8965   2.357   1.913   3.020
 2689SOL    HW1 8966   2.374   1.990   2.957
 2689SOL    HW2 8967   2.380   1.827   2.974
 2690SOL     OW 8968   3.267   4.095   4.038
 2690SOL    HW1 8969   3.231   4.087   4.131
 2690SOL    HW2 8970   3.284   4.004   4.000
 2691SOL     OW 8971   0.963   5.665   2.092
 2691SOL    HW1 8972   0.956   5.655   2.191
 2691SOL    HW2 8973   1.020   5.591   2.055
 2692SOL     OW 8974   4.671   4.990   3.972
 2692SOL    HW1 8975   4.718   5.004   4.059
 2692SOL    HW2 8976   4.672   4.892   3.949
 2693SOL     OW 8977   1.845   4.207   2.800
 2693SOL    HW1 8978   1.797   4.280   2.750
 2693SOL    HW2 8979   1.916   4.168   2.742
 2694SOL     OW 8980   4.096   0.718   2.568
 2694SOL    HW1 8981   4.041   0.774   2.630
 2694SOL    HW2 8982   4.119   0.632   2.613
 2695SOL     OW 8983   5.765   1.390   2.768
 2695SOL    HW1 8984   5.735   1.327   2.695
 2695SOL    HW2 8985   5.865   1.393   2.770
 2696SOL     OW 8986   3.433   3.238   5.377
 2696SOL    HW1 8987   3.463   3.289   5.297
 2696SOL    HW2 8988   3.484   3.268   5.457
 2697SOL     OW 8989   4.206   1.747   3.226
 2697SOL    HW1 8990   4.234   1.841   3.206
 2697SOL    HW2 8991   4.222   1.727   3.322
 2698SOL     OW 8992   1.829   5.395   0.795
 2698SOL    HW1 8993   1.752   5.340   0.764
 2698SOL    HW2 8994   1.864   5.357   0.881
 2699SOL     OW 8995   3.493   5.847   0.395
 2699SOL    HW1 8996   3.498   5.873   0.299
 2699SOL    HW2 8997   3.412   5.888   0.437
 2700SOL     OW 8998   1.999   3.771   1.370
 2700SOL    HW1 8999   1.917   3.714   1.365
 2700SOL    HW2 9000   1.990   3.848   1.306
 2701SOL     OW 9001   3.193   0.139   6.620
 2701SOL    HW1 9002   3.172   0.109   6.527
 2701SOL    HW2 9003   3.249   0.069   6.666
 2702SOL     OW 9004   0.599   2.557   3.329
 2702SOL    HW1 9005   0.557   2.507   3.254
 2702SOL    HW2 9006   0.567   2.520   3.416
 2703SOL     OW 9007   2.078   0.796   2.512
 2703SOL    HW1 9008   2.017   0.718   2.525
 2703SOL    HW2 9009   2.052   0.845   2.430
 2704SOL     OW 9010   0.615   5.267   1.075
 2704SOL    HW1 9011   0.630   5.339   1.007
 2704SOL    HW2 9012   0.702   5.222   1.095
 2705SOL     OW 9013   1.548   5.590   4.544
 2705SOL    HW1 9014   1.605   5.564   4.622
 2705SOL    HW2 9015   1.503   5.678   4.564
 2706SOL     OW 9016   0.440   0.666   1.077
 2706SOL    HW1 9017   0.506   0.591   1.080
 2706SOL    HW2 9018   0.462   0.727   1.001
 2707SOL     OW 9019   2.030   0.345   5.459
 2707SOL    HW1 9020   2.068   0.433   5.432
 2707SOL    HW2 9021   2.054   0.276   5.390
 2708SOL     OW 9022   1.660   2.004   1.375
 2708SOL    HW1 9023   1.647   1.905   1.380
 2708SOL    HW2 9024   1.726   2.026   1.304
 2709SOL     OW 9025   5.296   6.765   0.856
 2709SOL    HW1 9026   5.286   6.865   0.861
 2709SOL    HW2 9027   5.212   6.725   0.821
 2710SOL     OW 9028   0.160   2.695   2.833
 2710SOL    HW1 9029   0.090   2.749   2.787
 2710SOL    HW2 9030   0.217   2.755   2.888
 2711SOL     OW 9031   2.962   1.259   3.189
 2711SOL    HW1 9032   2.936   1.314   3.268
 2711SOL    HW2 9033   2.969   1.317   3.108
 2712SOL     OW 9034   3.109   5.675   1.404
 2712SOL    HW1 9035   3.012   5.696   1.415
 2712SOL    HW2 9036   3.143   5.632   1.488
 2713SOL     OW 9037   1.701   1.797   4.848
 2713SOL    HW1 9038   1.744   1.882   4.879
 2713SOL    HW2 9039   1.694   1.734   4.924
 2714SOL     OW 9040   4.773   1.999   6.676
 2714SOL    HW1 9041   4.808   2.092   6.666
 2714SOL    HW2 9042   4.675   2.003   6.695
 2715SOL     OW 9043   5.845   0.545   0.473
 2715SOL    HW1 9044   5.774   0.614   0.457
 2715SOL    HW2 9045   5.868   0.543   0.570
 2716SOL     OW 9046   5.565   5.361   2.253
 2716SOL    HW1 9047   5.484   5.334   2.200
 2716SOL    HW2 9048   5.565   5.312   2.341
 2717SOL     OW 9049   0.813   5.076   1.639
 2717SOL    HW1 9050   0.881   5.061   1.710
 2717SOL    HW2 9051   0.753   4.997   1.633
 2718SOL     OW 9052   2.166   3.858   4.875
 2718SOL    HW1 9053   2.164   3.764   4.910
 2718SOL    HW2 9054   2.224   3.914   4.934
 2719SOL     OW 9055   5.609   5.001   1.864
 2719SOL    HW1 9056   5.676   4.959   1.925
 2719SOL    HW2 9057   5.554   4.930   1.820
 2720SOL     OW 9058   2.216   6.093   3.464
 2720SOL    HW1 9059   2.136   6.067   3.518
 2720SOL    HW2 9060   2.258   6.174   3.505
 2721SOL     OW 9061   3.379   0.348   3.968
 2721SOL    HW1 9062   3.322   0.295   3.906
 2721SOL    HW2 9063   3.349   0.443   3.970
 2722SOL     OW 9064   6.284   5.375   2.538
 2722SOL    HW1 9065   6.381   5.361   2.514
 2722SOL    HW2 9066   6.269   5.347   2.632
 2723SOL     OW 9067   1.075   6.925   5.745
 2723SOL    HW1 9068   1.157   6.878   5.713
 2723SOL    HW2 9069   0.994   6.877   5.711
 2724SOL     OW 9070   2.902   6.361   6.070
 2724SOL    HW1 9071   2.850   6.311   6.001
 2724SOL    HW2 9072   2.929   6.451   6.033
 2725SOL     OW 9073   6.146   5.023   3.380
 2725SOL    HW1 9074   6.065   4.983   3.337
 2725SOL    HW2 9075   6.227   5.004   3.324
 2726SOL     OW 9076   6.841   4.430   0.968
 2726SOL    HW1 9077   6.793   4.380   0.896
 2726SOL    HW2 9078   6.918   4.376   1.000
 2727SOL     OW 9079   0.392   4.569   2.842
 2727SOL    HW1 9080   0.427   4.589   2.751
 2727SOL    HW2 9081   0.311   4.625   2.860
 2728SOL     OW 9082   3.748   0.166   5.125
 2728SOL    HW1 9083   3.741   0.133   5.030
 2728SOL    HW2 9084   3.794   0.097   5.180
 2729SOL     OW 9085   6.136   5.993   1.651
 2729SOL    HW1 9086   6.186   6.049   1.585
 2729SOL    HW2 9087   6.046   6.033   1.668
 2730SOL     OW 9088   1.634   5.711   1.587
 2730SOL    HW1 9089   1.555   5.682   1.641
 2730SOL    HW2 9090   1.693   5.769   1.643
 2731SOL     OW 9091   4.020   3.575   1.763
 2731SOL    HW1 9092   4.007   3.593   1.861
 2731SOL    HW2 9093   4.025   3.662   1.714
 2732SOL     OW 9094   5.893   3.086   1.848
 2732SOL    HW1 9095   5.862   3.176   1.820
 2732SOL    HW2 9096   5.817   3.022   1.846
 2733SOL     OW 9097   0.160   0.243   5.571
 2733SOL    HW1 9098   0.234   0.223   5.507
 2733SOL    HW2 9099   0.195   0.238   5.665
 2734SOL     OW 9100   2.094   5.163   2.131
 2734SOL    HW1 9101   2.123   5.094   2.065
 2734SOL    HW2 9102   2.156   5.163   2.210
 2735SOL     OW 9103   0.763   3.779   2.884
 2735SOL    HW1 9104   0.742   3.770   2.981
 2735SOL    HW2 9105   0.837   3.846   2.871
 2736SOL     OW 9106   5.306   0.251   4.678
 2736SOL    HW1 9107   5.225   0.229   4.624
 2736SOL    HW2 9108   5.327   0.175   4.739
 2737SOL     OW 9109   3.137   3.229   5.778
 2737SOL    HW1 9110   3.213   3.169   5.806
 2737SOL    HW2 9111   3.166   3.285   5.701
 2738SOL     OW 9112   5.268   5.275   4.264
 2738SOL    HW1 9113   5.270   5.212   4.341
 2738SOL    HW2 9114   5.227   5.362   4.292
 2739SOL     OW 9115   5.866   5.163   0.285
 2739SOL    HW1 9116   5.830   5.202   0.200
 2739SOL    HW2 9117   5.822   5.075   0.302
 2740SOL     OW 9118   6.079   3.269   2.492
 2740SOL    HW1 9119   6.086   3.208   2.413
 2740SOL    HW2 9120   6.147   3.242   2.560
 2741SOL     OW 9121   6.995   0.786   6.378
 2741SOL    HW1 9122   6.965   0.844   6.302
 2741SOL    HW2 9123   6.994   0.690   6.349
 2742SOL     OW 9124   1.878   5.369   0.009
 2742SOL    HW1 9125   1.924   5.343   6.952
 2742SOL    HW2 9126   1.818   5.294   0.038
 2743SOL     OW 9127   6.372   5.577   2.054
 2743SOL    HW1 9128   6.371   5.562   1.955
 2743SOL    HW2 9129   6.291   5.629   2.081
 2744SOL     OW 9130   4.127   2.146   6.870
 2744SOL    HW1 9131   4.178   2.231   6.885
 2744SOL    HW2 9132   4.053   2.163   6.806
 2745SOL     OW 9133   1.275   6.844   6.897
 2745SOL    HW1 9134   1.363   6.801   6.916
 2745SOL    HW2 9135   1.201   6.783   6.924
 2746SOL     OW 9136   2.412   1.963   4.450
 2746SOL    HW1 9137   2.360   1.951   4.534
 2746SOL    HW2 9138   2.485   1.896   4.446
 2747SOL     OW 9139   5.659   3.600   5.328
 2747SOL    HW1 9140   5.748   3.579   5.371
 2747SOL    HW2 9141   5.586   3.563   5.385
 2748SOL     OW 9142   3.803   1.427   1.019
 2748SOL    HW1 9143   3.891   1.391   0.990
 2748SOL    HW2 9144   3.799   1.525   1.000
 2749SOL     OW 9145   6.112   4.667   3.974
 2749SOL    HW1 9146   6.134   4.658   3.877
 2749SOL    HW2 9147   6.184   4.718   4.020
 2750SOL     OW 9148   0.053   5.307   1.882
 2750SOL    HW1 9149   0.141   5.273   1.917
 2750SOL    HW2 9150   7.024   5.337   1.959
 2751SOL     OW 9151   1.400   6.737   0.349
 2751SOL    HW1 9152   1.395   6.639   0.368
 2751SOL    HW2 9153   1.484   6.758   0.299
 2752SOL     OW 9154   5.264   5.205   5.211
 2752SOL    HW1 9155   5.312   5.249   5.287
 2752SOL    HW2 9156   5.176   5.170   5.243
 2753SOL     OW 9157   1.805   0.214   6.606
 2753SOL    HW1 9158   1.709   0.215   6.579
 2753SOL    HW2 9159   1.831   0.304   6.642
 2754SOL     OW 9160   6.702   0.709   4.308
 2754SOL    HW1 9161   6.738   0.698   4.400
 2754SOL    HW2 9162   6.637   0.785   4.306
 2755SOL     OW 9163   3.296   6.782   3.105
 2755SOL    HW1 9164   3.372   6.795   3.169
 2755SOL    HW2 9165   3.322   6.715   3.035
 2756SOL     OW 9166   6.369   3.858   4.900
 2756SOL    HW1 9167   6.345   3.777   4.846
 2756SOL    HW2 9168   6.412   3.926   4.840
 2757SOL     OW 9169   2.622   1.298   6.616
 2757SOL    HW1 9170   2.639   1.396   6.625
 2757SOL    HW2 9171   2.609   1.258   6.707
 2758SOL     OW 9172   5.219   6.160   3.648
 2758SOL    HW1 9173   5.210   6.156   3.549
 2758SOL    HW2 9174   5.145   6.109   3.691
 2759SOL     OW 9175   3.741   5.660   5.007
 2759SOL    HW1 9176   3.770   5.572   4.967
 2759SOL    HW2 9177   3.716   5.646   5.103
 2760SOL     OW 9178   6.766   5.140   2.780
 2760SOL    HW1 9179   6.740   5.237   2.780
 2760SOL    HW2 9180   6.713   5.091   2.849
 2761SOL     OW 9181   1.691   4.478   3.771
 2761SOL    HW1 9182   1.781   4.511   3.743
 2761SOL    HW2 9183   1.658   4.534   3.847
 2762SOL     OW 9184   1.623   1.866   6.889
 2762SOL    HW1 9185   1.527   1.891   6.879
 2762SOL    HW2 9186   1.630   1.778   6.936
 2763SOL     OW 9187   5.037   2.135   5.409
 2763SOL    HW1 9188   4.968   2.168   5.474
 2763SOL    HW2 9189   4.992   2.097   5.329
 2764SOL     OW 9190   0.502   6.023   2.782
 2764SOL    HW1 9191   0.553   6.075   2.714
 2764SOL    HW2 9192   0.553   6.022   2.869
 2765SOL     OW 9193   6.843   0.101   0.478
 2765SOL    HW1 9194   6.877   0.194   0.495
 2765SOL    HW2 9195   6.777   0.102   0.402
 2766SOL     OW 9196   3.917   1.379   6.559
 2766SOL    HW1 9197   3.957   1.309   6.617
 2766SOL    HW2 9198   3.818   1.366   6.552
 2767SOL     OW 9199   5.984   5.893   6.342
 2767SOL    HW1 9200   5.982   5.993   6.340
 2767SOL    HW2 9201   5.956   5.861   6.433
 2768SOL     OW 9202   4.583   1.277   7.024
 2768SOL    HW1 9203   4.552   1.350   6.963
 2768SOL    HW2 9204   4.678   1.294   0.023
 2769SOL     OW 9205   2.346   4.809   6.593
 2769SOL    HW1 9206   2.350   4.902   6.555
 2769SOL    HW2 9207   2.289   4.751   6.535
 2770SOL     OW 9208   4.102   5.976   6.068
 2770SOL    HW1 9209   4.134   5.973   6.163
 2770SOL    HW2 9210   4.005   5.955   6.065
 2771SOL     OW 9211   6.140   0.593   4.597
 2771SOL    HW1 9212   6.063   0.655   4.588
 2771SOL    HW2 9213   6.199   0.600   4.516
 2772SOL     OW 9214   3.093   1.473   1.791
 2772SOL    HW1 9215   3.065   1.538   1.720
 2772SOL    HW2 9216   3.116   1.524   1.875
 2773SOL     OW 9217   6.698   3.033   4.000
 2773SOL    HW1 9218   6.655   3.035   3.910
 2773SOL    HW2 9219   6.661   3.107   4.056
 2774SOL     OW 9220   5.148   3.085   2.480
 2774SOL    HW1 9221   5.230   3.055   2.529
 2774SOL    HW2 9222   5.138   3.032   2.396
 2775SOL     OW 9223   6.255   3.770   3.912
 2775SOL    HW1 9224   6.323   3.745   3.843
 2775SOL    HW2 9225   6.299   3.775   4.002
 2776SOL     OW 9226   5.625   4.407   5.371
 2776SOL    HW1 9227   5.615   4.328   5.310
 2776SOL    HW2 9228   5.574   4.391   5.455
 2777SOL     OW 9229   2.172   1.638   0.136
 2777SOL    HW1 9230   2.129   1.656   0.047
 2777SOL    HW2 9231   2.264   1.602   0.122
 2778SOL     OW 9232   1.763   6.013   6.310
 2778SOL    HW1 9233   1.804   5.949   6.374
 2778SOL    HW2 9234   1.679   5.974   6.273
 2779SOL     OW 9235   5.184   6.562   2.015
 2779SOL    HW1 9236   5.097   6.517   2.034
 2779SOL    HW2 9237   5.168   6.641   1.956
 2780SOL     OW 9238   6.600   0.006   5.727
 2780SOL    HW1 9239   6.631   6.999   5.638
 2780SOL    HW2 9240   6.650   0.090   5.749
 2781SOL     OW 9241   5.633   0.113   3.473
 2781SOL    HW1 9242   5.685   0.193   3.444
 2781SOL    HW2 9243   5.590   0.071   3.393
 2782SOL     OW 9244   4.637   1.619   5.410
 2782SOL    HW1 9245   4.558   1.679   5.409
 2782SOL    HW2 9246   4.711   1.659   5.357
 2783SOL     OW 9247   6.718   3.810   1.464
 2783SOL    HW1 9248   6.750   3.862   1.384
 2783SOL    HW2 9249   6.618   3.802   1.460
 2784SOL     OW 9250   3.373   1.530   1.960
 2784SOL    HW1 9251   3.342   1.441   1.991
 2784SOL    HW2 9252   3.358   1.598   2.031
 2785SOL     OW 9253   5.355   2.344   0.871
 2785SOL    HW1 9254   5.344   2.354   0.970
 2785SOL    HW2 9255   5.294   2.407   0.824
 2786SOL     OW 9256   6.824   6.292   1.386
 2786SOL    HW1 9257   6.787   6.252   1.470
 2786SOL    HW2 9258   6.852   6.387   1.404
 2787SOL     OW 9259   6.680   5.670   5.564
 2787SOL    HW1 9260   6.729   5.742   5.516
 2787SOL    HW2 9261   6.585   5.667   5.531
 2788SOL     OW 9262   2.963   6.254   6.338
 2788SOL    HW1 9263   2.955   6.155   6.326
 2788SOL    HW2 9264   2.904   6.301   6.272
 2789SOL     OW 9265   2.192   1.804   3.614
 2789SOL    HW1 9266   2.231   1.872   3.552
 2789SOL    HW2 9267   2.266   1.751   3.656
 2790SOL     OW 9268   2.907   5.359   1.028
 2790SOL    HW1 9269   2.940   5.302   1.103
 2790SOL    HW2 9270   2.942   5.452   1.039
 2791SOL     OW 9271   0.204   4.335   2.497
 2791SOL    HW1 9272   0.172   4.424   2.464
 2791SOL    HW2 9273   0.140   4.264   2.470
 2792SOL     OW 9274   2.785   1.308   4.449
 2792SOL    HW1 9275   2.827   1.229   4.404
 2792SOL    HW2 9276   2.856   1.370   4.481
 2793SOL     OW 9277   5.392   3.856   2.002
 2793SOL    HW1 9278   5.409   3.762   2.031
 2793SOL    HW2 9279   5.478   3.900   1.979
 2794SOL     OW 9280   6.494   2.006   6.315
 2794SOL    HW1 9281   6.492   2.104   6.295
 2794SOL    HW2 9282   6.421   1.984   6.379
 2795SOL     OW 9283   0.270   4.664   1.378
 2795SOL    HW1 9284   0.307   4.689   1.289
 2795SOL    HW2 9285   0.214   4.739   1.414
 2796SOL     OW 9286   0.651   5.693   4.115
 2796SOL    HW1 9287   0.586   5.730   4.049
 2796SOL    HW2 9288   0.625   5.723   4.207
 2797SOL     OW 9289   5.728   5.604   5.736
 2797SOL    HW1 9290   5.801   5.540   5.762
 2797SOL    HW2 9291   5.662   5.609   5.811
 2798SOL     OW 9292   6.150   6.129   2.344
 2798SOL    HW1 9293   6.214   6.180   2.403
 2798SOL    HW2 9294   6.057   6.161   2.360
 2799SOL     OW 9295   5.058   6.305   5.789
 2799SOL    HW1 9296   4.980   6.362   5.767
 2799SOL    HW2 9297   5.129   6.360   5.832
 2800SOL     OW 9298   6.015   0.587   6.351
 2800SOL    HW1 9299   6.002   0.531   6.269
 2800SOL    HW2 9300   5.927   0.603   6.395
 2801SOL     OW 9301   1.556   5.856   6.268
 2801SOL    HW1 9302   1.604   5.786   6.215
 2801SOL    HW2 9303   1.516   5.813   6.349
 2802SOL     OW 9304   6.695   6.495   5.605
 2802SOL    HW1 9305   6.779   6.477   5.656
 2802SOL    HW2 9306   6.631   6.419   5.619
 2803SOL     OW 9307   3.615   4.566   6.068
 2803SOL    HW1 9308   3.647   4.474   6.090
 2803SOL    HW2 9309   3.564   4.564   5.982
 2804SOL     OW 9310   0.335   3.894   4.675
 2804SOL    HW1 9311   0.326   3.929   4.582
 2804SOL    HW2 9312   0.309   3.964   4.741
 2805SOL     OW 9313   6.179   3.982   2.653
 2805SOL    HW1 9314   6.195   3.885   2.639
 2805SOL    HW2 9315   6.081   4.002   2.644
 2806SOL     OW 9316   1.615   4.724   6.482
 2806SOL    HW1 9317   1.693   4.731   6.543
 2806SOL    HW2 9318   1.626   4.644   6.422
 2807SOL     OW 9319   4.108   0.775   3.116
 2807SOL    HW1 9320   4.045   0.839   3.160
 2807SOL    HW2 9321   4.198   0.780   3.160
 2808SOL     OW 9322   6.141   6.129   1.028
 2808SOL    HW1 9323   6.098   6.187   0.959
 2808SOL    HW2 9324   6.240   6.128   1.013
 2809SOL     OW 9325   5.790   2.374   1.445
 2809SOL    HW1 9326   5.812   2.464   1.482
 2809SOL    HW2 9327   5.847   2.356   1.364
 2810SOL     OW 9328   2.057   5.607   2.879
 2810SOL    HW1 9329   2.109   5.615   2.964
 2810SOL    HW2 9330   2.056   5.696   2.833
 2811SOL     OW 9331   0.751   1.583   2.565
 2811SOL    HW1 9332   0.827   1.648   2.554
 2811SOL    HW2 9333   0.694   1.613   2.642
 2812SOL     OW 9334   6.358   3.600   0.659
 2812SOL    HW1 9335   6.382   3.503   0.671
 2812SOL    HW2 9336   6.282   3.622   0.720
 2813SOL     OW 9337   0.712   1.465   0.333
 2813SOL    HW1 9338   0.751   1.557   0.331
 2813SOL    HW2 9339   0.665   1.448   0.247
 2814SOL     OW 9340   2.895   4.321   5.586
 2814SOL    HW1 9341   2.807   4.300   5.544
 2814SOL    HW2 9342   2.884   4.392   5.655
 2815SOL     OW 9343   6.986   5.276   6.149
 2815SOL    HW1 9344   0.012   5.196   6.178
 2815SOL    HW2 9345   7.022   5.310   6.063
 2816SOL     OW 9346   6.767   5.180   4.464
 2816SOL    HW1 9347   6.851   5.194   4.412
 2816SOL    HW2 9348   6.763   5.246   4.539
 2817SOL     OW 9349   3.743   1.594   2.525
 2817SOL    HW1 9350   3.695   1.592   2.613
 2817SOL    HW2 9351   3.693   1.539   2.458
 2818SOL     OW 9352   6.801   1.071   2.066
 2818SOL    HW1 9353   6.723   1.083   2.127
 2818SOL    HW2 9354   6.816   0.973   2.050
 2819SOL     OW 9355   1.549   7.021   0.992
 2819SOL    HW1 9356   1.589   6.933   1.018
 2819SOL    HW2 9357   1.584   0.066   1.052
 2820SOL     OW 9358   0.738   2.294   2.188
 2820SOL    HW1 9359   0.805   2.236   2.235
 2820SOL    HW2 9360   0.662   2.313   2.250
 2821SOL     OW 9361   2.805   5.236   6.110
 2821SOL    HW1 9362   2.801   5.256   6.208
 2821SOL    HW2 9363   2.888   5.277   6.071
 2822SOL     OW 9364   4.643   2.624   6.994
 2822SOL    HW1 9365   4.681   2.703   6.945
 2822SOL    HW2 9366   4.684   2.619   0.058
 2823SOL     OW 9367   5.971   0.683   6.907
 2823SOL    HW1 9368   5.912   0.740   6.964
 2823SOL    HW2 9369   5.919   0.647   6.830
 2824SOL     OW 9370   1.723   2.924   5.496
 2824SOL    HW1 9371   1.697   2.882   5.409
 2824SOL    HW2 9372   1.720   3.024   5.487
 2825SOL     OW 9373   5.737   0.656   6.456
 2825SOL    HW1 9374   5.733   0.711   6.540
 2825SOL    HW2 9375   5.722   0.560   6.479
 2826SOL     OW 9376   2.370   3.223   6.622
 2826SOL    HW1 9377   2.304   3.193   6.690
 2826SOL    HW2 9378   2.427   3.145   6.594
 2827SOL     OW 9379   0.418   0.789   6.688
 2827SOL    HW1 9380   0.500   0.776   6.743
 2827SOL    HW2 9381   0.395   0.703   6.641
 2828SOL     OW 9382   1.518   3.560   1.254
 2828SOL    HW1 9383   1.436   3.533   1.203
 2828SOL    HW2 9384   1.501   3.548   1.352
 2829SOL     OW 9385   3.103   3.094   3.399
 2829SOL    HW1 9386   3.040   3.096   3.321
 2829SOL    HW2 9387   3.065   3.035   3.470
 2830SOL     OW 9388   3.301   4.141   5.534
 2830SOL    HW1 9389   3.353   4.220   5.499
 2830SOL    HW2 9390   3.263   4.090   5.457
 2831SOL     OW 9391   0.519   2.645   2.973
 2831SOL    HW1 9392   0.578   2.722   2.997
 2831SOL    HW2 9393   0.424   2.675   2.973
 2832SOL     OW 9394   0.704   3.531   1.452
 2832SOL    HW1 9395   0.746   3.579   1.374
 2832SOL    HW2 9396   0.669   3.598   1.517
 2833SOL     OW 9397   2.741   1.412   1.720
 2833SOL    HW1 9398   2.782   1.501   1.741
 2833SOL    HW2 9399   2.672   1.424   1.648
 2834SOL     OW 9400   5.127   6.487   4.679
 2834SOL    HW1 9401   5.118   6.587   4.684
 2834SOL    HW2 9402   5.053   6.445   4.731
 2835SOL     OW 9403   0.972   6.233   0.597
 2835SOL    HW1 9404   0.984   6.309   0.533
 2835SOL    HW2 9405   0.901   6.255   0.663
 2836SOL     OW 9406   2.280   6.285   2.434
 2836SOL    HW1 9407   2.263   6.188   2.417
 2836SOL    HW2 9408   2.282   6.334   2.347
 2837SOL     OW 9409   5.474   4.564   2.559
 2837SOL    HW1 9410   5.543   4.503   2.521
 2837SOL    HW2 9411   5.395   4.568   2.498
 2838SOL     OW 9412   4.898   3.954   0.351
 2838SOL    HW1 9413   4.961   3.899   0.406
 2838SOL    HW2 9414   4.950   4.013   0.290
 2839SOL     OW 9415   0.453   2.538   2.419
 2839SOL    HW1 9416   0.474   2.621   2.367
 2839SOL    HW2 9417   0.358   2.512   2.404
 2840SOL     OW 9418   1.250   5.579   2.799
 2840SOL    HW1 9419   1.329   5.611   2.852
 2840SOL    HW2 9420   1.181   5.544   2.861
 2841SOL     OW 9421   6.829   2.379   0.052
 2841SOL    HW1 9422   6.761   2.407   0.119
 2841SOL    HW2 9423   6.837   2.279   0.051
 2842SOL     OW 9424   1.578   6.124   4.778
 2842SOL    HW1 9425   1.497   6.155   4.829
 2842SOL    HW2 9426   1.562   6.139   4.681
 2843SOL     OW 9427   2.626   1.867   2.717
 2843SOL    HW1 9428   2.620   1.959   2.755
 2843SOL    HW2 9429   2.535   1.838   2.688
 2844SOL     OW 9430   5.338   4.658   1.473
 2844SOL    HW1 9431   5.430   4.623   1.488
 2844SOL    HW2 9432   5.334   4.755   1.498
 2845SOL     OW 9433   5.323   3.050   2.779
 2845SOL    HW1 9434   5.352   2.965   2.734
 2845SOL    HW2 9435   5.250   3.030   2.845
 2846SOL     OW 9436   3.102   1.287   0.385
 2846SOL    HW1 9437   3.161   1.242   0.319
 2846SOL    HW2 9438   3.157   1.340   0.449
 2847SOL     OW 9439   4.800   4.069   2.391
 2847SOL    HW1 9440   4.758   4.156   2.364
 2847SOL    HW2 9441   4.837   4.023   2.311
 2848SOL     OW 9442   1.777   2.381   5.251
 2848SOL    HW1 9443   1.684   2.372   5.288
 2848SOL    HW2 9444   1.804   2.477   5.254
 2849SOL     OW 9445   4.055   1.156   1.359
 2849SOL    HW1 9446   4.058   1.102   1.275
 2849SOL    HW2 9447   4.069   1.252   1.337
 2850SOL     OW 9448   2.255   6.793   3.512
 2850SOL    HW1 9449   2.329   6.859   3.503
 2850SOL    HW2 9450   2.169   6.834   3.484
 2851SOL     OW 9451   4.038   3.546   6.902
 2851SOL    HW1 9452   4.105   3.535   6.828
 2851SOL    HW2 9453   3.951   3.578   6.864
 2852SOL     OW 9454   6.339   4.553   6.934
 2852SOL    HW1 9455   6.407   4.496   6.887
 2852SOL    HW2 9456   6.277   4.493   6.985
 2853SOL     OW 9457   0.801   3.438   0.626
 2853SOL    HW1 9458   0.836   3.345   0.609
 2853SOL    HW2 9459   0.704   3.432   0.650
 2854SOL     OW 9460   3.301   0.678   6.268
 2854SOL    HW1 9461   3.386   0.731   6.268
 2854SOL    HW2 9462   3.231   0.728   6.217
 2855SOL     OW 9463   1.103   2.975   4.523
 2855SOL    HW1 9464   1.126   3.046   4.590
 2855SOL    HW2 9465   1.006   2.982   4.499
 2856SOL     OW 9466   1.481   2.643   3.370
 2856SOL    HW1 9467   1.406   2.597   3.418
 2856SOL    HW2 9468   1.448   2.728   3.330
 2857SOL     OW 9469   0.334   3.009   0.901
 2857SOL    HW1 9470   0.423   3.003   0.946
 2857SOL    HW2 9471   0.263   2.971   0.961
 2858SOL     OW 9472   5.043   6.364   2.427
 2858SOL    HW1 9473   5.106   6.308   2.482
 2858SOL    HW2 9474   5.066   6.354   2.330
 2859SOL     OW 9475   5.277   6.338   0.739
 2859SOL    HW1 9476   5.319   6.359   0.827
 2859SOL    HW2 9477   5.190   6.291   0.753
 2860SOL     OW 9478   1.739   6.493   1.780
 2860SOL    HW1 9479   1.720   6.547   1.862
 2860SOL    HW2 9480   1.787   6.409   1.805
 2861SOL     OW 9481   2.872   5.711   5.388
 2861SOL    HW1 9482   2.840   5.666   5.472
 2861SOL    HW2 9483   2.963   5.676   5.365
 2862SOL     OW 9484   4.675   2.625   2.316
 2862SOL    HW1 9485   4.727   2.694   2.266
 2862SOL    HW2 9486   4.656   2.657   2.409
 2863SOL     OW 9487   5.333   1.481   7.021
 2863SOL    HW1 9488   5.296   1.444   6.936
 2863SOL    HW2 9489   5.259   1.511   0.053
 2864SOL     OW 9490   4.831   3.084   1.072
 2864SOL    HW1 9491   4.909   3.094   1.134
 2864SOL    HW2 9492   4.758   3.147   1.099
 2865SOL     OW 9493   4.213   0.100   4.206
 2865SOL    HW1 9494   4.277   0.135   4.138
 2865SOL    HW2 9495   4.128   0.072   4.161
 2866SOL     OW 9496   5.751   4.083   0.281
 2866SOL    HW1 9497   5.705   4.146   0.343
 2866SOL    HW2 9498   5.694   4.069   0.200
 2867SOL     OW 9499   6.272   6.267   2.546
 2867SOL    HW1 9500   6.371   6.270   2.528
 2867SOL    HW2 9501   6.243   6.355   2.584
 2868SOL     OW 9502   0.857   1.389   5.297
 2868SOL    HW1 9503   0.779   1.451   5.303
 2868SOL    HW2 9504   0.856   1.342   5.209
 2869SOL     OW 9505   6.102   0.606   3.697
 2869SOL    HW1 9506   6.186   0.651   3.728
 2869SOL    HW2 9507   6.125   0.534   3.632
 2870SOL     OW 9508   0.571   1.606   6.767
 2870SOL    HW1 9509   0.553   1.547   6.688
 2870SOL    HW2 9510   0.605   1.695   6.736
 2871SOL     OW 9511   6.292   0.382   6.862
 2871SOL    HW1 9512   6.289   0.459   6.925
 2871SOL    HW2 9513   6.274   0.297   6.911
 2872SOL     OW 9514   2.862   1.602   0.851
 2872SOL    HW1 9515   2.896   1.573   0.941
 2872SOL    HW2 9516   2.767   1.572   0.841
 2873SOL     OW 9517   6.662   6.192   1.570
 2873SOL    HW1 9518   6.598   6.186   1.647
 2873SOL    HW2 9519   6.637   6.127   1.499
 2874SOL     OW 9520   4.481   0.032   2.856
 2874SOL    HW1 9521   4.509   6.982   2.800
 2874SOL    HW2 9522   4.561   0.076   2.895
 2875SOL     OW 9523   3.663   0.061   2.793
 2875SOL    HW1 9524   3.698   6.997   2.813
 2875SOL    HW2 9525   3.740   0.126   2.789
 2876SOL     OW 9526   1.484   6.400   2.218
 2876SOL    HW1 9527   1.389   6.431   2.214
 2876SOL    HW2 9528   1.497   6.322   2.156
 2877SOL     OW 9529   2.226   0.735   6.817
 2877SOL    HW1 9530   2.311   0.743   6.766
 2877SOL    HW2 9531   2.223   0.647   6.864
 2878SOL     OW 9532   3.059   3.883   4.848
 2878SOL    HW1 9533   3.012   3.928   4.923
 2878SOL    HW2 9534   3.054   3.784   4.860
 2879SOL     OW 9535   4.574   5.473   5.717
 2879SOL    HW1 9536   4.533   5.539   5.654
 2879SOL    HW2 9537   4.566   5.506   5.811
 2880SOL     OW 9538   0.536   2.088   3.734
 2880SOL    HW1 9539   0.456   2.142   3.761
 2880SOL    HW2 9540   0.506   2.001   3.694
 2881SOL     OW 9541   3.513   5.924   0.131
 2881SOL    HW1 9542   3.442   5.860   0.099
 2881SOL    HW2 9543   3.600   5.899   0.088
 2882SOL     OW 9544   6.044   5.988   1.248
 2882SOL    HW1 9545   6.092   6.031   1.172
 2882SOL    HW2 9546   6.060   6.040   1.332
 2883SOL     OW 9547   5.754   6.596   3.506
 2883SOL    HW1 9548   5.783   6.692   3.502
 2883SOL    HW2 9549   5.830   6.537   3.478
 2884SOL     OW 9550   6.918   5.801   2.002
 2884SOL    HW1 9551   6.856   5.726   1.979
 2884SOL    HW2 9552   6.892   5.882   1.949
 2885SOL     OW 9553   1.160   2.294   4.170
 2885SOL    HW1 9554   1.139   2.345   4.087
 2885SOL    HW2 9555   1.083   2.298   4.233
 2886SOL     OW 9556   2.048   4.491   6.738
 2886SOL    HW1 9557   2.108   4.466   6.814
 2886SOL    HW2 9558   2.002   4.409   6.704
 2887SOL     OW 9559   6.865   6.058   4.330
 2887SOL    HW1 9560   6.853   5.962   4.356
 2887SOL    HW2 9561   6.827   6.074   4.239
 2888SOL     OW 9562   0.386   5.232   0.325
 2888SOL    HW1 9563   0.316   5.246   0.255
 2888SOL    HW2 9564   0.430   5.319   0.346
 2889SOL     OW 9565   2.785   6.689   3.024
 2889SOL    HW1 9566   2.835   6.607   2.997
 2889SOL    HW2 9567   2.837   6.770   2.995
 2890SOL     OW 9568   1.692   5.060   0.795
 2890SOL    HW1 9569   1.650   5.137   0.747
 2890SOL    HW2 9570   1.770   5.092   0.849
 2891SOL     OW 9571   1.462   3.575   3.394
 2891SOL    HW1 9572   1.473   3.510   3.319
 2891SOL    HW2 9573   1.395   3.540   3.459
 2892SOL     OW 9574   5.998   2.955   0.893
 2892SOL    HW1 9575   6.009   2.995   0.984
 2892SOL    HW2 9576   5.973   2.858   0.902
 2893SOL     OW 9577   1.731   5.517   4.735
 2893SOL    HW1 9578   1.777   5.598   4.769
 2893SOL    HW2 9579   1.785   5.477   4.660
 2894SOL     OW 9580   1.694   3.922   1.400
 2894SOL    HW1 9581   1.599   3.911   1.428
 2894SOL    HW2 9582   1.710   4.017   1.373
 2895SOL     OW 9583   4.027   0.587   6.405
 2895SOL    HW1 9584   3.967   0.637   6.468
 2895SOL    HW2 9585   4.070   0.651   6.342
 2896SOL     OW 9586   5.348   0.039   5.788
 2896SOL    HW1 9587   5.405   6.985   5.788
 2896SOL    HW2 9588   5.327   0.066   5.694
 2897SOL     OW 9589   4.224   5.021   2.856
 2897SOL    HW1 9590   4.176   5.074   2.925
 2897SOL    HW2 9591   4.158   4.972   2.800
 2898SOL     OW 9592   5.194   4.124   3.970
 2898SOL    HW1 9593   5.237   4.121   4.060
 2898SOL    HW2 9594   5.260   4.159   3.903
 2899SOL     OW 9595   6.506   1.780   0.769
 2899SOL    HW1 9596   6.560   1.699   0.789
 2899SOL    HW2 9597   6.566   1.861   0.767
 2900SOL     OW 9598   4.442   4.794   6.364
 2900SOL    HW1 9599   4.403   4.755   6.447
 2900SOL    HW2 9600   4.453   4.722   6.296
 2901SOL     OW 9601   1.855   5.037   3.430
 2901SOL    HW1 9602   1.791   5.049   3.355
 2901SOL    HW2 9603   1.840   5.108   3.499
 2902SOL     OW 9604   6.956   5.313   3.398
 2902SOL    HW1 9605   6.874   5.368   3.380
 2902SOL    HW2 9606   6.935   5.246   3.469
 2903SOL     OW 9607   4.199   6.263   0.987
 2903SOL    HW1 9608   4.280   6.303   1.031
 2903SOL    HW2 9609   4.166   6.186   1.042
 2904SOL     OW 9610   3.089   5.234   5.013
 2904SOL    HW1 9611   3.092   5.292   4.932
 2904SOL    HW2 9612   3.124   5.144   4.991
 2905SOL     OW 9613   1.472   4.209   3.846
 2905SOL    HW1 9614   1.494   4.189   3.751
 2905SOL    HW2 9615   1.374   4.227   3.855
 2906SOL     OW 9616   5.194   5.880   2.747
 2906SOL    HW1 9617   5.209   5.897   2.845
 2906SOL    HW2 9618   5.219   5.786   2.726
 2907SOL     OW 9619   0.782   1.810   4.127
 2907SOL    HW1 9620   0.786   1.833   4.030
 2907SOL    HW2 9621   0.848   1.738   4.148
 2908SOL     OW 9622   5.349   6.411   3.692
 2908SOL    HW1 9623   5.297   6.475   3.635
 2908SOL    HW2 9624   5.314   6.318   3.677
 2909SOL     OW 9625   1.837   6.837   3.281
 2909SOL    HW1 9626   1.933   6.809   3.276
 2909SOL    HW2 9627   1.793   6.792   3.358
 2910SOL     OW 9628   6.817   0.761   3.592
 2910SOL    HW1 9629   6.780   0.847   3.556
 2910SOL    HW2 9630   6.854   0.706   3.517
 2911SOL     OW 9631   1.300   4.969   3.518
 2911SOL    HW1 9632   1.203   4.985   3.501
 2911SOL    HW2 9633   1.325   4.877   3.487
 2912SOL     OW 9634   6.934   6.182   6.310
 2912SOL    HW1 9635   6.877   6.205   6.230
 2912SOL    HW2 9636   7.011   6.246   6.314
 2913SOL     OW 9637   3.271   4.941   2.627
 2913SOL    HW1 9638   3.354   4.952   2.682
 2913SOL    HW2 9639   3.295   4.901   2.539
 2914SOL     OW 9640   5.681   5.775   1.198
 2914SOL    HW1 9641   5.759   5.785   1.260
 2914SOL    HW2 9642   5.713   5.785   1.103
 2915SOL     OW 9643   3.262   2.002   3.963
 2915SOL    HW1 9644   3.194   1.978   4.033
 2915SOL    HW2 9645   3.216   2.022   3.877
 2916SOL     OW 9646   1.648   5.234   0.375
 2916SOL    HW1 9647   1.708   5.160   0.407
 2916SOL    HW2 9648   1.700   5.299   0.321
 2917SOL     OW 9649   3.244   0.515   4.272
 2917SOL    HW1 9650   3.290   0.432   4.304
 2917SOL    HW2 9651   3.282   0.543   4.184
 2918SOL     OW 9652   5.855   3.804   6.702
 2918SOL    HW1 9653   5.787   3.770   6.766
 2918SOL    HW2 9654   5.940   3.752   6.713
 2919SOL     OW 9655   6.245   6.890   3.186
 2919SOL    HW1 9656   6.259   6.988   3.193
 2919SOL    HW2 9657   6.243   6.850   3.278
 2920SOL     OW 9658   3.250   0.190   1.783
 2920SOL    HW1 9659   3.310   0.254   1.735
 2920SOL    HW2 9660   3.220   0.231   1.869
 2921SOL     OW 9661   0.618   0.012   6.087
 2921SOL    HW1 9662   0.650   6.980   6.161
 2921SOL    HW2 9663   0.648   0.106   6.104
 2922SOL     OW 9664   3.883   6.265   1.746
 2922SOL    HW1 9665   3.859   6.355   1.709
 2922SOL    HW2 9666   3.896   6.272   1.845
 2923SOL     OW 9667   6.542   5.243   4.865
 2923SOL    HW1 9668   6.571   5.214   4.956
 2923SOL    HW2 9669   6.567   5.339   4.852
 2924SOL     OW 9670   0.083   1.939   4.642
 2924SOL    HW1 9671   0.141   1.940   4.560
 2924SOL    HW2 9672   0.023   2.019   4.641
 2925SOL     OW 9673   5.676   1.823   0.088
 2925SOL    HW1 9674   5.752   1.858   0.033
 2925SOL    HW2 9675   5.695   1.729   0.117
 2926SOL     OW 9676   6.459   2.318   6.233
 2926SOL    HW1 9677   6.463   2.418   6.240
 2926SOL    HW2 9678   6.501   2.289   6.147
 2927SOL     OW 9679   1.412   2.957   0.807
 2927SOL    HW1 9680   1.429   3.041   0.756
 2927SOL    HW2 9681   1.322   2.963   0.851
 2928SOL     OW 9682   6.618   1.318   6.773
 2928SOL    HW1 9683   6.585   1.401   6.818
 2928SOL    HW2 9684   6.605   1.326   6.674
 2929SOL     OW 9685   1.586   2.468   4.868
 2929SOL    HW1 9686   1.545   2.396   4.925
 2929SOL    HW2 9687   1.685   2.454   4.864
 2930SOL     OW 9688   5.436   6.279   5.215
 2930SOL    HW1 9689   5.452   6.370   5.254
 2930SOL    HW2 9690   5.455   6.281   5.117
 2931SOL     OW 9691   4.713   4.779   6.828
 2931SOL    HW1 9692   4.733   4.876   6.814
 2931SOL    HW2 9693   4.617   4.761   6.807
 2932SOL     OW 9694   0.183   5.773   1.107
 2932SOL    HW1 9695   0.135   5.830   1.040
 2932SOL    HW2 9696   0.199   5.825   1.190
 2933SOL     OW 9697   0.561   7.010   2.019
 2933SOL    HW1 9698   0.632   6.969   1.962
 2933SOL    HW2 9699   0.483   6.947   2.024
 2934SOL     OW 9700   5.084   2.752   1.410
 2934SOL    HW1 9701   5.045   2.844   1.422
 2934SOL    HW2 9702   5.174   2.748   1.453
 2935SOL     OW 9703   0.321   2.920   6.132
 2935SOL    HW1 9704   0.391   2.991   6.126
 2935SOL    HW2 9705   0.251   2.947   6.199
 2936SOL     OW 9706   3.704   6.186   0.834
 2936SOL    HW1 9707   3.711   6.177   0.933
 2936SOL    HW2 9708   3.642   6.115   0.799
 2937SOL     OW 9709   4.899   5.383   0.844
 2937SOL    HW1 9710   4.873   5.362   0.749
 2937SOL    HW2 9711   4.989   5.426   0.845
 2938SOL     OW 9712   6.669   5.553   0.074
 2938SOL    HW1 9713   6.756   5.524   0.033
 2938SOL    HW2 9714   6.627   5.622   0.015
 2939SOL     OW 9715   1.784   0.567   1.613
 2939SOL    HW1 9716   1.685   0.582   1.618
 2939SOL    HW2 9717   1.809   0.538   1.521
 2940SOL     OW 9718   6.345   5.598   4.922
 2940SOL    HW1 9719   6.257   5.554   4.903
 2940SOL    HW2 9720   6.338   5.696   4.905
 2941SOL     OW 9721   2.596   2.143   2.792
 2941SOL    HW1 9722   2.561   2.205   2.862
 2941SOL    HW2 9723   2.554   2.164   2.704
 2942SOL     OW 9724   3.538   2.416   0.480
 2942SOL    HW1 9725   3.601   2.491   0.501
 2942SOL    HW2 9726   3.541   2.397   0.382
 2943SOL     OW 9727   5.872   4.867   3.983
 2943SOL    HW1 9728   5.894   4.844   3.888
 2943SOL    HW2 9729   5.792   4.815   4.011
 2944SOL     OW 9730   2.375   6.176   3.968
 2944SOL    HW1 9731   2.331   6.098   3.923
 2944SOL    HW2 9732   2.350   6.177   4.065
 2945SOL     OW 9733   5.011   2.892   1.662
 2945SOL    HW1 9734   5.085   2.824   1.656
 2945SOL    HW2 9735   4.940   2.859   1.724
 2946SOL     OW 9736   2.240   4.268   5.938
 2946SOL    HW1 9737   2.155   4.235   5.896
 2946SOL    HW2 9738   2.288   4.191   5.980
 2947SOL     OW 9739   6.942   5.294   0.266
 2947SOL    HW1 9740   6.917   5.317   0.172
 2947SOL    HW2 9741   6.950   5.377   0.320
 2948SOL     OW 9742   6.927   4.491   3.579
 2948SOL    HW1 9743   6.836   4.458   3.603
 2948SOL    HW2 9744   6.996   4.442   3.632
 2949SOL     OW 9745   0.426   5.708   6.778
 2949SOL    HW1 9746   0.367   5.709   6.859
 2949SOL    HW2 9747   0.512   5.663   6.801
 2950SOL     OW 9748   6.173   5.795   3.600
 2950SOL    HW1 9749   6.151   5.735   3.677
 2950SOL    HW2 9750   6.094   5.853   3.580
 2951SOL     OW 9751   5.439   1.476   2.147
 2951SOL    HW1 9752   5.417   1.482   2.050
 2951SOL    HW2 9753   5.474   1.385   2.168
 2952SOL     OW 9754   6.986   7.007   4.975
 2952SOL    HW1 9755   0.041   7.007   5.033
 2952SOL    HW2 9756   6.961   0.074   4.953
 2953SOL     OW 9757   0.079   4.227   3.177
 2953SOL    HW1 9758   0.060   4.301   3.241
 2953SOL    HW2 9759   0.089   4.141   3.227
 2954SOL     OW 9760   0.042   4.398   6.508
 2954SOL    HW1 9761   0.099   4.474   6.477
 2954SOL    HW2 9762   0.001   4.421   6.596
 2955SOL     OW 9763   0.707   4.572   0.914
 2955SOL    HW1 9764   0.760   4.657   0.922
 2955SOL    HW2 9765   0.769   4.494   0.909
 2956SOL     OW 9766   6.852   5.644   3.699
 2956SOL    HW1 9767   6.844   5.545   3.688
 2956SOL    HW2 9768   6.782   5.689   3.642
 2957SOL     OW 9769   4.591   4.939   1.587
 2957SOL    HW1 9770   4.579   4.913   1.491
 2957SOL    HW2 9771   4.633   4.864   1.637
 2958SOL     OW 9772   2.162   4.856   3.407
 2958SOL    HW1 9773   2.148   4.890   3.500
 2958SOL    HW2 9774   2.143   4.930   3.342
 2959SOL     OW 9775   5.404   2.705   2.519
 2959SOL    HW1 9776   5.351   2.650   2.583
 2959SOL    HW2 9777   5.448   2.781   2.568
 2960SOL     OW 9778   3.819   0.290   6.907
 2960SOL    HW1 9779   3.768   0.351   6.845
 2960SOL    HW2 9780   3.883   0.235   6.853
 2961SOL     OW 9781   6.186   4.473   3.204
 2961SOL    HW1 9782   6.171   4.386   3.251
 2961SOL    HW2 9783   6.171   4.549   3.268
 2962SOL     OW 9784   4.752   6.415   3.554
 2962SOL    HW1 9785   4.707   6.504   3.551
 2962SOL    HW2 9786   4.815   6.407   3.476
 2963SOL     OW 9787   1.001   0.792   6.485
 2963SOL    HW1 9788   0.907   0.761   6.476
 2963SOL    HW2 9789   1.019   0.821   6.579
 2964SOL     OW 9790   0.095   2.089   6.544
 2964SOL    HW1 9791   0.152   2.145   6.486
 2964SOL    HW2 9792   0.010   2.066   6.496
 2965SOL     OW 9793   0.874   0.624   4.416
 2965SOL    HW1 9794   0.778   0.642   4.437
 2965SOL    HW2 9795   0.881   0.540   4.362
 2966SOL     OW 9796   4.741   5.739   3.807
 2966SOL    HW1 9797   4.764   5.781   3.720
 2966SOL    HW2 9798   4.801   5.776   3.879
 2967SOL     OW 9799   6.318   1.131   5.771
 2967SOL    HW1 9800   6.236   1.130   5.828
 2967SOL    HW2 9801   6.349   1.225   5.760
 2968SOL     OW 9802   1.493   2.420   0.990
 2968SOL    HW1 9803   1.520   2.500   0.935
 2968SOL    HW2 9804   1.430   2.449   1.062
 2969SOL     OW 9805   4.857   3.054   4.776
 2969SOL    HW1 9806   4.831   3.064   4.680
 2969SOL    HW2 9807   4.938   3.110   4.795
 2970SOL     OW 9808   2.975   3.046   5.464
 2970SOL    HW1 9809   2.901   3.063   5.399
 2970SOL    HW2 9810   3.045   3.116   5.454
 2971SOL     OW 9811   5.360   4.158   0.274
 2971SOL    HW1 9812   5.322   4.247   0.300
 2971SOL    HW2 9813   5.412   4.169   0.189
 2972SOL     OW 9814   5.256   4.931   6.649
 2972SOL    HW1 9815   5.263   5.015   6.702
 2972SOL    HW2 9816   5.341   4.915   6.600
 2973SOL     OW 9817   4.752   6.587   2.278
 2973SOL    HW1 9818   4.670   6.546   2.318
 2973SOL    HW2 9819   4.784   6.662   2.337
 2974SOL     OW 9820   6.568   4.394   3.251
 2974SOL    HW1 9821   6.549   4.345   3.166
 2974SOL    HW2 9822   6.494   4.377   3.316
 2975SOL     OW 9823   5.406   4.314   4.416
 2975SOL    HW1 9824   5.389   4.341   4.510
 2975SOL    HW2 9825   5.351   4.233   4.394
 2976SOL     OW 9826   5.096   2.156   2.818
 2976SOL    HW1 9827   5.115   2.069   2.772
 2976SOL    HW2 9828   5.173   2.179   2.878
 2977SOL     OW 9829   0.245   0.805   2.656
 2977SOL    HW1 9830   0.260   0.706   2.647
 2977SOL    HW2 9831   0.233   0.845   2.565
 2978SOL     OW 9832   3.870   4.290   0.257
 2978SOL    HW1 9833   3.809   4.232   0.204
 2978SOL    HW2 9834   3.942   4.326   0.198
 2979SOL     OW 9835   3.166   1.724   4.262
 2979SOL    HW1 9836   3.111   1.807   4.265
 2979SOL    HW2 9837   3.199   1.702   4.354
 2980SOL     OW 9838   2.097   5.487   6.603
 2980SOL    HW1 9839   2.072   5.421   6.531
 2980SOL    HW2 9840   2.195   5.504   6.599
 2981SOL     OW 9841   2.399   1.213   0.147
 2981SOL    HW1 9842   2.440   1.155   0.217
 2981SOL    HW2 9843   2.448   1.201   0.061
 2982SOL     OW 9844   2.107   6.014   2.168
 2982SOL    HW1 9845   2.120   5.928   2.119
 2982SOL    HW2 9846   2.194   6.063   2.174
 2983SOL     OW 9847   7.014   2.148   1.335
 2983SOL    HW1 9848   0.074   2.180   1.296
 2983SOL    HW2 9849   7.003   2.184   1.427
 2984SOL     OW 9850   5.642   5.485   6.224
 2984SOL    HW1 9851   5.731   5.496   6.180
 2984SOL    HW2 9852   5.623   5.564   6.282
 2985SOL     OW 9853   0.694   1.516   4.914
 2985SOL    HW1 9854   0.696   1.616   4.920
 2985SOL    HW2 9855   0.613   1.482   4.961
 2986SOL     OW 9856   3.530   3.805   2.492
 2986SOL    HW1 9857   3.439   3.775   2.519
 2986SOL    HW2 9858   3.535   3.905   2.496
 2987SOL     OW 9859   1.515   1.193   4.138
 2987SOL    HW1 9860   1.608   1.163   4.157
 2987SOL    HW2 9861   1.451   1.119   4.159
 2988SOL     OW 9862   1.598   0.101   1.626
 2988SOL    HW1 9863   1.623   0.056   1.711
 2988SOL    HW2 9864   1.506   0.139   1.633
 2989SOL     OW 9865   5.503   4.172   5.234
 2989SOL    HW1 9866   5.428   4.231   5.263
 2989SOL    HW2 9867   5.490   4.081   5.272
 2990SOL     OW 9868   4.883   2.362   4.573
 2990SOL    HW1 9869   4.783   2.352   4.564
 2990SOL    HW2 9870   4.920   2.407   4.493
 2991SOL     OW 9871   6.060   3.150   6.187
 2991SOL    HW1 9872   6.076   3.156   6.089
 2991SOL    HW2 9873   6.136   3.192   6.236
 2992SOL     OW 9874   1.629   4.772   4.706
 2992SOL    HW1 9875   1.652   4.685   4.662
 2992SOL    HW2 9876   1.536   4.799   4.681
 2993SOL     OW 9877   0.281   4.983   0.377
 2993SOL    HW1 9878   0.327   5.071   0.374
 2993SOL    HW2 9879   0.183   4.997   0.393
 2994SOL     OW 9880   3.787   5.798   0.188
 2994SOL    HW1 9881   3.720   5.755   0.248
 2994SOL    HW2 9882   3.879   5.782   0.224
 2995SOL     OW 9883   4.058   0.174   0.197
 2995SOL    HW1 9884   4.091   0.110   0.127
 2995SOL    HW2 9885   4.054   0.128   0.285
 2996SOL     OW 9886   0.756   2.140   4.725
 2996SOL    HW1 9887   0.769   2.151   4.626
 2996SOL    HW2 9888   0.659   2.121   4.744
 2997SOL     OW 9889   4.753   6.995   3.305
 2997SOL    HW1 9890   4.832   7.001   3.244
 2997SOL    HW2 9891   4.669   6.993   3.251
 2998SOL     OW 9892   4.040   6.546   3.049
 2998SOL    HW1 9893   4.071   6.614   2.983
 2998SOL    HW2 9894   4.044   6.584   3.141
 2999SOL     OW 9895   2.782   4.984   6.007
 2999SOL    HW1 9896   2.810   5.070   6.049
 2999SOL    HW2 9897   2.761   4.999   5.910
 3000SOL     OW 9898   2.724   4.007   6.783
 3000SOL    HW1 9899   2.675   3.926   6.750
 3000SOL    HW2 9900   2.822   3.994   6.768
 3001SOL     OW 9901   6.407   1.940   0.357
 3001SOL    HW1 9902   6.416   1.890   0.271
 3001SOL    HW2 9903   6.319   1.917   0.399
 3002SOL     OW 9904   3.409   2.074   0.215
 3002SOL    HW1 9905   3.415   2.068   0.116
 3002SOL    HW2 9906   3.390   1.983   0.252
 3003SOL     OW 9907   0.860   6.522   1.356
 3003SOL    HW1 9908   0.942   6.517   1.298
 3003SOL    HW2 9909   0.841   6.432   1.394
 3004SOL     OW 9910   1.608   4.706   3.028
 3004SOL    HW1 9911   1.537   4.652   2.983
 3004SOL    HW2 9912   1.688   4.647   3.045
 3005SOL     OW 9913   1.517   3.120   6.457
 3005SOL    HW1 9914   1.485   3.142   6.550
 3005SOL    HW2 9915   1.491   3.193   6.395
 3006SOL     OW 9916   5.892   1.455   4.718
 3006SOL    HW1 9917   5.809   1.398   4.718
 3006SOL    HW2 9918   5.948   1.431   4.797
 3007SOL     OW 9919   4.813   5.067   0.101
 3007SOL    HW1 9920   4.766   5.138   0.152
 3007SOL    HW2 9921   4.817   4.983   0.156
 3008SOL     OW 9922   3.290   2.222   6.366
 3008SOL    HW1 9923   3.218   2.217   6.297
 3008SOL    HW2 9924   3.359   2.289   6.337
 3009SOL     OW 9925   0.344   3.025   2.491
 3009SOL    HW1 9926   0.263   3.048   2.545
 3009SOL    HW2 9927   0.412   2.982   2.550
 3010SOL     OW 9928   2.689   5.602   4.373
 3010SOL    HW1 9929   2.699   5.546   4.455
 3010SOL    HW2 9930   2.614   5.667   4.387
 3011SOL     OW 9931   6.212   0.279   1.893
 3011SOL    HW1 9932   6.159   0.196   1.878
 3011SOL    HW2 9933   6.306   0.254   1.919
 3012SOL     OW 9934   2.377   3.420   0.170
 3012SOL    HW1 9935   2.392   3.330   0.211
 3012SOL    HW2 9936   2.283   3.450   0.188
 3013SOL     OW 9937   6.498   4.701   3.068
 3013SOL    HW1 9938   6.469   4.797   3.071
 3013SOL    HW2 9939   6.473   4.656   3.154
 3014SOL     OW 9940   4.841   1.780   6.439
 3014SOL    HW1 9941   4.934   1.814   6.431
 3014SOL    HW2 9942   4.800   1.814   6.524
 3015SOL     OW 9943   2.249   1.870   0.324
 3015SOL    HW1 9944   2.275   1.952   0.272
 3015SOL    HW2 9945   2.221   1.798   0.261
 3016SOL     OW 9946   3.344   6.627   4.433
 3016SOL    HW1 9947   3.250   6.594   4.431
 3016SOL    HW2 9948   3.347   6.720   4.468
 3017SOL     OW 9949   5.143   5.065   2.764
 3017SOL    HW1 9950   5.127   5.153   2.809
 3017SOL    HW2 9951   5.100   4.992   2.816
 3018SOL     OW 9952   3.377   6.943   6.703
 3018SOL    HW1 9953   3.424   6.870   6.653
 3018SOL    HW2 9954   3.443   6.991   6.761
 3019SOL     OW 9955   0.834   0.188   0.268
 3019SOL    HW1 9956   0.927   0.219   0.286
 3019SOL    HW2 9957   0.775   0.212   0.344
 3020SOL     OW 9958   4.452   3.098   0.997
 3020SOL    HW1 9959   4.358   3.126   0.979
 3020SOL    HW2 9960   4.455   3.000   1.016
 3021SOL     OW 9961   2.617   6.976   3.801
 3021SOL    HW1 9962   2.666   6.978   3.714
 3021SOL    HW2 9963   2.683   6.970   3.876
 3022SOL     OW 9964   4.156   5.393   4.519
 3022SOL    HW1 9965   4.114   5.447   4.445
 3022SOL    HW2 9966   4.255   5.403   4.514
 3023SOL     OW 9967   3.708   6.644   3.238
 3023SOL    HW1 9968   3.759   6.694   3.168
 3023SOL    HW2 9969   3.615   6.679   3.243
 3024SOL     OW 9970   5.887   6.492   5.218
 3024SOL    HW1 9971   5.960   6.551   5.253
 3024SOL    HW2 9972   5.818   6.478   5.289
 3025SOL     OW 9973   4.069   6.045   2.003
 3025SOL    HW1 9974   3.994   5.983   2.023
 3025SOL    HW2 9975   4.037   6.140   2.009
 3026SOL     OW 9976   0.346   1.215   6.280
 3026SOL    HW1 9977   0.374   1.185   6.372
 3026SOL    HW2 9978   0.427   1.221   6.221
 3027SOL     OW 9979   4.088   1.592   2.061
 3027SOL    HW1 9980   4.162   1.658   2.068
 3027SOL    HW2 9981   4.009   1.634   2.017
 3028SOL     OW 9982   1.446   4.329   6.339
 3028SOL    HW1 9983   1.527   4.314   6.395
 3028SOL    HW2 9984   1.413   4.422   6.353
 3029SOL     OW 9985   1.221   2.332   3.473
 3029SOL    HW1 9986   1.162   2.252   3.474
 3029SOL    HW2 9987   1.288   2.325   3.548
 3030SOL     OW 9988   1.128   4.323   0.717
 3030SOL    HW1 9989   1.178   4.404   0.685
 3030SOL    HW2 9990   1.118   4.258   0.642
 3031SOL     OW 9991   1.190   4.592   0.648
 3031SOL    HW1 9992   1.181   4.643   0.562
 3031SOL    HW2 9993   1.287   4.575   0.667
 3032SOL     OW 9994   2.341   6.082   1.705
 3032SOL    HW1 9995   2.332   6.179   1.684
 3032SOL    HW2 9996   2.396   6.038   1.634
 3033SOL     OW 9997   6.511   1.671   2.844
 3033SOL    HW1 9998   6.531   1.624   2.759
 3033SOL    HW2 9999   6.468   1.759   2.824
 3034SOL     OW10000   0.645   6.073   3.653
 3034SOL    HW110001   0.706   6.039   3.581
 3034SOL    HW210002   0.684   6.156   3.694
 3035SOL     OW10003   1.181   3.112   5.913
 3035SOL    HW110004   1.164   3.128   5.816
 3035SOL    HW210005   1.245   3.036   5.924
 3036SOL     OW10006   1.174   2.406   5.118
 3036SOL    HW110007   1.247   2.424   5.184
 3036SOL    HW210008   1.099   2.471   5.132
 3037SOL     OW10009   6.571   4.823   5.149
 3037SOL    HW110010   6.603   4.915   5.125
 3037SOL    HW210011   6.571   4.766   5.067
 3038SOL     OW10012   5.394   3.968   5.831
 3038SOL    HW110013   5.340   3.948   5.912
 3038SOL    HW210014   5.334   4.006   5.760
 3039SOL     OW10015   0.097   3.192   0.372
 3039SOL    HW110016   0.107   3.095   0.395
 3039SOL    HW210017   0.035   3.236   0.438
 3040SOL     OW10018   3.265   4.543   5.985
 3040SOL    HW110019   3.198   4.528   5.912
 3040SOL    HW210020   3.354   4.562   5.945
 3041SOL     OW10021   1.225   5.045   6.179
 3041SOL    HW110022   1.279   5.111   6.127
 3041SOL    HW210023   1.261   5.040   6.272
 3042SOL     OW10024   5.643   6.245   2.636
 3042SOL    HW110025   5.564   6.272   2.690
 3042SOL    HW210026   5.658   6.147   2.645
 3043SOL     OW10027   3.412   4.010   1.446
 3043SOL    HW110028   3.476   3.971   1.379
 3043SOL    HW210029   3.383   3.939   1.509
 3044SOL     OW10030   2.954   5.084   5.496
 3044SOL    HW110031   2.940   5.046   5.405
 3044SOL    HW210032   3.052   5.095   5.512
 3045SOL     OW10033   4.867   6.644   3.042
 3045SOL    HW110034   4.855   6.584   2.964
 3045SOL    HW210035   4.790   6.632   3.105
 3046SOL     OW10036   3.314   6.890   0.371
 3046SOL    HW110037   3.216   6.904   0.360
 3046SOL    HW210038   3.345   6.818   0.309
 3047SOL     OW10039   6.402   6.822   0.796
 3047SOL    HW110040   6.489   6.871   0.785
 3047SOL    HW210041   6.348   6.866   0.868
 3048SOL     OW10042   4.995   2.277   0.617
 3048SOL    HW110043   5.020   2.219   0.694
 3048SOL    HW210044   4.900   2.306   0.626
 3049SOL     OW10045   1.039   0.394   3.941
 3049SOL    HW110046   1.056   0.407   4.039
 3049SOL    HW210047   1.038   0.483   3.896
 3050SOL     OW10048   2.509   2.296   1.449
 3050SOL    HW110049   2.607   2.301   1.472
 3050SOL    HW210050   2.458   2.264   1.529
 3051SOL     OW10051   2.560   6.586   6.349
 3051SOL    HW110052   2.500   6.553   6.277
 3051SOL    HW210053   2.560   6.686   6.350
 3052SOL     OW10054   5.130   5.525   2.295
 3052SOL    HW110055   5.129   5.617   2.334
 3052SOL    HW210056   5.075   5.464   2.352
 3053SOL     OW10057   0.229   3.356   1.284
 3053SOL    HW110058   0.185   3.430   1.233
 3053SOL    HW210059   0.324   3.380   1.302
 3054SOL     OW10060   6.205   0.653   2.307
 3054SOL    HW110061   6.257   0.589   2.249
 3054SOL    HW210062   6.248   0.744   2.302
 3055SOL     OW10063   5.736   0.259   5.343
 3055SOL    HW110064   5.801   0.202   5.292
 3055SOL    HW210065   5.659   0.202   5.373
 3056SOL     OW10066   6.204   1.784   5.961
 3056SOL    HW110067   6.178   1.812   5.869
 3056SOL    HW210068   6.276   1.845   5.995
 3057SOL     OW10069   5.081   6.398   4.431
 3057SOL    HW110070   5.069   6.423   4.527
 3057SOL    HW210071   5.171   6.429   4.400
 3058SOL     OW10072   6.338   4.411   0.744
 3058SOL    HW110073   6.400   4.406   0.823
 3058SOL    HW210074   6.361   4.339   0.679
 3059SOL     OW10075   2.623   1.950   4.174
 3059SOL    HW110076   2.580   1.949   4.264
 3059SOL    HW210077   2.561   1.912   4.106
 3060SOL     OW10078   2.255   5.077   6.850
 3060SOL    HW110079   2.295   5.159   6.807
 3060SOL    HW210080   2.245   5.093   6.948
 3061SOL     OW10081   6.090   5.753   5.795
 3061SOL    HW110082   6.050   5.661   5.805
 3061SOL    HW210083   6.145   5.774   5.875
 3062SOL     OW10084   2.512   6.016   1.503
 3062SOL    HW110085   2.565   6.091   1.463
 3062SOL    HW210086   2.526   5.933   1.449
 3063SOL     OW10087   0.610   4.550   1.289
 3063SOL    HW110088   0.672   4.559   1.367
 3063SOL    HW210089   0.612   4.633   1.235
 3064SOL     OW10090   4.309   3.598   0.273
 3064SOL    HW110091   4.370   3.657   0.220
 3064SOL    HW210092   4.239   3.560   0.214
 3065SOL     OW10093   1.243   1.672   6.241
 3065SOL    HW110094   1.307   1.721   6.181
 3065SOL    HW210095   1.279   1.669   6.334
 3066SOL     OW10096   5.334   5.387   6.014
 3066SOL    HW110097   5.432   5.404   6.002
 3066SOL    HW210098   5.308   5.406   6.109
 3067SOL     OW10099   2.881   1.277   1.116
 3067SOL    HW110100   2.817   1.219   1.166
 3067SOL    HW210101   2.868   1.265   1.018
 3068SOL     OW10102   7.004   0.333   1.737
 3068SOL    HW110103   0.041   0.410   1.731
 3068SOL    HW210104   6.992   0.309   1.834
 3069SOL     OW10105   6.235   6.496   3.341
 3069SOL    HW110106   6.228   6.470   3.245
 3069SOL    HW210107   6.164   6.449   3.394
 3070SOL     OW10108   2.341   0.883   6.545
 3070SOL    HW110109   2.401   0.845   6.615
 3070SOL    HW210110   2.308   0.973   6.574
 3071SOL     OW10111   6.462   5.453   3.992
 3071SOL    HW110112   6.557   5.460   4.024
 3071SOL    HW210113   6.416   5.541   4.006
 3072SOL     OW10114   2.176   5.939   6.791
 3072SOL    HW110115   2.254   5.990   6.755
 3072SOL    HW210116   2.179   5.941   6.891
 3073SOL     OW10117   6.934   4.003   1.919
 3073SOL    HW110118   7.008   3.995   1.853
 3073SOL    HW210119   6.850   3.966   1.879
 3074SOL     OW10120   0.907   4.361   0.885
 3074SOL    HW110121   0.851   4.287   0.849
 3074SOL    HW210122   0.996   4.361   0.838
 3075SOL     OW10123   2.555   5.387   3.529
 3075SOL    HW110124   2.587   5.475   3.564
 3075SOL    HW210125   2.626   5.318   3.542
 3076SOL     OW10126   6.725   1.663   4.595
 3076SOL    HW110127   6.816   1.628   4.617
 3076SOL    HW210128   6.666   1.587   4.569
 3077SOL     OW10129   6.185   3.623   2.087
 3077SOL    HW110130   6.100   3.650   2.042
 3077SOL    HW210131   6.167   3.547   2.150
 3078SOL     OW10132   6.949   3.141   2.041
 3078SOL    HW110133   6.883   3.214   2.023
 3078SOL    HW210134   6.989   3.154   2.132
 3079SOL     OW10135   3.101   2.104   3.399
 3079SOL    HW110136   3.186   2.072   3.355
 3079SOL    HW210137   3.078   2.194   3.364
 3080SOL     OW10138   5.058   4.144   2.245
 3080SOL    HW110139   4.997   4.073   2.209
 3080SOL    HW210140   5.006   4.228   2.260
 3081SOL     OW10141   0.929   4.661   5.856
 3081SOL    HW110142   0.835   4.629   5.851
 3081SOL    HW210143   0.934   4.742   5.915
 3082SOL     OW10144   2.497   5.936   4.070
 3082SOL    HW110145   2.592   5.907   4.058
 3082SOL    HW210146   2.482   6.021   4.019
 3083SOL     OW10147   3.149   6.251   3.085
 3083SOL    HW110148   3.157   6.243   2.986
 3083SOL    HW210149   3.057   6.224   3.114
 3084SOL     OW10150   6.639   4.194   2.584
 3084SOL    HW110151   6.640   4.290   2.556
 3084SOL    HW210152   6.612   4.137   2.507
 3085SOL     OW10153   5.841   4.365   0.942
 3085SOL    HW110154   5.907   4.317   0.883
 3085SOL    HW210155   5.748   4.342   0.914
 3086SOL     OW10156   4.476   1.123   0.265
 3086SOL    HW110157   4.471   1.179   0.182
 3086SOL    HW210158   4.557   1.150   0.317
 3087SOL     OW10159   2.789   6.099   3.377
 3087SOL    HW110160   2.695   6.102   3.411
 3087SOL    HW210161   2.851   6.138   3.445
 3088SOL     OW10162   1.751   3.326   5.157
 3088SOL    HW110163   1.757   3.394   5.230
 3088SOL    HW210164   1.843   3.299   5.129
 3089SOL     OW10165   4.357   2.340   4.537
 3089SOL    HW110166   4.281   2.294   4.582
 3089SOL    HW210167   4.353   2.323   4.439
 3090SOL     OW10168   2.237   1.328   2.468
 3090SOL    HW110169   2.147   1.293   2.495
 3090SOL    HW210170   2.298   1.251   2.451
 3091SOL     OW10171   1.230   1.204   0.566
 3091SOL    HW110172   1.285   1.219   0.485
 3091SOL    HW210173   1.225   1.105   0.585
 3092SOL     OW10174   5.004   6.574   1.088
 3092SOL    HW110175   5.038   6.665   1.110
 3092SOL    HW210176   5.075   6.506   1.106
 3093SOL     OW10177   5.739   6.434   5.728
 3093SOL    HW110178   5.687   6.414   5.811
 3093SOL    HW210179   5.796   6.514   5.742
 3094SOL     OW10180   2.957   0.478   3.994
 3094SOL    HW110181   2.874   0.497   4.045
 3094SOL    HW210182   2.951   0.387   3.953
 3095SOL     OW10183   2.358   4.065   6.083
 3095SOL    HW110184   2.306   3.982   6.062
 3095SOL    HW210185   2.368   4.074   6.182
 3096SOL     OW10186   0.999   4.621   5.136
 3096SOL    HW110187   0.938   4.552   5.097
 3096SOL    HW210188   1.039   4.676   5.063
 3097SOL     OW10189   5.633   3.119   0.041
 3097SOL    HW110190   5.639   3.020   0.052
 3097SOL    HW210191   5.574   3.157   0.113
 3098SOL     OW10192   1.805   3.506   1.900
 3098SOL    HW110193   1.816   3.596   1.857
 3098SOL    HW210194   1.880   3.446   1.872
 3099SOL     OW10195   1.086   6.351   3.831
 3099SOL    HW110196   1.100   6.368   3.929
 3099SOL    HW210197   1.159   6.396   3.779
 3100SOL     OW10198   6.790   6.252   2.594
 3100SOL    HW110199   6.746   6.337   2.566
 3100SOL    HW210200   6.889   6.266   2.601
 3101SOL     OW10201   4.426   6.307   5.741
 3101SOL    HW110202   4.439   6.226   5.799
 3101SOL    HW210203   4.419   6.388   5.798
 3102SOL     OW10204   6.971   6.330   1.147
 3102SOL    HW110205   6.954   6.281   1.232
 3102SOL    HW210206   7.019   6.416   1.167
 3103SOL     OW10207   4.893   0.544   1.606
 3103SOL    HW110208   4.959   0.556   1.532
 3103SOL    HW210209   4.814   0.492   1.572
 3104SOL     OW10210   3.555   0.724   6.487
 3104SOL    HW110211   3.595   0.779   6.414
 3104SOL    HW210212   3.497   0.782   6.545
 3105SOL     OW10213   4.545   3.828   1.543
 3105SOL    HW110214   4.464   3.773   1.565
 3105SOL    HW210215   4.537   3.918   1.585
 3106SOL     OW10216   5.348   6.822   4.743
 3106SOL    HW110217   5.368   6.920   4.748
 3106SOL    HW210218   5.250   6.808   4.733
 3107SOL     OW10219   4.173   1.577   4.477
 3107SOL    HW110220   4.235   1.656   4.468
 3107SOL    HW210221   4.212   1.499   4.429
 3108SOL     OW10222   1.973   5.356   4.947
 3108SOL    HW110223   1.929   5.289   4.886
 3108SOL    HW210224   1.904   5.420   4.982
 3109SOL     OW10225   6.096   0.531   4.156
 3109SOL    HW110226   6.138   0.440   4.155
 3109SOL    HW210227   6.028   0.536   4.229
 3110SOL     OW10228   2.198   4.510   3.255
 3110SOL    HW110229   2.225   4.490   3.161
 3110SOL    HW210230   2.272   4.560   3.301
 3111SOL     OW10231   0.391   4.723   3.299
 3111SOL    HW110232   0.349   4.651   3.354
 3111SOL    HW210233   0.320   4.781   3.259
 3112SOL     OW10234   2.803   2.902   6.906
 3112SOL    HW110235   2.896   2.919   6.872
 3112SOL    HW210236   2.765   2.986   6.944
 3113SOL     OW10237   3.069   6.437   2.677
 3113SOL    HW110238   3.163   6.417   2.647
 3113SOL    HW210239   3.004   6.391   2.617
 3114SOL     OW10240   4.121   1.706   0.422
 3114SOL    HW110241   4.059   1.682   0.347
 3114SOL    HW210242   4.154   1.623   0.467
 3115SOL     OW10243   3.845   4.757   5.298
 3115SOL    HW110244   3.905   4.815   5.353
 3115SOL    HW210245   3.882   4.665   5.294
 3116SOL     OW10246   7.020   1.531   0.489
 3116SOL    HW110247   6.973   1.615   0.514
 3116SOL    HW210248   7.022   1.522   0.389
 3117SOL     OW10249   4.509   2.968   5.342
 3117SOL    HW110250   4.412   2.946   5.349
 3117SOL    HW210251   4.563   2.891   5.375
 3118SOL     OW10252   0.781   6.638   1.926
 3118SOL    HW110253   0.819   6.717   1.973
 3118SOL    HW210254   0.832   6.622   1.841
 3119SOL     OW10255   2.631   2.303   5.776
 3119SOL    HW110256   2.608   2.232   5.843
 3119SOL    HW210257   2.640   2.262   5.686
 3120SOL     OW10258   3.226   0.572   5.854
 3120SOL    HW110259   3.263   0.532   5.770
 3120SOL    HW210260   3.258   0.666   5.864
 3121SOL     OW10261   5.899   2.076   4.507
 3121SOL    HW110262   5.820   2.118   4.461
 3121SOL    HW210263   5.948   2.018   4.443
 3122SOL     OW10264   4.488   4.625   5.355
 3122SOL    HW110265   4.426   4.699   5.383
 3122SOL    HW210266   4.572   4.664   5.319
 3123SOL     OW10267   1.472   1.288   3.151
 3123SOL    HW110268   1.450   1.195   3.120
 3123SOL    HW210269   1.571   1.300   3.153
 3124SOL     OW10270   5.038   6.953   3.718
 3124SOL    HW110271   4.996   0.009   3.682
 3124SOL    HW210272   5.091   6.974   3.800
 3125SOL     OW10273   1.627   2.793   5.299
 3125SOL    HW110274   1.697   2.725   5.277
 3125SOL    HW210275   1.551   2.750   5.347
 3126SOL     OW10276   5.501   4.229   5.583
 3126SOL    HW110277   5.425   4.242   5.519
 3126SOL    HW210278   5.479   4.272   5.670
 3127SOL     OW10279   1.921   2.239   5.447
 3127SOL    HW110280   1.882   2.311   5.389
 3127SOL    HW210281   1.864   2.158   5.443
 3128SOL     OW10282   3.743   0.773   0.256
 3128SOL    HW110283   3.689   0.704   0.304
 3128SOL    HW210284   3.779   0.734   0.172
 3129SOL     OW10285   4.940   3.741   0.956
 3129SOL    HW110286   5.001   3.674   0.913
 3129SOL    HW210287   4.915   3.709   1.047
 3130SOL     OW10288   1.478   4.690   1.373
 3130SOL    HW110289   1.497   4.734   1.286
 3130SOL    HW210290   1.564   4.678   1.424
 3131SOL     OW10291   0.571   3.391   2.293
 3131SOL    HW110292   0.499   3.380   2.225
 3131SOL    HW210293   0.586   3.305   2.341
 3132SOL     OW10294   4.684   5.108   6.549
 3132SOL    HW110295   4.729   5.175   6.489
 3132SOL    HW210296   4.743   5.089   6.628
 3133SOL     OW10297   3.687   1.176   3.018
 3133SOL    HW110298   3.589   1.166   2.999
 3133SOL    HW210299   3.701   1.259   3.073
 3134SOL     OW10300   4.136   4.811   1.419
 3134SOL    HW110301   4.058   4.751   1.405
 3134SOL    HW210302   4.190   4.816   1.335
 3135SOL     OW10303   5.055   6.815   5.940
 3135SOL    HW110304   5.154   6.822   5.947
 3135SOL    HW210305   5.020   6.753   6.010
 3136SOL     OW10306   5.755   0.059   2.122
 3136SOL    HW110307   5.706   7.011   2.166
 3136SOL    HW210308   5.693   0.108   2.061
 3137SOL     OW10309   6.548   6.481   3.278
 3137SOL    HW110310   6.459   6.504   3.319
 3137SOL    HW210311   6.602   6.565   3.268
 3138SOL     OW10312   6.157   5.640   3.351
 3138SOL    HW110313   6.061   5.648   3.323
 3138SOL    HW210314   6.181   5.719   3.409
 3139SOL     OW10315   3.584   4.940   1.533
 3139SOL    HW110316   3.582   5.035   1.501
 3139SOL    HW210317   3.492   4.901   1.527
 3140SOL     OW10318   6.470   6.348   5.322
 3140SOL    HW110319   6.447   6.369   5.227
 3140SOL    HW210320   6.560   6.306   5.326
 3141SOL     OW10321   0.649   0.127   0.048
 3141SOL    HW110322   0.603   0.049   0.090
 3141SOL    HW210323   0.717   0.163   0.112
 3142SOL     OW10324   2.997   0.609   3.158
 3142SOL    HW110325   3.083   0.609   3.108
 3142SOL    HW210326   2.922   0.628   3.096
 3143SOL     OW10327   6.472   1.571   6.849
 3143SOL    HW110328   6.378   1.546   6.871
 3143SOL    HW210329   6.492   1.661   6.889
 3144SOL     OW10330   4.652   3.517   0.551
 3144SOL    HW110331   4.732   3.541   0.496
 3144SOL    HW210332   4.573   3.507   0.491
 3145SOL     OW10333   1.880   6.385   2.518
 3145SOL    HW110334   1.865   6.438   2.602
 3145SOL    HW210335   1.943   6.435   2.459
 3146SOL     OW10336   0.687   1.062   5.022
 3146SOL    HW110337   0.695   0.988   4.956
 3146SOL    HW210338   0.662   1.025   5.112
 3147SOL     OW10339   2.975   5.027   0.148
 3147SOL    HW110340   2.996   5.123   0.129
 3147SOL    HW210341   3.049   4.988   0.203
 3148SOL     OW10342   6.852   0.253   4.049
 3148SOL    HW110343   6.808   0.307   3.977
 3148SOL    HW210344   6.846   0.303   4.135
 3149SOL     OW10345   3.218   1.087   6.466
 3149SOL    HW110346   3.201   1.146   6.545
 3149SOL    HW210347   3.182   1.130   6.383
 3150SOL     OW10348   0.074   6.072   4.877
 3150SOL    HW110349   7.023   6.060   4.817
 3150SOL    HW210350   0.112   5.983   4.901
 3151SOL     OW10351   6.648   1.357   5.806
 3151SOL    HW110352   6.650   1.318   5.714
 3151SOL    HW210353   6.555   1.389   5.827
 3152SOL     OW10354   0.641   3.579   0.327
 3152SOL    HW110355   0.666   3.676   0.336
 3152SOL    HW210356   0.563   3.559   0.384
 3153SOL     OW10357   6.323   5.576   0.025
 3153SOL    HW110358   6.301   5.616   0.114
 3153SOL    HW210359   6.377   5.641   6.999
 3154SOL     OW10360   6.272   0.967   0.956
 3154SOL    HW110361   6.276   0.870   0.931
 3154SOL    HW210362   6.182   1.004   0.933
 3155SOL     OW10363   6.062   4.850   0.449
 3155SOL    HW110364   6.074   4.941   0.409
 3155SOL    HW210365   6.017   4.859   0.538
 3156SOL     OW10366   3.270   3.836   2.044
 3156SOL    HW110367   3.216   3.771   2.096
 3156SOL    HW210368   3.292   3.915   2.102
 3157SOL     OW10369   2.037   1.348   5.033
 3157SOL    HW110370   1.991   1.398   4.960
 3157SOL    HW210371   2.032   1.401   5.118
 3158SOL     OW10372   2.162   0.888   4.619
 3158SOL    HW110373   2.145   0.987   4.620
 3158SOL    HW210374   2.089   0.842   4.569
 3159SOL     OW10375   5.612   0.182   6.311
 3159SOL    HW110376   5.532   0.166   6.369
 3159SOL    HW210377   5.670   0.100   6.311
 3160SOL     OW10378   1.135   6.197   5.816
 3160SOL    HW110379   1.110   6.268   5.882
 3160SOL    HW210380   1.120   6.230   5.723
 3161SOL     OW10381   2.664   2.290   2.575
 3161SOL    HW110382   2.718   2.284   2.660
 3161SOL    HW210383   2.644   2.198   2.542
 3162SOL     OW10384   0.833   5.614   1.213
 3162SOL    HW110385   0.848   5.533   1.156
 3162SOL    HW210386   0.811   5.692   1.155
 3163SOL     OW10387   4.107   4.180   6.780
 3163SOL    HW110388   4.121   4.083   6.801
 3163SOL    HW210389   4.194   4.221   6.753
 3164SOL     OW10390   3.908   5.566   2.200
 3164SOL    HW110391   3.996   5.532   2.167
 3164SOL    HW210392   3.836   5.544   2.134
 3165SOL     OW10393   0.788   5.875   1.631
 3165SOL    HW110394   0.839   5.809   1.686
 3165SOL    HW210395   0.809   5.967   1.664
 3166SOL     OW10396   4.733   2.284   4.011
 3166SOL    HW110397   4.654   2.288   3.950
 3166SOL    HW210398   4.797   2.216   3.978
 3167SOL     OW10399   5.560   4.353   0.890
 3167SOL    HW110400   5.509   4.307   0.817
 3167SOL    HW210401   5.570   4.291   0.968
 3168SOL     OW10402   5.847   3.311   0.108
 3168SOL    HW110403   5.766   3.277   0.060
 3168SOL    HW210404   5.823   3.333   0.203
 3169SOL     OW10405   2.393   4.307   3.762
 3169SOL    HW110406   2.370   4.263   3.848
 3169SOL    HW210407   2.387   4.240   3.688
 3170SOL     OW10408   4.375   5.763   2.445
 3170SOL    HW110409   4.370   5.853   2.486
 3170SOL    HW210410   4.457   5.756   2.388
 3171SOL     OW10411   6.484   1.939   1.582
 3171SOL    HW110412   6.530   1.862   1.626
 3171SOL    HW210413   6.552   2.002   1.544
 3172SOL     OW10414   6.850   5.138   6.449
 3172SOL    HW110415   6.920   5.119   6.518
 3172SOL    HW210416   6.796   5.056   6.434
 3173SOL     OW10417   2.798   1.854   6.722
 3173SOL    HW110418   2.855   1.927   6.683
 3173SOL    HW210419   2.718   1.840   6.664
 3174SOL     OW10420   3.041   2.971   6.802
 3174SOL    HW110421   3.124   2.915   6.802
 3174SOL    HW210422   3.067   3.068   6.794
 3175SOL     OW10423   6.103   1.544   1.874
 3175SOL    HW110424   6.189   1.547   1.925
 3175SOL    HW210425   6.122   1.521   1.778
 3176SOL     OW10426   1.001   3.228   5.462
 3176SOL    HW110427   1.078   3.179   5.503
 3176SOL    HW210428   1.034   3.312   5.420
 3177SOL     OW10429   5.357   4.277   3.814
 3177SOL    HW110430   5.337   4.267   3.716
 3177SOL    HW210431   5.445   4.324   3.825
 3178SOL     OW10432   6.456   2.406   0.036
 3178SOL    HW110433   6.488   2.501   0.031
 3178SOL    HW210434   6.425   2.387   0.130
 3179SOL     OW10435   1.245   2.034   1.988
 3179SOL    HW110436   1.156   2.049   2.032
 3179SOL    HW210437   1.261   2.106   1.920
 3180SOL     OW10438   6.462   6.706   0.504
 3180SOL    HW110439   6.535   6.639   0.515
 3180SOL    HW210440   6.433   6.738   0.595
 3181SOL     OW10441   6.476   2.468   3.799
 3181SOL    HW110442   6.424   2.506   3.723
 3181SOL    HW210443   6.453   2.371   3.810
 3182SOL     OW10444   2.578   0.455   0.246
 3182SOL    HW110445   2.660   0.445   0.303
 3182SOL    HW210446   2.599   0.514   0.168
 3183SOL     OW10447   4.627   4.371   2.493
 3183SOL    HW110448   4.720   4.383   2.527
 3183SOL    HW210449   4.566   4.435   2.540
 3184SOL     OW10450   0.213   2.151   3.209
 3184SOL    HW110451   0.312   2.142   3.212
 3184SOL    HW210452   0.176   2.091   3.137
 3185SOL     OW10453   4.733   6.286   6.725
 3185SOL    HW110454   4.675   6.214   6.686
 3185SOL    HW210455   4.706   6.302   6.820
 3186SOL     OW10456   3.148   2.193   0.019
 3186SOL    HW110457   3.173   2.211   6.951
 3186SOL    HW210458   3.162   2.096   0.039
 3187SOL     OW10459   4.039   5.368   1.730
 3187SOL    HW110460   4.104   5.444   1.721
 3187SOL    HW210461   4.087   5.288   1.767
 3188SOL     OW10462   1.342   7.015   4.032
 3188SOL    HW110463   1.294   0.054   3.975
 3188SOL    HW210464   1.319   0.004   4.128
 3189SOL     OW10465   0.989   1.776   1.020
 3189SOL    HW110466   0.974   1.824   0.933
 3189SOL    HW210467   1.045   1.695   1.004
 3190SOL     OW10468   0.022   5.616   0.026
 3190SOL    HW110469   0.029   5.593   0.123
 3190SOL    HW210470   6.986   5.693   0.015
 3191SOL     OW10471   5.016   5.077   1.588
 3191SOL    HW110472   4.927   5.066   1.542
 3191SOL    HW210473   5.064   5.155   1.548
 3192SOL     OW10474   0.617   3.050   0.670
 3192SOL    HW110475   0.573   3.106   0.599
 3192SOL    HW210476   0.715   3.049   0.654
 3193SOL     OW10477   3.893   1.751   5.482
 3193SOL    HW110478   3.808   1.760   5.534
 3193SOL    HW210479   3.967   1.724   5.543
 3194SOL     OW10480   1.493   2.023   5.837
 3194SOL    HW110481   1.532   2.011   5.746
 3194SOL    HW210482   1.567   2.032   5.904
 3195SOL     OW10483   1.323   1.309   2.033
 3195SOL    HW110484   1.253   1.288   1.964
 3195SOL    HW210485   1.307   1.254   2.114
 3196SOL     OW10486   0.124   0.653   6.819
 3196SOL    HW110487   0.024   0.663   6.814
 3196SOL    HW210488   0.161   0.725   6.877
 3197SOL     OW10489   2.658   6.888   4.779
 3197SOL    HW110490   2.641   6.803   4.830
 3197SOL    HW210491   2.672   6.867   4.682
 3198SOL     OW10492   6.655   3.073   2.807
 3198SOL    HW110493   6.740   3.041   2.848
 3198SOL    HW210494   6.587   3.089   2.878
 3199SOL     OW10495   5.101   3.873   2.765
 3199SOL    HW110496   5.194   3.851   2.795
 3199SOL    HW210497   5.101   3.889   2.666
 3200SOL     OW10498   5.569   3.315   2.567
 3200SOL    HW110499   5.544   3.220   2.550
 3200SOL    HW210500   5.669   3.322   2.576
 3201SOL     OW10501   6.639   4.328   2.964
 3201SOL    HW110502   6.539   4.335   2.965
 3201SOL    HW210503   6.666   4.243   2.920
 3202SOL     OW10504   1.076   4.907   0.673
 3202SOL    HW110505   0.990   4.876   0.713
 3202SOL    HW210506   1.074   4.895   0.574
 3203SOL     OW10507   5.878   1.621   0.661
 3203SOL    HW110508   5.903   1.557   0.589
 3203SOL    HW210509   5.938   1.701   0.657
 3204SOL     OW10510   4.066   0.170   3.403
 3204SOL    HW110511   4.035   0.170   3.498
 3204SOL    HW210512   4.044   0.082   3.361
 3205SOL     OW10513   5.185   3.288   6.233
 3205SOL    HW110514   5.278   3.306   6.200
 3205SOL    HW210515   5.119   3.326   6.168
 3206SOL     OW10516   1.739   4.394   1.138
 3206SOL    HW110517   1.687   4.369   1.056
 3206SOL    HW210518   1.745   4.494   1.144
 3207SOL     OW10519   1.460   1.055   6.649
 3207SOL    HW110520   1.386   1.056   6.582
 3207SOL    HW210521   1.429   1.010   6.732
 3208SOL     OW10522   5.327   6.292   6.428
 3208SOL    HW110523   5.251   6.230   6.411
 3208SOL    HW210524   5.410   6.239   6.448
 3209SOL     OW10525   2.926   5.145   4.147
 3209SOL    HW110526   2.988   5.080   4.192
 3209SOL    HW210527   2.845   5.158   4.204
 3210SOL     OW10528   1.203   4.462   1.149
 3210SOL    HW110529   1.239   4.380   1.104
 3210SOL    HW210530   1.180   4.531   1.080
 3211SOL     OW10531   1.414   3.959   0.831
 3211SOL    HW110532   1.315   3.960   0.845
 3211SOL    HW210533   1.445   3.865   0.817
 3212SOL     OW10534   3.034   6.813   2.355
 3212SOL    HW110535   3.003   6.774   2.441
 3212SOL    HW210536   2.994   6.904   2.343
 3213SOL     OW10537   0.928   0.182   6.900
 3213SOL    HW110538   0.884   0.143   6.981
 3213SOL    HW210539   1.019   0.216   6.925
 3214SOL     OW10540   4.435   5.343   1.946
 3214SOL    HW110541   4.376   5.352   2.026
 3214SOL    HW210542   4.386   5.297   1.872
 3215SOL     OW10543   0.417   4.258   0.639
 3215SOL    HW110544   0.451   4.266   0.545
 3215SOL    HW210545   0.482   4.205   0.694
 3216SOL     OW10546   5.783   5.671   0.629
 3216SOL    HW110547   5.745   5.581   0.608
 3216SOL    HW210548   5.782   5.686   0.728
 3217SOL     OW10549   0.517   5.527   2.565
 3217SOL    HW110550   0.556   5.437   2.543
 3217SOL    HW210551   0.422   5.516   2.595
 3218SOL     OW10552   5.753   2.505   3.040
 3218SOL    HW110553   5.814   2.579   3.069
 3218SOL    HW210554   5.757   2.430   3.106
 3219SOL     OW10555   0.484   1.372   3.787
 3219SOL    HW110556   0.392   1.356   3.823
 3219SOL    HW210557   0.551   1.358   3.859
 3220SOL     OW10558   7.013   5.262   5.703
 3220SOL    HW110559   6.923   5.240   5.666
 3220SOL    HW210560   0.056   5.230   5.640
 3221SOL     OW10561   3.506   0.291   2.460
 3221SOL    HW110562   3.536   0.386   2.469
 3221SOL    HW210563   3.560   0.246   2.388
 3222SOL     OW10564   2.878   1.413   2.724
 3222SOL    HW110565   2.829   1.489   2.680
 3222SOL    HW210566   2.935   1.367   2.657
 3223SOL     OW10567   2.812   6.318   0.026
 3223SOL    HW110568   2.832   6.222   0.008
 3223SOL    HW210569   2.713   6.332   0.025
 3224SOL     OW10570   4.763   2.819   4.614
 3224SOL    HW110571   4.745   2.877   4.693
 3224SOL    HW210572   4.709   2.736   4.620
 3225SOL     OW10573   5.091   2.010   6.102
 3225SOL    HW110574   5.065   2.054   6.016
 3225SOL    HW210575   5.147   1.930   6.082
 3226SOL     OW10576   2.312   1.140   2.138
 3226SOL    HW110577   2.221   1.175   2.160
 3226SOL    HW210578   2.310   1.091   2.051
 3227SOL     OW10579   3.635   3.645   6.525
 3227SOL    HW110580   3.716   3.672   6.472
 3227SOL    HW210581   3.647   3.674   6.620
 3228SOL     OW10582   6.627   4.032   0.992
 3228SOL    HW110583   6.648   4.039   1.089
 3228SOL    HW210584   6.537   3.989   0.980
 3229SOL     OW10585   3.837   0.947   5.759
 3229SOL    HW110586   3.780   0.865   5.754
 3229SOL    HW210587   3.875   0.967   5.669
 3230SOL     OW10588   2.206   5.303   6.169
 3230SOL    HW110589   2.210   5.218   6.222
 3230SOL    HW210590   2.165   5.284   6.079
 3231SOL     OW10591   2.704   0.519   1.998
 3231SOL    HW110592   2.781   0.535   2.060
 3231SOL    HW210593   2.678   0.606   1.955
 3232SOL     OW10594   4.200   6.521   4.719
 3232SOL    HW110595   4.205   6.620   4.728
 3232SOL    HW210596   4.289   6.486   4.688
 3233SOL     OW10597   6.678   2.343   0.687
 3233SOL    HW110598   6.659   2.359   0.784
 3233SOL    HW210599   6.597   2.368   0.633
 3234SOL     OW10600   0.643   2.462   0.274
 3234SOL    HW110601   0.676   2.543   0.226
 3234SOL    HW210602   0.720   2.401   0.294
 3235SOL     OW10603   6.973   6.963   1.447
 3235SOL    HW110604   6.985   0.003   1.521
 3235SOL    HW210605   6.882   6.922   1.455
 3236SOL     OW10606   0.673   4.009   0.350
 3236SOL    HW110607   0.771   4.010   0.369
 3236SOL    HW210608   0.658   3.986   0.254
 3237SOL     OW10609   6.203   1.336   2.139
 3237SOL    HW110610   6.248   1.393   2.208
 3237SOL    HW210611   6.105   1.331   2.160
 3238SOL     OW10612   6.125   5.297   6.780
 3238SOL    HW110613   6.216   5.256   6.792
 3238SOL    HW210614   6.093   5.333   6.868
 3239SOL     OW10615   0.480   1.220   2.579
 3239SOL    HW110616   0.453   1.316   2.567
 3239SOL    HW210617   0.571   1.216   2.619
 3240SOL     OW10618   0.115   6.334   6.281
 3240SOL    HW110619   0.136   6.380   6.367
 3240SOL    HW210620   0.070   6.398   6.219
 3241SOL     OW10621   4.910   1.018   5.737
 3241SOL    HW110622   4.865   0.966   5.665
 3241SOL    HW210623   4.867   1.107   5.747
 3242SOL     OW10624   4.427   4.435   6.476
 3242SOL    HW110625   4.362   4.508   6.455
 3242SOL    HW210626   4.510   4.475   6.514
 3243SOL     OW10627   4.300   4.897   0.687
 3243SOL    HW110628   4.373   4.934   0.745
 3243SOL    HW210629   4.326   4.806   0.655
 3244SOL     OW10630   4.893   6.271   0.045
 3244SOL    HW110631   4.951   6.242   6.996
 3244SOL    HW210632   4.812   6.318   0.010
 3245SOL     OW10633   5.297   2.762   3.918
 3245SOL    HW110634   5.393   2.736   3.914
 3245SOL    HW210635   5.250   2.709   3.989
 3246SOL     OW10636   6.791   6.895   3.033
 3246SOL    HW110637   6.717   6.906   2.967
 3246SOL    HW210638   6.805   6.798   3.052
 3247SOL     OW10639   5.928   4.337   2.084
 3247SOL    HW110640   6.016   4.350   2.130
 3247SOL    HW210641   5.938   4.358   1.987
 3248SOL     OW10642   5.734   2.580   2.186
 3248SOL    HW110643   5.673   2.657   2.207
 3248SOL    HW210644   5.732   2.515   2.262
 3249SOL     OW10645   3.410   4.191   3.452
 3249SOL    HW110646   3.425   4.268   3.514
 3249SOL    HW210647   3.488   4.129   3.456
 3250SOL     OW10648   5.893   0.196   2.367
 3250SOL    HW110649   5.904   0.161   2.274
 3250SOL    HW210650   5.813   0.257   2.370
 3251SOL     OW10651   3.552   0.602   3.470
 3251SOL    HW110652   3.582   0.697   3.460
 3251SOL    HW210653   3.453   0.599   3.480
 3252SOL     OW10654   2.878   1.022   2.576
 3252SOL    HW110655   2.842   1.034   2.668
 3252SOL    HW210656   2.804   1.027   2.510
 3253SOL     OW10657   4.611   3.282   1.146
 3253SOL    HW110658   4.609   3.373   1.104
 3253SOL    HW210659   4.554   3.219   1.093
 3254SOL     OW10660   4.651   5.932   6.901
 3254SOL    HW110661   4.702   5.894   6.978
 3254SOL    HW210662   4.687   6.023   6.880
 3255SOL     OW10663   4.065   6.599   1.494
 3255SOL    HW110664   4.147   6.544   1.475
 3255SOL    HW210665   4.092   6.695   1.506
 3256SOL     OW10666   3.655   1.172   1.064
 3256SOL    HW110667   3.570   1.198   1.111
 3256SOL    HW210668   3.724   1.241   1.080
 3257SOL     OW10669   1.370   1.651   1.765
 3257SOL    HW110670   1.309   1.677   1.690
 3257SOL    HW210671   1.348   1.704   1.847
 3258SOL     OW10672   4.487   6.000   2.549
 3258SOL    HW110673   4.569   5.969   2.598
 3258SOL    HW210674   4.410   6.007   2.613
 3259SOL     OW10675   4.913   4.891   5.087
 3259SOL    HW110676   4.996   4.853   5.127
 3259SOL    HW210677   4.897   4.850   4.997
 3260SOL     OW10678   1.944   2.407   1.181
 3260SOL    HW110679   1.871   2.423   1.247
 3260SOL    HW210680   2.032   2.404   1.229
 3261SOL     OW10681   5.605   0.716   1.361
 3261SOL    HW110682   5.541   0.639   1.356
 3261SOL    HW210683   5.622   0.739   1.457
 3262SOL     OW10684   3.687   2.111   2.487
 3262SOL    HW110685   3.595   2.146   2.501
 3262SOL    HW210686   3.715   2.056   2.566
 3263SOL     OW10687   2.994   1.450   2.971
 3263SOL    HW110688   2.977   1.545   2.995
 3263SOL    HW210689   2.957   1.431   2.880
 3264SOL     OW10690   1.796   5.796   1.133
 3264SOL    HW110691   1.733   5.740   1.186
 3264SOL    HW210692   1.752   5.824   1.048
 3265SOL     OW10693   4.693   7.003   6.251
 3265SOL    HW110694   4.607   0.026   6.247
 3265SOL    HW210695   4.763   0.032   6.295
 3266SOL     OW10696   2.405   4.130   0.082
 3266SOL    HW110697   2.375   4.123   0.177
 3266SOL    HW210698   2.327   4.150   0.024
 3267SOL     OW10699   3.079   6.194   1.776
 3267SOL    HW110700   3.089   6.292   1.763
 3267SOL    HW210701   2.983   6.173   1.800
 3268SOL     OW10702   2.672   4.001   1.644
 3268SOL    HW110703   2.695   4.034   1.552
 3268SOL    HW210704   2.636   4.076   1.699
 3269SOL     OW10705   5.422   5.909   2.562
 3269SOL    HW110706   5.508   5.948   2.594
 3269SOL    HW210707   5.364   5.888   2.640
 3270SOL     OW10708   1.522   4.396   6.696
 3270SOL    HW110709   1.576   4.480   6.698
 3270SOL    HW210710   1.561   4.329   6.760
 3271SOL     OW10711   6.171   3.182   1.447
 3271SOL    HW110712   6.199   3.118   1.375
 3271SOL    HW210713   6.114   3.134   1.513
 3272SOL     OW10714   2.799   4.484   6.036
 3272SOL    HW110715   2.869   4.528   6.093
 3272SOL    HW210716   2.723   4.547   6.021
 3273SOL     OW10717   6.300   5.086   6.890
 3273SOL    HW110718   6.344   5.099   6.979
 3273SOL    HW210719   6.321   4.994   6.855
 3274SOL     OW10720   5.653   0.400   0.907
 3274SOL    HW110721   5.696   0.452   0.981
 3274SOL    HW210722   5.721   0.339   0.866
 3275SOL     OW10723   5.157   1.013   0.077
 3275SOL    HW110724   5.224   0.984   0.145
 3275SOL    HW210725   5.143   1.111   0.084
 3276SOL     OW10726   4.043   5.960   6.706
 3276SOL    HW110727   3.961   5.922   6.749
 3276SOL    HW210728   4.123   5.940   6.762
 3277SOL     OW10729   3.133   0.931   0.908
 3277SOL    HW110730   3.109   0.843   0.950
 3277SOL    HW210731   3.229   0.931   0.882
 3278SOL     OW10732   1.301   0.931   5.594
 3278SOL    HW110733   1.295   0.992   5.672
 3278SOL    HW210734   1.210   0.921   5.553
 3279SOL     OW10735   5.085   6.759   0.205
 3279SOL    HW110736   5.184   6.745   0.206
 3279SOL    HW210737   5.047   6.717   0.122
 3280SOL     OW10738   5.079   4.490   4.668
 3280SOL    HW110739   5.096   4.394   4.646
 3280SOL    HW210740   4.992   4.519   4.627
 3281SOL     OW10741   0.865   4.829   1.209
 3281SOL    HW110742   0.951   4.814   1.258
 3281SOL    HW210743   0.789   4.827   1.274
 3282SOL     OW10744   0.032   4.353   4.817
 3282SOL    HW110745   0.049   4.421   4.888
 3282SOL    HW210746   0.049   4.393   4.727
 3283SOL     OW10747   3.171   1.177   1.056
 3283SOL    HW110748   3.184   1.093   1.005
 3283SOL    HW210749   3.075   1.184   1.084
 3284SOL     OW10750   0.937   5.926   6.572
 3284SOL    HW110751   0.955   5.945   6.475
 3284SOL    HW210752   0.863   5.985   6.604
 3285SOL     OW10753   4.379   2.376   4.112
 3285SOL    HW110754   4.398   2.291   4.161
 3285SOL    HW210755   4.401   2.454   4.171
 3286SOL     OW10756   4.051   3.409   2.237
 3286SOL    HW110757   3.958   3.416   2.274
 3286SOL    HW210758   4.114   3.385   2.311
 3287SOL     OW10759   0.408   0.197   0.337
 3287SOL    HW110760   0.487   0.228   0.390
 3287SOL    HW210761   0.387   0.102   0.361
 3288SOL     OW10762   1.822   6.187   0.302
 3288SOL    HW110763   1.725   6.197   0.324
 3288SOL    HW210764   1.842   6.234   0.216
 3289SOL     OW10765   3.329   1.097   5.677
 3289SOL    HW110766   3.403   1.114   5.743
 3289SOL    HW210767   3.249   1.064   5.726
 3290SOL     OW10768   6.850   4.913   0.929
 3290SOL    HW110769   6.904   4.997   0.936
 3290SOL    HW210770   6.908   4.840   0.893
 3291SOL     OW10771   2.008   0.624   6.437
 3291SOL    HW110772   1.993   0.696   6.368
 3291SOL    HW210773   1.988   0.661   6.528
 3292SOL     OW10774   0.140   0.961   0.885
 3292SOL    HW110775   0.144   0.863   0.903
 3292SOL    HW210776   0.067   0.980   0.820
 3293SOL     OW10777   6.211   4.545   1.704
 3293SOL    HW110778   6.254   4.595   1.779
 3293SOL    HW210779   6.116   4.576   1.693
 3294SOL     OW10780   5.396   3.333   6.053
 3294SOL    HW110781   5.469   3.266   6.040
 3294SOL    HW210782   5.436   3.425   6.056
 3295SOL     OW10783   1.221   2.921   2.016
 3295SOL    HW110784   1.237   2.996   1.951
 3295SOL    HW210785   1.283   2.845   1.996
 3296SOL     OW10786   1.374   0.816   2.537
 3296SOL    HW110787   1.368   0.854   2.630
 3296SOL    HW210788   1.356   0.717   2.540
 3297SOL     OW10789   2.780   1.796   5.428
 3297SOL    HW110790   2.794   1.697   5.438
 3297SOL    HW210791   2.715   1.827   5.496
 3298SOL     OW10792   5.881   2.041   5.844
 3298SOL    HW110793   5.891   1.959   5.901
 3298SOL    HW210794   5.858   2.119   5.903
 3299SOL     OW10795   3.586   6.010   2.944
 3299SOL    HW110796   3.675   6.043   2.975
 3299SOL    HW210797   3.517   6.027   3.015
 3300SOL     OW10798   0.984   0.281   6.199
 3300SOL    HW110799   1.034   0.195   6.212
 3300SOL    HW210800   1.020   0.329   6.119
 3301SOL     OW10801   2.087   3.230   3.405
 3301SOL    HW110802   2.065   3.232   3.307
 3301SOL    HW210803   2.004   3.209   3.457
 3302SOL     OW10804   0.938   4.961   5.186
 3302SOL    HW110805   0.905   4.867   5.189
 3302SOL    HW210806   0.979   4.985   5.274
 3303SOL     OW10807   3.182   3.376   0.387
 3303SOL    HW110808   3.088   3.408   0.400
 3303SOL    HW210809   3.198   3.360   0.289
 3304SOL     OW10810   2.249   5.710   5.679
 3304SOL    HW110811   2.262   5.801   5.639
 3304SOL    HW210812   2.291   5.642   5.620
 3305SOL     OW10813   2.123   1.666   2.485
 3305SOL    HW110814   2.120   1.740   2.418
 3305SOL    HW210815   2.152   1.582   2.440
 3306SOL     OW10816   2.163   5.583   5.331
 3306SOL    HW110817   2.203   5.660   5.281
 3306SOL    HW210818   2.064   5.596   5.339
 3307SOL     OW10819   0.783   6.109   6.670
 3307SOL    HW110820   0.844   6.180   6.706
 3307SOL    HW210821   0.738   6.143   6.587
 3308SOL     OW10822   2.729   5.683   1.675
 3308SOL    HW110823   2.772   5.613   1.618
 3308SOL    HW210824   2.645   5.647   1.716
 3309SOL     OW10825   6.126   5.349   3.734
 3309SOL    HW110826   6.083   5.283   3.674
 3309SOL    HW210827   6.183   5.412   3.681
 3310SOL     OW10828   0.314   4.238   5.483
 3310SOL    HW110829   0.342   4.324   5.525
 3310SOL    HW210830   0.224   4.211   5.518
 3311SOL     OW10831   3.780   4.463   0.502
 3311SOL    HW110832   3.814   4.395   0.437
 3311SOL    HW210833   3.736   4.416   0.579
 3312SOL     OW10834   4.071   4.181   5.693
 3312SOL    HW110835   4.157   4.168   5.741
 3312SOL    HW210836   4.084   4.246   5.618
 3313SOL     OW10837   0.673   6.526   3.904
 3313SOL    HW110838   0.689   6.586   3.982
 3313SOL    HW210839   0.713   6.436   3.922
 3314SOL     OW10840   2.154   1.498   2.267
 3314SOL    HW110841   2.088   1.435   2.227
 3314SOL    HW210842   2.222   1.447   2.320
 3315SOL     OW10843   0.168   4.061   4.818
 3315SOL    HW110844   0.205   4.147   4.854
 3315SOL    HW210845   0.100   4.026   4.882
 3316SOL     OW10846   5.247   1.025   5.155
 3316SOL    HW110847   5.327   0.968   5.136
 3316SOL    HW210848   5.239   1.039   5.254
 3317SOL     OW10849   4.975   2.723   1.994
 3317SOL    HW110850   5.060   2.758   2.032
 3317SOL    HW210851   4.898   2.763   2.043
 3318SOL     OW10852   2.124   1.413   1.271
 3318SOL    HW110853   2.096   1.443   1.362
 3318SOL    HW210854   2.173   1.326   1.278
 3319SOL     OW10855   5.893   1.239   3.500
 3319SOL    HW110856   5.860   1.278   3.586
 3319SOL    HW210857   5.978   1.189   3.517
 3320SOL     OW10858   6.114   1.133   5.981
 3320SOL    HW110859   6.147   1.068   6.050
 3320SOL    HW210860   6.084   1.217   6.027
 3321SOL     OW10861   5.478   2.011   0.483
 3321SOL    HW110862   5.413   1.968   0.545
 3321SOL    HW210863   5.549   1.946   0.457
 3322SOL     OW10864   6.664   2.437   0.974
 3322SOL    HW110865   6.593   2.503   1.000
 3322SOL    HW210866   6.714   2.408   1.056
 3323SOL     OW10867   3.169   3.043   0.146
 3323SOL    HW110868   3.098   2.974   0.131
 3323SOL    HW210869   3.188   3.051   0.244
 3324SOL     OW10870   3.746   4.758   6.635
 3324SOL    HW110871   3.840   4.752   6.667
 3324SOL    HW210872   3.685   4.765   6.714
 3325SOL     OW10873   0.047   3.816   6.766
 3325SOL    HW110874   0.003   3.774   6.845
 3325SOL    HW210875   0.028   3.761   6.685
 3326SOL     OW10876   5.010   2.036   1.808
 3326SOL    HW110877   5.084   2.045   1.875
 3326SOL    HW210878   5.006   1.941   1.776
 3327SOL     OW10879   3.185   5.332   1.945
 3327SOL    HW110880   3.101   5.369   1.907
 3327SOL    HW210881   3.175   5.322   2.044
 3328SOL     OW10882   4.488   2.307   0.735
 3328SOL    HW110883   4.517   2.292   0.830
 3328SOL    HW210884   4.390   2.292   0.728
 3329SOL     OW10885   6.024   0.400   4.740
 3329SOL    HW110886   6.016   0.303   4.715
 3329SOL    HW210887   6.065   0.451   4.664
 3330SOL     OW10888   6.517   4.027   1.955
 3330SOL    HW110889   6.492   4.034   1.859
 3330SOL    HW210890   6.563   4.111   1.984
 3331SOL     OW10891   2.273   2.957   1.743
 3331SOL    HW110892   2.262   3.056   1.738
 3331SOL    HW210893   2.193   2.917   1.788
 3332SOL     OW10894   5.483   5.776   0.112
 3332SOL    HW110895   5.571   5.798   0.154
 3332SOL    HW210896   5.462   5.679   0.127
 3333SOL     OW10897   4.174   5.300   6.649
 3333SOL    HW110898   4.250   5.235   6.649
 3333SOL    HW210899   4.120   5.289   6.733
 3334SOL     OW10900   3.269   3.848   1.626
 3334SOL    HW110901   3.322   3.886   1.702
 3334SOL    HW210902   3.172   3.850   1.650
 3335SOL     OW10903   4.465   6.029   5.867
 3335SOL    HW110904   4.547   5.986   5.829
 3335SOL    HW210905   4.390   5.962   5.866
 3336SOL     OW10906   2.789   5.497   4.885
 3336SOL    HW110907   2.789   5.405   4.925
 3336SOL    HW210908   2.796   5.565   4.958
 3337SOL     OW10909   2.985   3.772   2.383
 3337SOL    HW110910   2.992   3.706   2.309
 3337SOL    HW210911   2.947   3.858   2.348
 3338SOL     OW10912   5.893   2.816   1.491
 3338SOL    HW110913   5.815   2.878   1.501
 3338SOL    HW210914   5.888   2.771   1.402
 3339SOL     OW10915   6.393   6.788   6.603
 3339SOL    HW110916   6.384   6.713   6.669
 3339SOL    HW210917   6.311   6.844   6.604
 3340SOL     OW10918   3.663   0.361   2.060
 3340SOL    HW110919   3.673   0.398   1.968
 3340SOL    HW210920   3.628   0.267   2.054
 3341SOL     OW10921   1.025   6.281   3.548
 3341SOL    HW110922   1.032   6.259   3.646
 3341SOL    HW210923   0.944   6.338   3.533
 3342SOL     OW10924   2.615   6.685   3.966
 3342SOL    HW110925   2.656   6.623   3.899
 3342SOL    HW210926   2.529   6.721   3.928
 3343SOL     OW10927   4.641   2.978   0.607
 3343SOL    HW110928   4.626   2.948   0.701
 3343SOL    HW210929   4.675   3.072   0.608
 3344SOL     OW10930   6.145   3.396   4.236
 3344SOL    HW110931   6.127   3.449   4.153
 3344SOL    HW210932   6.077   3.418   4.305
 3345SOL     OW10933   1.622   3.663   5.660
 3345SOL    HW110934   1.659   3.579   5.700
 3345SOL    HW210935   1.548   3.698   5.717
 3346SOL     OW10936   1.844   0.716   0.906
 3346SOL    HW110937   1.789   0.744   0.827
 3346SOL    HW210938   1.940   0.742   0.890
 3347SOL     OW10939   0.423   4.466   4.027
 3347SOL    HW110940   0.514   4.445   3.989
 3347SOL    HW210941   0.400   4.399   4.098
 3348SOL     OW10942   3.036   3.240   3.653
 3348SOL    HW110943   3.032   3.230   3.553
 3348SOL    HW210944   2.979   3.317   3.681
 3349SOL     OW10945   1.031   5.423   3.925
 3349SOL    HW110946   0.996   5.407   4.017
 3349SOL    HW210947   1.098   5.351   3.902
 3350SOL     OW10948   1.573   2.463   5.594
 3350SOL    HW110949   1.511   2.419   5.658
 3350SOL    HW210950   1.569   2.416   5.506
 3351SOL     OW10951   5.430   0.536   2.703
 3351SOL    HW110952   5.372   0.608   2.742
 3351SOL    HW210953   5.372   0.468   2.657
 3352SOL     OW10954   0.380   2.271   0.540
 3352SOL    HW110955   0.383   2.287   0.442
 3352SOL    HW210956   0.287   2.282   0.573
 3353SOL     OW10957   1.413   6.201   1.940
 3353SOL    HW110958   1.461   6.115   1.919
 3353SOL    HW210959   1.318   6.193   1.910
 3354SOL     OW10960   5.263   2.450   4.716
 3354SOL    HW110961   5.332   2.491   4.657
 3354SOL    HW210962   5.179   2.505   4.714
 3355SOL     OW10963   1.578   1.678   0.357
 3355SOL    HW110964   1.508   1.608   0.342
 3355SOL    HW210965   1.668   1.636   0.346
 3356SOL     OW10966   2.257   3.825   6.419
 3356SOL    HW110967   2.273   3.742   6.365
 3356SOL    HW210968   2.184   3.809   6.486
 3357SOL     OW10969   2.567   4.695   1.875
 3357SOL    HW110970   2.642   4.652   1.924
 3357SOL    HW210971   2.597   4.722   1.783
 3358SOL     OW10972   5.129   0.465   0.855
 3358SOL    HW110973   5.038   0.506   0.868
 3358SOL    HW210974   5.130   0.416   0.768
 3359SOL     OW10975   6.660   0.395   3.615
 3359SOL    HW110976   6.706   0.310   3.638
 3359SOL    HW210977   6.569   0.396   3.656
 3360SOL     OW10978   0.862   0.920   6.937
 3360SOL    HW110979   0.921   0.981   6.884
 3360SOL    HW210980   0.766   0.945   6.923
 3361SOL     OW10981   0.587   4.043   2.636
 3361SOL    HW110982   0.542   3.962   2.599
 3361SOL    HW210983   0.537   4.075   2.717
 3362SOL     OW10984   3.751   1.231   3.896
 3362SOL    HW110985   3.675   1.271   3.947
 3362SOL    HW210986   3.746   1.131   3.902
 3363SOL     OW10987   0.013   0.174   0.101
 3363SOL    HW110988   6.962   0.113   0.110
 3363SOL    HW210989   0.058   0.159   0.013
 3364SOL     OW10990   1.437   4.929   3.871
 3364SOL    HW110991   1.459   4.859   3.938
 3364SOL    HW210992   1.343   4.917   3.839
 3365SOL     OW10993   0.761   2.158   5.497
 3365SOL    HW110994   0.716   2.173   5.409
 3365SOL    HW210995   0.713   2.085   5.546
 3366SOL     OW10996   5.879   0.291   6.191
 3366SOL    HW110997   5.861   0.381   6.152
 3366SOL    HW210998   5.793   0.242   6.202
 3367SOL     OW10999   3.338   2.807   1.440
 3367SOL    HW111000   3.417   2.851   1.481
 3367SOL    HW211001   3.346   2.811   1.340
 3368SOL     OW11002   0.947   5.365   6.150
 3368SOL    HW111003   1.016   5.427   6.185
 3368SOL    HW211004   0.897   5.409   6.075
 3369SOL     OW11005   3.668   2.644   5.772
 3369SOL    HW111006   3.678   2.549   5.803
 3369SOL    HW211007   3.680   2.648   5.673
 3370SOL     OW11008   6.778   6.114   5.832
 3370SOL    HW111009   6.759   6.096   5.928
 3370SOL    HW211010   6.872   6.087   5.810
 3371SOL     OW11011   1.473   3.859   2.202
 3371SOL    HW111012   1.548   3.858   2.135
 3371SOL    HW211013   1.419   3.776   2.192
 3372SOL     OW11014   0.606   1.285   1.165
 3372SOL    HW111015   0.638   1.245   1.079
 3372SOL    HW211016   0.530   1.347   1.146
 3373SOL     OW11017   0.104   1.718   3.248
 3373SOL    HW111018   0.178   1.661   3.283
 3373SOL    HW211019   0.059   1.671   3.171
 3374SOL     OW11020   2.270   6.100   4.621
 3374SOL    HW111021   2.227   6.050   4.546
 3374SOL    HW211022   2.368   6.113   4.600
 3375SOL     OW11023   5.343   4.916   6.100
 3375SOL    HW111024   5.407   4.889   6.171
 3375SOL    HW211025   5.263   4.960   6.142
 3376SOL     OW11026   3.298   3.113   3.617
 3376SOL    HW111027   3.213   3.154   3.650
 3376SOL    HW211028   3.369   3.183   3.614
 3377SOL     OW11029   0.405   6.755   4.544
 3377SOL    HW111030   0.390   6.667   4.498
 3377SOL    HW211031   0.326   6.814   4.528
 3378SOL     OW11032   6.645   0.790   0.595
 3378SOL    HW111033   6.607   0.725   0.529
 3378SOL    HW211034   6.602   0.879   0.581
 3379SOL     OW11035   6.820   5.715   6.498
 3379SOL    HW111036   6.810   5.642   6.430
 3379SOL    HW211037   6.821   5.675   6.589
 3380SOL     OW11038   5.560   6.879   5.799
 3380SOL    HW111039   5.641   6.864   5.857
 3380SOL    HW211040   5.590   6.905   5.708
 3381SOL     OW11041   1.233   2.956   1.253
 3381SOL    HW111042   1.166   2.960   1.327
 3381SOL    HW211043   1.218   3.033   1.191
 3382SOL     OW11044   0.878   0.371   0.531
 3382SOL    HW111045   0.817   0.439   0.573
 3382SOL    HW211046   0.938   0.333   0.601
 3383SOL     OW11047   4.295   5.667   2.710
 3383SOL    HW111048   4.208   5.622   2.728
 3383SOL    HW211049   4.307   5.678   2.611
 3384SOL     OW11050   2.597   3.713   5.360
 3384SOL    HW111051   2.695   3.705   5.341
 3384SOL    HW211052   2.569   3.640   5.421
 3385SOL     OW11053   0.078   3.353   3.850
 3385SOL    HW111054   0.164   3.312   3.879
 3385SOL    HW211055   0.003   3.313   3.904
 3386SOL     OW11056   6.957   3.246   6.365
 3386SOL    HW111057   6.878   3.188   6.384
 3386SOL    HW211058   6.962   3.320   6.433
 3387SOL     OW11059   3.039   1.539   3.900
 3387SOL    HW111060   3.049   1.448   3.859
 3387SOL    HW211061   2.948   1.574   3.881
 3388SOL     OW11062   5.271   3.456   1.935
 3388SOL    HW111063   5.199   3.403   1.892
 3388SOL    HW211064   5.350   3.461   1.874
 3389SOL     OW11065   5.300   5.341   4.779
 3389SOL    HW111066   5.399   5.346   4.794
 3389SOL    HW211067   5.253   5.350   4.866
 3390SOL     OW11068   5.397   4.379   5.799
 3390SOL    HW111069   5.309   4.386   5.752
 3390SOL    HW211070   5.383   4.341   5.890
 3391SOL     OW11071   5.323   2.746   4.818
 3391SOL    HW111072   5.409   2.773   4.861
 3391SOL    HW211073   5.278   2.678   4.876
 3392SOL     OW11074   2.985   6.974   3.460
 3392SOL    HW111075   2.895   6.966   3.503
 3392SOL    HW211076   3.054   6.929   3.517
 3393SOL     OW11077   0.515   6.338   7.011
 3393SOL    HW111078   0.566   6.297   0.060
 3393SOL    HW211079   0.447   6.273   6.978
 3394SOL     OW11080   6.225   2.867   0.789
 3394SOL    HW111081   6.148   2.921   0.823
 3394SOL    HW211082   6.192   2.778   0.758
 3395SOL     OW11083   5.968   3.434   3.779
 3395SOL    HW111084   5.881   3.427   3.730
 3395SOL    HW211085   6.027   3.357   3.753
 3396SOL     OW11086   5.689   2.238   3.479
 3396SOL    HW111087   5.690   2.144   3.513
 3396SOL    HW211088   5.753   2.294   3.532
 3397SOL     OW11089   2.715   0.957   5.781
 3397SOL    HW111090   2.787   0.940   5.713
 3397SOL    HW211091   2.722   1.051   5.814
 3398SOL     OW11092   1.084   6.710   3.934
 3398SOL    HW111093   0.990   6.731   3.910
 3398SOL    HW211094   1.146   6.755   3.870
 3399SOL     OW11095   5.652   4.291   4.650
 3399SOL    HW111096   5.581   4.361   4.656
 3399SOL    HW211097   5.707   4.306   4.568
 3400SOL     OW11098   4.938   2.146   5.834
 3400SOL    HW111099   5.002   2.217   5.805
 3400SOL    HW211100   4.875   2.125   5.760
 3401SOL     OW11101   6.833   3.385   0.494
 3401SOL    HW111102   6.863   3.345   0.580
 3401SOL    HW211103   6.770   3.461   0.514
 3402SOL     OW11104   3.899   6.433   0.028
 3402SOL    HW111105   3.809   6.476   0.032
 3402SOL    HW211106   3.945   6.444   0.117
 3403SOL     OW11107   4.446   6.819   4.943
 3403SOL    HW111108   4.414   6.758   5.015
 3403SOL    HW211109   4.494   6.766   4.874
 3404SOL     OW11110   5.399   1.760   0.080
 3404SOL    HW111111   5.392   1.672   0.033
 3404SOL    HW211112   5.493   1.793   0.076
 3405SOL     OW11113   6.713   3.818   4.431
 3405SOL    HW111114   6.809   3.808   4.406
 3405SOL    HW211115   6.690   3.915   4.438
 3406SOL     OW11116   0.817   3.699   2.515
 3406SOL    HW111117   0.734   3.654   2.545
 3406SOL    HW211118   0.810   3.798   2.531
 3407SOL     OW11119   1.634   5.541   0.292
 3407SOL    HW111120   1.590   5.566   0.378
 3407SOL    HW211121   1.568   5.550   0.217
 3408SOL     OW11122   4.922   4.091   5.121
 3408SOL    HW111123   4.964   4.010   5.081
 3408SOL    HW211124   4.935   4.090   5.220
 3409SOL     OW11125   3.426   6.038   6.537
 3409SOL    HW111126   3.383   6.107   6.596
 3409SOL    HW211127   3.396   6.052   6.442
 3410SOL     OW11128   6.874   5.816   6.968
 3410SOL    HW111129   6.807   5.866   7.023
 3410SOL    HW211130   6.913   5.878   6.900
 3411SOL     OW11131   0.367   2.535   1.756
 3411SOL    HW111132   0.396   2.516   1.850
 3411SOL    HW211133   0.398   2.626   1.729
 3412SOL     OW11134   4.403   2.607   6.686
 3412SOL    HW111135   4.423   2.526   6.630
 3412SOL    HW211136   4.477   2.673   6.676
 3413SOL     OW11137   5.343   0.802   1.692
 3413SOL    HW111138   5.367   0.706   1.678
 3413SOL    HW211139   5.424   0.854   1.718
 3414SOL     OW11140   1.939   1.166   5.982
 3414SOL    HW111141   1.921   1.139   6.077
 3414SOL    HW211142   2.023   1.123   5.950
 3415SOL     OW11143   1.546   4.005   4.596
 3415SOL    HW111144   1.580   4.094   4.627
 3415SOL    HW211145   1.498   3.960   4.672
 3416SOL     OW11146   7.003   5.955   0.487
 3416SOL    HW111147   6.951   5.869   0.484
 3416SOL    HW211148   0.066   5.940   0.447
 3417SOL     OW11149   0.452   6.011   3.306
 3417SOL    HW111150   0.451   6.111   3.316
 3417SOL    HW211151   0.421   5.969   3.392
 3418SOL     OW11152   3.620   0.490   5.005
 3418SOL    HW111153   3.650   0.430   5.078
 3418SOL    HW211154   3.620   0.440   4.918
 3419SOL     OW11155   4.458   5.995   5.017
 3419SOL    HW111156   4.504   5.910   5.042
 3419SOL    HW211157   4.482   6.066   5.083
 3420SOL     OW11158   5.867   3.268   4.040
 3420SOL    HW111159   5.804   3.336   4.005
 3420SOL    HW211160   5.856   3.261   4.140
 3421SOL     OW11161   5.660   0.990   6.368
 3421SOL    HW111162   5.628   0.907   6.322
 3421SOL    HW211163   5.760   0.991   6.370
 3422SOL     OW11164   1.923   6.998   1.265
 3422SOL    HW111165   2.005   6.965   1.314
 3422SOL    HW211166   1.854   7.025   1.332
 3423SOL     OW11167   2.227   6.553   0.875
 3423SOL    HW111168   2.153   6.536   0.810
 3423SOL    HW211169   2.196   6.616   0.946
 3424SOL     OW11170   2.965   0.079   2.232
 3424SOL    HW111171   2.875   0.037   2.216
 3424SOL    HW211172   2.956   0.152   2.299
 3425SOL     OW11173   5.575   4.212   2.344
 3425SOL    HW111174   5.604   4.199   2.438
 3425SOL    HW211175   5.508   4.142   2.320
 3426SOL     OW11176   3.313   2.955   0.686
 3426SOL    HW111177   3.373   3.004   0.749
 3426SOL    HW211178   3.288   2.866   0.725
 3427SOL     OW11179   6.489   6.611   7.014
 3427SOL    HW111180   6.489   6.702   0.029
 3427SOL    HW211181   6.402   6.566   0.005
 3428SOL     OW11182   3.027   4.938   1.410
 3428SOL    HW111183   3.039   5.025   1.362
 3428SOL    HW211184   3.088   4.935   1.489
 3429SOL     OW11185   0.764   1.903   6.914
 3429SOL    HW111186   0.700   1.913   6.837
 3429SOL    HW211187   0.724   1.944   6.996
 3430SOL     OW11188   0.083   6.252   5.104
 3430SOL    HW111189   0.071   6.200   5.019
 3430SOL    HW211190   0.020   6.330   5.104
 3431SOL     OW11191   2.012   6.662   1.184
 3431SOL    HW111192   2.056   6.572   1.186
 3431SOL    HW211193   2.062   6.722   1.121
 3432SOL     OW11194   2.247   2.655   0.049
 3432SOL    HW111195   2.192   2.682   0.128
 3432SOL    HW211196   2.245   2.556   0.039
 3433SOL     OW11197   1.342   6.922   6.505
 3433SOL    HW111198   1.330   7.002   6.565
 3433SOL    HW211199   1.254   6.898   6.465
 3434SOL     OW11200   4.743   2.395   0.633
 3434SOL    HW111201   4.649   2.366   0.654
 3434SOL    HW211202   4.768   2.471   0.694
 3435SOL     OW11203   1.125   1.235   0.996
 3435SOL    HW111204   1.188   1.203   0.926
 3435SOL    HW211205   1.144   1.188   1.082
 3436SOL     OW11206   3.239   6.595   6.040
 3436SOL    HW111207   3.329   6.619   6.074
 3436SOL    HW211208   3.222   6.641   5.953
 3437SOL     OW11209   3.090   1.069   5.874
 3437SOL    HW111210   3.136   0.983   5.854
 3437SOL    HW211211   3.035   1.060   5.957
 3438SOL     OW11212   1.279   2.480   0.648
 3438SOL    HW111213   1.355   2.426   0.611
 3438SOL    HW211214   1.205   2.418   0.675
 3439SOL     OW11215   2.032   6.376   5.326
 3439SOL    HW111216   2.112   6.331   5.286
 3439SOL    HW211217   2.061   6.436   5.401
 3440SOL     OW11218   3.842   3.372   1.747
 3440SOL    HW111219   3.861   3.298   1.812
 3440SOL    HW211220   3.909   3.446   1.761
 3441SOL     OW11221   5.171   7.005   3.959
 3441SOL    HW111222   5.254   0.032   3.967
 3441SOL    HW211223   5.190   6.909   3.981
 3442SOL     OW11224   3.538   4.948   2.751
 3442SOL    HW111225   3.576   4.891   2.824
 3442SOL    HW211226   3.550   5.045   2.775
 3443SOL     OW11227   5.411   6.761   1.503
 3443SOL    HW111228   5.339   6.699   1.471
 3443SOL    HW211229   5.373   6.826   1.569
 3444SOL     OW11230   5.001   5.973   0.798
 3444SOL    HW111231   4.913   5.932   0.820
 3444SOL    HW211232   5.029   5.945   0.707
 3445SOL     OW11233   6.406   5.856   4.587
 3445SOL    HW111234   6.454   5.900   4.512
 3445SOL    HW211235   6.325   5.809   4.553
 3446SOL     OW11236   5.918   0.386   2.067
 3446SOL    HW111237   5.820   0.386   2.086
 3446SOL    HW211238   5.948   0.292   2.049
 3447SOL     OW11239   5.331   5.493   1.322
 3447SOL    HW111240   5.283   5.505   1.235
 3447SOL    HW211241   5.272   5.521   1.397
 3448SOL     OW11242   3.191   0.665   1.009
 3448SOL    HW111243   3.270   0.608   0.985
 3448SOL    HW211244   3.200   0.698   1.103
 3449SOL     OW11245   6.349   6.897   3.670
 3449SOL    HW111246   6.356   6.819   3.732
 3449SOL    HW211247   6.430   6.954   3.679
 3450SOL     OW11248   0.310   1.999   6.702
 3450SOL    HW111249   0.236   2.023   6.640
 3450SOL    HW211250   0.378   2.071   6.703
 3451SOL     OW11251   1.756   6.163   2.594
 3451SOL    HW111252   1.783   6.251   2.555
 3451SOL    HW211253   1.661   6.168   2.626
 3452SOL     OW11254   6.113   1.684   6.431
 3452SOL    HW111255   6.142   1.628   6.509
 3452SOL    HW211256   6.017   1.711   6.444
 3453SOL     OW11257   6.987   5.900   6.230
 3453SOL    HW111258   6.961   5.996   6.246
 3453SOL    HW211259   0.004   5.864   6.312
 3454SOL     OW11260   1.156   1.665   6.732
 3454SOL    HW111261   1.236   1.629   6.780
 3454SOL    HW211262   1.084   1.685   6.798
 3455SOL     OW11263   2.116   2.670   4.176
 3455SOL    HW111264   2.162   2.581   4.173
 3455SOL    HW211265   2.052   2.672   4.253
 3456SOL     OW11266   5.615   5.734   2.471
 3456SOL    HW111267   5.609   5.656   2.533
 3456SOL    HW211268   5.546   5.802   2.497
 3457SOL     OW11269   2.550   5.657   3.629
 3457SOL    HW111270   2.577   5.629   3.721
 3457SOL    HW211271   2.450   5.660   3.622
 3458SOL     OW11272   4.494   0.469   0.686
 3458SOL    HW111273   4.443   0.429   0.610
 3458SOL    HW211274   4.481   0.568   0.686
 3459SOL     OW11275   5.692   4.231   2.607
 3459SOL    HW111276   5.639   4.201   2.686
 3459SOL    HW211277   5.767   4.167   2.591
 3460SOL     OW11278   2.242   3.101   0.212
 3460SOL    HW111279   2.194   3.101   0.299
 3460SOL    HW211280   2.331   3.056   0.223
 3461SOL     OW11281   4.909   6.356   4.770
 3461SOL    HW111282   4.826   6.406   4.795
 3461SOL    HW211283   4.892   6.258   4.777
 3462SOL     OW11284   0.327   3.614   2.341
 3462SOL    HW111285   0.349   3.597   2.245
 3462SOL    HW211286   0.411   3.631   2.392
 3463SOL     OW11287   1.300   3.780   3.701
 3463SOL    HW111288   1.262   3.761   3.611
 3463SOL    HW211289   1.383   3.835   3.692
 3464SOL     OW11290   6.782   3.201   0.018
 3464SOL    HW111291   6.775   3.209   0.117
 3464SOL    HW211292   6.875   3.220   7.017
 3465SOL     OW11293   1.515   2.435   2.051
 3465SOL    HW111294   1.419   2.455   2.034
 3465SOL    HW211295   1.526   2.337   2.068
 3466SOL     OW11296   6.577   4.940   6.918
 3466SOL    HW111297   6.506   4.889   6.869
 3466SOL    HW211298   6.561   4.931   7.017
 3467SOL     OW11299   2.348   2.419   0.827
 3467SOL    HW111300   2.320   2.398   0.921
 3467SOL    HW211301   2.334   2.338   0.770
 3468SOL     OW11302   5.882   0.558   2.543
 3468SOL    HW111303   5.793   0.596   2.568
 3468SOL    HW211304   5.898   0.573   2.446
 3469SOL     OW11305   4.721   0.245   4.259
 3469SOL    HW111306   4.716   0.291   4.170
 3469SOL    HW211307   4.816   0.233   4.286
 3470SOL     OW11308   6.858   1.938   1.656
 3470SOL    HW111309   6.826   2.026   1.623
 3470SOL    HW211310   6.950   1.947   1.694
 3471SOL     OW11311   4.776   4.711   4.567
 3471SOL    HW111312   4.684   4.674   4.560
 3471SOL    HW211313   4.835   4.667   4.498
 3472SOL     OW11314   2.616   1.342   3.129
 3472SOL    HW111315   2.602   1.292   3.044
 3472SOL    HW211316   2.662   1.429   3.109
 3473SOL     OW11317   0.174   2.696   1.913
 3473SOL    HW111318   0.199   2.741   1.827
 3473SOL    HW211319   0.134   2.607   1.893
 3474SOL     OW11320   1.068   4.330   3.191
 3474SOL    HW111321   1.156   4.305   3.151
 3474SOL    HW211322   1.053   4.428   3.181
 3475SOL     OW11323   1.375   3.967   4.083
 3475SOL    HW111324   1.404   4.048   4.134
 3475SOL    HW211325   1.454   3.924   4.040
 3476SOL     OW11326   2.361   1.855   2.599
 3476SOL    HW111327   2.367   1.955   2.601
 3476SOL    HW211328   2.383   1.822   2.508
 3477SOL     OW11329   1.870   4.883   0.693
 3477SOL    HW111330   1.784   4.931   0.710
 3477SOL    HW211331   1.890   4.821   0.768
 3478SOL     OW11332   2.393   5.502   6.103
 3478SOL    HW111333   2.378   5.408   6.134
 3478SOL    HW211334   2.386   5.505   6.003
 3479SOL     OW11335   1.202   0.766   2.905
 3479SOL    HW111336   1.289   0.717   2.895
 3479SOL    HW211337   1.209   0.856   2.862
 3480SOL     OW11338   6.872   5.667   4.796
 3480SOL    HW111339   6.850   5.749   4.849
 3480SOL    HW211340   6.920   5.693   4.712
 3481SOL     OW11341   4.775   0.570   0.482
 3481SOL    HW111342   4.751   0.475   0.461
 3481SOL    HW211343   4.861   0.572   0.533
 3482SOL     OW11344   6.043   0.998   1.797
 3482SOL    HW111345   6.043   0.973   1.700
 3482SOL    HW211346   6.127   1.048   1.818
 3483SOL     OW11347   5.273   2.294   1.753
 3483SOL    HW111348   5.314   2.219   1.700
 3483SOL    HW211349   5.218   2.256   1.827
 3484SOL     OW11350   1.012   2.942   0.344
 3484SOL    HW111351   1.022   2.852   0.301
 3484SOL    HW211352   1.045   2.938   0.438
 3485SOL     OW11353   1.659   2.166   4.270
 3485SOL    HW111354   1.661   2.150   4.172
 3485SOL    HW211355   1.726   2.108   4.315
 3486SOL     OW11356   2.651   0.351   3.689
 3486SOL    HW111357   2.571   0.362   3.747
 3486SOL    HW211358   2.721   0.300   3.739
 3487SOL     OW11359   6.384   1.792   0.141
 3487SOL    HW111360   6.418   1.803   0.048
 3487SOL    HW211361   6.332   1.707   0.148
 3488SOL     OW11362   6.495   0.265   4.709
 3488SOL    HW111363   6.481   0.203   4.787
 3488SOL    HW211364   6.438   0.347   4.720
 3489SOL     OW11365   3.674   0.504   1.792
 3489SOL    HW111366   3.747   0.570   1.809
 3489SOL    HW211367   3.598   0.549   1.745
 3490SOL     OW11368   3.850   4.184   1.159
 3490SOL    HW111369   3.906   4.265   1.171
 3490SOL    HW211370   3.774   4.204   1.097
 3491SOL     OW11371   4.454   2.681   5.914
 3491SOL    HW111372   4.454   2.779   5.895
 3491SOL    HW211373   4.401   2.664   5.997
 3492SOL     OW11374   6.676   4.583   1.155
 3492SOL    HW111375   6.712   4.524   1.083
 3492SOL    HW211376   6.735   4.578   1.235
 3493SOL     OW11377   4.802   3.937   4.779
 3493SOL    HW111378   4.778   4.029   4.810
 3493SOL    HW211379   4.781   3.871   4.850
 3494SOL     OW11380   3.570   0.811   2.136
 3494SOL    HW111381   3.511   0.767   2.203
 3494SOL    HW211382   3.604   0.743   2.072
 3495SOL     OW11383   5.951   4.823   1.582
 3495SOL    HW111384   5.894   4.771   1.517
 3495SOL    HW211385   5.965   4.769   1.665
 3496SOL     OW11386   6.104   5.154   1.086
 3496SOL    HW111387   6.062   5.134   1.174
 3496SOL    HW211388   6.164   5.234   1.095
 3497SOL     OW11389   2.292   0.943   3.937
 3497SOL    HW111390   2.300   0.922   4.035
 3497SOL    HW211391   2.367   1.004   3.910
 3498SOL     OW11392   3.188   2.287   1.024
 3498SOL    HW111393   3.229   2.329   1.105
 3498SOL    HW211394   3.258   2.236   0.974
 3499SOL     OW11395   5.881   4.029   3.913
 3499SOL    HW111396   5.946   4.013   3.986
 3499SOL    HW211397   5.924   4.011   3.825
 3500SOL     OW11398   2.056   3.607   4.936
 3500SOL    HW111399   2.065   3.507   4.934
 3500SOL    HW211400   1.961   3.632   4.918
 3501SOL     OW11401   1.903   5.941   5.008
 3501SOL    HW111402   1.891   6.039   4.997
 3501SOL    HW211403   1.874   5.913   5.100
 3502SOL     OW11404   6.648   2.670   1.779
 3502SOL    HW111405   6.650   2.745   1.845
 3502SOL    HW211406   6.661   2.583   1.826
 3503SOL     OW11407   6.229   6.536   4.726
 3503SOL    HW111408   6.244   6.449   4.772
 3503SOL    HW211409   6.191   6.602   4.791
 3504SOL     OW11410   2.692   0.971   1.803
 3504SOL    HW111411   2.761   0.949   1.733
 3504SOL    HW211412   2.710   1.063   1.838
 3505SOL     OW11413   5.704   4.661   5.341
 3505SOL    HW111414   5.663   4.571   5.327
 3505SOL    HW211415   5.650   4.730   5.291
 3506SOL     OW11416   5.014   5.476   5.319
 3506SOL    HW111417   5.072   5.411   5.368
 3506SOL    HW211418   5.039   5.569   5.346
 3507SOL     OW11419   2.242   0.553   1.178
 3507SOL    HW111420   2.283   0.480   1.124
 3507SOL    HW211421   2.313   0.603   1.227
 3508SOL     OW11422   2.117   1.799   5.729
 3508SOL    HW111423   2.195   1.750   5.767
 3508SOL    HW211424   2.043   1.801   5.797
 3509SOL     OW11425   5.008   1.060   6.556
 3509SOL    HW111426   4.939   1.012   6.502
 3509SOL    HW211427   5.074   0.994   6.592
 3510SOL     OW11428   1.362   1.391   1.653
 3510SOL    HW111429   1.444   1.400   1.597
 3510SOL    HW211430   1.347   1.476   1.705
 3511SOL     OW11431   2.553   5.060   1.239
 3511SOL    HW111432   2.544   4.997   1.315
 3511SOL    HW211433   2.643   5.048   1.196
 3512SOL     OW11434   6.758   4.354   0.700
 3512SOL    HW111435   6.852   4.369   0.667
 3512SOL    HW211436   6.694   4.367   0.624
 3513SOL     OW11437   5.560   2.587   6.802
 3513SOL    HW111438   5.532   2.503   6.757
 3513SOL    HW211439   5.645   2.621   6.761
 3514SOL     OW11440   0.302   1.858   2.033
 3514SOL    HW111441   0.311   1.926   1.960
 3514SOL    HW211442   0.240   1.785   2.004
 3515SOL     OW11443   4.776   6.039   3.277
 3515SOL    HW111444   4.739   5.946   3.283
 3515SOL    HW211445   4.716   6.101   3.327
 3516SOL     OW11446   4.760   6.876   0.958
 3516SOL    HW111447   4.791   6.906   1.048
 3516SOL    HW211448   4.781   6.947   0.891
 3517SOL     OW11449   1.641   2.214   1.060
 3517SOL    HW111450   1.592   2.296   1.030
 3517SOL    HW211451   1.626   2.200   1.158
 3518SOL     OW11452   5.749   2.448   4.169
 3518SOL    HW111453   5.783   2.360   4.202
 3518SOL    HW211454   5.710   2.437   4.078
 3519SOL     OW11455   1.460   0.461   6.408
 3519SOL    HW111456   1.544   0.407   6.405
 3519SOL    HW211457   1.382   0.400   6.425
 3520SOL     OW11458   2.960   5.148   6.615
 3520SOL    HW111459   3.037   5.167   6.675
 3520SOL    HW211460   2.958   5.051   6.591
 3521SOL     OW11461   5.272   2.350   0.005
 3521SOL    HW111462   5.202   2.283   0.028
 3521SOL    HW211463   5.251   2.438   0.049
 3522SOL     OW11464   6.839   4.916   1.384
 3522SOL    HW111465   6.800   4.899   1.293
 3522SOL    HW211466   6.804   5.003   1.419
 3523SOL     OW11467   1.659   4.778   6.141
 3523SOL    HW111468   1.590   4.844   6.170
 3523SOL    HW211469   1.740   4.826   6.106
 3524SOL     OW11470   4.574   1.513   1.905
 3524SOL    HW111471   4.496   1.554   1.952
 3524SOL    HW211472   4.553   1.504   1.808
 3525SOL     OW11473   0.810   4.631   3.155
 3525SOL    HW111474   0.765   4.547   3.186
 3525SOL    HW211475   0.755   4.674   3.083
 3526SOL     OW11476   2.425   6.341   4.263
 3526SOL    HW111477   2.360   6.402   4.219
 3526SOL    HW211478   2.387   6.248   4.268
 3527SOL     OW11479   6.001   3.485   6.525
 3527SOL    HW111480   5.986   3.512   6.430
 3527SOL    HW211481   5.913   3.470   6.570
 3528SOL     OW11482   1.401   6.217   5.020
 3528SOL    HW111483   1.342   6.295   5.038
 3528SOL    HW211484   1.497   6.247   5.022
 3529SOL     OW11485   3.953   0.374   6.268
 3529SOL    HW111486   3.855   0.360   6.282
 3529SOL    HW211487   3.981   0.461   6.308
 3530SOL     OW11488   0.375   4.705   2.574
 3530SOL    HW111489   0.332   4.781   2.623
 3530SOL    HW211490   0.415   4.739   2.489
 3531SOL     OW11491   4.713   3.059   0.217
 3531SOL    HW111492   4.734   3.122   0.143
 3531SOL    HW211493   4.713   3.109   0.304
 3532SOL     OW11494   2.997   0.375   1.820
 3532SOL    HW111495   3.036   0.387   1.911
 3532SOL    HW211496   2.994   0.277   1.798
 3533SOL     OW11497   2.065   1.921   2.756
 3533SOL    HW111498   2.155   1.924   2.712
 3533SOL    HW211499   2.045   2.009   2.797
 3534SOL     OW11500   6.742   1.541   0.000
 3534SOL    HW111501   6.783   1.535   6.937
 3534SOL    HW211502   6.719   1.636   0.020
 3535SOL     OW11503   1.825   6.063   0.864
 3535SOL    HW111504   1.910   6.023   0.897
 3535SOL    HW211505   1.754   5.992   0.861
 3536SOL     OW11506   3.065   1.831   3.195
 3536SOL    HW111507   3.147   1.822   3.252
 3536SOL    HW211508   2.990   1.866   3.251
 3537SOL     OW11509   3.267   6.038   1.843
 3537SOL    HW111510   3.288   5.975   1.769
 3537SOL    HW211511   3.189   6.095   1.817
 3538SOL     OW11512   1.458   0.183   6.574
 3538SOL    HW111513   1.433   0.123   6.650
 3538SOL    HW211514   1.386   0.250   6.559
 3539SOL     OW11515   5.281   3.600   5.827
 3539SOL    HW111516   5.248   3.511   5.796
 3539SOL    HW211517   5.227   3.673   5.784
 3540SOL     OW11518   2.017   1.828   5.435
 3540SOL    HW111519   2.044   1.856   5.343
 3540SOL    HW211520   2.097   1.828   5.495
 3541SOL     OW11521   1.870   2.225   6.306
 3541SOL    HW111522   1.959   2.260   6.334
 3541SOL    HW211523   1.858   2.132   6.341
 3542SOL     OW11524   1.806   5.514   2.864
 3542SOL    HW111525   1.899   5.548   2.874
 3542SOL    HW211526   1.775   5.474   2.950
 3543SOL     OW11527   1.033   2.217   4.693
 3543SOL    HW111528   1.015   2.315   4.694
 3543SOL    HW211529   0.946   2.167   4.700
 3544SOL     OW11530   2.830   4.311   6.396
 3544SOL    HW111531   2.761   4.251   6.355
 3544SOL    HW211532   2.921   4.277   6.374
 3545SOL     OW11533   4.180   5.070   0.312
 3545SOL    HW111534   4.130   4.993   0.351
 3545SOL    HW211535   4.153   5.082   0.216
 3546SOL     OW11536   1.234   4.439   4.222
 3546SOL    HW111537   1.158   4.496   4.252
 3546SOL    HW211538   1.251   4.367   4.289
 3547SOL     OW11539   6.584   4.984   4.526
 3547SOL    HW111540   6.610   4.897   4.485
 3547SOL    HW211541   6.662   5.047   4.522
 3548SOL     OW11542   5.752   1.456   6.154
 3548SOL    HW111543   5.712   1.544   6.127
 3548SOL    HW211544   5.837   1.441   6.103
 3549SOL     OW11545   6.681   4.936   5.588
 3549SOL    HW111546   6.745   4.998   5.542
 3549SOL    HW211547   6.727   4.849   5.607
 3550SOL     OW11548   6.386   3.167   2.876
 3550SOL    HW111549   6.364   3.263   2.858
 3550SOL    HW211550   6.368   3.112   2.794
 3551SOL     OW11551   4.092   1.365   2.592
 3551SOL    HW111552   4.029   1.435   2.625
 3551SOL    HW211553   4.125   1.390   2.501
 3552SOL     OW11554   5.450   6.713   2.534
 3552SOL    HW111555   5.469   6.642   2.466
 3552SOL    HW211556   5.380   6.681   2.598
 3553SOL     OW11557   4.727   4.806   1.121
 3553SOL    HW111558   4.797   4.863   1.078
 3553SOL    HW211559   4.747   4.710   1.101
 3554SOL     OW11560   4.710   2.000   1.435
 3554SOL    HW111561   4.640   2.001   1.507
 3554SOL    HW211562   4.795   2.037   1.472
 3555SOL     OW11563   1.404   4.471   4.006
 3555SOL    HW111564   1.361   4.466   4.096
 3555SOL    HW211565   1.359   4.408   3.944
 3556SOL     OW11566   4.010   1.693   4.214
 3556SOL    HW111567   3.940   1.764   4.202
 3556SOL    HW211568   4.004   1.656   4.307
 3557SOL     OW11569   1.207   1.073   4.478
 3557SOL    HW111570   1.144   1.041   4.548
 3557SOL    HW211571   1.300   1.049   4.503
 3558SOL     OW11572   1.443   6.423   1.775
 3558SOL    HW111573   1.533   6.447   1.740
 3558SOL    HW211574   1.451   6.346   1.838
 3559SOL     OW11575   0.659   5.941   5.494
 3559SOL    HW111576   0.733   5.971   5.433
 3559SOL    HW211577   0.598   6.017   5.513
 3560SOL     OW11578   0.532   5.849   1.547
 3560SOL    HW111579   0.629   5.826   1.543
 3560SOL    HW211580   0.486   5.788   1.611
 3561SOL     OW11581   4.361   4.762   4.979
 3561SOL    HW111582   4.283   4.786   5.036
 3561SOL    HW211583   4.392   4.670   5.001
 3562SOL     OW11584   4.739   1.259   3.113
 3562SOL    HW111585   4.710   1.194   3.183
 3562SOL    HW211586   4.688   1.241   3.029
 3563SOL     OW11587   5.837   1.094   0.214
 3563SOL    HW111588   5.787   1.080   0.299
 3563SOL    HW211589   5.912   1.028   0.208
 3564SOL     OW11590   1.955   4.541   3.718
 3564SOL    HW111591   1.988   4.486   3.642
 3564SOL    HW211592   2.032   4.566   3.777
 3565SOL     OW11593   2.623   5.700   5.225
 3565SOL    HW111594   2.575   5.612   5.228
 3565SOL    HW211595   2.719   5.686   5.248
 3566SOL     OW11596   6.903   3.749   6.087
 3566SOL    HW111597   6.822   3.758   6.145
 3566SOL    HW211598   6.973   3.697   6.136
 3567SOL     OW11599   0.521   3.144   0.204
 3567SOL    HW111600   0.450   3.191   0.151
 3567SOL    HW211601   0.600   3.205   0.214
 3568SOL     OW11602   4.790   5.119   4.191
 3568SOL    HW111603   4.779   5.095   4.288
 3568SOL    HW211604   4.888   5.123   4.170
 3569SOL     OW11605   1.963   1.893   5.978
 3569SOL    HW111606   2.025   1.971   5.963
 3569SOL    HW211607   2.003   1.832   6.047
 3570SOL     OW11608   5.441   0.633   5.207
 3570SOL    HW111609   5.499   0.582   5.270
 3570SOL    HW211610   5.474   0.727   5.201
 3571SOL     OW11611   0.932   6.174   5.307
 3571SOL    HW111612   0.852   6.232   5.323
 3571SOL    HW211613   0.960   6.131   5.392
 3572SOL     OW11614   5.907   3.144   2.871
 3572SOL    HW111615   5.818   3.100   2.868
 3572SOL    HW211616   5.925   3.176   2.964
 3573SOL     OW11617   6.373   4.331   3.028
 3573SOL    HW111618   6.303   4.359   3.094
 3573SOL    HW211619   6.334   4.265   2.963
 3574SOL     OW11620   0.501   2.804   0.674
 3574SOL    HW111621   0.500   2.770   0.768
 3574SOL    HW211622   0.539   2.897   0.673
 3575SOL     OW11623   5.220   5.613   2.730
 3575SOL    HW111624   5.152   5.568   2.672
 3575SOL    HW211625   5.285   5.545   2.764
 3576SOL     OW11626   0.746   2.121   6.539
 3576SOL    HW111627   0.707   2.170   6.616
 3576SOL    HW211628   0.842   2.101   6.557
 3577SOL     OW11629   1.542   2.637   0.036
 3577SOL    HW111630   1.529   2.697   6.984
 3577SOL    HW211631   1.491   2.673   0.114
 3578SOL     OW11632   3.928   1.321   0.565
 3578SOL    HW111633   3.887   1.259   0.632
 3578SOL    HW211634   4.027   1.323   0.577
 3579SOL     OW11635   6.756   2.502   2.910
 3579SOL    HW111636   6.740   2.541   3.001
 3579SOL    HW211637   6.853   2.511   2.886
 3580SOL     OW11638   6.281   3.039   1.243
 3580SOL    HW111639   6.347   3.108   1.214
 3580SOL    HW211640   6.295   2.956   1.189
 3581SOL     OW11641   0.871   5.137   3.249
 3581SOL    HW111642   0.872   5.142   3.149
 3581SOL    HW211643   0.879   5.229   3.287
 3582SOL     OW11644   1.393   3.486   6.513
 3582SOL    HW111645   1.315   3.423   6.519
 3582SOL    HW211646   1.420   3.513   6.605
 3583SOL     OW11647   1.266   4.779   6.919
 3583SOL    HW111648   1.284   4.807   6.825
 3583SOL    HW211649   1.291   4.682   6.930
 3584SOL     OW11650   5.982   4.644   5.943
 3584SOL    HW111651   5.898   4.621   5.894
 3584SOL    HW211652   6.051   4.675   5.879
 3585SOL     OW11653   2.786   1.871   4.672
 3585SOL    HW111654   2.759   1.963   4.645
 3585SOL    HW211655   2.844   1.875   4.753
 3586SOL     OW11656   6.221   1.626   4.707
 3586SOL    HW111657   6.184   1.717   4.727
 3586SOL    HW211658   6.170   1.585   4.631
 3587SOL     OW11659   1.813   4.698   5.890
 3587SOL    HW111660   1.734   4.748   5.925
 3587SOL    HW211661   1.822   4.715   5.791
 3588SOL     OW11662   0.603   3.445   5.199
 3588SOL    HW111663   0.676   3.446   5.268
 3588SOL    HW211664   0.644   3.440   5.108
 3589SOL     OW11665   5.698   0.797   5.755
 3589SOL    HW111666   5.686   0.865   5.827
 3589SOL    HW211667   5.749   0.719   5.791
 3590SOL     OW11668   0.395   3.495   0.466
 3590SOL    HW111669   0.298   3.493   0.492
 3590SOL    HW211670   0.451   3.470   0.545
 3591SOL     OW11671   5.647   3.680   0.131
 3591SOL    HW111672   5.678   3.664   0.224
 3591SOL    HW211673   5.613   3.595   0.091
 3592SOL     OW11674   0.577   6.094   2.531
 3592SOL    HW111675   0.533   6.028   2.470
 3592SOL    HW211676   0.649   6.142   2.482
 3593SOL     OW11677   1.055   5.081   5.392
 3593SOL    HW111678   1.046   5.054   5.488
 3593SOL    HW211679   1.097   5.171   5.387
 3594SOL     OW11680   4.765   6.893   3.574
 3594SOL    HW111681   4.783   6.959   3.500
 3594SOL    HW211682   4.699   6.932   3.638
 3595SOL     OW11683   4.836   6.255   6.216
 3595SOL    HW111684   4.812   6.302   6.132
 3595SOL    HW211685   4.755   6.211   6.255
 3596SOL     OW11686   5.189   3.331   2.370
 3596SOL    HW111687   5.155   3.325   2.276
 3596SOL    HW211688   5.184   3.241   2.413
 3597SOL     OW11689   1.809   2.004   5.463
 3597SOL    HW111690   1.785   1.994   5.366
 3597SOL    HW211691   1.885   1.943   5.485
 3598SOL     OW11692   1.351   6.846   5.701
 3598SOL    HW111693   1.406   6.835   5.784
 3598SOL    HW211694   1.411   6.850   5.621
 3599SOL     OW11695   4.766   1.903   0.047
 3599SOL    HW111696   4.753   1.886   0.144
 3599SOL    HW211697   4.678   1.895   7.027
 3600SOL     OW11698   1.024   2.873   2.215
 3600SOL    HW111699   1.073   2.873   2.127
 3600SOL    HW211700   1.057   2.798   2.272
 3601SOL     OW11701   5.211   2.939   6.100
 3601SOL    HW111702   5.252   2.999   6.169
 3601SOL    HW211703   5.180   2.994   6.023
 3602SOL     OW11704   1.071   4.153   0.498
 3602SOL    HW111705   1.041   4.080   0.437
 3602SOL    HW211706   1.082   4.237   0.446
 3603SOL     OW11707   3.646   1.026   4.343
 3603SOL    HW111708   3.655   1.071   4.432
 3603SOL    HW211709   3.550   1.009   4.323
 3604SOL     OW11710   6.706   6.115   3.274
 3604SOL    HW111711   6.675   6.175   3.348
 3604SOL    HW211712   6.681   6.156   3.186
 3605SOL     OW11713   0.334   4.728   3.961
 3605SOL    HW111714   0.354   4.632   3.981
 3605SOL    HW211715   0.267   4.733   3.886
 3606SOL     OW11716   0.522   0.063   4.348
 3606SOL    HW111717   0.432   0.033   4.315
 3606SOL    HW211718   0.551   0.144   4.296
 3607SOL     OW11719   5.277   5.355   2.143
 3607SOL    HW111720   5.221   5.423   2.192
 3607SOL    HW211721   5.259   5.362   2.045
 3608SOL     OW11722   4.621   2.283   4.521
 3608SOL    HW111723   4.530   2.321   4.535
 3608SOL    HW211724   4.625   2.236   4.433
 3609SOL     OW11725   1.532   0.397   4.086
 3609SOL    HW111726   1.522   0.314   4.031
 3609SOL    HW211727   1.507   0.378   4.181
 3610SOL     OW11728   1.657   0.273   6.299
 3610SOL    HW111729   1.746   0.298   6.337
 3610SOL    HW211730   1.669   0.218   6.216
 3611SOL     OW11731   4.682   4.968   4.460
 3611SOL    HW111732   4.615   4.937   4.528
 3611SOL    HW211733   4.761   4.907   4.460
 3612SOL     OW11734   0.457   0.424   6.819
 3612SOL    HW111735   0.475   0.327   6.805
 3612SOL    HW211736   0.542   0.470   6.844
 3613SOL     OW11737   5.024   4.638   2.128
 3613SOL    HW111738   5.015   4.589   2.041
 3613SOL    HW211739   4.992   4.579   2.203
 3614SOL     OW11740   3.380   3.808   0.627
 3614SOL    HW111741   3.322   3.849   0.556
 3614SOL    HW211742   3.390   3.872   0.703
 3615SOL     OW11743   5.099   3.082   5.894
 3615SOL    HW111744   5.156   3.157   5.860
 3615SOL    HW211745   5.002   3.107   5.886
 3616SOL     OW11746   0.955   1.157   6.539
 3616SOL    HW111747   0.924   1.118   6.452
 3616SOL    HW211748   1.010   1.238   6.522
 3617SOL     OW11749   4.585   0.835   6.710
 3617SOL    HW111750   4.667   0.801   6.756
 3617SOL    HW211751   4.579   0.934   6.722
 3618SOL     OW11752   2.270   3.150   5.278
 3618SOL    HW111753   2.362   3.114   5.261
 3618SOL    HW211754   2.244   3.131   5.372
 3619SOL     OW11755   5.980   2.638   5.482
 3619SOL    HW111756   5.889   2.681   5.480
 3619SOL    HW211757   5.970   2.540   5.470
 3620SOL     OW11758   6.198   5.463   5.497
 3620SOL    HW111759   6.246   5.395   5.552
 3620SOL    HW211760   6.222   5.450   5.401
 3621SOL     OW11761   3.259   2.954   4.878
 3621SOL    HW111762   3.354   2.941   4.904
 3621SOL    HW211763   3.214   2.866   4.868
 3622SOL     OW11764   1.485   1.500   0.090
 3622SOL    HW111765   1.478   1.591   0.132
 3622SOL    HW211766   1.430   1.435   0.141
 3623SOL     OW11767   6.590   6.212   4.241
 3623SOL    HW111768   6.635   6.143   4.183
 3623SOL    HW211769   6.602   6.188   4.337
 3624SOL     OW11770   1.635   0.320   2.432
 3624SOL    HW111771   1.675   0.281   2.515
 3624SOL    HW211772   1.695   0.299   2.354
 3625SOL     OW11773   0.525   3.390   6.368
 3625SOL    HW111774   0.432   3.403   6.334
 3625SOL    HW211775   0.552   3.294   6.357
 3626SOL     OW11776   0.921   2.772   5.635
 3626SOL    HW111777   0.942   2.679   5.604
 3626SOL    HW211778   0.925   2.834   5.557
 3627SOL     OW11779   4.053   3.109   1.514
 3627SOL    HW111780   4.004   3.193   1.493
 3627SOL    HW211781   4.091   3.115   1.606
 3628SOL     OW11782   0.966   1.606   1.888
 3628SOL    HW111783   1.058   1.574   1.913
 3628SOL    HW211784   0.963   1.623   1.790
 3629SOL     OW11785   0.626   1.192   5.557
 3629SOL    HW111786   0.682   1.235   5.628
 3629SOL    HW211787   0.575   1.262   5.507
 3630SOL     OW11788   5.640   2.444   3.924
 3630SOL    HW111789   5.740   2.436   3.930
 3630SOL    HW211790   5.608   2.400   3.840
 3631SOL     OW11791   1.875   0.696   2.864
 3631SOL    HW111792   1.862   0.649   2.777
 3631SOL    HW211793   1.973   0.704   2.883
 3632SOL     OW11794   5.527   4.957   1.225
 3632SOL    HW111795   5.448   4.896   1.232
 3632SOL    HW211796   5.534   4.993   1.132
 3633SOL     OW11797   4.039   2.170   5.973
 3633SOL    HW111798   4.134   2.197   5.960
 3633SOL    HW211799   4.000   2.220   6.050
 3634SOL     OW11800   1.949   5.615   6.146
 3634SOL    HW111801   2.011   5.675   6.095
 3634SOL    HW211802   1.881   5.576   6.083
 3635SOL     OW11803   2.968   0.352   1.236
 3635SOL    HW111804   2.882   0.403   1.243
 3635SOL    HW211805   3.001   0.331   1.328
 3636SOL     OW11806   6.454   5.753   0.415
 3636SOL    HW111807   6.407   5.839   0.393
 3636SOL    HW211808   6.551   5.762   0.395
 3637SOL     OW11809   0.116   2.250   1.986
 3637SOL    HW111810   0.065   2.330   1.954
 3637SOL    HW211811   0.210   2.276   2.006
 3638SOL     OW11812   6.936   4.076   2.968
 3638SOL    HW111813   6.836   4.072   2.961
 3638SOL    HW211814   6.963   4.158   3.018
 3639SOL     OW11815   4.393   4.636   0.547
 3639SOL    HW111816   4.471   4.637   0.484
 3639SOL    HW211817   4.308   4.637   0.494
 3640SOL     OW11818   4.710   1.433   0.595
 3640SOL    HW111819   4.626   1.461   0.549
 3640SOL    HW211820   4.691   1.411   0.690
 3641SOL     OW11821   6.351   3.408   1.971
 3641SOL    HW111822   6.293   3.490   1.972
 3641SOL    HW211823   6.340   3.358   2.056
 3642SOL     OW11824   4.574   2.138   6.955
 3642SOL    HW111825   4.623   2.169   0.010
 3642SOL    HW211826   4.509   2.208   6.927
 3643SOL     OW11827   3.373   5.836   4.862
 3643SOL    HW111828   3.346   5.915   4.917
 3643SOL    HW211829   3.442   5.864   4.795
 3644SOL     OW11830   2.088   1.515   1.879
 3644SOL    HW111831   2.102   1.457   1.959
 3644SOL    HW211832   2.016   1.476   1.822
 3645SOL     OW11833   1.708   2.834   3.964
 3645SOL    HW111834   1.785   2.851   3.901
 3645SOL    HW211835   1.659   2.752   3.935
 3646SOL     OW11836   1.287   3.954   5.559
 3646SOL    HW111837   1.380   3.941   5.523
 3646SOL    HW211838   1.258   4.048   5.544
 3647SOL     OW11839   2.707   5.678   0.151
 3647SOL    HW111840   2.716   5.777   0.161
 3647SOL    HW211841   2.626   5.657   0.096
 3648SOL     OW11842   4.724   6.124   3.545
 3648SOL    HW111843   4.733   6.221   3.526
 3648SOL    HW211844   4.814   6.082   3.555
 3649SOL     OW11845   6.283   3.082   0.440
 3649SOL    HW111846   6.349   3.011   0.413
 3649SOL    HW211847   6.303   3.113   0.533
 3650SOL     OW11848   5.896   5.342   1.739
 3650SOL    HW111849   5.888   5.403   1.660
 3650SOL    HW211850   5.933   5.393   1.817
 3651SOL     OW11851   1.655   0.295   4.524
 3651SOL    HW111852   1.679   0.298   4.621
 3651SOL    HW211853   1.725   0.244   4.474
 3652SOL     OW11854   6.203   6.748   3.426
 3652SOL    HW111855   6.249   6.753   3.514
 3652SOL    HW211856   6.214   6.657   3.387
 3653SOL     OW11857   1.236   1.453   2.996
 3653SOL    HW111858   1.208   1.541   3.032
 3653SOL    HW211859   1.296   1.407   3.061
 3654SOL     OW11860   4.069   4.865   0.465
 3654SOL    HW111861   4.141   4.888   0.530
 3654SOL    HW211862   4.004   4.802   0.507
 3655SOL     OW11863   3.366   1.027   4.001
 3655SOL    HW111864   3.413   0.943   3.973
 3655SOL    HW211865   3.303   1.056   3.929
 3656SOL     OW11866   0.248   5.376   1.416
 3656SOL    HW111867   0.345   5.373   1.392
 3656SOL    HW211868   0.200   5.438   1.353
 3657SOL     OW11869   5.164   5.822   4.795
 3657SOL    HW111870   5.198   5.731   4.771
 3657SOL    HW211871   5.188   5.886   4.723
 3658SOL     OW11872   2.602   4.854   6.627
 3658SOL    HW111873   2.517   4.817   6.591
 3658SOL    HW211874   2.652   4.782   6.676
 3659SOL     OW11875   1.825   2.571   5.655
 3659SOL    HW111876   1.858   2.620   5.575
 3659SOL    HW211877   1.739   2.524   5.633
 3660SOL     OW11878   6.109   6.329   4.312
 3660SOL    HW111879   6.147   6.414   4.349
 3660SOL    HW211880   6.183   6.274   4.274
 3661SOL     OW11881   0.014   0.893   5.217
 3661SOL    HW111882   0.111   0.917   5.229
 3661SOL    HW211883   6.987   0.937   5.288
 3662SOL     OW11884   4.089   0.726   4.922
 3662SOL    HW111885   4.140   0.641   4.912
 3662SOL    HW211886   4.145   0.802   4.887
 3663SOL     OW11887   1.648   2.906   0.173
 3663SOL    HW111888   1.590   2.842   0.223
 3663SOL    HW211889   1.597   2.944   0.096
 3664SOL     OW11890   4.615   2.426   1.874
 3664SOL    HW111891   4.692   2.439   1.936
 3664SOL    HW211892   4.544   2.372   1.919
 3665SOL     OW11893   0.713   6.431   5.103
 3665SOL    HW111894   0.738   6.348   5.053
 3665SOL    HW211895   0.648   6.484   5.049
 3666SOL     OW11896   1.063   4.037   3.163
 3666SOL    HW111897   1.135   4.107   3.165
 3666SOL    HW211898   1.003   4.049   3.242
 3667SOL     OW11899   0.021   1.151   3.633
 3667SOL    HW111900   7.019   1.199   3.716
 3667SOL    HW211901   6.992   1.180   3.556
 3668SOL     OW11902   1.074   0.671   1.260
 3668SOL    HW111903   1.068   0.746   1.326
 3668SOL    HW211904   0.988   0.621   1.259
 3669SOL     OW11905   6.038   1.564   3.551
 3669SOL    HW111906   6.106   1.611   3.496
 3669SOL    HW211907   5.959   1.625   3.565
 3670SOL     OW11908   2.647   5.182   0.171
 3670SOL    HW111909   2.639   5.086   0.197
 3670SOL    HW211910   2.743   5.202   0.149
 3671SOL     OW11911   0.279   2.265   4.125
 3671SOL    HW111912   0.273   2.355   4.082
 3671SOL    HW211913   0.282   2.275   4.224
 3672SOL     OW11914   4.562   2.180   2.810
 3672SOL    HW111915   4.495   2.147   2.743
 3672SOL    HW211916   4.521   2.252   2.866
 3673SOL     OW11917   3.828   5.817   6.773
 3673SOL    HW111918   3.821   5.757   6.853
 3673SOL    HW211919   3.826   5.761   6.690
 3674SOL     OW11920   1.635   6.155   6.018
 3674SOL    HW111921   1.651   6.231   6.081
 3674SOL    HW211922   1.712   6.146   5.955
 3675SOL     OW11923   1.494   2.693   3.843
 3675SOL    HW111924   1.449   2.626   3.902
 3675SOL    HW211925   1.454   2.783   3.859
 3676SOL     OW11926   5.835   3.761   2.183
 3676SOL    HW111927   5.786   3.846   2.164
 3676SOL    HW211928   5.894   3.739   2.105
 3677SOL     OW11929   3.074   0.035   4.085
 3677SOL    HW111930   3.032   7.010   4.159
 3677SOL    HW211931   3.088   0.130   4.116
 3678SOL     OW11932   1.545   0.759   4.380
 3678SOL    HW111933   1.498   0.754   4.292
 3678SOL    HW211934   1.483   0.735   4.454
 3679SOL     OW11935   0.138   0.457   3.279
 3679SOL    HW111936   0.046   0.472   3.243
 3679SOL    HW211937   0.194   0.538   3.265
 3680SOL     OW11938   5.017   2.779   4.515
 3680SOL    HW111939   4.923   2.804   4.542
 3680SOL    HW211940   5.065   2.861   4.483
 3681SOL     OW11941   0.943   1.435   6.362
 3681SOL    HW111942   1.031   1.391   6.381
 3681SOL    HW211943   0.898   1.457   6.448
 3682SOL     OW11944   5.630   2.616   0.201
 3682SOL    HW111945   5.712   2.625   0.258
 3682SOL    HW211946   5.617   2.520   0.177
 3683SOL     OW11947   6.835   0.737   3.867
 3683SOL    HW111948   6.840   0.835   3.884
 3683SOL    HW211949   6.816   0.720   3.771
 3684SOL     OW11950   0.977   5.599   6.903
 3684SOL    HW111951   0.990   5.521   6.964
 3684SOL    HW211952   1.047   5.667   6.921
 3685SOL     OW11953   2.109   5.792   5.937
 3685SOL    HW111954   2.085   5.889   5.928
 3685SOL    HW211955   2.167   5.765   5.860
 3686SOL     OW11956   6.169   5.389   4.404
 3686SOL    HW111957   6.242   5.368   4.340
 3686SOL    HW211958   6.186   5.343   4.491
 3687SOL     OW11959   4.632   6.655   4.204
 3687SOL    HW111960   4.593   6.563   4.203
 3687SOL    HW211961   4.731   6.649   4.215
 3688SOL     OW11962   6.778   3.420   6.731
 3688SOL    HW111963   6.733   3.502   6.694
 3688SOL    HW211964   6.708   3.357   6.766
 3689SOL     OW11965   2.121   0.896   5.320
 3689SOL    HW111966   2.055   0.917   5.393
 3689SOL    HW211967   2.119   0.969   5.252
 3690SOL     OW11968   4.330   5.616   0.553
 3690SOL    HW111969   4.277   5.609   0.638
 3690SOL    HW211970   4.269   5.641   0.478
 3691SOL     OW11971   2.573   1.722   6.994
 3691SOL    HW111972   2.539   1.728   6.901
 3691SOL    HW211973   2.599   1.813   7.026
 3692SOL     OW11974   6.638   5.090   5.840
 3692SOL    HW111975   6.677   5.182   5.835
 3692SOL    HW211976   6.610   5.061   5.748
 3693SOL     OW11977   2.103   2.018   3.046
 3693SOL    HW111978   2.052   1.961   3.110
 3693SOL    HW211979   2.195   1.981   3.033
 3694SOL     OW11980   1.808   6.770   2.378
 3694SOL    HW111981   1.749   6.829   2.323
 3694SOL    HW211982   1.765   6.680   2.389
 3695SOL     OW11983   5.476   2.060   1.319
 3695SOL    HW111984   5.431   2.004   1.250
 3695SOL    HW211985   5.573   2.070   1.296
 3696SOL     OW11986   4.392   0.077   4.648
 3696SOL    HW111987   4.332   0.131   4.589
 3696SOL    HW211988   4.461   0.032   4.592
 3697SOL     OW11989   6.925   6.013   2.977
 3697SOL    HW111990   6.942   6.111   2.968
 3697SOL    HW211991   6.872   5.981   2.898
 3698SOL     OW11992   2.191   0.661   3.542
 3698SOL    HW111993   2.102   0.639   3.582
 3698SOL    HW211994   2.229   0.742   3.587
 3699SOL     OW11995   1.995   1.180   3.506
 3699SOL    HW111996   1.909   1.219   3.474
 3699SOL    HW211997   1.979   1.086   3.536
 3700SOL     OW11998   1.592   4.871   4.956
 3700SOL    HW111999   1.630   4.843   4.867
 3700SOL    HW212000   1.656   4.933   5.001
 3701SOL     OW12001   0.927   6.619   3.494
 3701SOL    HW112002   1.021   6.585   3.495
 3701SOL    HW212003   0.912   6.674   3.412
 3702SOL     OW12004   5.279   6.315   3.369
 3702SOL    HW112005   5.374   6.342   3.356
 3702SOL    HW212006   5.230   6.389   3.416
 3703SOL     OW12007   0.729   0.560   6.642
 3703SOL    HW112008   0.761   0.467   6.629
 3703SOL    HW212009   0.698   0.572   6.737
 3704SOL     OW12010   4.648   2.291   1.650
 3704SOL    HW112011   4.616   2.199   1.674
 3704SOL    HW212012   4.652   2.347   1.733
 3705SOL     OW12013   5.766   4.316   4.404
 3705SOL    HW112014   5.768   4.382   4.329
 3705SOL    HW212015   5.763   4.223   4.367
 3706SOL     OW12016   0.537   4.144   6.782
 3706SOL    HW112017   0.451   4.120   6.737
 3706SOL    HW212018   0.572   4.065   6.833
 3707SOL     OW12019   4.442   5.822   4.394
 3707SOL    HW112020   4.389   5.906   4.381
 3707SOL    HW212021   4.462   5.782   4.304
 3708SOL     OW12022   4.357   6.656   1.133
 3708SOL    HW112023   4.389   6.751   1.128
 3708SOL    HW212024   4.272   6.653   1.185
 3709SOL     OW12025   2.757   0.292   1.666
 3709SOL    HW112026   2.764   0.236   1.584
 3709SOL    HW212027   2.849   0.317   1.697
 3710SOL     OW12028   0.243   5.194   4.564
 3710SOL    HW112029   0.217   5.227   4.655
 3710SOL    HW212030   0.195   5.109   4.544
 3711SOL     OW12031   1.301   5.869   5.426
 3711SOL    HW112032   1.243   5.848   5.348
 3711SOL    HW212033   1.369   5.938   5.400
 3712SOL     OW12034   1.382   5.866   0.066
 3712SOL    HW112035   1.472   5.910   0.070
 3712SOL    HW212036   1.316   5.930   0.027
 3713SOL     OW12037   0.627   6.937   5.396
 3713SOL    HW112038   0.600   6.942   5.492
 3713SOL    HW212039   0.652   6.843   5.374
 3714SOL     OW12040   5.229   5.817   6.937
 3714SOL    HW112041   5.139   5.830   6.978
 3714SOL    HW212042   5.299   5.857   6.997
 3715SOL     OW12043   1.097   4.645   2.082
 3715SOL    HW112044   1.047   4.637   1.995
 3715SOL    HW212045   1.098   4.740   2.111
 3716SOL     OW12046   6.162   6.171   4.713
 3716SOL    HW112047   6.162   6.116   4.630
 3716SOL    HW212048   6.068   6.190   4.741
 3717SOL     OW12049   5.181   1.062   0.736
 3717SOL    HW112050   5.135   0.987   0.785
 3717SOL    HW212051   5.247   1.105   0.797
 3718SOL     OW12052   6.901   0.120   6.857
 3718SOL    HW112053   6.871   0.030   6.887
 3718SOL    HW212054   6.999   0.118   6.838
 3719SOL     OW12055   4.154   2.734   6.801
 3719SOL    HW112056   4.144   2.759   6.897
 3719SOL    HW212057   4.236   2.678   6.790
 3720SOL     OW12058   5.703   3.608   0.916
 3720SOL    HW112059   5.606   3.618   0.941
 3720SOL    HW212060   5.736   3.519   0.947
 3721SOL     OW12061   0.120   4.659   1.090
 3721SOL    HW112062   0.139   4.629   0.996
 3721SOL    HW212063   0.202   4.698   1.130
 3722SOL     OW12064   5.790   6.409   1.521
 3722SOL    HW112065   5.840   6.453   1.446
 3722SOL    HW212066   5.703   6.373   1.486
 3723SOL     OW12067   4.649   5.107   0.682
 3723SOL    HW112068   4.618   5.028   0.736
 3723SOL    HW212069   4.569   5.157   0.648
 3724SOL     OW12070   1.669   4.237   5.568
 3724SOL    HW112071   1.572   4.232   5.542
 3724SOL    HW212072   1.690   4.329   5.601
 3725SOL     OW12073   0.545   5.967   6.807
 3725SOL    HW112074   0.628   6.001   6.762
 3725SOL    HW212075   0.516   5.882   6.764
 3726SOL     OW12076   5.568   3.626   5.851
 3726SOL    HW112077   5.471   3.647   5.848
 3726SOL    HW212078   5.621   3.710   5.840
 3727SOL     OW12079   6.855   2.769   5.490
 3727SOL    HW112080   6.932   2.705   5.488
 3727SOL    HW212081   6.815   2.769   5.581
 3728SOL     OW12082   1.762   3.534   6.672
 3728SOL    HW112083   1.672   3.547   6.715
 3728SOL    HW212084   1.751   3.477   6.590
 3729SOL     OW12085   1.301   1.871   4.163
 3729SOL    HW112086   1.383   1.830   4.204
 3729SOL    HW212087   1.328   1.924   4.082
 3730SOL     OW12088   3.556   6.093   5.672
 3730SOL    HW112089   3.494   6.025   5.632
 3730SOL    HW212090   3.503   6.160   5.723
 3731SOL     OW12091   0.235   1.313   0.216
 3731SOL    HW112092   0.283   1.278   0.136
 3731SOL    HW212093   0.209   1.237   0.275
 3732SOL     OW12094   2.739   2.010   0.327
 3732SOL    HW112095   2.738   2.069   0.246
 3732SOL    HW212096   2.794   2.053   0.398
 3733SOL     OW12097   2.311   2.000   3.454
 3733SOL    HW112098   2.366   1.945   3.391
 3733SOL    HW212099   2.257   2.066   3.402
 3734SOL     OW12100   4.314   0.134   1.249
 3734SOL    HW112101   4.215   0.123   1.255
 3734SOL    HW212102   4.335   0.229   1.225
 3735SOL     OW12103   3.241   0.690   2.998
 3735SOL    HW112104   3.234   0.756   2.923
 3735SOL    HW212105   3.263   0.738   3.083
 3736SOL     OW12106   6.774   1.426   0.984
 3736SOL    HW112107   6.834   1.502   1.012
 3736SOL    HW212108   6.822   1.368   0.919
 3737SOL     OW12109   6.182   1.338   3.516
 3737SOL    HW112110   6.120   1.416   3.522
 3737SOL    HW212111   6.205   1.306   3.608
 3738SOL     OW12112   6.102   0.259   1.628
 3738SOL    HW112113   6.181   0.209   1.594
 3738SOL    HW212114   6.110   0.269   1.728
 3739SOL     OW12115   2.194   4.419   1.546
 3739SOL    HW112116   2.284   4.458   1.527
 3739SOL    HW212117   2.131   4.439   1.471
 3740SOL     OW12118   6.272   5.979   0.338
 3740SOL    HW112119   6.255   6.076   0.354
 3740SOL    HW212120   6.192   5.937   0.295
 3741SOL     OW12121   5.015   2.649   6.651
 3741SOL    HW112122   5.081   2.722   6.633
 3741SOL    HW212123   5.063   2.561   6.658
 3742SOL     OW12124   4.143   0.041   0.496
 3742SOL    HW112125   4.047   0.013   0.488
 3742SOL    HW212126   4.178   0.015   0.586
 3743SOL     OW12127   5.339   3.391   1.557
 3743SOL    HW112128   5.370   3.431   1.471
 3743SOL    HW212129   5.239   3.398   1.562
 3744SOL     OW12130   1.065   5.858   1.947
 3744SOL    HW112131   1.010   5.788   1.991
 3744SOL    HW212132   1.096   5.924   2.016
 3745SOL     OW12133   5.378   3.980   3.088
 3745SOL    HW112134   5.286   3.994   3.051
 3745SOL    HW212135   5.411   4.064   3.130
 3746SOL     OW12136   6.475   0.586   3.854
 3746SOL    HW112137   6.485   0.492   3.823
 3746SOL    HW212138   6.512   0.595   3.947
 3747SOL     OW12139   4.184   6.031   5.369
 3747SOL    HW112140   4.169   6.123   5.333
 3747SOL    HW212141   4.197   5.968   5.293
 3748SOL     OW12142   4.981   0.849   1.852
 3748SOL    HW112143   4.918   0.917   1.813
 3748SOL    HW212144   5.012   0.880   1.941
 3749SOL     OW12145   2.534   4.891   2.972
 3749SOL    HW112146   2.562   4.984   2.997
 3749SOL    HW212147   2.436   4.881   2.989
 3750SOL     OW12148   6.196   4.640   0.744
 3750SOL    HW112149   6.123   4.612   0.806
 3750SOL    HW212150   6.265   4.567   0.740
 3751SOL     OW12151   6.472   3.342   0.648
 3751SOL    HW112152   6.470   3.248   0.683
 3751SOL    HW212153   6.479   3.340   0.548
 3752SOL     OW12154   0.727   6.944   0.449
 3752SOL    HW112155   0.786   7.024   0.431
 3752SOL    HW212156   0.699   6.944   0.545
 3753SOL     OW12157   6.702   1.166   4.179
 3753SOL    HW112158   6.732   1.088   4.235
 3753SOL    HW212159   6.782   1.208   4.136
 3754SOL     OW12160   3.996   6.331   1.287
 3754SOL    HW112161   3.920   6.266   1.282
 3754SOL    HW212162   4.032   6.332   1.380
 3755SOL     OW12163   5.852   5.962   4.142
 3755SOL    HW112164   5.755   5.957   4.117
 3755SOL    HW212165   5.904   5.898   4.085
 3756SOL     OW12166   1.979   6.491   5.914
 3756SOL    HW112167   2.049   6.424   5.936
 3756SOL    HW212168   2.021   6.572   5.873
 3757SOL     OW12169   3.692   6.599   6.750
 3757SOL    HW112170   3.729   6.530   6.687
 3757SOL    HW212171   3.695   6.563   6.843
 3758SOL     OW12172   1.805   1.271   4.474
 3758SOL    HW112173   1.855   1.209   4.536
 3758SOL    HW212174   1.834   1.252   4.380
 3759SOL     OW12175   4.546   5.409   6.259
 3759SOL    HW112176   4.457   5.390   6.298
 3759SOL    HW212177   4.582   5.326   6.215
 3760SOL     OW12178   1.719   2.860   4.266
 3760SOL    HW112179   1.705   2.954   4.299
 3760SOL    HW212180   1.746   2.862   4.170
 3761SOL     OW12181   0.482   0.497   5.412
 3761SOL    HW112182   0.400   0.539   5.451
 3761SOL    HW212183   0.530   0.563   5.355
 3762SOL     OW12184   0.442   5.408   6.764
 3762SOL    HW112185   0.398   5.340   6.704
 3762SOL    HW212186   0.376   5.438   6.833
 3763SOL     OW12187   6.794   4.741   6.832
 3763SOL    HW112188   6.883   4.750   6.787
 3763SOL    HW212189   6.739   4.823   6.816
 3764SOL     OW12190   1.538   0.160   3.525
 3764SOL    HW112191   1.551   0.178   3.427
 3764SOL    HW212192   1.539   0.246   3.575
 3765SOL     OW12193   5.061   1.556   1.090
 3765SOL    HW112194   5.069   1.656   1.093
 3765SOL    HW212195   5.140   1.515   1.135
 3766SOL     OW12196   0.880   1.018   3.854
 3766SOL    HW112197   0.920   1.109   3.851
 3766SOL    HW212198   0.791   1.019   3.809
 3767SOL     OW12199   2.385   5.281   0.214
 3767SOL    HW112200   2.397   5.378   0.196
 3767SOL    HW212201   2.474   5.236   0.218
 3768SOL     OW12202   2.246   5.957   5.253
 3768SOL    HW112203   2.293   5.926   5.170
 3768SOL    HW212204   2.267   6.053   5.269
 3769SOL     OW12205   5.567   5.784   5.214
 3769SOL    HW112206   5.596   5.714   5.279
 3769SOL    HW212207   5.590   5.874   5.250
 3770SOL     OW12208   1.961   6.659   6.975
 3770SOL    HW112209   1.932   6.633   0.039
 3770SOL    HW212210   2.055   6.693   6.978
 3771SOL     OW12211   6.554   3.006   6.721
 3771SOL    HW112212   6.488   2.948   6.770
 3771SOL    HW212213   6.536   3.001   6.623
 3772SOL     OW12214   0.025   0.954   0.432
 3772SOL    HW112215   0.022   0.862   0.471
 3772SOL    HW212216   6.973   0.968   0.373
 3773SOL     OW12217   6.479   2.991   6.475
 3773SOL    HW112218   6.387   2.956   6.455
 3773SOL    HW212219   6.530   3.003   6.390
 3774SOL     OW12220   0.590   5.904   0.279
 3774SOL    HW112221   0.690   5.906   0.266
 3774SOL    HW212222   0.545   5.923   0.192
 3775SOL     OW12223   5.117   4.951   2.322
 3775SOL    HW112224   5.063   5.003   2.388
 3775SOL    HW212225   5.208   4.992   2.314
 3776SOL     OW12226   4.162   0.873   0.895
 3776SOL    HW112227   4.244   0.814   0.892
 3776SOL    HW212228   4.145   0.910   0.804
 3777SOL     OW12229   3.130   4.968   4.937
 3777SOL    HW112230   3.145   4.906   5.014
 3777SOL    HW212231   3.115   4.914   4.854
 3778SOL     OW12232   2.968   5.052   3.031
 3778SOL    HW112233   3.058   5.089   3.008
 3778SOL    HW212234   2.897   5.119   3.011
 3779SOL     OW12235   1.952   4.761   0.980
 3779SOL    HW112236   2.007   4.678   0.990
 3779SOL    HW212237   2.012   4.841   0.981
 3780SOL     OW12238   4.583   5.524   5.987
 3780SOL    HW112239   4.681   5.539   5.970
 3780SOL    HW212240   4.568   5.504   6.084
 3781SOL     OW12241   1.734   7.025   4.092
 3781SOL    HW112242   1.671   0.067   4.055
 3781SOL    HW212243   1.817   0.043   4.124
 3782SOL     OW12244   2.667   0.948   4.396
 3782SOL    HW112245   2.592   0.972   4.334
 3782SOL    HW212246   2.753   0.944   4.344
 3783SOL     OW12247   5.725   6.074   4.517
 3783SOL    HW112248   5.708   5.980   4.545
 3783SOL    HW212249   5.812   6.079   4.467
 3784SOL     OW12250   5.288   2.818   3.182
 3784SOL    HW112251   5.351   2.793   3.109
 3784SOL    HW212252   5.198   2.778   3.164
 3785SOL     OW12253   1.292   1.320   6.830
 3785SOL    HW112254   1.318   1.355   6.740
 3785SOL    HW212255   1.282   1.397   6.894
 3786SOL     OW12256   2.338   6.906   2.880
 3786SOL    HW112257   2.305   6.964   2.954
 3786SOL    HW212258   2.379   6.964   2.809
 3787SOL     OW12259   5.883   6.670   2.938
 3787SOL    HW112260   5.826   6.621   2.873
 3787SOL    HW212261   5.966   6.616   2.957
 3788SOL     OW12262   0.854   3.893   4.392
 3788SOL    HW112263   0.876   3.972   4.334
 3788SOL    HW212264   0.846   3.811   4.334
 3789SOL     OW12265   0.333   3.421   4.479
 3789SOL    HW112266   0.267   3.357   4.518
 3789SOL    HW212267   0.349   3.496   4.544
 3790SOL     OW12268   1.908   4.118   5.566
 3790SOL    HW112269   1.831   4.181   5.551
 3790SOL    HW212270   1.970   4.122   5.488
 3791SOL     OW12271   6.131   6.983   0.208
 3791SOL    HW112272   6.122   6.926   0.127
 3791SOL    HW212273   6.206   6.949   0.264
 3792SOL     OW12274   0.161   0.906   4.064
 3792SOL    HW112275   0.202   0.978   4.008
 3792SOL    HW212276   0.215   0.823   4.056
 3793SOL     OW12277   3.857   0.468   2.724
 3793SOL    HW112278   3.788   0.526   2.681
 3793SOL    HW212279   3.826   0.440   2.814
 3794SOL     OW12280   2.315   4.081   1.162
 3794SOL    HW112281   2.285   4.036   1.246
 3794SOL    HW212282   2.291   4.025   1.083
 3795SOL     OW12283   3.795   6.461   6.544
 3795SOL    HW112284   3.770   6.369   6.576
 3795SOL    HW212285   3.882   6.488   6.585
 3796SOL     OW12286   2.795   1.791   1.142
 3796SOL    HW112287   2.878   1.848   1.139
 3796SOL    HW212288   2.819   1.697   1.121
 3797SOL     OW12289   6.289   4.184   2.824
 3797SOL    HW112290   6.231   4.110   2.790
 3797SOL    HW212291   6.341   4.224   2.748
 3798SOL     OW12292   3.844   6.105   3.005
 3798SOL    HW112293   3.823   6.180   3.067
 3798SOL    HW212294   3.858   6.140   2.913
 3799SOL     OW12295   0.259   2.770   3.976
 3799SOL    HW112296   0.311   2.779   3.891
 3799SOL    HW212297   0.164   2.800   3.961
 3800SOL     OW12298   5.390   3.414   4.287
 3800SOL    HW112299   5.360   3.507   4.266
 3800SOL    HW212300   5.388   3.401   4.387
 3801SOL     OW12301   6.342   5.939   3.107
 3801SOL    HW112302   6.367   6.010   3.041
 3801SOL    HW212303   6.376   5.965   3.197
 3802SOL     OW12304   1.231   2.532   3.293
 3802SOL    HW112305   1.206   2.450   3.344
 3802SOL    HW212306   1.294   2.508   3.219
 3803SOL     OW12307   3.818   2.202   1.185
 3803SOL    HW112308   3.736   2.229   1.236
 3803SOL    HW212309   3.848   2.112   1.215
 3804SOL     OW12310   5.050   2.274   3.435
 3804SOL    HW112311   5.076   2.182   3.404
 3804SOL    HW212312   5.002   2.268   3.522
 3805SOL     OW12313   2.830   3.452   1.949
 3805SOL    HW112314   2.863   3.508   1.872
 3805SOL    HW212315   2.882   3.367   1.952
 3806SOL     OW12316   3.197   3.923   6.986
 3806SOL    HW112317   3.212   3.899   0.055
 3806SOL    HW212318   3.278   3.972   6.952
 3807SOL     OW12319   2.703   6.559   3.722
 3807SOL    HW112320   2.610   6.583   3.694
 3807SOL    HW212321   2.715   6.460   3.715
 3808SOL     OW12322   3.992   0.247   0.899
 3808SOL    HW112323   4.066   0.276   0.839
 3808SOL    HW212324   4.001   0.293   0.988
 3809SOL     OW12325   5.933   2.809   0.586
 3809SOL    HW112326   5.972   2.885   0.534
 3809SOL    HW212327   5.837   2.828   0.606
 3810SOL     OW12328   4.591   2.301   5.150
 3810SOL    HW112329   4.689   2.321   5.150
 3810SOL    HW212330   4.576   2.207   5.122
 3811SOL     OW12331   1.214   4.306   3.860
 3811SOL    HW112332   1.156   4.284   3.782
 3811SOL    HW212333   1.158   4.343   3.934
 3812SOL     OW12334   5.107   0.645   5.446
 3812SOL    HW112335   5.087   0.603   5.535
 3812SOL    HW212336   5.094   0.744   5.454
 3813SOL     OW12337   4.217   3.934   0.239
 3813SOL    HW112338   4.178   4.004   0.298
 3813SOL    HW212339   4.143   3.876   0.203
 3814SOL     OW12340   0.320   7.012   1.056
 3814SOL    HW112341   0.249   7.002   1.126
 3814SOL    HW212342   0.404   0.016   1.099
 3815SOL     OW12343   4.566   2.835   0.389
 3815SOL    HW112344   4.577   2.888   0.473
 3815SOL    HW212345   4.624   2.873   0.317
 3816SOL     OW12346   0.536   6.200   0.240
 3816SOL    HW112347   0.469   6.217   0.312
 3816SOL    HW212348   0.628   6.204   0.278
 3817SOL     OW12349   5.474   3.580   3.394
 3817SOL    HW112350   5.429   3.534   3.471
 3817SOL    HW212351   5.428   3.668   3.377
 3818SOL     OW12352   5.039   0.305   0.328
 3818SOL    HW112353   5.021   0.221   0.379
 3818SOL    HW212354   5.130   0.298   0.285
 3819SOL     OW12355   5.190   5.218   1.462
 3819SOL    HW112356   5.192   5.253   1.368
 3819SOL    HW212357   5.266   5.258   1.514
 3820SOL     OW12358   6.824   6.708   3.259
 3820SOL    HW112359   6.880   6.789   3.245
 3820SOL    HW212360   6.882   6.627   3.265
 3821SOL     OW12361   2.436   2.658   0.641
 3821SOL    HW112362   2.423   2.614   0.730
 3821SOL    HW212363   2.399   2.750   0.643
 3822SOL     OW12364   1.472   6.273   2.988
 3822SOL    HW112365   1.514   6.323   3.063
 3822SOL    HW212366   1.383   6.237   3.017
 3823SOL     OW12367   3.636   2.387   5.807
 3823SOL    HW112368   3.552   2.341   5.837
 3823SOL    HW212369   3.687   2.327   5.745
 3824SOL     OW12370   5.655   1.993   6.794
 3824SOL    HW112371   5.594   2.068   6.819
 3824SOL    HW212372   5.717   1.973   6.870
 3825SOL     OW12373   0.397   6.788   0.663
 3825SOL    HW112374   0.445   6.706   0.633
 3825SOL    HW212375   0.461   6.852   0.705
 3826SOL     OW12376   0.230   3.245   0.142
 3826SOL    HW112377   0.269   3.337   0.149
 3826SOL    HW212378   0.167   3.230   0.219
 3827SOL     OW12379   3.068   2.603   1.092
 3827SOL    HW112380   3.029   2.570   1.006
 3827SOL    HW212381   3.159   2.640   1.075
 3828SOL     OW12382   4.803   2.473   1.513
 3828SOL    HW112383   4.898   2.449   1.535
 3828SOL    HW212384   4.742   2.407   1.556
 3829SOL     OW12385   2.142   4.404   4.509
 3829SOL    HW112386   2.200   4.366   4.580
 3829SOL    HW212387   2.051   4.363   4.514
 3830SOL     OW12388   0.801   7.020   5.176
 3830SOL    HW112389   0.733   0.008   5.247
 3830SOL    HW212390   0.888   0.033   5.204
 3831SOL     OW12391   4.680   1.718   2.218
 3831SOL    HW112392   4.754   1.695   2.281
 3831SOL    HW212393   4.634   1.801   2.251
 3832SOL     OW12394   5.849   0.835   2.205
 3832SOL    HW112395   5.872   0.745   2.243
 3832SOL    HW212396   5.924   0.899   2.221
 3833SOL     OW12397   1.075   5.626   6.210
 3833SOL    HW112398   1.108   5.715   6.178
 3833SOL    HW212399   0.996   5.639   6.269
 3834SOL     OW12400   3.439   2.819   1.169
 3834SOL    HW112401   3.405   2.746   1.109
 3834SOL    HW212402   3.524   2.788   1.213
 3835SOL     OW12403   2.824   4.964   5.279
 3835SOL    HW112404   2.815   4.896   5.352
 3835SOL    HW212405   2.734   4.982   5.239
 3836SOL     OW12406   1.926   3.669   5.422
 3836SOL    HW112407   1.945   3.728   5.343
 3836SOL    HW212408   1.938   3.722   5.506
 3837SOL     OW12409   5.113   3.508   7.024
 3837SOL    HW112410   5.018   3.536   0.010
 3837SOL    HW212411   5.171   3.589   7.024
 3838SOL     OW12412   6.778   4.305   4.074
 3838SOL    HW112413   6.840   4.233   4.045
 3838SOL    HW212414   6.683   4.274   4.066
 3839SOL     OW12415   4.013   0.698   4.605
 3839SOL    HW112416   4.023   0.782   4.658
 3839SOL    HW212417   3.917   0.668   4.607
 3840SOL     OW12418   1.868   0.968   5.140
 3840SOL    HW112419   1.801   0.996   5.072
 3840SOL    HW212420   1.960   0.987   5.106
 3841SOL     OW12421   0.272   3.316   4.932
 3841SOL    HW112422   0.349   3.251   4.927
 3841SOL    HW212423   0.214   3.303   4.852
 3842SOL     OW12424   0.966   4.407   6.746
 3842SOL    HW112425   0.939   4.396   6.842
 3842SOL    HW212426   1.017   4.326   6.716
 3843SOL     OW12427   6.958   4.972   1.837
 3843SOL    HW112428   6.978   5.034   1.762
 3843SOL    HW212429   6.861   4.977   1.860
 3844SOL     OW12430   0.246   3.947   6.140
 3844SOL    HW112431   0.299   3.874   6.096
 3844SOL    HW212432   0.242   4.026   6.079
 3845SOL     OW12433   3.863   3.000   2.854
 3845SOL    HW112434   3.767   2.972   2.864
 3845SOL    HW212435   3.897   3.031   2.942
 3846SOL     OW12436   0.689   4.780   3.869
 3846SOL    HW112437   0.655   4.792   3.962
 3846SOL    HW212438   0.612   4.772   3.806
 3847SOL     OW12439   6.017   1.076   5.374
 3847SOL    HW112440   5.998   1.070   5.472
 3847SOL    HW212441   5.960   1.147   5.333
 3848SOL     OW12442   3.176   5.401   3.144
 3848SOL    HW112443   3.176   5.336   3.068
 3848SOL    HW212444   3.082   5.411   3.179
 3849SOL     OW12445   0.664   1.607   5.257
 3849SOL    HW112446   0.695   1.693   5.215
 3849SOL    HW212447   0.573   1.584   5.224
 3850SOL     OW12448   2.674   3.475   1.524
 3850SOL    HW112449   2.757   3.424   1.499
 3850SOL    HW212450   2.653   3.458   1.620
 3851SOL     OW12451   1.250   4.393   3.473
 3851SOL    HW112452   1.224   4.302   3.507
 3851SOL    HW212453   1.304   4.384   3.390
 3852SOL     OW12454   4.379   6.729   4.115
 3852SOL    HW112455   4.476   6.718   4.139
 3852SOL    HW212456   4.371   6.785   4.032
 3853SOL     OW12457   1.685   3.308   2.353
 3853SOL    HW112458   1.745   3.275   2.425
 3853SOL    HW212459   1.738   3.354   2.283
 3854SOL     OW12460   1.233   3.915   2.660
 3854SOL    HW112461   1.196   3.822   2.653
 3854SOL    HW212462   1.305   3.926   2.592
 3855SOL     OW12463   4.894   5.969   6.563
 3855SOL    HW112464   4.934   6.047   6.516
 3855SOL    HW212465   4.866   5.996   6.655
 3856SOL     OW12466   6.785   6.159   5.119
 3856SOL    HW112467   6.770   6.189   5.213
 3856SOL    HW212468   6.770   6.060   5.112
 3857SOL     OW12469   0.953   5.981   5.876
 3857SOL    HW112470   1.028   6.047   5.880
 3857SOL    HW212471   0.951   5.938   5.785
 3858SOL     OW12472   1.486   6.524   5.940
 3858SOL    HW112473   1.542   6.475   6.006
 3858SOL    HW212474   1.515   6.620   5.936
 3859SOL     OW12475   6.934   1.941   3.218
 3859SOL    HW112476   6.866   1.884   3.172
 3859SOL    HW212477   7.015   1.886   3.239
 3860SOL     OW12478   1.235   6.916   5.298
 3860SOL    HW112479   1.319   6.862   5.294
 3860SOL    HW212480   1.253   7.001   5.347
 3861SOL     OW12481   5.148   4.381   1.732
 3861SOL    HW112482   5.114   4.310   1.671
 3861SOL    HW212483   5.168   4.341   1.822
 3862SOL     OW12484   6.980   6.921   5.310
 3862SOL    HW112485   6.984   6.840   5.252
 3862SOL    HW212486   0.003   6.996   5.268
 3863SOL     OW12487   3.812   3.922   6.417
 3863SOL    HW112488   3.858   4.011   6.423
 3863SOL    HW212489   3.723   3.928   6.461
 3864SOL     OW12490   4.407   1.909   5.716
 3864SOL    HW112491   4.451   1.826   5.749
 3864SOL    HW212492   4.438   1.987   5.770
 3865SOL     OW12493   3.617   0.246   1.626
 3865SOL    HW112494   3.568   0.316   1.677
 3865SOL    HW212495   3.707   0.282   1.600
 3866SOL     OW12496   3.624   0.757   0.639
 3866SOL    HW112497   3.705   0.813   0.627
 3866SOL    HW212498   3.651   0.661   0.653
 3867SOL     OW12499   1.547   3.545   4.090
 3867SOL    HW112500   1.481   3.578   4.022
 3867SOL    HW212501   1.601   3.470   4.050
 3868SOL     OW12502   1.942   6.671   2.097
 3868SOL    HW112503   1.926   6.686   2.195
 3868SOL    HW212504   1.944   6.573   2.079
 3869SOL     OW12505   6.757   3.069   4.307
 3869SOL    HW112506   6.679   3.120   4.345
 3869SOL    HW212507   6.820   3.132   4.263
 3870SOL     OW12508   4.660   4.644   0.447
 3870SOL    HW112509   4.725   4.573   0.423
 3870SOL    HW212510   4.653   4.651   0.547
 3871SOL     OW12511   3.000   0.811   2.502
 3871SOL    HW112512   2.972   0.902   2.531
 3871SOL    HW212513   3.099   0.809   2.488
 3872SOL     OW12514   3.075   2.944   1.990
 3872SOL    HW112515   3.121   2.922   2.077
 3872SOL    HW212516   3.019   2.866   1.962
 3873SOL     OW12517   5.788   5.485   1.161
 3873SOL    HW112518   5.801   5.580   1.133
 3873SOL    HW212519   5.712   5.479   1.225
 3874SOL     OW12520   3.771   6.265   0.551
 3874SOL    HW112521   3.730   6.355   0.559
 3874SOL    HW212522   3.818   6.242   0.636
 3875SOL     OW12523   1.276   3.224   2.697
 3875SOL    HW112524   1.335   3.215   2.616
 3875SOL    HW212525   1.198   3.163   2.688
 3876SOL     OW12526   5.251   5.400   6.291
 3876SOL    HW112527   5.164   5.356   6.312
 3876SOL    HW212528   5.322   5.330   6.283
 3877SOL     OW12529   6.463   1.353   0.597
 3877SOL    HW112530   6.493   1.383   0.507
 3877SOL    HW212531   6.395   1.281   0.587
 3878SOL     OW12532   2.432   5.991   5.924
 3878SOL    HW112533   2.355   6.020   5.980
 3878SOL    HW212534   2.515   5.990   5.979
 3879SOL     OW12535   4.645   6.013   1.204
 3879SOL    HW112536   4.735   6.056   1.195
 3879SOL    HW212537   4.581   6.077   1.246
 3880SOL     OW12538   5.955   3.891   2.947
 3880SOL    HW112539   5.987   3.799   2.968
 3880SOL    HW212540   6.031   3.956   2.959
 3881SOL     OW12541   1.301   5.350   0.755
 3881SOL    HW112542   1.264   5.443   0.745
 3881SOL    HW212543   1.239   5.285   0.710
 3882SOL     OW12544   6.412   0.973   4.941
 3882SOL    HW112545   6.422   0.934   4.850
 3882SOL    HW212546   6.491   0.947   4.997
 3883SOL     OW12547   4.620   1.486   3.861
 3883SOL    HW112548   4.566   1.450   3.937
 3883SOL    HW212549   4.560   1.531   3.796
 3884SOL     OW12550   1.252   6.512   4.763
 3884SOL    HW112551   1.254   6.413   4.749
 3884SOL    HW212552   1.185   6.552   4.701
 3885SOL     OW12553   6.401   0.848   4.696
 3885SOL    HW112554   6.309   0.818   4.671
 3885SOL    HW212555   6.432   0.919   4.634
 3886SOL     OW12556   6.045   0.475   5.806
 3886SOL    HW112557   6.083   0.438   5.721
 3886SOL    HW212558   6.089   0.563   5.826
 3887SOL     OW12559   5.444   2.219   5.199
 3887SOL    HW112560   5.398   2.222   5.110
 3887SOL    HW212561   5.385   2.171   5.265
 3888SOL     OW12562   0.045   0.405   6.551
 3888SOL    HW112563   7.010   0.389   6.628
 3888SOL    HW212564   0.126   0.454   6.584
 3889SOL     OW12565   0.354   4.588   5.927
 3889SOL    HW112566   0.397   4.581   5.838
 3889SOL    HW212567   0.402   4.657   5.982
 3890SOL     OW12568   6.575   6.524   2.811
 3890SOL    HW112569   6.571   6.424   2.803
 3890SOL    HW212570   6.487   6.564   2.784
 3891SOL     OW12571   5.263   4.823   5.033
 3891SOL    HW112572   5.292   4.785   5.121
 3891SOL    HW212573   5.327   4.894   5.004
 3892SOL     OW12574   1.196   0.471   2.328
 3892SOL    HW112575   1.194   0.463   2.427
 3892SOL    HW212576   1.273   0.418   2.292
 3893SOL     OW12577   3.377   5.880   3.190
 3893SOL    HW112578   3.297   5.940   3.188
 3893SOL    HW212579   3.349   5.786   3.174
 3894SOL     OW12580   3.847   2.392   0.642
 3894SOL    HW112581   3.818   2.488   0.643
 3894SOL    HW212582   3.811   2.345   0.723
 3895SOL     OW12583   1.079   0.957   5.452
 3895SOL    HW112584   1.069   1.054   5.427
 3895SOL    HW212585   1.090   0.903   5.368
 3896SOL     OW12586   0.756   2.378   6.351
 3896SOL    HW112587   0.795   2.435   6.279
 3896SOL    HW212588   0.708   2.436   6.417
 3897SOL     OW12589   2.888   6.354   2.479
 3897SOL    HW112590   2.925   6.321   2.393
 3897SOL    HW212591   2.825   6.286   2.517
 3898SOL     OW12592   3.289   2.953   3.268
 3898SOL    HW112593   3.210   3.006   3.297
 3898SOL    HW212594   3.342   2.925   3.349
 3899SOL     OW12595   5.122   1.281   4.829
 3899SOL    HW112596   5.154   1.369   4.794
 3899SOL    HW212597   5.125   1.281   4.929
 3900SOL     OW12598   5.923   2.667   3.187
 3900SOL    HW112599   6.022   2.665   3.172
 3900SOL    HW212600   5.902   2.738   3.255
 3901SOL     OW12601   1.660   6.827   5.634
 3901SOL    HW112602   1.721   6.749   5.624
 3901SOL    HW212603   1.681   6.876   5.719
 3902SOL     OW12604   5.131   4.038   3.014
 3902SOL    HW112605   5.095   4.017   2.923
 3902SOL    HW212606   5.058   4.028   3.082
 3903SOL     OW12607   4.583   3.596   6.873
 3903SOL    HW112608   4.672   3.573   6.912
 3903SOL    HW212609   4.514   3.600   6.946
 3904SOL     OW12610   0.956   6.894   0.218
 3904SOL    HW112611   0.925   6.983   0.251
 3904SOL    HW212612   0.946   6.890   0.119
 3905SOL     OW12613   6.345   6.147   6.411
 3905SOL    HW112614   6.291   6.078   6.364
 3905SOL    HW212615   6.404   6.103   6.479
 3906SOL     OW12616   1.834   4.760   3.843
 3906SOL    HW112617   1.865   4.692   3.776
 3906SOL    HW212618   1.787   4.714   3.918
 3907SOL     OW12619   0.013   1.360   4.906
 3907SOL    HW112620   0.042   1.265   4.893
 3907SOL    HW212621   0.091   1.420   4.892
 3908SOL     OW12622   1.027   0.611   5.788
 3908SOL    HW112623   1.108   0.660   5.819
 3908SOL    HW212624   1.008   0.535   5.851
 3909SOL     OW12625   5.177   3.567   6.131
 3909SOL    HW112626   5.213   3.575   6.038
 3909SOL    HW212627   5.208   3.646   6.185
 3910SOL     OW12628   3.747   3.890   2.311
 3910SOL    HW112629   3.678   3.840   2.364
 3910SOL    HW212630   3.828   3.833   2.301
 3911SOL     OW12631   5.418   0.243   1.105
 3911SOL    HW112632   5.416   0.171   1.174
 3911SOL    HW212633   5.494   0.226   1.042
 3912SOL     OW12634   3.244   1.530   6.093
 3912SOL    HW112635   3.232   1.586   6.011
 3912SOL    HW212636   3.172   1.552   6.159
 3913SOL     OW12637   3.637   6.499   0.582
 3913SOL    HW112638   3.548   6.454   0.587
 3913SOL    HW212639   3.626   6.587   0.535
 3914SOL     OW12640   5.427   1.588   1.566
 3914SOL    HW112641   5.389   1.604   1.657
 3914SOL    HW212642   5.524   1.565   1.573
 3915SOL     OW12643   3.022   6.046   0.642
 3915SOL    HW112644   3.070   6.122   0.685
 3915SOL    HW212645   2.971   5.996   0.712
 3916SOL     OW12646   3.471   0.411   3.102
 3916SOL    HW112647   3.420   0.432   3.018
 3916SOL    HW212648   3.406   0.394   3.176
 3917SOL     OW12649   2.427   4.959   0.706
 3917SOL    HW112650   2.502   4.976   0.770
 3917SOL    HW212651   2.368   5.039   0.702
 3918SOL     OW12652   4.980   1.396   0.634
 3918SOL    HW112653   5.024   1.328   0.574
 3918SOL    HW212654   4.887   1.414   0.601
 3919SOL     OW12655   4.445   1.202   0.720
 3919SOL    HW112656   4.514   1.159   0.779
 3919SOL    HW212657   4.371   1.238   0.777
 3920SOL     OW12658   2.976   1.585   0.008
 3920SOL    HW112659   3.042   1.585   0.083
 3920SOL    HW212660   2.949   1.679   7.014
 3921SOL     OW12661   6.814   3.053   6.791
 3921SOL    HW112662   6.827   3.105   6.876
 3921SOL    HW212663   6.716   3.037   6.777
 3922SOL     OW12664   4.769   4.796   2.112
 3922SOL    HW112665   4.776   4.696   2.111
 3922SOL    HW212666   4.706   4.826   2.040
 3923SOL     OW12667   6.031   0.835   1.569
 3923SOL    HW112668   5.993   0.801   1.483
 3923SOL    HW212669   6.080   0.761   1.616
 3924SOL     OW12670   6.978   4.752   3.529
 3924SOL    HW112671   6.964   4.654   3.535
 3924SOL    HW212672   6.935   4.798   3.606
 3925SOL     OW12673   4.593   3.999   0.799
 3925SOL    HW112674   4.664   3.964   0.738
 3925SOL    HW212675   4.619   4.089   0.833
 3926SOL     OW12676   0.990   0.380   5.922
 3926SOL    HW112677   1.088   0.362   5.929
 3926SOL    HW212678   0.946   0.305   5.873
 3927SOL     OW12679   0.425   3.032   4.376
 3927SOL    HW112680   0.402   3.076   4.289
 3927SOL    HW212681   0.373   2.948   4.386
 3928SOL     OW12682   2.418   6.732   3.204
 3928SOL    HW112683   2.452   6.706   3.113
 3928SOL    HW212684   2.474   6.688   3.274
 3929SOL     OW12685   6.741   1.869   6.317
 3929SOL    HW112686   6.670   1.939   6.312
 3929SOL    HW212687   6.715   1.791   6.259
 3930SOL     OW12688   1.510   2.351   3.717
 3930SOL    HW112689   1.416   2.340   3.750
 3930SOL    HW212690   1.562   2.407   3.781
 3931SOL     OW12691   1.629   1.568   1.817
 3931SOL    HW112692   1.695   1.640   1.838
 3931SOL    HW212693   1.541   1.609   1.793
 3932SOL     OW12694   1.829   5.566   3.581
 3932SOL    HW112695   1.753   5.595   3.639
 3932SOL    HW212696   1.911   5.617   3.605
 3933SOL     OW12697   1.351   5.375   0.380
 3933SOL    HW112698   1.378   5.445   0.446
 3933SOL    HW212699   1.421   5.304   0.374
 3934SOL     OW12700   0.634   1.603   2.877
 3934SOL    HW112701   0.730   1.599   2.904
 3934SOL    HW212702   0.595   1.511   2.877
 3935SOL     OW12703   6.199   3.259   6.414
 3935SOL    HW112704   6.133   3.192   6.447
 3935SOL    HW212705   6.175   3.350   6.448
 3936SOL     OW12706   6.561   5.620   5.097
 3936SOL    HW112707   6.469   5.608   5.059
 3936SOL    HW212708   6.571   5.714   5.129
 3937SOL     OW12709   0.306   4.961   2.690
 3937SOL    HW112710   0.261   5.046   2.666
 3937SOL    HW212711   0.404   4.977   2.705
 3938SOL     OW12712   0.051   3.565   4.540
 3938SOL    HW112713   0.083   3.603   4.627
 3938SOL    HW212714   0.029   3.639   4.477
 3939SOL     OW12715   0.936   1.372   2.251
 3939SOL    HW112716   1.029   1.358   2.284
 3939SOL    HW212717   0.933   1.451   2.190
 3940SOL     OW12718   3.013   4.689   1.719
 3940SOL    HW112719   3.105   4.696   1.757
 3940SOL    HW212720   2.958   4.625   1.773
 3941SOL     OW12721   6.228   0.093   3.973
 3941SOL    HW112722   6.323   0.064   3.988
 3941SOL    HW212723   6.218   0.189   3.997
 3942SOL     OW12724   1.263   6.714   6.022
 3942SOL    HW112725   1.164   6.706   6.018
 3942SOL    HW212726   1.305   6.624   6.006
 3943SOL     OW12727   0.911   3.933   1.852
 3943SOL    HW112728   0.938   4.004   1.917
 3943SOL    HW212729   0.853   3.866   1.898
 3944SOL     OW12730   6.034   2.928   6.923
 3944SOL    HW112731   6.066   2.883   6.840
 3944SOL    HW212732   5.947   2.889   6.952
 3945SOL     OW12733   1.007   1.870   3.247
 3945SOL    HW112734   1.087   1.920   3.277
 3945SOL    HW212735   0.928   1.931   3.244
 3946SOL     OW12736   6.845   3.804   0.323
 3946SOL    HW112737   6.816   3.873   0.257
 3946SOL    HW212738   6.856   3.716   0.277
 3947SOL     OW12739   5.681   6.099   0.536
 3947SOL    HW112740   5.593   6.147   0.542
 3947SOL    HW212741   5.673   6.023   0.471
 3948SOL     OW12742   1.881   2.398   6.613
 3948SOL    HW112743   1.978   2.405   6.588
 3948SOL    HW212744   1.825   2.403   6.530
 3949SOL     OW12745   6.371   6.614   2.653
 3949SOL    HW112746   6.413   6.629   2.564
 3949SOL    HW212747   6.272   6.601   2.641
 3950SOL     OW12748   4.226   4.304   1.657
 3950SOL    HW112749   4.281   4.268   1.582
 3950SOL    HW212750   4.273   4.286   1.744
 3951SOL     OW12751   0.440   2.379   5.677
 3951SOL    HW112752   0.508   2.447   5.647
 3951SOL    HW212753   0.449   2.297   5.620
 3952SOL     OW12754   5.639   2.141   4.886
 3952SOL    HW112755   5.615   2.060   4.940
 3952SOL    HW212756   5.679   2.112   4.799
 3953SOL     OW12757   3.030   3.766   6.188
 3953SOL    HW112758   3.091   3.818   6.128
 3953SOL    HW212759   2.988   3.828   6.255
 3954SOL     OW12760   6.728   3.916   5.371
 3954SOL    HW112761   6.817   3.871   5.359
 3954SOL    HW212762   6.714   3.935   5.468
 3955SOL     OW12763   5.042   6.126   0.262
 3955SOL    HW112764   4.970   6.156   0.200
 3955SOL    HW212765   5.026   6.166   0.353
 3956SOL     OW12766   0.867   2.811   5.924
 3956SOL    HW112767   0.961   2.802   5.957
 3956SOL    HW212768   0.866   2.808   5.824
 3957SOL     OW12769   2.941   0.269   3.791
 3957SOL    HW112770   3.028   0.221   3.798
 3957SOL    HW212771   2.951   0.350   3.733
 3958SOL     OW12772   6.578   6.198   0.001
 3958SOL    HW112773   6.572   6.218   6.930
 3958SOL    HW212774   6.514   6.125   0.024
 3959SOL     OW12775   2.501   5.576   1.066
 3959SOL    HW112776   2.433   5.543   1.000
 3959SOL    HW212777   2.466   5.565   1.159
 3960SOL     OW12778   4.365   2.714   6.993
 3960SOL    HW112779   4.464   2.709   6.984
 3960SOL    HW212780   4.331   2.629   0.006
 3961SOL     OW12781   5.190   1.953   2.031
 3961SOL    HW112782   5.148   1.863   2.016
 3961SOL    HW212783   5.288   1.948   2.014
 3962SOL     OW12784   1.232   6.311   0.302
 3962SOL    HW112785   1.178   6.227   0.300
 3962SOL    HW212786   1.275   6.326   0.213
 3963SOL     OW12787   5.123   5.769   3.498
 3963SOL    HW112788   5.159   5.783   3.405
 3963SOL    HW212789   5.147   5.677   3.528
 3964SOL     OW12790   5.165   6.327   5.369
 3964SOL    HW112791   5.067   6.338   5.352
 3964SOL    HW212792   5.216   6.341   5.284
 3965SOL     OW12793   3.656   4.996   0.038
 3965SOL    HW112794   3.722   5.027   6.997
 3965SOL    HW212795   3.587   5.068   0.051
 3966SOL     OW12796   6.188   4.809   6.240
 3966SOL    HW112797   6.123   4.857   6.180
 3966SOL    HW212798   6.151   4.719   6.263
 3967SOL     OW12799   0.723   5.454   4.501
 3967SOL    HW112800   0.772   5.534   4.467
 3967SOL    HW212801   0.750   5.373   4.449
 3968SOL     OW12802   5.518   0.341   3.155
 3968SOL    HW112803   5.553   0.381   3.071
 3968SOL    HW212804   5.467   0.258   3.134
 3969SOL     OW12805   1.393   5.036   2.905
 3969SOL    HW112806   1.472   4.988   2.943
 3969SOL    HW212807   1.410   5.135   2.909
 3970SOL     OW12808   4.824   4.732   4.133
 3970SOL    HW112809   4.805   4.715   4.037
 3970SOL    HW212810   4.739   4.745   4.183
 3971SOL     OW12811   2.740   5.602   3.218
 3971SOL    HW112812   2.762   5.632   3.310
 3971SOL    HW212813   2.642   5.607   3.203
 3972SOL     OW12814   0.096   6.549   0.497
 3972SOL    HW112815   0.096   6.470   0.558
 3972SOL    HW212816   0.190   6.571   0.472
 3973SOL     OW12817   3.431   3.176   4.768
 3973SOL    HW112818   3.442   3.098   4.707
 3973SOL    HW212819   3.336   3.183   4.797
 3974SOL     OW12820   6.815   1.378   6.035
 3974SOL    HW112821   6.851   1.459   5.989
 3974SOL    HW212822   6.737   1.343   5.984
 3975SOL     OW12823   6.337   0.758   6.221
 3975SOL    HW112824   6.307   0.677   6.170
 3975SOL    HW212825   6.434   0.749   6.243
 3976SOL     OW12826   0.566   4.351   1.083
 3976SOL    HW112827   0.594   4.419   1.151
 3976SOL    HW212828   0.595   4.381   0.992
 3977SOL     OW12829   2.226   6.096   6.079
 3977SOL    HW112830   2.275   6.141   6.154
 3977SOL    HW212831   2.130   6.085   6.103
 3978SOL     OW12832   5.882   1.691   5.693
 3978SOL    HW112833   5.812   1.640   5.642
 3978SOL    HW212834   5.895   1.781   5.652
 3979SOL     OW12835   2.144   0.052   1.669
 3979SOL    HW112836   2.182   0.118   1.605
 3979SOL    HW212837   2.189   0.062   1.758
 3980SOL     OW12838   5.360   3.412   4.586
 3980SOL    HW112839   5.345   3.491   4.646
 3980SOL    HW212840   5.373   3.330   4.641
 3981SOL     OW12841   0.283   2.240   6.368
 3981SOL    HW112842   0.258   2.256   6.273
 3981SOL    HW212843   0.324   2.323   6.406
 3982SOL     OW12844   1.751   1.001   4.610
 3982SOL    HW112845   1.825   1.061   4.638
 3982SOL    HW212846   1.757   0.984   4.511
 3983SOL     OW12847   3.371   0.068   4.691
 3983SOL    HW112848   3.359   7.023   4.623
 3983SOL    HW212849   3.394   0.027   4.779
 3984SOL     OW12850   1.661   6.602   2.039
 3984SOL    HW112851   1.726   6.630   2.109
 3984SOL    HW212852   1.603   6.529   2.074
 3985SOL     OW12853   1.630   4.214   6.899
 3985SOL    HW112854   1.715   4.226   6.950
 3985SOL    HW212855   1.552   4.224   6.960
 3986SOL     OW12856   0.270   2.109   1.565
 3986SOL    HW112857   0.331   2.188   1.568
 3986SOL    HW212858   0.270   2.071   1.472
 3987SOL     OW12859   1.766   5.743   5.516
 3987SOL    HW112860   1.814   5.742   5.604
 3987SOL    HW212861   1.667   5.741   5.532
 3988SOL     OW12862   4.147   1.794   6.526
 3988SOL    HW112863   4.078   1.778   6.455
 3988SOL    HW212864   4.166   1.892   6.532
 3989SOL     OW12865   5.941   6.820   6.449
 3989SOL    HW112866   5.987   6.909   6.454
 3989SOL    HW212867   5.935   6.791   6.354
 3990SOL     OW12868   0.008   2.451   4.720
 3990SOL    HW112869   7.010   2.504   4.801
 3990SOL    HW212870   6.954   2.440   4.662
 3991SOL     OW12871   0.639   2.196   3.459
 3991SOL    HW112872   0.616   2.119   3.519
 3991SOL    HW212873   0.603   2.281   3.499
 3992SOL     OW12874   3.756   3.286   6.848
 3992SOL    HW112875   3.665   3.303   6.812
 3992SOL    HW212876   3.770   3.188   6.861
 3993SOL     OW12877   3.085   2.189   2.567
 3993SOL    HW112878   3.123   2.127   2.636
 3993SOL    HW212879   3.126   2.168   2.478
 3994SOL     OW12880   2.225   2.585   5.060
 3994SOL    HW112881   2.163   2.511   5.084
 3994SOL    HW212882   2.218   2.658   5.127
 3995SOL     OW12883   2.361   4.223   3.408
 3995SOL    HW112884   2.420   4.303   3.419
 3995SOL    HW212885   2.355   4.198   3.312
 3996SOL     OW12886   1.165   1.439   4.285
 3996SOL    HW112887   1.120   1.350   4.290
 3996SOL    HW212888   1.095   1.510   4.271
 3997SOL     OW12889   4.893   3.365   3.120
 3997SOL    HW112890   4.857   3.307   3.192
 3997SOL    HW212891   4.978   3.326   3.084
 3998SOL     OW12892   6.428   1.506   2.362
 3998SOL    HW112893   6.463   1.571   2.294
 3998SOL    HW212894   6.470   1.417   2.348
 3999SOL     OW12895   6.001   3.913   3.675
 3999SOL    HW112896   6.071   3.842   3.678
 3999SOL    HW212897   5.921   3.879   3.626
 4000SOL     OW12898   3.136   6.088   2.766
 4000SOL    HW112899   3.175   6.117   2.679
 4000SOL    HW212900   3.036   6.083   2.757
 4001SOL     OW12901   2.365   4.087   6.363
 4001SOL    HW112902   2.307   4.164   6.392
 4001SOL    HW212903   2.336   4.004   6.409
 4002SOL     OW12904   4.047   3.210   4.780
 4002SOL    HW112905   4.019   3.306   4.775
 4002SOL    HW212906   4.032   3.166   4.691
 4003SOL     OW12907   2.206   1.108   6.219
 4003SOL    HW112908   2.212   1.196   6.267
 4003SOL    HW212909   2.214   1.034   6.285
 4004SOL     OW12910   6.451   3.870   3.616
 4004SOL    HW112911   6.536   3.914   3.646
 4004SOL    HW212912   6.439   3.785   3.667
 4005SOL     OW12913   3.983   4.470   1.130
 4005SOL    HW112914   4.043   4.480   1.050
 4005SOL    HW212915   3.945   4.559   1.154
 4006SOL     OW12916   5.448   4.903   2.098
 4006SOL    HW112917   5.471   4.948   2.012
 4006SOL    HW212918   5.419   4.971   2.165
 4007SOL     OW12919   0.180   2.301   3.555
 4007SOL    HW112920   0.102   2.266   3.503
 4007SOL    HW212921   0.187   2.252   3.642
 4008SOL     OW12922   2.943   6.948   0.000
 4008SOL    HW112923   2.983   6.856   7.019
 4008SOL    HW212924   3.014   7.012   0.030
 4009SOL     OW12925   5.068   1.984   1.115
 4009SOL    HW112926   5.081   1.974   1.214
 4009SOL    HW212927   4.972   2.002   1.096
 4010SOL     OW12928   2.957   3.364   1.619
 4010SOL    HW112929   2.912   3.343   1.705
 4010SOL    HW212930   3.016   3.288   1.592
 4011SOL     OW12931   6.434   6.147   1.723
 4011SOL    HW112932   6.373   6.176   1.796
 4011SOL    HW212933   6.451   6.048   1.731
 4012SOL     OW12934   3.817   6.897   2.657
 4012SOL    HW112935   3.748   6.873   2.590
 4012SOL    HW212936   3.825   6.823   2.725
 4013SOL     OW12937   1.734   0.195   1.426
 4013SOL    HW112938   1.777   0.283   1.447
 4013SOL    HW212939   1.663   0.175   1.494
 4014SOL     OW12940   3.596   6.271   3.988
 4014SOL    HW112941   3.555   6.222   4.065
 4014SOL    HW212942   3.666   6.213   3.946
 4015SOL     OW12943   4.578   5.163   6.156
 4015SOL    HW112944   4.488   5.128   6.183
 4015SOL    HW212945   4.649   5.103   6.193
 4016SOL     OW12946   2.624   4.892   0.242
 4016SOL    HW112947   2.624   4.884   0.342
 4016SOL    HW212948   2.684   4.822   0.203
 4017SOL     OW12949   6.928   4.684   5.046
 4017SOL    HW112950   6.843   4.635   5.029
 4017SOL    HW212951   6.966   4.655   5.134
 4018SOL     OW12952   4.015   6.926   1.543
 4018SOL    HW112953   3.960   6.846   1.569
 4018SOL    HW212954   4.044   6.975   1.626
 4019SOL     OW12955   5.145   3.910   2.392
 4019SOL    HW112956   5.060   3.869   2.426
 4019SOL    HW212957   5.129   4.006   2.371
 4020SOL     OW12958   0.165   3.033   5.412
 4020SOL    HW112959   0.180   2.936   5.430
 4020SOL    HW212960   0.225   3.087   5.472
 4021SOL     OW12961   3.848   4.080   5.561
 4021SOL    HW112962   3.871   4.164   5.610
 4021SOL    HW212963   3.830   4.101   5.465
 4022SOL     OW12964   3.970   6.433   0.335
 4022SOL    HW112965   3.937   6.339   0.330
 4022SOL    HW212966   4.063   6.434   0.371
 4023SOL     OW12967   0.202   1.113   6.078
 4023SOL    HW112968   0.121   1.168   6.056
 4023SOL    HW212969   0.251   1.155   6.154
 4024SOL     OW12970   2.370   4.729   4.600
 4024SOL    HW112971   2.450   4.781   4.631
 4024SOL    HW212972   2.348   4.658   4.667
 4025SOL     OW12973   0.514   6.215   4.512
 4025SOL    HW112974   0.423   6.182   4.490
 4025SOL    HW212975   0.509   6.283   4.585
 4026SOL     OW12976   6.353   6.667   4.223
 4026SOL    HW112977   6.332   6.634   4.316
 4026SOL    HW212978   6.268   6.675   4.171
 4027SOL     OW12979   2.826   2.442   7.001
 4027SOL    HW112980   2.760   2.514   6.982
 4027SOL    HW212981   2.850   2.396   6.916
 4028SOL     OW12982   4.856   1.489   3.479
 4028SOL    HW112983   4.945   1.525   3.509
 4028SOL    HW212984   4.867   1.394   3.451
 4029SOL     OW12985   3.249   3.922   6.103
 4029SOL    HW112986   3.192   4.004   6.093
 4029SOL    HW212987   3.283   3.895   6.013
 4030SOL     OW12988   6.474   0.915   2.094
 4030SOL    HW112989   6.415   0.872   2.025
 4030SOL    HW212990   6.569   0.908   2.064
 4031SOL     OW12991   4.989   6.148   3.444
 4031SOL    HW112992   4.967   6.242   3.419
 4031SOL    HW212993   4.934   6.085   3.388
 4032SOL     OW12994   0.315   6.957   2.490
 4032SOL    HW112995   0.387   6.924   2.428
 4032SOL    HW212996   0.226   6.948   2.445
 4033SOL     OW12997   1.924   2.618   1.943
 4033SOL    HW112998   1.870   2.535   1.950
 4033SOL    HW212999   2.002   2.612   2.005
 4034SOL     OW13000   5.917   1.934   4.992
 4034SOL    HW113001   5.859   1.904   5.068
 4034SOL    HW213002   5.988   1.996   5.027
 4035SOL     OW13003   5.975   1.074   0.903
 4035SOL    HW113004   5.998   1.151   0.962
 4035SOL    HW213005   5.955   1.108   0.811
 4036SOL     OW13006   4.270   4.708   2.132
 4036SOL    HW113007   4.252   4.672   2.040
 4036SOL    HW213008   4.317   4.796   2.125
 4037SOL     OW13009   2.039   1.460   6.668
 4037SOL    HW113010   2.133   1.432   6.647
 4037SOL    HW213011   1.985   1.459   6.584
 4038SOL     OW13012   4.482   2.826   1.016
 4038SOL    HW113013   4.468   2.747   0.956
 4038SOL    HW213014   4.519   2.795   1.103
 4039SOL     OW13015   5.153   5.525   1.755
 4039SOL    HW113016   5.250   5.507   1.766
 4039SOL    HW213017   5.101   5.441   1.769
 4040SOL     OW13018   3.645   6.898   4.783
 4040SOL    HW113019   3.687   6.868   4.868
 4040SOL    HW213020   3.642   6.821   4.719
 4041SOL     OW13021   1.332   4.925   0.820
 4041SOL    HW113022   1.262   4.982   0.863
 4041SOL    HW213023   1.334   4.944   0.721
 4042SOL     OW13024   6.288   6.171   4.191
 4042SOL    HW113025   6.277   6.095   4.128
 4042SOL    HW213026   6.386   6.192   4.201
 4043SOL     OW13027   6.868   2.130   6.275
 4043SOL    HW113028   6.818   2.060   6.224
 4043SOL    HW213029   6.957   2.146   6.231
 4044SOL     OW13030   4.970   6.395   3.733
 4044SOL    HW113031   4.888   6.387   3.677
 4044SOL    HW213032   4.995   6.305   3.768
 4045SOL     OW13033   3.806   5.960   5.983
 4045SOL    HW113034   3.811   5.867   5.948
 4045SOL    HW213035   3.796   5.959   6.082
 4046SOL     OW13036   1.237   1.847   3.677
 4046SOL    HW113037   1.262   1.798   3.760
 4046SOL    HW213038   1.310   1.837   3.609
 4047SOL     OW13039   2.902   1.845   6.972
 4047SOL    HW113040   2.867   1.853   6.879
 4047SOL    HW213041   2.829   1.866   0.010
 4048SOL     OW13042   5.107   1.278   1.677
 4048SOL    HW113043   5.172   1.203   1.686
 4048SOL    HW213044   5.071   1.280   1.584
 4049SOL     OW13045   5.056   5.025   6.466
 4049SOL    HW113046   5.124   5.015   6.538
 4049SOL    HW213047   4.980   4.961   6.482
 4050SOL     OW13048   0.864   6.523   2.450
 4050SOL    HW113049   0.943   6.580   2.429
 4050SOL    HW213050   0.787   6.581   2.475
 4051SOL     OW13051   4.099   1.560   6.669
 4051SOL    HW113052   4.022   1.509   6.629
 4051SOL    HW213053   4.105   1.650   6.624
 4052SOL     OW13054   6.016   1.319   2.708
 4052SOL    HW113055   6.096   1.351   2.759
 4052SOL    HW213056   6.022   1.221   2.694
 4053SOL     OW13057   2.920   6.955   4.322
 4053SOL    HW113058   2.873   6.872   4.293
 4053SOL    HW213059   2.980   6.934   4.400
 4054SOL     OW13060   5.318   4.057   1.017
 4054SOL    HW113061   5.409   4.090   1.043
 4054SOL    HW213062   5.294   4.091   0.926
 4055SOL     OW13063   3.004   3.770   0.508
 4055SOL    HW113064   2.941   3.764   0.586
 4055SOL    HW213065   3.082   3.827   0.533
 4056SOL     OW13066   5.268   4.016   0.615
 4056SOL    HW113067   5.291   3.954   0.690
 4056SOL    HW213068   5.327   3.997   0.537
 4057SOL     OW13069   6.842   2.442   0.475
 4057SOL    HW113070   6.792   2.401   0.552
 4057SOL    HW213071   6.927   2.392   0.460
 4058SOL     OW13072   2.529   6.667   4.868
 4058SOL    HW113073   2.570   6.589   4.916
 4058SOL    HW213074   2.472   6.633   4.793
 4059SOL     OW13075   1.012   1.727   2.512
 4059SOL    HW113076   1.075   1.681   2.449
 4059SOL    HW213077   1.049   1.724   2.604
 4060SOL     OW13078   5.727   5.514   5.281
 4060SOL    HW113079   5.769   5.499   5.191
 4060SOL    HW213080   5.785   5.474   5.352
 4061SOL     OW13081   1.991   4.487   2.276
 4061SOL    HW113082   2.068   4.545   2.301
 4061SOL    HW213083   2.021   4.392   2.269
 4062SOL     OW13084   2.545   0.741   1.842
 4062SOL    HW113085   2.594   0.827   1.831
 4062SOL    HW213086   2.578   0.675   1.775
 4063SOL     OW13087   5.950   6.377   0.244
 4063SOL    HW113088   5.933   6.310   0.316
 4063SOL    HW213089   5.917   6.342   0.157
 4064SOL     OW13090   2.518   0.533   3.897
 4064SOL    HW113091   2.452   0.508   3.825
 4064SOL    HW213092   2.571   0.612   3.868
 4065SOL     OW13093   1.048   6.720   1.665
 4065SOL    HW113094   1.073   6.709   1.761
 4065SOL    HW213095   1.130   6.716   1.608
 4066SOL     OW13096   6.355   3.984   3.045
 4066SOL    HW113097   6.382   3.887   3.045
 4066SOL    HW213098   6.355   4.019   2.952
 4067SOL     OW13099   6.421   3.730   3.085
 4067SOL    HW113100   6.433   3.638   3.049
 4067SOL    HW213101   6.382   3.725   3.177
 4068SOL     OW13102   1.533   1.216   4.973
 4068SOL    HW113103   1.567   1.123   4.985
 4068SOL    HW213104   1.497   1.250   5.060
 4069SOL     OW13105   3.138   5.281   6.794
 4069SOL    HW113106   3.147   5.330   6.708
 4069SOL    HW213107   3.168   5.340   6.869
 4070SOL     OW13108   0.541   2.913   2.634
 4070SOL    HW113109   0.539   2.923   2.733
 4070SOL    HW213110   0.636   2.908   2.603
 4071SOL     OW13111   1.109   1.636   5.457
 4071SOL    HW113112   1.076   1.678   5.372
 4071SOL    HW213113   1.039   1.574   5.493
 4072SOL     OW13114   0.997   5.800   4.591
 4072SOL    HW113115   0.916   5.760   4.549
 4072SOL    HW213116   1.079   5.754   4.557
 4073SOL     OW13117   2.746   6.551   6.561
 4073SOL    HW113118   2.690   6.527   6.481
 4073SOL    HW213119   2.768   6.648   6.557
 4074SOL     OW13120   7.024   4.147   1.353
 4074SOL    HW113121   0.008   4.207   1.432
 4074SOL    HW213122   0.050   4.184   1.276
 4075SOL     OW13123   4.541   2.017   1.663
 4075SOL    HW113124   4.583   2.017   1.753
 4075SOL    HW213125   4.469   1.948   1.660
 4076SOL     OW13126   3.047   2.914   5.993
 4076SOL    HW113127   3.108   2.967   6.051
 4076SOL    HW213128   2.965   2.968   5.973
 4077SOL     OW13129   3.696   1.418   0.089
 4077SOL    HW113130   3.738   1.332   0.059
 4077SOL    HW213131   3.737   1.446   0.176
 4078SOL     OW13132   0.265   5.326   1.105
 4078SOL    HW113133   0.336   5.332   1.035
 4078SOL    HW213134   0.235   5.231   1.113
 4079SOL     OW13135   1.944   0.939   3.613
 4079SOL    HW113136   1.970   0.875   3.541
 4079SOL    HW213137   1.964   0.899   3.703
 4080SOL     OW13138   4.097   4.049   6.130
 4080SOL    HW113139   4.145   4.092   6.206
 4080SOL    HW213140   4.058   3.962   6.160
 4081SOL     OW13141   2.166   3.249   4.349
 4081SOL    HW113142   2.179   3.344   4.376
 4081SOL    HW213143   2.191   3.189   4.425
 4082SOL     OW13144   0.880   3.722   0.033
 4082SOL    HW113145   0.809   3.771   0.083
 4082SOL    HW213146   0.923   3.655   0.093
 4083SOL     OW13147   0.101   3.139   2.277
 4083SOL    HW113148   0.110   3.239   2.283
 4083SOL    HW213149   0.018   3.110   2.324
 4084SOL     OW13150   5.816   1.774   3.585
 4084SOL    HW113151   5.815   1.856   3.528
 4084SOL    HW213152   5.751   1.785   3.660
 4085SOL     OW13153   3.049   5.884   1.751
 4085SOL    HW113154   3.008   5.797   1.779
 4085SOL    HW213155   3.126   5.905   1.810
 4086SOL     OW13156   1.384   5.693   1.684
 4086SOL    HW113157   1.353   5.677   1.777
 4086SOL    HW213158   1.361   5.786   1.656
 4087SOL     OW13159   2.094   1.618   3.445
 4087SOL    HW113160   2.105   1.534   3.498
 4087SOL    HW213161   2.145   1.692   3.490
 4088SOL     OW13162   0.046   1.536   0.203
 4088SOL    HW113163   0.035   1.563   0.108
 4088SOL    HW213164   0.107   1.457   0.209
 4089SOL     OW13165   5.868   6.322   4.031
 4089SOL    HW113166   5.788   6.314   4.092
 4089SOL    HW213167   5.947   6.282   4.076
 4090SOL     OW13168   1.479   5.002   5.988
 4090SOL    HW113169   1.390   5.004   5.944
 4090SOL    HW213170   1.477   5.056   6.072
 4091SOL     OW13171   6.911   6.425   0.041
 4091SOL    HW113172   6.973   6.475   0.101
 4091SOL    HW213173   6.897   6.332   0.078
 4092SOL     OW13174   6.832   2.361   6.076
 4092SOL    HW113175   6.754   2.300   6.064
 4092SOL    HW213176   6.841   2.420   5.995
 4093SOL     OW13177   4.699   0.107   3.015
 4093SOL    HW113178   4.646   0.183   3.053
 4093SOL    HW213179   4.795   0.133   3.010
 4094SOL     OW13180   2.504   5.775   4.476
 4094SOL    HW113181   2.460   5.802   4.562
 4094SOL    HW213182   2.438   5.782   4.402
 4095SOL     OW13183   0.386   3.963   0.433
 4095SOL    HW113184   0.486   3.966   0.438
 4095SOL    HW213185   0.353   4.042   0.381
 4096SOL     OW13186   4.443   6.082   6.141
 4096SOL    HW113187   4.425   6.085   6.043
 4096SOL    HW213188   4.458   5.988   6.170
 4097SOL     OW13189   3.598   4.795   5.382
 4097SOL    HW113190   3.552   4.713   5.414
 4097SOL    HW213191   3.682   4.770   5.335
 4098SOL     OW13192   0.412   2.789   1.687
 4098SOL    HW113193   0.414   2.862   1.756
 4098SOL    HW213194   0.386   2.827   1.599
 4099SOL     OW13195   2.674   4.692   1.622
 4099SOL    HW113196   2.701   4.596   1.636
 4099SOL    HW213197   2.744   4.739   1.569
 4100SOL     OW13198   6.811   5.778   4.316
 4100SOL    HW113199   6.901   5.763   4.277
 4100SOL    HW213200   6.744   5.721   4.268
 4101SOL     OW13201   6.242   0.619   6.968
 4101SOL    HW113202   6.310   0.681   6.929
 4101SOL    HW213203   6.150   0.656   6.952
 4102SOL     OW13204   6.430   0.297   0.664
 4102SOL    HW113205   6.401   0.350   0.583
 4102SOL    HW213206   6.496   0.351   0.717
 4103SOL     OW13207   0.343   0.726   0.391
 4103SOL    HW113208   0.365   0.726   0.293
 4103SOL    HW213209   0.423   0.693   0.443
 4104SOL     OW13210   0.650   4.654   2.723
 4104SOL    HW113211   0.729   4.691   2.772
 4104SOL    HW213212   0.665   4.557   2.703
 4105SOL     OW13213   4.479   6.724   1.587
 4105SOL    HW113214   4.571   6.685   1.578
 4105SOL    HW213215   4.473   6.808   1.534
 4106SOL     OW13216   6.548   2.624   3.470
 4106SOL    HW113217   6.641   2.606   3.500
 4106SOL    HW213218   6.528   2.722   3.481
 4107SOL     OW13219   1.055   5.552   1.345
 4107SOL    HW113220   0.966   5.570   1.303
 4107SOL    HW213221   1.092   5.638   1.382
 4108SOL     OW13222   6.115   4.586   5.386
 4108SOL    HW113223   6.053   4.649   5.339
 4108SOL    HW213224   6.209   4.604   5.357
 4109SOL     OW13225   6.038   0.178   4.987
 4109SOL    HW113226   6.077   0.259   5.030
 4109SOL    HW213227   6.023   0.196   4.890
 4110SOL     OW13228   3.955   3.570   6.271
 4110SOL    HW113229   3.858   3.551   6.262
 4110SOL    HW213230   3.996   3.505   6.335
 4111SOL     OW13231   4.162   3.438   0.105
 4111SOL    HW113232   4.119   3.476   0.023
 4111SOL    HW213233   4.117   3.353   0.130
 4112SOL     OW13234   4.959   6.898   4.949
 4112SOL    HW113235   4.921   6.841   5.023
 4112SOL    HW213236   4.991   6.985   4.987
 4113SOL     OW13237   4.901   6.185   4.339
 4113SOL    HW113238   4.806   6.186   4.373
 4113SOL    HW213239   4.936   6.279   4.338
 4114SOL     OW13240   3.237   2.042   4.334
 4114SOL    HW113241   3.156   2.090   4.302
 4114SOL    HW213242   3.229   2.024   4.432
 4115SOL     OW13243   3.918   4.907   2.492
 4115SOL    HW113244   3.960   4.846   2.425
 4115SOL    HW213245   3.821   4.883   2.502
 4116SOL     OW13246   3.759   1.644   2.047
 4116SOL    HW113247   3.718   1.689   1.967
 4116SOL    HW213248   3.762   1.709   2.123
 4117SOL     OW13249   1.082   4.429   2.243
 4117SOL    HW113250   1.132   4.450   2.327
 4117SOL    HW213251   1.087   4.507   2.181
 4118SOL     OW13252   2.755   6.515   0.886
 4118SOL    HW113253   2.657   6.504   0.903
 4118SOL    HW213254   2.773   6.508   0.788
 4119SOL     OW13255   3.686   2.137   4.223
 4119SOL    HW113256   3.667   2.109   4.317
 4119SOL    HW213257   3.600   2.145   4.172
 4120SOL     OW13258   3.886   6.999   0.485
 4120SOL    HW113259   3.824   6.996   0.406
 4120SOL    HW213260   3.834   6.980   0.569
 4121SOL     OW13261   6.353   0.794   5.283
 4121SOL    HW113262   6.273   0.815   5.227
 4121SOL    HW213263   6.323   0.746   5.366
 4122SOL     OW13264   1.184   5.852   5.177
 4122SOL    HW113265   1.261   5.871   5.117
 4122SOL    HW213266   1.101   5.840   5.123
 4123SOL     OW13267   4.313   4.838   5.880
 4123SOL    HW113268   4.296   4.926   5.835
 4123SOL    HW213269   4.298   4.847   5.978
 4124SOL     OW13270   6.036   5.591   6.711
 4124SOL    HW113271   6.047   5.495   6.736
 4124SOL    HW213272   6.003   5.643   6.789
 4125SOL     OW13273   4.869   1.350   2.437
 4125SOL    HW113274   4.896   1.431   2.386
 4125SOL    HW213275   4.941   1.281   2.430
 4126SOL     OW13276   1.064   3.974   4.581
 4126SOL    HW113277   0.977   3.944   4.544
 4126SOL    HW213278   1.110   4.033   4.515
 4127SOL     OW13279   4.474   4.985   4.904
 4127SOL    HW113280   4.450   4.891   4.930
 4127SOL    HW213281   4.562   5.009   4.945
 4128SOL     OW13282   1.648   2.783   1.896
 4128SOL    HW113283   1.649   2.867   1.842
 4128SOL    HW213284   1.739   2.766   1.934
 4129SOL     OW13285   4.486   1.776   6.362
 4129SOL    HW113286   4.408   1.810   6.309
 4129SOL    HW213287   4.462   1.775   6.459
 4130SOL     OW13288   6.540   2.675   5.880
 4130SOL    HW113289   6.559   2.620   5.799
 4130SOL    HW213290   6.627   2.703   5.922
 4131SOL     OW13291   1.971   0.360   3.096
 4131SOL    HW113292   1.969   0.353   2.996
 4131SOL    HW213293   1.892   0.312   3.134
 4132SOL     OW13294   5.038   4.402   3.789
 4132SOL    HW113295   5.032   4.316   3.738
 4132SOL    HW213296   5.038   4.479   3.725
 4133SOL     OW13297   3.142   6.435   1.182
 4133SOL    HW113298   3.220   6.464   1.237
 4133SOL    HW213299   3.087   6.370   1.234
 4134SOL     OW13300   2.587   3.192   0.309
 4134SOL    HW113301   2.625   3.255   0.241
 4134SOL    HW213302   2.658   3.130   0.341
 4135SOL     OW13303   1.359   1.742   2.891
 4135SOL    HW113304   1.308   1.697   2.964
 4135SOL    HW213305   1.446   1.776   2.928
 4136SOL     OW13306   1.335   2.151   2.767
 4136SOL    HW113307   1.300   2.063   2.736
 4136SOL    HW213308   1.403   2.185   2.703
 4137SOL     OW13309   0.413   4.602   0.940
 4137SOL    HW113310   0.512   4.586   0.945
 4137SOL    HW213311   0.379   4.571   0.851
 4138SOL     OW13312   4.414   5.141   3.332
 4138SOL    HW113313   4.499   5.093   3.355
 4138SOL    HW213314   4.405   5.222   3.391
 4139SOL     OW13315   1.859   2.056   4.872
 4139SOL    HW113316   1.837   2.089   4.964
 4139SOL    HW213317   1.949   2.012   4.872
 4140SOL     OW13318   2.799   1.159   5.430
 4140SOL    HW113319   2.847   1.072   5.441
 4140SOL    HW213320   2.839   1.210   5.354
 4141SOL     OW13321   6.344   6.210   1.434
 4141SOL    HW113322   6.244   6.206   1.428
 4141SOL    HW213323   6.373   6.193   1.528
 4142SOL     OW13324   6.074   5.895   0.850
 4142SOL    HW113325   6.070   5.994   0.836
 4142SOL    HW213326   6.124   5.853   0.774
 4143SOL     OW13327   6.833   3.016   1.081
 4143SOL    HW113328   6.808   3.110   1.104
 4143SOL    HW213329   6.932   3.008   1.073
 4144SOL     OW13330   4.722   4.109   5.825
 4144SOL    HW113331   4.795   4.085   5.890
 4144SOL    HW213332   4.640   4.056   5.846
 4145SOL     OW13333   6.813   6.078   0.885
 4145SOL    HW113334   6.868   6.052   0.964
 4145SOL    HW213335   6.724   6.034   0.890
 4146SOL     OW13336   6.843   0.717   5.408
 4146SOL    HW113337   6.757   0.684   5.369
 4146SOL    HW213338   6.919   0.671   5.363
 4147SOL     OW13339   4.963   3.656   5.824
 4147SOL    HW113340   4.962   3.631   5.921
 4147SOL    HW213341   4.924   3.581   5.771
 4148SOL     OW13342   1.076   0.281   5.139
 4148SOL    HW113343   1.164   0.239   5.115
 4148SOL    HW213344   1.030   0.226   5.209
 4149SOL     OW13345   0.217   2.553   0.476
 4149SOL    HW113346   0.247   2.468   0.433
 4149SOL    HW213347   0.196   2.620   0.405
 4150SOL     OW13348   0.822   0.827   5.916
 4150SOL    HW113349   0.867   0.751   5.963
 4150SOL    HW213350   0.855   0.832   5.822
 4151SOL     OW13351   3.600   5.585   5.599
 4151SOL    HW113352   3.692   5.545   5.596
 4151SOL    HW213353   3.557   5.562   5.686
 4152SOL     OW13354   3.348   6.490   1.499
 4152SOL    HW113355   3.447   6.476   1.500
 4152SOL    HW213356   3.328   6.581   1.461
 4153SOL     OW13357   4.465   4.518   0.149
 4153SOL    HW113358   4.476   4.439   0.209
 4153SOL    HW213359   4.554   4.547   0.114
 4154SOL     OW13360   0.822   4.603   4.625
 4154SOL    HW113361   0.880   4.524   4.644
 4154SOL    HW213362   0.727   4.574   4.617
 4155SOL     OW13363   6.784   1.413   1.854
 4155SOL    HW113364   6.711   1.443   1.916
 4155SOL    HW213365   6.765   1.320   1.824
 4156SOL     OW13366   5.807   5.751   4.845
 4156SOL    HW113367   5.801   5.772   4.747
 4156SOL    HW213368   5.820   5.836   4.896
 4157SOL     OW13369   4.541   6.093   4.582
 4157SOL    HW113370   4.444   6.071   4.567
 4157SOL    HW213371   4.566   6.171   4.526
 4158SOL     OW13372   1.656   4.970   2.984
 4158SOL    HW113373   1.721   4.979   2.909
 4158SOL    HW213374   1.642   4.874   3.005
 4159SOL     OW13375   2.153   3.509   4.379
 4159SOL    HW113376   2.223   3.526   4.448
 4159SOL    HW213377   2.070   3.559   4.403
 4160SOL     OW13378   6.157   0.255   0.686
 4160SOL    HW113379   6.125   0.166   0.655
 4160SOL    HW213380   6.256   0.253   0.696
 4161SOL     OW13381   0.666   0.636   6.890
 4161SOL    HW113382   0.616   0.696   6.954
 4161SOL    HW213383   0.761   0.627   6.921
 4162SOL     OW13384   6.176   6.692   5.697
 4162SOL    HW113385   6.216   6.612   5.651
 4162SOL    HW213386   6.233   6.772   5.678
 4163SOL     OW13387   6.109   7.010   3.619
 4163SOL    HW113388   6.207   6.992   3.627
 4163SOL    HW213389   6.074   6.969   3.534
 4164SOL     OW13390   1.345   6.546   6.702
 4164SOL    HW113391   1.372   6.450   6.691
 4164SOL    HW213392   1.273   6.552   6.770
 4165SOL     OW13393   3.808   0.265   0.155
 4165SOL    HW113394   3.804   0.256   0.056
 4165SOL    HW213395   3.903   0.254   0.185
 4166SOL     OW13396   6.398   3.983   0.838
 4166SOL    HW113397   6.322   3.924   0.812
 4166SOL    HW213398   6.416   4.049   0.765
 4167SOL     OW13399   1.173   3.878   0.922
 4167SOL    HW113400   1.165   3.779   0.919
 4167SOL    HW213401   1.203   3.906   1.014
 4168SOL     OW13402   6.400   5.408   0.966
 4168SOL    HW113403   6.400   5.309   0.952
 4168SOL    HW213404   6.488   5.446   0.938
 4169SOL     OW13405   5.767   4.355   3.888
 4169SOL    HW113406   5.841   4.392   3.943
 4169SOL    HW213407   5.725   4.278   3.935
 4170SOL     OW13408   3.272   3.969   5.312
 4170SOL    HW113409   3.304   3.890   5.365
 4170SOL    HW213410   3.194   3.943   5.256
 4171SOL     OW13411   5.382   5.304   1.617
 4171SOL    HW113412   5.387   5.361   1.699
 4171SOL    HW213413   5.472   5.264   1.599
 4172SOL     OW13414   0.606   2.072   6.101
 4172SOL    HW113415   0.524   2.044   6.050
 4172SOL    HW213416   0.687   2.061   6.044
 4173SOL     OW13417   5.281   3.699   5.248
 4173SOL    HW113418   5.337   3.771   5.287
 4173SOL    HW213419   5.259   3.631   5.318
 4174SOL     OW13420   5.293   0.935   3.504
 4174SOL    HW113421   5.259   0.979   3.421
 4174SOL    HW213422   5.369   0.989   3.541
 4175SOL     OW13423   2.087   6.220   4.750
 4175SOL    HW113424   2.119   6.296   4.807
 4175SOL    HW213425   2.166   6.175   4.709
 4176SOL     OW13426   3.373   6.660   2.096
 4176SOL    HW113427   3.439   6.597   2.056
 4176SOL    HW213428   3.415   6.709   2.172
 4177SOL     OW13429   6.739   4.065   4.603
 4177SOL    HW113430   6.756   4.138   4.669
 4177SOL    HW213431   6.796   4.078   4.523
 4178SOL     OW13432   4.432   1.159   4.232
 4178SOL    HW113433   4.489   1.114   4.163
 4178SOL    HW213434   4.345   1.186   4.191
 4179SOL     OW13435   5.428   2.353   3.236
 4179SOL    HW113436   5.520   2.330   3.206
 4179SOL    HW213437   5.432   2.407   3.320
 4180SOL     OW13438   5.158   4.022   1.629
 4180SOL    HW113439   5.202   4.088   1.568
 4180SOL    HW213440   5.167   4.052   1.723
 4181SOL     OW13441   2.388   2.064   6.891
 4181SOL    HW113442   2.305   2.011   6.877
 4181SOL    HW213443   2.468   2.003   6.885
 4182SOL     OW13444   0.204   6.354   2.949
 4182SOL    HW113445   0.117   6.400   2.965
 4182SOL    HW213446   0.279   6.419   2.962
 4183SOL     OW13447   4.354   0.722   0.441
 4183SOL    HW113448   4.414   0.675   0.377
 4183SOL    HW213449   4.344   0.818   0.414
 4184SOL     OW13450   4.702   5.291   1.306
 4184SOL    HW113451   4.695   5.282   1.207
 4184SOL    HW213452   4.615   5.323   1.343
 4185SOL     OW13453   0.944   6.013   2.334
 4185SOL    HW113454   1.040   6.025   2.308
 4185SOL    HW213455   0.890   5.987   2.254
 4186SOL     OW13456   1.799   5.049   1.175
 4186SOL    HW113457   1.720   5.085   1.125
 4186SOL    HW213458   1.768   5.002   1.257
 4187SOL     OW13459   3.354   3.798   5.892
 4187SOL    HW113460   3.438   3.777   5.944
 4187SOL    HW213461   3.378   3.818   5.797
 4188SOL     OW13462   5.402   0.051   4.117
 4188SOL    HW113463   5.452   0.032   4.201
 4188SOL    HW213464   5.442   7.026   4.042
 4189SOL     OW13465   3.390   0.880   5.098
 4189SOL    HW113466   3.322   0.835   5.155
 4189SOL    HW213467   3.413   0.821   5.020
 4190SOL     OW13468   0.760   0.296   6.690
 4190SOL    HW113469   0.823   0.261   6.759
 4190SOL    HW213470   0.673   0.248   6.697
 4191SOL     OW13471   5.358   3.101   3.098
 4191SOL    HW113472   5.380   3.013   3.141
 4191SOL    HW213473   5.439   3.158   3.095
 4192SOL     OW13474   0.662   0.836   4.070
 4192SOL    HW113475   0.621   0.872   3.987
 4192SOL    HW213476   0.753   0.799   4.050
 4193SOL     OW13477   2.232   6.740   2.363
 4193SOL    HW113478   2.248   6.828   2.319
 4193SOL    HW213479   2.317   6.689   2.368
 4194SOL     OW13480   5.997   0.979   5.638
 4194SOL    HW113481   6.009   0.932   5.725
 4194SOL    HW213482   5.903   1.013   5.631
 4195SOL     OW13483   4.255   0.407   1.878
 4195SOL    HW113484   4.261   0.422   1.977
 4195SOL    HW213485   4.159   0.394   1.852
 4196SOL     OW13486   5.877   2.411   3.604
 4196SOL    HW113487   5.844   2.502   3.582
 4196SOL    HW213488   5.977   2.410   3.603
 4197SOL     OW13489   5.118   5.739   5.406
 4197SOL    HW113490   5.157   5.817   5.357
 4197SOL    HW213491   5.110   5.761   5.503
 4198SOL     OW13492   5.477   2.937   6.653
 4198SOL    HW113493   5.478   3.034   6.678
 4198SOL    HW213494   5.458   2.882   6.734
 4199SOL     OW13495   1.820   4.083   6.647
 4199SOL    HW113496   1.868   4.025   6.581
 4199SOL    HW213497   1.783   4.026   6.721
 4200SOL     OW13498   3.147   6.260   4.824
 4200SOL    HW113499   3.165   6.230   4.918
 4200SOL    HW213500   3.218   6.222   4.764
 4201SOL     OW13501   6.330   6.003   3.427
 4201SOL    HW113502   6.391   6.082   3.417
 4201SOL    HW213503   6.328   5.976   3.524
 4202SOL     OW13504   3.903   5.920   5.657
 4202SOL    HW113505   3.921   5.825   5.683
 4202SOL    HW213506   3.805   5.931   5.637
 4203SOL     OW13507   4.861   5.521   1.294
 4203SOL    HW113508   4.804   5.597   1.263
 4203SOL    HW213509   4.804   5.440   1.307
 4204SOL     OW13510   3.722   2.861   2.271
 4204SOL    HW113511   3.816   2.886   2.294
 4204SOL    HW213512   3.667   2.859   2.355
 4205SOL     OW13513   3.704   4.919   4.304
 4205SOL    HW113514   3.607   4.896   4.299
 4205SOL    HW213515   3.727   4.948   4.397
 4206SOL     OW13516   6.000   0.898   5.896
 4206SOL    HW113517   6.003   0.844   5.980
 4206SOL    HW213518   6.023   0.993   5.917
 4207SOL     OW13519   2.360   1.685   1.525
 4207SOL    HW113520   2.262   1.686   1.543
 4207SOL    HW213521   2.381   1.747   1.449
 4208SOL     OW13522   1.596   2.858   6.556
 4208SOL    HW113523   1.617   2.805   6.473
 4208SOL    HW213524   1.551   2.943   6.530
 4209SOL     OW13525   0.725   1.902   5.254
 4209SOL    HW113526   0.797   1.849   5.298
 4209SOL    HW213527   0.760   1.993   5.230
 4210SOL     OW13528   3.070   3.590   2.163
 4210SOL    HW113529   3.127   3.509   2.155
 4210SOL    HW213530   2.977   3.569   2.131
 4211SOL     OW13531   3.597   6.063   4.958
 4211SOL    HW113532   3.693   6.088   4.971
 4211SOL    HW213533   3.574   5.988   5.019
 4212SOL     OW13534   6.101   2.532   2.480
 4212SOL    HW113535   6.109   2.603   2.409
 4212SOL    HW213536   6.110   2.574   2.570
 4213SOL     OW13537   2.805   1.064   2.865
 4213SOL    HW113538   2.752   1.148   2.851
 4213SOL    HW213539   2.744   0.991   2.897
 4214SOL     OW13540   0.936   4.320   6.083
 4214SOL    HW113541   0.949   4.385   6.158
 4214SOL    HW213542   0.841   4.321   6.054
 4215SOL     OW13543   6.583   5.941   4.347
 4215SOL    HW113544   6.588   5.990   4.434
 4215SOL    HW213545   6.665   5.884   4.336
 4216SOL     OW13546   1.869   1.877   3.162
 4216SOL    HW113547   1.866   1.930   3.247
 4216SOL    HW213548   1.933   1.801   3.172
 4217SOL     OW13549   6.517   0.192   2.473
 4217SOL    HW113550   6.461   0.133   2.532
 4217SOL    HW213551   6.511   0.286   2.505
 4218SOL     OW13552   4.711   0.332   1.113
 4218SOL    HW113553   4.650   0.307   1.188
 4218SOL    HW213554   4.801   0.355   1.149
 4219SOL     OW13555   2.788   5.174   4.487
 4219SOL    HW113556   2.752   5.120   4.410
 4219SOL    HW213557   2.732   5.256   4.498
 4220SOL     OW13558   6.340   2.562   3.076
 4220SOL    HW113559   6.284   2.600   3.150
 4220SOL    HW213560   6.377   2.473   3.105
 4221SOL     OW13561   6.144   5.695   6.283
 4221SOL    HW113562   6.125   5.627   6.354
 4221SOL    HW213563   6.080   5.771   6.291
 4222SOL     OW13564   6.354   2.347   2.600
 4222SOL    HW113565   6.391   2.257   2.577
 4222SOL    HW213566   6.335   2.397   2.515
 4223SOL     OW13567   2.995   3.580   4.793
 4223SOL    HW113568   2.983   3.520   4.872
 4223SOL    HW213569   2.908   3.590   4.745
 4224SOL     OW13570   4.913   3.217   3.744
 4224SOL    HW113571   5.013   3.215   3.750
 4224SOL    HW213572   4.878   3.124   3.755
 4225SOL     OW13573   4.577   0.307   5.273
 4225SOL    HW113574   4.661   0.351   5.305
 4225SOL    HW213575   4.511   0.377   5.245
 4226SOL     OW13576   0.732   0.690   3.282
 4226SOL    HW113577   0.675   0.700   3.201
 4226SOL    HW213578   0.690   0.738   3.359
 4227SOL     OW13579   3.307   4.804   6.953
 4227SOL    HW113580   3.221   4.758   6.933
 4227SOL    HW213581   3.292   4.903   6.957
 4228SOL     OW13582   6.897   3.180   3.152
 4228SOL    HW113583   6.878   3.275   3.128
 4228SOL    HW213584   6.950   3.137   3.080
 4229SOL     OW13585   4.885   4.783   5.700
 4229SOL    HW113586   4.951   4.791   5.775
 4229SOL    HW213587   4.844   4.873   5.682
 4230SOL     OW13588   2.233   0.745   4.837
 4230SOL    HW113589   2.220   0.815   4.767
 4230SOL    HW213590   2.145   0.724   4.879
 4231SOL     OW13591   5.479   6.217   4.467
 4231SOL    HW113592   5.565   6.166   4.471
 4231SOL    HW213593   5.455   6.249   4.559
 4232SOL     OW13594   0.195   4.662   2.038
 4232SOL    HW113595   0.157   4.605   2.110
 4232SOL    HW213596   0.250   4.735   2.078
 4233SOL     OW13597   6.889   0.373   6.760
 4233SOL    HW113598   6.889   0.274   6.775
 4233SOL    HW213599   6.904   0.420   6.847
 4234SOL     OW13600   1.263   0.412   5.986
 4234SOL    HW113601   1.307   0.452   5.906
 4234SOL    HW213602   1.320   0.337   6.022
 4235SOL     OW13603   6.189   3.746   5.472
 4235SOL    HW113604   6.215   3.797   5.553
 4235SOL    HW213605   6.263   3.685   5.445
 4236SOL     OW13606   0.347   3.184   3.162
 4236SOL    HW113607   0.275   3.252   3.151
 4236SOL    HW213608   0.369   3.173   3.259
 4237SOL     OW13609   6.351   4.748   4.137
 4237SOL    HW113610   6.418   4.726   4.066
 4237SOL    HW213611   6.368   4.840   4.172
 4238SOL     OW13612   4.738   4.718   3.888
 4238SOL    HW113613   4.796   4.707   3.808
 4238SOL    HW213614   4.649   4.674   3.871
 4239SOL     OW13615   6.132   0.795   3.471
 4239SOL    HW113616   6.160   0.699   3.479
 4239SOL    HW213617   6.153   0.827   3.379
 4240SOL     OW13618   2.229   6.676   6.953
 4240SOL    HW113619   2.248   6.752   6.890
 4240SOL    HW213620   2.315   6.632   6.979
 4241SOL     OW13621   4.978   1.007   1.088
 4241SOL    HW113622   4.900   1.067   1.106
 4241SOL    HW213623   5.060   1.047   1.127
 4242SOL     OW13624   1.649   0.755   2.998
 4242SOL    HW113625   1.722   0.717   2.942
 4242SOL    HW213626   1.615   0.685   3.061
 4243SOL     OW13627   0.808   3.691   3.127
 4243SOL    HW113628   0.894   3.641   3.135
 4243SOL    HW213629   0.735   3.627   3.101
 4244SOL     OW13630   4.700   5.287   1.014
 4244SOL    HW113631   4.604   5.299   0.989
 4244SOL    HW213632   4.759   5.322   0.941
 4245SOL     OW13633   0.037   1.336   6.817
 4245SOL    HW113634   0.035   1.271   6.893
 4245SOL    HW213635   0.130   1.340   6.780
 4246SOL     OW13636   5.790   2.668   3.556
 4246SOL    HW113637   5.715   2.735   3.563
 4246SOL    HW213638   5.797   2.636   3.462
 4247SOL     OW13639   2.348   5.545   4.060
 4247SOL    HW113640   2.443   5.541   4.031
 4247SOL    HW213641   2.292   5.490   3.998
 4248SOL     OW13642   1.174   1.170   3.770
 4248SOL    HW113643   1.111   1.243   3.796
 4248SOL    HW213644   1.267   1.195   3.795
 4249SOL     OW13645   6.422   1.058   3.561
 4249SOL    HW113646   6.381   1.082   3.473
 4249SOL    HW213647   6.387   1.119   3.632
 4250SOL     OW13648   6.973   5.999   3.897
 4250SOL    HW113649   6.998   6.045   3.812
 4250SOL    HW213650   7.016   6.047   3.974
 4251SOL     OW13651   6.870   2.964   0.255
 4251SOL    HW113652   6.893   2.931   0.346
 4251SOL    HW213653   6.792   2.912   0.218
 4252SOL     OW13654   5.562   6.183   6.396
 4252SOL    HW113655   5.561   6.205   6.298
 4252SOL    HW213656   5.559   6.083   6.407
 4253SOL     OW13657   3.904   5.857   2.114
 4253SOL    HW113658   3.912   5.776   2.171
 4253SOL    HW213659   3.808   5.880   2.100
 4254SOL     OW13660   2.005   4.333   1.732
 4254SOL    HW113661   2.057   4.381   1.661
 4254SOL    HW213662   2.045   4.353   1.821
 4255SOL     OW13663   0.432   3.943   3.753
 4255SOL    HW113664   0.333   3.954   3.760
 4255SOL    HW213665   0.460   3.861   3.802
 4256SOL     OW13666   1.207   5.899   1.696
 4256SOL    HW113667   1.226   5.998   1.695
 4256SOL    HW213668   1.173   5.873   1.787
 4257SOL     OW13669   5.496   1.315   4.221
 4257SOL    HW113670   5.491   1.225   4.264
 4257SOL    HW213671   5.520   1.384   4.290
 4258SOL     OW13672   3.273   5.965   1.232
 4258SOL    HW113673   3.175   5.975   1.250
 4258SOL    HW213674   3.297   5.868   1.229
 4259SOL     OW13675   1.724   6.213   1.082
 4259SOL    HW113676   1.761   6.151   1.012
 4259SOL    HW213677   1.659   6.164   1.140
 4260SOL     OW13678   5.398   6.846   3.547
 4260SOL    HW113679   5.374   6.929   3.597
 4260SOL    HW213680   5.481   6.806   3.586
 4261SOL     OW13681   1.829   0.993   2.598
 4261SOL    HW113682   1.735   0.968   2.575
 4261SOL    HW213683   1.852   0.956   2.688
 4262SOL     OW13684   1.429   4.240   5.828
 4262SOL    HW113685   1.333   4.233   5.803
 4262SOL    HW213686   1.467   4.325   5.791
 4263SOL     OW13687   2.564   1.034   3.189
 4263SOL    HW113688   2.642   0.974   3.209
 4263SOL    HW213689   2.560   1.107   3.257
 4264SOL     OW13690   6.385   1.717   4.189
 4264SOL    HW113691   6.414   1.707   4.284
 4264SOL    HW213692   6.329   1.638   4.164
 4265SOL     OW13693   3.950   1.117   0.766
 4265SOL    HW113694   3.988   1.061   0.693
 4265SOL    HW213695   3.874   1.069   0.809
 4266SOL     OW13696   1.315   6.544   0.075
 4266SOL    HW113697   1.217   6.565   0.067
 4266SOL    HW213698   1.334   6.454   0.035
 4267SOL     OW13699   1.912   3.543   4.006
 4267SOL    HW113700   1.890   3.577   4.097
 4267SOL    HW213701   1.864   3.456   3.990
 4268SOL     OW13702   2.144   5.526   6.932
 4268SOL    HW113703   2.116   5.481   6.848
 4268SOL    HW213704   2.147   5.460   7.007
 4269SOL     OW13705   2.806   1.256   3.850
 4269SOL    HW113706   2.767   1.321   3.785
 4269SOL    HW213707   2.788   1.287   3.943
 4270SOL     OW13708   3.182   2.957   2.235
 4270SOL    HW113709   3.275   2.928   2.210
 4270SOL    HW213710   3.182   2.992   2.328
 4271SOL     OW13711   6.884   0.944   0.153
 4271SOL    HW113712   6.929   0.856   0.139
 4271SOL    HW213713   6.785   0.932   0.146
 4272SOL     OW13714   6.752   3.218   5.216
 4272SOL    HW113715   6.807   3.166   5.281
 4272SOL    HW213716   6.783   3.313   5.214
 4273SOL     OW13717   4.859   6.241   5.125
 4273SOL    HW113718   4.856   6.141   5.128
 4273SOL    HW213719   4.931   6.270   5.063
 4274SOL     OW13720   0.962   0.332   1.577
 4274SOL    HW113721   0.989   0.239   1.601
 4274SOL    HW213722   0.878   0.356   1.626
 4275SOL     OW13723   0.520   1.862   4.238
 4275SOL    HW113724   0.618   1.845   4.230
 4275SOL    HW213725   0.499   1.952   4.199
 4276SOL     OW13726   3.083   5.247   3.935
 4276SOL    HW113727   3.069   5.346   3.924
 4276SOL    HW213728   3.020   5.212   4.005
 4277SOL     OW13729   0.066   4.081   2.427
 4277SOL    HW113730   7.005   4.086   2.472
 4277SOL    HW213731   0.067   4.004   2.364
 4278SOL     OW13732   0.644   0.003   3.670
 4278SOL    HW113733   0.601   6.993   3.752
 4278SOL    HW213734   0.688   6.956   3.619
 4279SOL     OW13735   1.173   1.323   2.372
 4279SOL    HW113736   1.260   1.275   2.367
 4279SOL    HW213737   1.124   1.294   2.454
 4280SOL     OW13738   6.333   6.965   5.775
 4280SOL    HW113739   6.417   7.011   5.745
 4280SOL    HW213740   6.274   0.003   5.821
 4281SOL     OW13741   5.153   4.755   3.388
 4281SOL    HW113742   5.169   4.839   3.439
 4281SOL    HW213743   5.148   4.775   3.290
 4282SOL     OW13744   2.813   5.016   1.130
 4282SOL    HW113745   2.850   4.924   1.125
 4282SOL    HW213746   2.877   5.075   1.180
 4283SOL     OW13747   4.034   0.967   3.495
 4283SOL    HW113748   3.956   0.938   3.552
 4283SOL    HW213749   4.100   0.893   3.489
 4284SOL     OW13750   4.473   5.392   0.474
 4284SOL    HW113751   4.444   5.485   0.496
 4284SOL    HW213752   4.417   5.357   0.398
 4285SOL     OW13753   2.447   1.033   5.881
 4285SOL    HW113754   2.406   1.073   5.799
 4285SOL    HW213755   2.505   0.956   5.855
 4286SOL     OW13756   5.774   6.992   6.311
 4286SOL    HW113757   5.810   6.914   6.362
 4286SOL    HW213758   5.785   6.975   6.213
 4287SOL     OW13759   5.046   1.175   5.536
 4287SOL    HW113760   5.007   1.157   5.446
 4287SOL    HW213761   5.029   1.097   5.596
 4288SOL     OW13762   0.489   5.568   3.134
 4288SOL    HW113763   0.455   5.499   3.071
 4288SOL    HW213764   0.459   5.659   3.105
 4289SOL     OW13765   1.278   2.475   6.496
 4289SOL    HW113766   1.362   2.434   6.532
 4289SOL    HW213767   1.199   2.429   6.536
 4290SOL     OW13768   0.251   6.727   4.781
 4290SOL    HW113769   0.334   6.745   4.728
 4290SOL    HW213770   0.245   6.629   4.802
 4291SOL     OW13771   5.225   3.995   6.054
 4291SOL    HW113772   5.144   4.011   6.111
 4291SOL    HW213773   5.301   4.049   6.089
 4292SOL     OW13774   6.049   3.118   0.139
 4292SOL    HW113775   5.996   3.202   0.138
 4292SOL    HW213776   6.059   3.084   0.045
 4293SOL     OW13777   3.668   4.081   6.723
 4293SOL    HW113778   3.635   4.008   6.663
 4293SOL    HW213779   3.669   4.168   6.672
 4294SOL     OW13780   2.185   1.766   6.159
 4294SOL    HW113781   2.194   1.753   6.258
 4294SOL    HW213782   2.267   1.813   6.125
 4295SOL     OW13783   4.496   6.315   3.327
 4295SOL    HW113784   4.437   6.383   3.283
 4295SOL    HW213785   4.515   6.344   3.421
 4296SOL     OW13786   3.269   0.099   0.516
 4296SOL    HW113787   3.287   0.005   0.488
 4296SOL    HW213788   3.343   0.159   0.485
 4297SOL     OW13789   6.801   6.705   2.320
 4297SOL    HW113790   6.728   6.771   2.337
 4297SOL    HW213791   6.784   6.658   2.234
 4298SOL     OW13792   3.253   6.152   2.136
 4298SOL    HW113793   3.336   6.123   2.184
 4298SOL    HW213794   3.272   6.160   2.038
 4299SOL     OW13795   0.965   3.037   6.682
 4299SOL    HW113796   0.897   3.083   6.625
 4299SOL    HW213797   1.040   3.004   6.625
 4300SOL     OW13798   2.825   6.673   0.319
 4300SOL    HW113799   2.850   6.712   0.408
 4300SOL    HW213800   2.900   6.616   0.286
 4301SOL     OW13801   4.375   0.474   1.608
 4301SOL    HW113802   4.351   0.477   1.705
 4301SOL    HW213803   4.317   0.539   1.558
 4302SOL     OW13804   6.204   6.991   6.643
 4302SOL    HW113805   6.105   7.003   6.643
 4302SOL    HW213806   6.243   0.012   6.565
 4303SOL     OW13807   0.110   4.963   3.737
 4303SOL    HW113808   0.170   5.034   3.700
 4303SOL    HW213809   0.160   4.876   3.739
 4304SOL     OW13810   3.457   3.573   2.096
 4304SOL    HW113811   3.438   3.650   2.035
 4304SOL    HW213812   3.536   3.522   2.063
 4305SOL     OW13813   0.487   6.445   6.031
 4305SOL    HW113814   0.405   6.491   6.066
 4305SOL    HW213815   0.553   6.434   6.105
 4306SOL     OW13816   4.926   5.303   4.415
 4306SOL    HW113817   4.937   5.205   4.398
 4306SOL    HW213818   4.835   5.321   4.452
 4307SOL     OW13819   5.637   3.619   5.062
 4307SOL    HW113820   5.731   3.584   5.054
 4307SOL    HW213821   5.619   3.642   5.158
 4308SOL     OW13822   5.569   5.171   1.409
 4308SOL    HW113823   5.527   5.093   1.364
 4308SOL    HW213824   5.651   5.141   1.457
 4309SOL     OW13825   1.336   2.431   0.228
 4309SOL    HW113826   1.346   2.357   0.162
 4309SOL    HW213827   1.377   2.403   0.315
 4310SOL     OW13828   1.398   2.712   1.922
 4310SOL    HW113829   1.496   2.729   1.933
 4310SOL    HW213830   1.380   2.683   1.828
 4311SOL     OW13831   1.209   6.450   2.257
 4311SOL    HW113832   1.123   6.451   2.205
 4311SOL    HW213833   1.193   6.411   2.347
 4312SOL     OW13834   1.674   5.759   2.856
 4312SOL    HW113835   1.723   5.673   2.843
 4312SOL    HW213836   1.591   5.743   2.910
 4313SOL     OW13837   3.934   1.969   0.374
 4313SOL    HW113838   3.972   1.892   0.425
 4313SOL    HW213839   3.839   1.949   0.350
 4314SOL     OW13840   6.059   1.703   5.016
 4314SOL    HW113841   6.115   1.718   5.097
 4314SOL    HW213842   6.063   1.783   4.957
 4315SOL     OW13843   1.980   1.154   3.044
 4315SOL    HW113844   2.040   1.112   3.112
 4315SOL    HW213845   2.029   1.160   2.956
 4316SOL     OW13846   5.351   0.189   2.307
 4316SOL    HW113847   5.274   0.126   2.302
 4316SOL    HW213848   5.333   0.259   2.376
 4317SOL     OW13849   5.030   1.679   5.348
 4317SOL    HW113850   4.993   1.734   5.273
 4317SOL    HW213851   5.006   1.583   5.334
 4318SOL     OW13852   0.785   1.453   4.562
 4318SOL    HW113853   0.728   1.455   4.644
 4318SOL    HW213854   0.880   1.432   4.589
 4319SOL     OW13855   1.875   1.755   1.329
 4319SOL    HW113856   1.857   1.809   1.411
 4319SOL    HW213857   1.953   1.794   1.280
 4320SOL     OW13858   3.657   5.863   1.203
 4320SOL    HW113859   3.644   5.947   1.150
 4320SOL    HW213860   3.575   5.806   1.196
 4321SOL     OW13861   6.919   5.102   3.612
 4321SOL    HW113862   6.967   5.036   3.669
 4321SOL    HW213863   6.827   5.117   3.650
 4322SOL     OW13864   6.643   3.000   6.190
 4322SOL    HW113865   6.666   2.939   6.114
 4322SOL    HW213866   6.727   3.028   6.236
 4323SOL     OW13867   4.607   5.004   0.422
 4323SOL    HW113868   4.679   5.015   0.490
 4323SOL    HW213869   4.520   5.035   0.461
 4324SOL     OW13870   6.537   4.180   5.482
 4324SOL    HW113871   6.593   4.098   5.470
 4324SOL    HW213872   6.462   4.161   5.545
 4325SOL     OW13873   2.807   1.512   2.271
 4325SOL    HW113874   2.818   1.579   2.344
 4325SOL    HW213875   2.718   1.524   2.227
 4326SOL     OW13876   5.589   3.944   1.809
 4326SOL    HW113877   5.535   4.001   1.748
 4326SOL    HW213878   5.583   3.848   1.781
 4327SOL     OW13879   4.200   6.250   3.090
 4327SOL    HW113880   4.243   6.163   3.065
 4327SOL    HW213881   4.154   6.288   3.009
 4328SOL     OW13882   5.682   4.599   4.862
 4328SOL    HW113883   5.685   4.597   4.762
 4328SOL    HW213884   5.775   4.589   4.899
 4329SOL     OW13885   5.977   2.887   5.745
 4329SOL    HW113886   6.065   2.841   5.749
 4329SOL    HW213887   5.918   2.841   5.678
 4330SOL     OW13888   2.153   6.878   4.081
 4330SOL    HW113889   2.080   6.821   4.044
 4330SOL    HW213890   2.151   6.874   4.181
 4331SOL     OW13891   6.548   0.280   1.420
 4331SOL    HW113892   6.624   0.236   1.372
 4331SOL    HW213893   6.580   0.366   1.461
 4332SOL     OW13894   6.672   3.024   3.096
 4332SOL    HW113895   6.751   3.080   3.124
 4332SOL    HW213896   6.705   2.935   3.064
 4333SOL     OW13897   4.154   2.040   4.812
 4333SOL    HW113898   4.167   1.970   4.741
 4333SOL    HW213899   4.092   2.004   4.882
 4334SOL     OW13900   1.725   2.979   2.473
 4334SOL    HW113901   1.773   3.063   2.447
 4334SOL    HW213902   1.666   2.950   2.399
 4335SOL     OW13903   3.794   2.709   1.765
 4335SOL    HW113904   3.863   2.764   1.718
 4335SOL    HW213905   3.792   2.735   1.862
 4336SOL     OW13906   2.313   5.173   5.718
 4336SOL    HW113907   2.293   5.077   5.740
 4336SOL    HW213908   2.391   5.177   5.655
 4337SOL     OW13909   1.862   5.099   1.581
 4337SOL    HW113910   1.930   5.167   1.608
 4337SOL    HW213911   1.893   5.008   1.608
 4338SOL     OW13912   6.231   0.339   6.357
 4338SOL    HW113913   6.241   0.410   6.288
 4338SOL    HW213914   6.197   0.379   6.442
 4339SOL     OW13915   3.424   2.461   6.304
 4339SOL    HW113916   3.436   2.436   6.208
 4339SOL    HW213917   3.355   2.533   6.311
 4340SOL     OW13918   5.609   3.292   1.192
 4340SOL    HW113919   5.657   3.317   1.108
 4340SOL    HW213920   5.673   3.248   1.254
 4341SOL     OW13921   1.001   5.342   1.658
 4341SOL    HW113922   0.975   5.439   1.669
 4341SOL    HW213923   0.918   5.286   1.659
 4342SOL     OW13924   5.125   3.249   3.021
 4342SOL    HW113925   5.212   3.203   3.039
 4342SOL    HW213926   5.136   3.310   2.942
 4343SOL     OW13927   2.899   6.220   5.390
 4343SOL    HW113928   2.995   6.225   5.416
 4343SOL    HW213929   2.879   6.130   5.351
 4344SOL     OW13930   1.079   2.987   3.056
 4344SOL    HW113931   1.082   2.963   3.153
 4344SOL    HW213932   1.105   2.907   3.001
 4345SOL     OW13933   2.880   3.642   4.547
 4345SOL    HW113934   2.941   3.713   4.582
 4345SOL    HW213935   2.933   3.579   4.490
 4346SOL     OW13936   2.250   2.931   2.387
 4346SOL    HW113937   2.218   2.839   2.407
 4346SOL    HW213938   2.344   2.928   2.355
 4347SOL     OW13939   6.123   6.491   2.668
 4347SOL    HW113940   6.083   6.465   2.756
 4347SOL    HW213941   6.059   6.549   2.618
 4348SOL     OW13942   0.603   5.951   4.544
 4348SOL    HW113943   0.607   6.051   4.543
 4348SOL    HW213944   0.675   5.915   4.603
 4349SOL     OW13945   6.778   3.376   3.983
 4349SOL    HW113946   6.809   3.343   4.072
 4349SOL    HW213947   6.685   3.344   3.967
 4350SOL     OW13948   5.173   2.313   3.848
 4350SOL    HW113949   5.237   2.327   3.923
 4350SOL    HW213950   5.215   2.255   3.778
 4351SOL     OW13951   1.088   5.941   1.256
 4351SOL    HW113952   1.174   5.895   1.232
 4351SOL    HW213953   1.096   6.038   1.236
 4352SOL     OW13954   6.235   4.008   1.935
 4352SOL    HW113955   6.323   4.018   1.982
 4352SOL    HW213956   6.161   4.003   2.003
 4353SOL     OW13957   3.508   3.568   0.086
 4353SOL    HW113958   3.447   3.629   0.136
 4353SOL    HW213959   3.517   3.599   7.018
 4354SOL     OW13960   0.659   1.627   5.930
 4354SOL    HW113961   0.599   1.662   5.858
 4354SOL    HW213962   0.752   1.661   5.916
 4355SOL     OW13963   1.806   6.970   2.931
 4355SOL    HW113964   1.726   6.933   2.884
 4355SOL    HW213965   1.777   0.015   2.994
 4356SOL     OW13966   4.551   3.672   5.364
 4356SOL    HW113967   4.568   3.601   5.433
 4356SOL    HW213968   4.601   3.649   5.280
 4357SOL     OW13969   0.102   1.475   1.237
 4357SOL    HW113970   0.013   1.517   1.220
 4357SOL    HW213971   0.114   1.397   1.176
 4358SOL     OW13972   6.838   0.002   0.100
 4358SOL    HW113973   6.877   6.938   0.113
 4358SOL    HW213974   6.759   0.014   0.161
 4359SOL     OW13975   1.593   1.310   6.719
 4359SOL    HW113976   1.563   1.215   6.715
 4359SOL    HW213977   1.665   1.320   6.788
 4360SOL     OW13978   0.812   2.838   4.236
 4360SOL    HW113979   0.881   2.890   4.184
 4360SOL    HW213980   0.724   2.846   4.190
 4361SOL     OW13981   2.178   3.402   1.316
 4361SOL    HW113982   2.144   3.338   1.247
 4361SOL    HW213983   2.226   3.477   1.271
 4362SOL     OW13984   0.250   5.833   3.921
 4362SOL    HW113985   0.232   5.745   3.964
 4362SOL    HW213986   0.283   5.818   3.828
 4363SOL     OW13987   4.341   1.073   2.042
 4363SOL    HW113988   4.399   1.127   1.982
 4363SOL    HW213989   4.379   0.982   2.053
 4364SOL     OW13990   2.975   3.863   3.063
 4364SOL    HW113991   2.976   3.902   3.155
 4364SOL    HW213992   3.057   3.807   3.050
 4365SOL     OW13993   3.234   0.755   1.966
 4365SOL    HW113994   3.135   0.763   1.956
 4365SOL    HW213995   3.255   0.686   2.036
 4366SOL     OW13996   5.921   6.472   6.322
 4366SOL    HW113997   5.832   6.483   6.366
 4366SOL    HW213998   5.923   6.522   6.236
 4367SOL     OW13999   2.991   4.857   3.419
 4367SOL    HW114000   2.958   4.763   3.408
 4367SOL    HW214001   3.041   4.864   3.506
 4368SOL     OW14002   3.985   5.657   2.432
 4368SOL    HW114003   3.976   5.582   2.497
 4368SOL    HW214004   3.947   5.630   2.344
 4369SOL     OW14005   5.025   5.467   3.265
 4369SOL    HW114006   5.064   5.377   3.246
 4369SOL    HW214007   5.052   5.496   3.357
 4370SOL     OW14008   3.756   3.992   1.566
 4370SOL    HW114009   3.702   3.983   1.649
 4370SOL    HW214010   3.725   3.925   1.498
 4371SOL     OW14011   2.083   1.471   2.992
 4371SOL    HW114012   2.127   1.512   2.912
 4371SOL    HW214013   2.149   1.415   3.042
 4372SOL     OW14014   2.106   3.240   3.786
 4372SOL    HW114015   2.151   3.287   3.862
 4372SOL    HW214016   2.039   3.175   3.821
 4373SOL     OW14017   4.273   0.924   6.409
 4373SOL    HW114018   4.332   0.977   6.349
 4373SOL    HW214019   4.324   0.847   6.447
 4374SOL     OW14020   1.795   1.496   1.360
 4374SOL    HW114021   1.810   1.590   1.329
 4374SOL    HW214022   1.875   1.465   1.411
 4375SOL     OW14023   3.799   6.373   3.068
 4375SOL    HW114024   3.877   6.432   3.047
 4375SOL    HW214025   3.777   6.379   3.165
 4376SOL     OW14026   6.851   0.158   1.600
 4376SOL    HW114027   6.833   0.187   1.506
 4376SOL    HW214028   6.909   0.226   1.645
 4377SOL     OW14029   6.238   5.637   0.275
 4377SOL    HW114030   6.161   5.628   0.339
 4377SOL    HW214031   6.313   5.683   0.321
 4378SOL     OW14032   1.145   4.337   2.757
 4378SOL    HW114033   1.048   4.334   2.730
 4378SOL    HW214034   1.154   4.387   2.843
 4379SOL     OW14035   2.283   0.694   1.905
 4379SOL    HW114036   2.264   0.598   1.924
 4379SOL    HW214037   2.374   0.704   1.865
 4380SOL     OW14038   1.769   5.972   4.675
 4380SOL    HW114039   1.693   6.020   4.720
 4380SOL    HW214040   1.806   5.904   4.738
 4381SOL     OW14041   2.219   4.278   4.947
 4381SOL    HW114042   2.257   4.187   4.966
 4381SOL    HW214043   2.213   4.330   5.033
 4382SOL     OW14044   6.131   4.408   6.020
 4382SOL    HW114045   6.065   4.341   5.985
 4382SOL    HW214046   6.136   4.486   5.957
 4383SOL     OW14047   0.634   2.533   5.567
 4383SOL    HW114048   0.622   2.483   5.481
 4383SOL    HW214049   0.617   2.630   5.552
 4384SOL     OW14050   5.060   1.253   0.128
 4384SOL    HW114051   5.091   1.331   0.182
 4384SOL    HW214052   4.973   1.275   0.084
 4385SOL     OW14053   6.948   2.924   4.027
 4385SOL    HW114054   6.858   2.967   4.016
 4385SOL    HW214055   6.954   2.844   3.969
 4386SOL     OW14056   1.204   3.290   6.516
 4386SOL    HW114057   1.215   3.250   6.426
 4386SOL    HW214058   1.116   3.338   6.521
 4387SOL     OW14059   0.914   2.239   1.847
 4387SOL    HW114060   0.948   2.160   1.898
 4387SOL    HW214061   0.820   2.259   1.875
 4388SOL     OW14062   4.537   1.072   6.788
 4388SOL    HW114063   4.527   1.147   6.723
 4388SOL    HW214064   4.556   1.109   6.879
 4389SOL     OW14065   5.662   2.232   0.366
 4389SOL    HW114066   5.622   2.181   0.442
 4389SOL    HW214067   5.623   2.199   0.280
 4390SOL     OW14068   3.981   2.185   2.365
 4390SOL    HW114069   3.894   2.175   2.415
 4390SOL    HW214070   3.963   2.175   2.267
 4391SOL     OW14071   1.368   5.725   6.439
 4391SOL    HW114072   1.359   5.823   6.458
 4391SOL    HW214073   1.294   5.697   6.377
 4392SOL     OW14074   6.305   3.545   5.291
 4392SOL    HW114075   6.265   3.610   5.227
 4392SOL    HW214076   6.405   3.549   5.284
 4393SOL     OW14077   5.158   6.326   2.973
 4393SOL    HW114078   5.098   6.309   2.895
 4393SOL    HW214079   5.104   6.361   3.050
 4394SOL     OW14080   6.296   5.203   3.148
 4394SOL    HW114081   6.343   5.196   3.236
 4394SOL    HW214082   6.201   5.231   3.163
 4395SOL     OW14083   4.186   1.699   1.768
 4395SOL    HW114084   4.197   1.672   1.864
 4395SOL    HW214085   4.092   1.683   1.739
 4396SOL     OW14086   2.403   1.888   4.035
 4396SOL    HW114087   2.310   1.914   4.060
 4396SOL    HW214088   2.436   1.947   3.962
 4397SOL     OW14089   0.177   1.645   4.609
 4397SOL    HW114090   0.233   1.621   4.529
 4397SOL    HW214091   0.154   1.743   4.606
 4398SOL     OW14092   1.147   4.557   5.338
 4398SOL    HW114093   1.109   4.580   5.249
 4398SOL    HW214094   1.226   4.498   5.327
 4399SOL     OW14095   1.975   0.416   1.917
 4399SOL    HW114096   1.947   0.402   2.012
 4399SOL    HW214097   1.929   0.347   1.860
 4400SOL     OW14098   2.080   6.630   4.614
 4400SOL    HW114099   2.033   6.584   4.539
 4400SOL    HW214100   2.039   6.602   4.701
 4401SOL     OW14101   5.534   5.971   6.114
 4401SOL    HW114102   5.478   5.900   6.157
 4401SOL    HW214103   5.484   6.011   6.037
 4402SOL     OW14104   1.981   5.965   2.566
 4402SOL    HW114105   1.921   6.035   2.605
 4402SOL    HW214106   1.932   5.914   2.496
 4403SOL     OW14107   7.003   6.952   3.582
 4403SOL    HW114108   6.987   7.010   3.662
 4403SOL    HW214109   0.069   6.966   3.550
 4404SOL     OW14110   1.367   3.780   5.186
 4404SOL    HW114111   1.338   3.836   5.265
 4404SOL    HW214112   1.371   3.684   5.214
 4405SOL     OW14113   3.121   4.104   0.181
 4405SOL    HW114114   3.130   4.184   0.121
 4405SOL    HW214115   3.030   4.064   0.169
 4406SOL     OW14116   5.588   4.556   1.527
 4406SOL    HW114117   5.604   4.488   1.598
 4406SOL    HW214118   5.675   4.581   1.484
 4407SOL     OW14119   0.133   4.850   0.721
 4407SOL    HW114120   0.080   4.929   0.688
 4407SOL    HW214121   0.071   4.784   0.763
 4408SOL     OW14122   5.038   0.868   0.844
 4408SOL    HW114123   5.014   0.908   0.933
 4408SOL    HW214124   4.965   0.807   0.814
 4409SOL     OW14125   4.183   0.970   2.450
 4409SOL    HW114126   4.185   0.872   2.470
 4409SOL    HW214127   4.112   1.014   2.505
 4410SOL     OW14128   1.800   4.623   7.026
 4410SOL    HW114129   1.888   4.669   7.027
 4410SOL    HW214130   1.754   4.637   0.086
 4411SOL     OW14131   3.958   3.141   3.528
 4411SOL    HW114132   3.949   3.094   3.616
 4411SOL    HW214133   3.912   3.088   3.457
 4412SOL     OW14134   3.498   1.818   4.290
 4412SOL    HW114135   3.410   1.860   4.268
 4412SOL    HW214136   3.527   1.758   4.215
 4413SOL     OW14137   5.220   5.966   5.022
 4413SOL    HW114138   5.207   6.056   4.982
 4413SOL    HW214139   5.220   5.897   4.950
 4414SOL     OW14140   4.321   4.780   1.621
 4414SOL    HW114141   4.260   4.831   1.560
 4414SOL    HW214142   4.398   4.838   1.647
 4415SOL     OW14143   4.316   3.846   6.568
 4415SOL    HW114144   4.220   3.845   6.597
 4415SOL    HW214145   4.325   3.907   6.489
 4416SOL     OW14146   3.066   0.640   4.694
 4416SOL    HW114147   2.985   0.698   4.687
 4416SOL    HW214148   3.101   0.621   4.602
 4417SOL     OW14149   0.017   4.115   2.728
 4417SOL    HW114150   6.969   4.128   2.793
 4417SOL    HW214151   0.069   4.200   2.720
 4418SOL     OW14152   5.330   0.724   4.344
 4418SOL    HW114153   5.306   0.661   4.418
 4418SOL    HW214154   5.312   0.818   4.373
 4419SOL     OW14155   5.410   6.199   0.541
 4419SOL    HW114156   5.397   6.266   0.614
 4419SOL    HW214157   5.353   6.224   0.463
 4420SOL     OW14158   4.934   1.896   0.621
 4420SOL    HW114159   4.904   1.929   0.711
 4420SOL    HW214160   4.908   1.800   0.611
 4421SOL     OW14161   1.658   1.031   2.908
 4421SOL    HW114162   1.688   0.947   2.952
 4421SOL    HW214163   1.683   1.109   2.966
 4422SOL     OW14164   2.281   3.809   5.942
 4422SOL    HW114165   2.288   3.767   5.851
 4422SOL    HW214166   2.225   3.750   6.001
 4423SOL     OW14167   1.640   2.556   5.889
 4423SOL    HW114168   1.665   2.486   5.956
 4423SOL    HW214169   1.705   2.553   5.813
 4424SOL     OW14170   5.654   6.753   3.784
 4424SOL    HW114171   5.722   6.719   3.850
 4424SOL    HW214172   5.701   6.795   3.707
 4425SOL     OW14173   3.485   5.750   5.884
 4425SOL    HW114174   3.455   5.825   5.825
 4425SOL    HW214175   3.482   5.780   5.980
 4426SOL     OW14176   6.969   2.163   4.763
 4426SOL    HW114177   7.021   2.215   4.830
 4426SOL    HW214178   6.875   2.150   4.797
 4427SOL     OW14179   6.978   6.750   2.748
 4427SOL    HW114180   0.050   6.753   2.765
 4427SOL    HW214181   6.935   6.830   2.788
 4428SOL     OW14182   3.004   5.378   2.776
 4428SOL    HW114183   3.045   5.307   2.720
 4428SOL    HW214184   3.071   5.451   2.793
 4429SOL     OW14185   2.934   1.013   3.852
 4429SOL    HW114186   2.899   0.951   3.922
 4429SOL    HW214187   2.880   1.097   3.853
 4430SOL     OW14188   5.548   3.029   4.021
 4430SOL    HW114189   5.518   3.109   4.074
 4430SOL    HW214190   5.647   3.019   4.029
 4431SOL     OW14191   1.586   1.320   1.944
 4431SOL    HW114192   1.614   1.410   1.909
 4431SOL    HW214193   1.492   1.325   1.977
 4432SOL     OW14194   3.586   4.158   3.800
 4432SOL    HW114195   3.632   4.150   3.711
 4432SOL    HW214196   3.487   4.162   3.787
 4433SOL     OW14197   5.922   0.551   4.372
 4433SOL    HW114198   5.826   0.525   4.358
 4433SOL    HW214199   5.926   0.645   4.405
 4434SOL     OW14200   4.472   2.066   3.764
 4434SOL    HW114201   4.512   2.089   3.675
 4434SOL    HW214202   4.469   2.147   3.822
 4435SOL     OW14203   4.370   3.742   1.110
 4435SOL    HW114204   4.312   3.722   1.189
 4435SOL    HW214205   4.344   3.681   1.035
 4436SOL     OW14206   3.315   2.349   0.605
 4436SOL    HW114207   3.400   2.374   0.558
 4436SOL    HW214208   3.287   2.258   0.575
 4437SOL     OW14209   5.707   1.566   3.443
 4437SOL    HW114210   5.704   1.650   3.497
 4437SOL    HW214211   5.628   1.509   3.467
 4438SOL     OW14212   4.449   1.302   6.683
 4438SOL    HW114213   4.404   1.329   6.598
 4438SOL    HW214214   4.418   1.361   6.757
 4439SOL     OW14215   0.188   6.256   1.408
 4439SOL    HW114216   0.211   6.211   1.494
 4439SOL    HW214217   0.267   6.252   1.346
 4440SOL     OW14218   1.685   4.631   0.293
 4440SOL    HW114219   1.598   4.652   0.337
 4440SOL    HW214220   1.760   4.662   0.351
 4441SOL     OW14221   0.072   1.312   2.337
 4441SOL    HW114222   0.018   1.316   2.253
 4441SOL    HW214223   0.158   1.263   2.319
 4442SOL     OW14224   3.195   6.173   4.185
 4442SOL    HW114225   3.161   6.095   4.132
 4442SOL    HW214226   3.292   6.158   4.208
 4443SOL     OW14227   0.223   2.818   0.681
 4443SOL    HW114228   0.323   2.824   0.684
 4443SOL    HW214229   0.195   2.724   0.702
 4444SOL     OW14230   3.785   5.923   6.264
 4444SOL    HW114231   3.770   5.969   6.352
 4444SOL    HW214232   3.741   5.834   6.264
 4445SOL     OW14233   7.025   0.541   0.871
 4445SOL    HW114234   6.988   0.553   0.963
 4445SOL    HW214235   7.004   0.448   0.839
 4446SOL     OW14236   5.269   1.066   1.673
 4446SOL    HW114237   5.279   0.969   1.693
 4446SOL    HW214238   5.342   1.095   1.611
 4447SOL     OW14239   6.111   3.754   5.904
 4447SOL    HW114240   6.091   3.823   5.834
 4447SOL    HW214241   6.045   3.680   5.897
 4448SOL     OW14242   3.245   4.164   0.782
 4448SOL    HW114243   3.327   4.220   0.773
 4448SOL    HW214244   3.198   4.188   0.867
 4449SOL     OW14245   4.494   0.819   5.886
 4449SOL    HW114246   4.466   0.828   5.982
 4449SOL    HW214247   4.541   0.902   5.857
 4450SOL     OW14248   4.024   3.129   4.319
 4450SOL    HW114249   3.932   3.123   4.278
 4450SOL    HW214250   4.016   3.133   4.419
 4451SOL     OW14251   5.701   3.872   2.785
 4451SOL    HW114252   5.784   3.898   2.835
 4451SOL    HW214253   5.633   3.837   2.850
 4452SOL     OW14254   5.654   6.569   5.081
 4452SOL    HW114255   5.738   6.528   5.117
 4452SOL    HW214256   5.667   6.667   5.068
 4453SOL     OW14257   6.241   2.563   1.010
 4453SOL    HW114258   6.206   2.560   1.104
 4453SOL    HW214259   6.340   2.575   1.012
 4454SOL     OW14260   5.314   2.563   0.172
 4454SOL    HW114261   5.412   2.568   0.192
 4454SOL    HW214262   5.266   2.532   0.254
 4455SOL     OW14263   3.487   0.448   6.453
 4455SOL    HW114264   3.524   0.536   6.481
 4455SOL    HW214265   3.561   0.389   6.420
 4456SOL     OW14266   2.437   4.995   2.432
 4456SOL    HW114267   2.395   5.086   2.438
 4456SOL    HW214268   2.460   4.964   2.524
 4457SOL     OW14269   4.047   2.468   0.258
 4457SOL    HW114270   4.024   2.541   0.322
 4457SOL    HW214271   4.032   2.379   0.301
 4458SOL     OW14272   1.269   3.758   6.493
 4458SOL    HW114273   1.302   3.664   6.485
 4458SOL    HW214274   1.296   3.795   6.582
 4459SOL     OW14275   5.325   0.655   3.509
 4459SOL    HW114276   5.325   0.649   3.409
 4459SOL    HW214277   5.342   0.749   3.537
 4460SOL     OW14278   2.645   3.192   5.609
 4460SOL    HW114279   2.639   3.130   5.687
 4460SOL    HW214280   2.578   3.266   5.620
 4461SOL     OW14281   0.972   0.622   2.678
 4461SOL    HW114282   0.880   0.583   2.668
 4461SOL    HW214283   0.976   0.675   2.763
 4462SOL     OW14284   0.029   3.506   1.501
 4462SOL    HW114285   0.112   3.561   1.500
 4462SOL    HW214286   0.054   3.409   1.491
 4463SOL     OW14287   2.688   2.643   6.912
 4463SOL    HW114288   2.608   2.669   6.966
 4463SOL    HW214289   2.752   2.720   6.909
 4464SOL     OW14290   5.644   4.991   6.888
 4464SOL    HW114291   5.700   5.067   6.920
 4464SOL    HW214292   5.694   4.905   6.900
 4465SOL     OW14293   2.040   5.727   3.679
 4465SOL    HW114294   2.115   5.767   3.627
 4465SOL    HW214295   2.076   5.681   3.760
 4466SOL     OW14296   1.523   0.613   1.705
 4466SOL    HW114297   1.496   0.708   1.719
 4466SOL    HW214298   1.481   0.578   1.622
 4467SOL     OW14299   1.515   6.081   3.489
 4467SOL    HW114300   1.501   6.136   3.571
 4467SOL    HW214301   1.503   6.138   3.408
 4468SOL     OW14302   1.422   2.299   0.474
 4468SOL    HW114303   1.520   2.282   0.460
 4468SOL    HW214304   1.369   2.232   0.423
 4469SOL     OW14305   3.442   0.264   1.198
 4469SOL    HW114306   3.457   0.227   1.290
 4469SOL    HW214307   3.348   0.247   1.170
 4470SOL     OW14308   6.203   3.714   1.777
 4470SOL    HW114309   6.198   3.780   1.703
 4470SOL    HW214310   6.214   3.762   1.864
 4471SOL     OW14311   0.336   1.995   0.398
 4471SOL    HW114312   0.365   2.037   0.484
 4471SOL    HW214313   0.415   1.948   0.357
 4472SOL     OW14314   1.978   2.928   3.647
 4472SOL    HW114315   1.944   3.017   3.617
 4472SOL    HW214316   2.078   2.927   3.642
 4473SOL     OW14317   6.462   2.038   3.543
 4473SOL    HW114318   6.366   2.023   3.565
 4473SOL    HW214319   6.484   2.135   3.553
 4474SOL     OW14320   3.431   0.957   1.927
 4474SOL    HW114321   3.388   1.035   1.974
 4474SOL    HW214322   3.370   0.878   1.931
 4475SOL     OW14323   1.670   4.030   2.553
 4475SOL    HW114324   1.575   4.025   2.524
 4475SOL    HW214325   1.685   3.969   2.631
 4476SOL     OW14326   5.050   6.566   4.072
 4476SOL    HW114327   5.064   6.470   4.048
 4476SOL    HW214328   4.982   6.606   4.011
 4477SOL     OW14329   1.637   0.023   5.482
 4477SOL    HW114330   1.734   0.032   5.505
 4477SOL    HW214331   1.593   6.988   5.547
 4478SOL     OW14332   2.507   5.989   2.403
 4478SOL    HW114333   2.593   6.024   2.364
 4478SOL    HW214334   2.528   5.930   2.481
 4479SOL     OW14335   0.789   0.292   0.901
 4479SOL    HW114336   0.707   0.276   0.846
 4479SOL    HW214337   0.840   0.369   0.863
 4480SOL     OW14338   1.628   3.549   5.327
 4480SOL    HW114339   1.684   3.617   5.374
 4480SOL    HW214340   1.538   3.544   5.371
 4481SOL     OW14341   2.826   6.919   5.113
 4481SOL    HW114342   2.869   6.841   5.070
 4481SOL    HW214343   2.816   6.993   5.046
 4482SOL     OW14344   0.238   4.184   3.865
 4482SOL    HW114345   0.228   4.096   3.819
 4482SOL    HW214346   0.320   4.182   3.922
 4483SOL     OW14347   5.875   3.520   1.338
 4483SOL    HW114348   5.909   3.573   1.260
 4483SOL    HW214349   5.780   3.544   1.355
 4484SOL     OW14350   2.891   2.308   5.220
 4484SOL    HW114351   2.875   2.385   5.281
 4484SOL    HW214352   2.984   2.313   5.183
 4485SOL     OW14353   5.251   2.435   6.008
 4485SOL    HW114354   5.203   2.421   6.094
 4485SOL    HW214355   5.227   2.525   5.970
 4486SOL     OW14356   5.684   3.437   4.576
 4486SOL    HW114357   5.605   3.379   4.592
 4486SOL    HW214358   5.661   3.532   4.597
 4487SOL     OW14359   2.716   3.170   6.502
 4487SOL    HW114360   2.754   3.204   6.416
 4487SOL    HW214361   2.753   3.079   6.521
 4488SOL     OW14362   5.908   3.013   5.325
 4488SOL    HW114363   5.893   3.023   5.424
 4488SOL    HW214364   5.929   3.103   5.286
 4489SOL     OW14365   5.146   6.026   4.344
 4489SOL    HW114366   5.219   6.071   4.292
 4489SOL    HW214367   5.063   6.081   4.338
 4490SOL     OW14368   6.000   2.353   2.289
 4490SOL    HW114369   6.031   2.410   2.365
 4490SOL    HW214370   5.902   2.336   2.296
 4491SOL     OW14371   0.681   3.394   3.887
 4491SOL    HW114372   0.703   3.464   3.819
 4491SOL    HW214373   0.671   3.305   3.841
 4492SOL     OW14374   4.947   3.299   0.703
 4492SOL    HW114375   4.858   3.255   0.703
 4492SOL    HW214376   4.999   3.269   0.623
 4493SOL     OW14377   4.669   6.009   5.638
 4493SOL    HW114378   4.654   5.976   5.544
 4493SOL    HW214379   4.689   6.107   5.636
 4494SOL     OW14380   6.948   1.789   6.055
 4494SOL    HW114381   6.865   1.751   6.096
 4494SOL    HW214382   6.989   1.855   6.118
 4495SOL     OW14383   4.966   6.095   3.792
 4495SOL    HW114384   4.982   6.093   3.890
 4495SOL    HW214385   4.929   6.008   3.761
 4496SOL     OW14386   4.568   5.761   0.679
 4496SOL    HW114387   4.574   5.844   0.624
 4496SOL    HW214388   4.488   5.708   0.652
 4497SOL     OW14389   4.521   0.582   0.286
 4497SOL    HW114390   4.601   0.642   0.288
 4497SOL    HW214391   4.546   0.492   0.320
 4498SOL     OW14392   0.387   2.772   5.917
 4498SOL    HW114393   0.468   2.715   5.905
 4498SOL    HW214394   0.402   2.835   5.993
 4499SOL     OW14395   0.536   3.718   3.871
 4499SOL    HW114396   0.454   3.666   3.896
 4499SOL    HW214397   0.602   3.657   3.827
 4500SOL     OW14398   3.016   3.465   4.371
 4500SOL    HW114399   3.016   3.379   4.422
 4500SOL    HW214400   3.100   3.516   4.392
 4501SOL     OW14401   0.437   3.352   5.998
 4501SOL    HW114402   0.401   3.355   5.905
 4501SOL    HW214403   0.531   3.386   5.999
 4502SOL     OW14404   1.880   1.913   6.789
 4502SOL    HW114405   1.871   2.003   6.748
 4502SOL    HW214406   1.795   1.890   6.837
 4503SOL     OW14407   3.334   0.560   2.581
 4503SOL    HW114408   3.321   0.463   2.561
 4503SOL    HW214409   3.329   0.613   2.496
 4504SOL     OW14410   6.618   1.635   5.003
 4504SOL    HW114411   6.546   1.641   5.073
 4504SOL    HW214412   6.706   1.660   5.043
 4505SOL     OW14413   6.434   5.746   3.392
 4505SOL    HW114414   6.410   5.843   3.394
 4505SOL    HW214415   6.366   5.696   3.339
 4506SOL     OW14416   4.660   2.773   4.036
 4506SOL    HW114417   4.694   2.865   4.053
 4506SOL    HW214418   4.637   2.730   4.123
 4507SOL     OW14419   5.294   4.685   2.132
 4507SOL    HW114420   5.203   4.681   2.091
 4507SOL    HW214421   5.333   4.776   2.120
 4508SOL     OW14422   0.853   4.936   5.935
 4508SOL    HW114423   0.896   4.991   6.006
 4508SOL    HW214424   0.765   4.901   5.967
 4509SOL     OW14425   5.576   2.721   3.905
 4509SOL    HW114426   5.617   2.783   3.972
 4509SOL    HW214427   5.605   2.627   3.923
 4510SOL     OW14428   5.524   0.102   5.435
 4510SOL    HW114429   5.577   0.123   5.518
 4510SOL    HW214430   5.426   0.113   5.455
 4511SOL     OW14431   7.027   3.713   6.487
 4511SOL    HW114432   7.020   3.614   6.471
 4511SOL    HW214433   0.009   3.760   6.400
 4512SOL     OW14434   2.349   6.516   5.835
 4512SOL    HW114435   2.298   6.433   5.860
 4512SOL    HW214436   2.285   6.591   5.819
 4513SOL     OW14437   4.902   6.580   0.539
 4513SOL    HW114438   4.837   6.505   0.527
 4513SOL    HW214439   4.995   6.548   0.519
 4514SOL     OW14440   5.151   1.275   5.101
 4514SOL    HW114441   5.207   1.355   5.125
 4514SOL    HW214442   5.192   1.193   5.140
 4515SOL     OW14443   6.844   3.841   5.820
 4515SOL    HW114444   6.828   3.791   5.905
 4515SOL    HW214445   6.936   3.879   5.820
 4516SOL     OW14446   1.410   0.891   5.999
 4516SOL    HW114447   1.349   0.965   6.027
 4516SOL    HW214448   1.485   0.884   6.064
 4517SOL     OW14449   1.958   0.374   6.965
 4517SOL    HW114450   1.955   0.288   7.016
 4517SOL    HW214451   1.877   0.380   6.905
 4518SOL     OW14452   6.531   1.573   3.389
 4518SOL    HW114453   6.519   1.494   3.448
 4518SOL    HW214454   6.584   1.643   3.436
 4519SOL     OW14455   5.249   0.254   1.689
 4519SOL    HW114456   5.204   0.172   1.722
 4519SOL    HW214457   5.329   0.274   1.747
 4520SOL     OW14458   5.514   5.704   3.657
 4520SOL    HW114459   5.455   5.651   3.719
 4520SOL    HW214460   5.471   5.709   3.567
 4521SOL     OW14461   4.952   2.076   4.345
 4521SOL    HW114462   5.041   2.086   4.389
 4521SOL    HW214463   4.880   2.079   4.416
 4522SOL     OW14464   5.375   0.104   3.590
 4522SOL    HW114465   5.310   0.175   3.619
 4522SOL    HW214466   5.465   0.145   3.575
 4523SOL     OW14467   0.996   4.238   0.040
 4523SOL    HW114468   0.951   4.154   0.008
 4523SOL    HW214469   1.088   4.215   0.074
 4524SOL     OW14470   5.096   2.238   4.707
 4524SOL    HW114471   5.189   2.273   4.706
 4524SOL    HW214472   5.037   2.301   4.656
 4525SOL     OW14473   6.312   1.189   3.319
 4525SOL    HW114474   6.255   1.174   3.239
 4525SOL    HW214475   6.259   1.236   3.390
 4526SOL     OW14476   4.818   0.673   0.823
 4526SOL    HW114477   4.837   0.585   0.865
 4526SOL    HW214478   4.720   0.682   0.806
 4527SOL     OW14479   4.155   1.184   4.165
 4527SOL    HW114480   4.094   1.257   4.134
 4527SOL    HW214481   4.129   1.098   4.123
 4528SOL     OW14482   4.689   6.580   0.016
 4528SOL    HW114483   4.726   6.600   0.107
 4528SOL    HW214484   4.673   6.666   6.995
 4529SOL     OW14485   3.219   1.626   4.505
 4529SOL    HW114486   3.287   1.555   4.488
 4529SOL    HW214487   3.229   1.659   4.598
 4530SOL     OW14488   0.392   3.186   5.707
 4530SOL    HW114489   0.413   3.088   5.709
 4530SOL    HW214490   0.438   3.228   5.629
 4531SOL     OW14491   0.681   3.521   3.446
 4531SOL    HW114492   0.763   3.464   3.438
 4531SOL    HW214493   0.604   3.476   3.401
 4532SOL     OW14494   0.304   1.143   2.376
 4532SOL    HW114495   0.380   1.101   2.326
 4532SOL    HW214496   0.340   1.194   2.454
 4533SOL     OW14497   1.159   0.428   2.592
 4533SOL    HW114498   1.186   0.373   2.671
 4533SOL    HW214499   1.088   0.493   2.619
 4534SOL     OW14500   6.140   3.800   4.680
 4534SOL    HW114501   6.114   3.836   4.591
 4534SOL    HW214502   6.124   3.869   4.750
 4535SOL     OW14503   4.743   1.849   2.666
 4535SOL    HW114504   4.743   1.947   2.683
 4535SOL    HW214505   4.834   1.819   2.637
 4536SOL     OW14506   5.010   2.316   4.087
 4536SOL    HW114507   5.076   2.318   4.013
 4536SOL    HW214508   4.976   2.223   4.099
 4537SOL     OW14509   3.714   2.819   5.995
 4537SOL    HW114510   3.708   2.755   5.918
 4537SOL    HW214511   3.694   2.912   5.962
 4538SOL     OW14512   2.581   0.640   4.544
 4538SOL    HW114513   2.635   0.650   4.628
 4538SOL    HW214514   2.641   0.646   4.465
 4539SOL     OW14515   1.960   0.780   4.451
 4539SOL    HW114516   1.892   0.728   4.503
 4539SOL    HW214517   1.913   0.842   4.388
 4540SOL     OW14518   3.537   2.894   4.288
 4540SOL    HW114519   3.523   2.801   4.320
 4540SOL    HW214520   3.632   2.922   4.305
 4541SOL     OW14521   5.683   1.185   0.462
 4541SOL    HW114522   5.603   1.241   0.439
 4541SOL    HW214523   5.659   1.121   0.535
 4542SOL     OW14524   6.326   6.776   1.844
 4542SOL    HW114525   6.400   6.713   1.823
 4542SOL    HW214526   6.238   6.736   1.818
 4543SOL     OW14527   5.078   2.222   0.125
 4543SOL    HW114528   5.010   2.186   0.063
 4543SOL    HW214529   5.043   2.218   0.219
 4544SOL     OW14530   2.842   6.369   5.622
 4544SOL    HW114531   2.869   6.310   5.546
 4544SOL    HW214532   2.742   6.368   5.631
 4545SOL     OW14533   5.647   2.808   4.793
 4545SOL    HW114534   5.728   2.857   4.828
 4545SOL    HW214535   5.650   2.713   4.824
 4546SOL     OW14536   1.254   1.444   6.098
 4546SOL    HW114537   1.204   1.458   6.012
 4546SOL    HW214538   1.266   1.532   6.144
 4547SOL     OW14539   6.612   2.639   3.128
 4547SOL    HW114540   6.535   2.664   3.069
 4547SOL    HW214541   6.577   2.602   3.214
 4548SOL     OW14542   1.424   4.306   4.899
 4548SOL    HW114543   1.505   4.262   4.860
 4548SOL    HW214544   1.367   4.237   4.943
 4549SOL     OW14545   6.046   4.055   2.135
 4549SOL    HW114546   6.071   4.141   2.180
 4549SOL    HW214547   5.988   4.075   2.055
 4550SOL     OW14548   0.865   5.844   2.563
 4550SOL    HW114549   0.911   5.894   2.489
 4550SOL    HW214550   0.863   5.900   2.645
 4551SOL     OW14551   6.674   1.956   5.890
 4551SOL    HW114552   6.765   1.955   5.849
 4551SOL    HW214553   6.609   1.912   5.827
 4552SOL     OW14554   6.566   2.663   6.770
 4552SOL    HW114555   6.548   2.647   6.673
 4552SOL    HW214556   6.496   2.724   6.807
 4553SOL     OW14557   4.097   4.412   0.107
 4553SOL    HW114558   4.158   4.336   0.087
 4553SOL    HW214559   4.084   4.467   0.024
 4554SOL     OW14560   4.025   0.644   1.782
 4554SOL    HW114561   3.950   0.654   1.848
 4554SOL    HW214562   4.089   0.720   1.792
 4555SOL     OW14563   3.236   1.628   5.478
 4555SOL    HW114564   3.158   1.665   5.527
 4555SOL    HW214565   3.264   1.692   5.407
 4556SOL     OW14566   4.607   2.630   3.161
 4556SOL    HW114567   4.569   2.652   3.251
 4556SOL    HW214568   4.681   2.563   3.172
 4557SOL     OW14569   5.484   7.011   5.191
 4557SOL    HW114570   5.501   0.022   5.281
 4557SOL    HW214571   5.431   0.048   5.136
 4558SOL     OW14572   0.135   3.680   5.911
 4558SOL    HW114573   0.065   3.712   5.975
 4558SOL    HW214574   0.221   3.666   5.961
 4559SOL     OW14575   0.946   4.779   0.951
 4559SOL    HW114576   0.917   4.785   1.047
 4559SOL    HW214577   1.042   4.751   0.947
 4560SOL     OW14578   5.557   4.808   3.495
 4560SOL    HW114579   5.492   4.863   3.547
 4560SOL    HW214580   5.532   4.809   3.398
 4561SOL     OW14581   2.720   0.572   1.338
 4561SOL    HW114582   2.628   0.610   1.342
 4561SOL    HW214583   2.784   0.637   1.380
 4562SOL     OW14584   2.894   5.654   5.099
 4562SOL    HW114585   2.966   5.722   5.117
 4562SOL    HW214586   2.922   5.566   5.137
 4563SOL     OW14587   0.105   3.940   0.337
 4563SOL    HW114588   0.080   4.037   0.331
 4563SOL    HW214589   0.026   3.888   0.370
 4564SOL     OW14590   0.055   6.555   0.888
 4564SOL    HW114591   7.008   6.585   0.828
 4564SOL    HW214592   0.124   6.627   0.895
 4565SOL     OW14593   0.053   1.517   5.548
 4565SOL    HW114594   0.078   1.465   5.630
 4565SOL    HW214595   0.048   1.456   5.470
 4566SOL     OW14596   6.376   1.322   0.964
 4566SOL    HW114597   6.384   1.282   0.873
 4566SOL    HW214598   6.379   1.249   1.033
 4567SOL     OW14599   0.584   1.045   6.896
 4567SOL    HW114600   0.625   1.093   6.818
 4567SOL    HW214601   0.510   1.100   6.934
 4568SOL     OW14602   1.339   5.051   5.286
 4568SOL    HW114603   1.297   5.136   5.255
 4568SOL    HW214604   1.269   4.979   5.290
 4569SOL     OW14605   2.227   1.612   2.767
 4569SOL    HW114606   2.292   1.681   2.798
 4569SOL    HW214607   2.175   1.647   2.690
 4570SOL     OW14608   0.409   4.951   3.037
 4570SOL    HW114609   0.460   4.942   3.122
 4570SOL    HW214610   0.470   4.937   2.959
 4571SOL     OW14611   3.469   3.308   5.906
 4571SOL    HW114612   3.414   3.366   5.846
 4571SOL    HW214613   3.566   3.331   5.894
 4572SOL     OW14614   0.931   6.668   6.672
 4572SOL    HW114615   0.874   6.602   6.623
 4572SOL    HW214616   0.986   6.720   6.608
 4573SOL     OW14617   5.937   6.122   0.347
 4573SOL    HW114618   5.846   6.114   0.388
 4573SOL    HW214619   5.961   6.035   0.303
 4574SOL     OW14620   6.548   4.085   1.269
 4574SOL    HW114621   6.539   4.181   1.294
 4574SOL    HW214622   6.462   4.037   1.286
 4575SOL     OW14623   6.849   1.977   6.712
 4575SOL    HW114624   6.818   2.065   6.675
 4575SOL    HW214625   6.799   1.903   6.667
 4576SOL     OW14626   2.067   6.308   6.672
 4576SOL    HW114627   1.999   6.324   6.601
 4576SOL    HW214628   2.084   6.210   6.681
 4577SOL     OW14629   0.727   2.829   3.808
 4577SOL    HW114630   0.733   2.778   3.722
 4577SOL    HW214631   0.817   2.865   3.831
 4578SOL     OW14632   0.634   3.061   4.188
 4578SOL    HW114633   0.615   2.994   4.116
 4578SOL    HW214634   0.576   3.042   4.268
 4579SOL     OW14635   5.487   1.769   2.779
 4579SOL    HW114636   5.530   1.841   2.835
 4579SOL    HW214637   5.403   1.739   2.822
 4580SOL     OW14638   5.334   5.612   6.732
 4580SOL    HW114639   5.323   5.704   6.769
 4580SOL    HW214640   5.254   5.588   6.677
 4581SOL     OW14641   2.921   5.400   3.227
 4581SOL    HW114642   2.851   5.471   3.223
 4581SOL    HW214643   2.923   5.360   3.319
 4582SOL     OW14644   5.630   6.498   4.727
 4582SOL    HW114645   5.713   6.467   4.774
 4582SOL    HW214646   5.550   6.461   4.775
 4583SOL     OW14647   2.758   1.233   4.963
 4583SOL    HW114648   2.717   1.198   4.878
 4583SOL    HW214649   2.702   1.204   5.041
 4584SOL     OW14650   0.230   4.924   5.188
 4584SOL    HW114651   0.328   4.931   5.205
 4584SOL    HW214652   0.213   4.857   5.116
 4585SOL     OW14653   2.947   6.475   2.935
 4585SOL    HW114654   2.961   6.437   2.843
 4585SOL    HW214655   3.035   6.495   2.977
 4586SOL     OW14656   3.659   5.261   0.470
 4586SOL    HW114657   3.567   5.240   0.503
 4586SOL    HW214658   3.714   5.177   0.468
 4587SOL     OW14659   4.200   3.152   1.760
 4587SOL    HW114660   4.276   3.088   1.749
 4587SOL    HW214661   4.174   3.157   1.856
 4588SOL     OW14662   3.671   3.888   5.719
 4588SOL    HW114663   3.751   3.904   5.661
 4588SOL    HW214664   3.661   3.963   5.784
 4589SOL     OW14665   5.668   1.325   1.737
 4589SOL    HW114666   5.686   1.368   1.648
 4589SOL    HW214667   5.746   1.339   1.797
 4590SOL     OW14668   4.268   6.335   2.065
 4590SOL    HW114669   4.326   6.260   2.034
 4590SOL    HW214670   4.174   6.303   2.076
 4591SOL     OW14671   0.425   5.975   5.192
 4591SOL    HW114672   0.454   5.963   5.097
 4591SOL    HW214673   0.466   6.057   5.230
 4592SOL     OW14674   4.426   2.313   2.042
 4592SOL    HW114675   4.440   2.214   2.053
 4592SOL    HW214676   4.439   2.358   2.131
 4593SOL     OW14677   4.206   5.904   4.106
 4593SOL    HW114678   4.243   5.811   4.102
 4593SOL    HW214679   4.256   5.957   4.174
 4594SOL     OW14680   3.428   2.145   1.523
 4594SOL    HW114681   3.371   2.113   1.447
 4594SOL    HW214682   3.450   2.068   1.583
 4595SOL     OW14683   3.459   2.879   5.753
 4595SOL    HW114684   3.525   2.934   5.701
 4595SOL    HW214685   3.416   2.937   5.823
 4596SOL     OW14686   6.179   6.616   2.356
 4596SOL    HW114687   6.147   6.615   2.262
 4596SOL    HW214688   6.153   6.702   2.400
 4597SOL     OW14689   5.432   4.578   7.000
 4597SOL    HW114690   5.373   4.498   6.984
 4597SOL    HW214691   5.520   4.548   0.009
 4598SOL     OW14692   1.774   5.629   0.031
 4598SOL    HW114693   1.814   5.543   7.025
 4598SOL    HW214694   1.684   5.611   0.070
 4599SOL     OW14695   1.633   4.389   0.552
 4599SOL    HW114696   1.674   4.301   0.574
 4599SOL    HW214697   1.693   4.463   0.585
 4600SOL     OW14698   1.744   5.845   6.031
 4600SOL    HW114699   1.769   5.931   6.077
 4600SOL    HW214700   1.657   5.856   5.984
 4601SOL     OW14701   1.741   0.440   4.992
 4601SOL    HW114702   1.679   0.478   5.061
 4601SOL    HW214703   1.836   0.460   5.017
 4602SOL     OW14704   0.962   5.825   1.033
 4602SOL    HW114705   1.001   5.737   1.009
 4602SOL    HW214706   1.009   5.863   1.112
 4603SOL     OW14707   3.707   6.480   0.929
 4603SOL    HW114708   3.729   6.406   0.866
 4603SOL    HW214709   3.787   6.539   0.939
 4604SOL     OW14710   4.810   0.759   2.090
 4604SOL    HW114711   4.777   0.698   2.017
 4604SOL    HW214712   4.760   0.845   2.086
 4605SOL     OW14713   5.037   1.792   3.098
 4605SOL    HW114714   5.112   1.772   3.161
 4605SOL    HW214715   4.951   1.796   3.149
 4606SOL     OW14716   0.746   0.067   1.618
 4606SOL    HW114717   0.804   0.050   1.538
 4606SOL    HW214718   0.667   0.121   1.590
 4607SOL     OW14719   2.722   2.922   0.731
 4607SOL    HW114720   2.755   2.925   0.637
 4607SOL    HW214721   2.768   2.992   0.785
 4608SOL     OW14722   0.970   5.747   3.607
 4608SOL    HW114723   0.938   5.723   3.698
 4608SOL    HW214724   1.048   5.690   3.583
 4609SOL     OW14725   3.911   5.689   5.989
 4609SOL    HW114726   3.962   5.614   5.949
 4609SOL    HW214727   3.952   5.715   6.077
 4610SOL     OW14728   5.593   2.466   0.601
 4610SOL    HW114729   5.520   2.534   0.596
 4610SOL    HW214730   5.554   2.375   0.591
 4611SOL     OW14731   6.216   5.735   6.025
 4611SOL    HW114732   6.190   5.728   6.122
 4611SOL    HW214733   6.315   5.724   6.017
 4612SOL     OW14734   1.196   6.491   0.683
 4612SOL    HW114735   1.259   6.416   0.704
 4612SOL    HW214736   1.146   6.470   0.599
 4613SOL     OW14737   2.662   5.517   2.423
 4613SOL    HW114738   2.680   5.443   2.488
 4613SOL    HW214739   2.651   5.603   2.473
 4614SOL     OW14740   1.209   4.096   5.288
 4614SOL    HW114741   1.149   4.163   5.244
 4614SOL    HW214742   1.301   4.135   5.295
 4615SOL     OW14743   1.675   0.961   0.027
 4615SOL    HW114744   1.673   0.936   0.124
 4615SOL    HW214745   1.643   1.056   0.017
 4616SOL     OW14746   5.925   0.204   5.854
 4616SOL    HW114747   5.986   0.283   5.854
 4616SOL    HW214748   5.833   0.233   5.879
 4617SOL     OW14749   1.638   2.211   2.399
 4617SOL    HW114750   1.631   2.311   2.395
 4617SOL    HW214751   1.546   2.172   2.392
 4618SOL     OW14752   2.267   2.110   5.474
 4618SOL    HW114753   2.206   2.115   5.553
 4618SOL    HW214754   2.345   2.171   5.489
 4619SOL     OW14755   3.566   6.196   3.344
 4619SOL    HW114756   3.486   6.224   3.292
 4619SOL    HW214757   3.636   6.268   3.339
 4620SOL     OW14758   3.088   4.362   0.075
 4620SOL    HW114759   3.108   4.371   0.173
 4620SOL    HW214760   3.172   4.377   0.022
 4621SOL     OW14761   5.542   1.944   3.116
 4621SOL    HW114762   5.623   1.886   3.106
 4621SOL    HW214763   5.566   2.039   3.099
 4622SOL     OW14764   1.374   3.181   0.656
 4622SOL    HW114765   1.409   3.262   0.610
 4622SOL    HW214766   1.276   3.172   0.638
 4623SOL     OW14767   0.179   6.343   0.681
 4623SOL    HW114768   0.089   6.299   0.678
 4623SOL    HW214769   0.193   6.383   0.771
 4624SOL     OW14770   5.205   6.654   2.897
 4624SOL    HW114771   5.126   6.682   2.951
 4624SOL    HW214772   5.213   6.554   2.899
 4625SOL     OW14773   1.517   4.875   7.015
 4625SOL    HW114774   1.425   4.847   6.986
 4625SOL    HW214775   1.582   4.803   6.992
 4626SOL     OW14776   5.833   5.829   1.873
 4626SOL    HW114777   5.766   5.896   1.842
 4626SOL    HW214778   5.792   5.738   1.874
 4627SOL     OW14779   3.276   6.017   3.868
 4627SOL    HW114780   3.300   6.112   3.886
 4627SOL    HW214781   3.242   6.008   3.774
 4628SOL     OW14782   6.221   4.018   4.085
 4628SOL    HW114783   6.182   4.080   4.153
 4628SOL    HW214784   6.277   3.949   4.131
 4629SOL     OW14785   2.210   4.976   4.999
 4629SOL    HW114786   2.205   5.005   4.903
 4629SOL    HW214787   2.300   4.937   5.017
 4630SOL     OW14788   3.634   5.704   2.965
 4630SOL    HW114789   3.571   5.780   2.976
 4630SOL    HW214790   3.719   5.737   2.924
 4631SOL     OW14791   2.296   6.353   3.782
 4631SOL    HW114792   2.348   6.436   3.761
 4631SOL    HW214793   2.331   6.312   3.866
 4632SOL     OW14794   4.163   4.778   3.605
 4632SOL    HW114795   4.227   4.744   3.537
 4632SOL    HW214796   4.200   4.762   3.697
 4633SOL     OW14797   6.157   2.120   3.784
 4633SOL    HW114798   6.134   2.154   3.693
 4633SOL    HW214799   6.083   2.141   3.848
 4634SOL     OW14800   2.191   4.497   7.001
 4634SOL    HW114801   2.276   4.535   6.963
 4634SOL    HW214802   2.132   4.570   0.005
 4635SOL     OW14803   5.544   3.693   1.711
 4635SOL    HW114804   5.523   3.599   1.741
 4635SOL    HW214805   5.462   3.732   1.669
 4636SOL     OW14806   2.149   5.394   0.147
 4636SOL    HW114807   2.058   5.353   0.151
 4636SOL    HW214808   2.218   5.325   0.166
 4637SOL     OW14809   1.805   0.715   0.411
 4637SOL    HW114810   1.884   0.689   0.355
 4637SOL    HW214811   1.742   0.770   0.357
 4638SOL     OW14812   4.192   2.926   6.620
 4638SOL    HW114813   4.097   2.955   6.614
 4638SOL    HW214814   4.201   2.850   6.684
 4639SOL     OW14815   1.799   4.474   5.403
 4639SOL    HW114816   1.803   4.472   5.303
 4639SOL    HW214817   1.808   4.381   5.438
 4640SOL     OW14818   5.366   5.117   3.479
 4640SOL    HW114819   5.362   5.210   3.517
 4640SOL    HW214820   5.337   5.051   3.549
 4641SOL     OW14821   2.968   6.677   4.299
 4641SOL    HW114822   2.931   6.715   4.214
 4641SOL    HW214823   3.023   6.596   4.278
 4642SOL     OW14824   0.384   6.600   5.514
 4642SOL    HW114825   0.468   6.610   5.568
 4642SOL    HW214826   0.337   6.517   5.542
 4643SOL     OW14827   5.507   2.547   1.238
 4643SOL    HW114828   5.587   2.558   1.180
 4643SOL    HW214829   5.515   2.462   1.290
 4644SOL     OW14830   1.334   5.013   4.937
 4644SOL    HW114831   1.422   4.980   4.971
 4644SOL    HW214832   1.344   5.044   4.843
 4645SOL     OW14833   1.086   0.575   3.711
 4645SOL    HW114834   1.087   0.478   3.687
 4645SOL    HW214835   1.033   0.626   3.644
 4646SOL     OW14836   2.582   6.634   3.415
 4646SOL    HW114837   2.569   6.537   3.392
 4646SOL    HW214838   2.670   6.665   3.378
 4647SOL     OW14839   1.374   6.660   3.381
 4647SOL    HW114840   1.284   6.617   3.383
 4647SOL    HW214841   1.412   6.652   3.289
 4648SOL     OW14842   3.929   0.621   1.408
 4648SOL    HW114843   3.906   0.705   1.457
 4648SOL    HW214844   4.018   0.588   1.439
 4649SOL     OW14845   4.983   6.633   5.728
 4649SOL    HW114846   5.058   6.673   5.677
 4649SOL    HW214847   4.957   6.694   5.803
 4650SOL     OW14848   4.109   5.974   3.839
 4650SOL    HW114849   4.156   5.894   3.802
 4650SOL    HW214850   4.138   5.989   3.934
 4651SOL     OW14851   0.024   1.456   0.835
 4651SOL    HW114852   0.049   1.376   0.781
 4651SOL    HW214853   0.094   1.527   0.825
 4652SOL     OW14854   0.700   0.265   4.497
 4652SOL    HW114855   0.764   0.261   4.574
 4652SOL    HW214856   0.647   0.181   4.494
 4653SOL     OW14857   5.908   5.770   6.927
 4653SOL    HW114858   5.936   5.722   7.010
 4653SOL    HW214859   5.819   5.812   6.941
 4654SOL     OW14860   0.259   6.807   0.158
 4654SOL    HW114861   0.289   6.775   0.248
 4654SOL    HW214862   0.304   6.753   0.087
 4655SOL     OW14863   6.693   5.637   1.933
 4655SOL    HW114864   6.705   5.550   1.885
 4655SOL    HW214865   6.610   5.683   1.900
 4656SOL     OW14866   1.200   0.304   3.385
 4656SOL    HW114867   1.142   0.318   3.465
 4656SOL    HW214868   1.199   0.207   3.360
 4657SOL     OW14869   4.724   6.615   1.665
 4657SOL    HW114870   4.767   6.545   1.723
 4657SOL    HW214871   4.751   6.706   1.697
 4658SOL     OW14872   4.029   1.270   2.284
 4658SOL    HW114873   4.121   1.231   2.276
 4658SOL    HW214874   4.035   1.365   2.312
 4659SOL     OW14875   2.639   3.979   5.974
 4659SOL    HW114876   2.560   4.018   5.928
 4659SOL    HW214877   2.615   3.890   6.012
 4660SOL     OW14878   1.187   2.888   5.243
 4660SOL    HW114879   1.205   2.807   5.300
 4660SOL    HW214880   1.261   2.954   5.256
 4661SOL     OW14881   3.408   3.909   5.631
 4661SOL    HW114882   3.501   3.929   5.662
 4661SOL    HW214883   3.365   3.993   5.598
 4662SOL     OW14884   4.363   0.491   5.144
 4662SOL    HW114885   4.271   0.512   5.176
 4662SOL    HW214886   4.380   0.538   5.058
 4663SOL     OW14887   0.805   1.868   2.390
 4663SOL    HW114888   0.888   1.827   2.426
 4663SOL    HW214889   0.828   1.927   2.312
 4664SOL     OW14890   2.334   2.024   0.534
 4664SOL    HW114891   2.419   1.998   0.578
 4664SOL    HW214892   2.297   1.946   0.484
 4665SOL     OW14893   4.219   6.903   0.722
 4665SOL    HW114894   4.318   6.912   0.732
 4665SOL    HW214895   4.177   6.891   0.811
 4666SOL     OW14896   1.568   1.752   0.720
 4666SOL    HW114897   1.620   1.834   0.698
 4666SOL    HW214898   1.487   1.777   0.773
 4667SOL     OW14899   6.414   4.723   1.080
 4667SOL    HW114900   6.495   4.669   1.103
 4667SOL    HW214901   6.370   4.756   1.163
 4668SOL     OW14902   6.292   2.327   2.860
 4668SOL    HW114903   6.312   2.349   2.765
 4668SOL    HW214904   6.275   2.412   2.911
 4669SOL     OW14905   3.035   6.920   0.324
 4669SOL    HW114906   2.980   6.993   0.364
 4669SOL    HW214907   2.977   6.839   0.309
 4670SOL     OW14908   3.144   1.694   4.771
 4670SOL    HW114909   3.154   1.647   4.858
 4670SOL    HW214910   3.073   1.764   4.778
 4671SOL     OW14911   6.748   2.582   2.236
 4671SOL    HW114912   6.840   2.578   2.275
 4671SOL    HW214913   6.737   2.669   2.188
 4672SOL     OW14914   2.682   4.950   6.373
 4672SOL    HW114915   2.715   5.044   6.377
 4672SOL    HW214916   2.668   4.916   6.466
 4673SOL     OW14917   4.662   6.620   0.943
 4673SOL    HW114918   4.701   6.712   0.944
 4673SOL    HW214919   4.573   6.621   0.897
 4674SOL     OW14920   4.900   0.222   6.958
 4674SOL    HW114921   4.970   0.208   6.888
 4674SOL    HW214922   4.827   0.153   6.947
 4675SOL     OW14923   0.737   2.797   6.762
 4675SOL    HW114924   0.654   2.853   6.775
 4675SOL    HW214925   0.782   2.823   6.677
 4676SOL     OW14926   6.878   5.767   3.924
 4676SOL    HW114927   6.889   5.736   3.829
 4676SOL    HW214928   6.921   5.856   3.935
 4677SOL     OW14929   3.087   2.417   0.754
 4677SOL    HW114930   3.125   2.393   0.844
 4677SOL    HW214931   3.153   2.392   0.683
 4678SOL     OW14932   2.049   4.717   3.075
 4678SOL    HW114933   1.952   4.736   3.056
 4678SOL    HW214934   2.056   4.653   3.152
 4679SOL     OW14935   4.308   6.983   1.699
 4679SOL    HW114936   4.315   6.983   1.599
 4679SOL    HW214937   4.390   6.941   1.738
 4680SOL     OW14938   3.909   0.998   6.542
 4680SOL    HW114939   3.950   0.941   6.613
 4680SOL    HW214940   3.982   1.047   6.493
 4681SOL     OW14941   5.216   4.882   0.158
 4681SOL    HW114942   5.288   4.843   0.216
 4681SOL    HW214943   5.217   4.837   0.068
 4682SOL     OW14944   4.440   4.512   5.605
 4682SOL    HW114945   4.505   4.450   5.649
 4682SOL    HW214946   4.481   4.549   5.522
 4683SOL     OW14947   5.416   5.397   2.838
 4683SOL    HW114948   5.326   5.362   2.864
 4683SOL    HW214949   5.457   5.445   2.916
 4684SOL     OW14950   5.022   6.982   5.585
 4684SOL    HW114951   4.985   7.026   5.667
 4684SOL    HW214952   5.033   6.884   5.603
 4685SOL     OW14953   2.192   4.816   6.821
 4685SOL    HW114954   2.233   4.907   6.830
 4685SOL    HW214955   2.228   4.772   6.738
 4686SOL     OW14956   4.103   6.094   0.064
 4686SOL    HW114957   4.162   6.175   0.053
 4686SOL    HW214958   4.040   6.088   7.014
 4687SOL     OW14959   4.907   3.057   4.071
 4687SOL    HW114960   4.871   3.060   3.978
 4687SOL    HW214961   5.006   3.065   4.070
 4688SOL     OW14962   5.975   2.804   5.171
 4688SOL    HW114963   5.955   2.878   5.235
 4688SOL    HW214964   5.907   2.731   5.180
 4689SOL     OW14965   5.248   0.694   0.856
 4689SOL    HW114966   5.202   0.608   0.875
 4689SOL    HW214967   5.181   0.767   0.843
 4690SOL     OW14968   2.081   0.293   0.641
 4690SOL    HW114969   2.049   0.374   0.690
 4690SOL    HW214970   2.146   0.321   0.570
 4691SOL     OW14971   2.903   3.424   0.861
 4691SOL    HW114972   2.848   3.470   0.931
 4691SOL    HW214973   2.848   3.409   0.779
 4692SOL     OW14974   5.448   5.557   3.060
 4692SOL    HW114975   5.547   5.547   3.044
 4692SOL    HW214976   5.417   5.485   3.122
 4693SOL     OW14977   1.495   0.695   3.436
 4693SOL    HW114978   1.487   0.674   3.339
 4693SOL    HW214979   1.443   0.778   3.457
 4694SOL     OW14980   2.411   1.482   0.165
 4694SOL    HW114981   2.407   1.384   0.182
 4694SOL    HW214982   2.487   1.522   0.218
 4695SOL     OW14983   1.185   4.647   0.930
 4695SOL    HW114984   1.274   4.691   0.938
 4695SOL    HW214985   1.170   4.620   0.835
 4696SOL     OW14986   0.376   5.533   6.188
 4696SOL    HW114987   0.417   5.452   6.230
 4696SOL    HW214988   0.435   5.567   6.116
 4697SOL     OW14989   1.191   3.841   1.851
 4697SOL    HW114990   1.204   3.859   1.949
 4697SOL    HW214991   1.093   3.847   1.830
 4698SOL     OW14992   4.129   6.238   3.343
 4698SOL    HW114993   4.188   6.174   3.392
 4698SOL    HW214994   4.148   6.233   3.245
 4699SOL     OW14995   0.602   6.401   2.574
 4699SOL    HW114996   0.508   6.380   2.544
 4699SOL    HW214997   0.665   6.338   2.530
 4700SOL     OW14998   6.671   2.001   2.334
 4700SOL    HW114999   6.659   2.072   2.264
 4700SOL    HW215000   6.710   1.920   2.291
 4701SOL     OW15001   3.419   2.015   6.933
 4701SOL    HW115002   3.503   1.994   6.983
 4701SOL    HW215003   3.435   2.091   6.871
 4702SOL     OW15004   4.794   4.839   0.251
 4702SOL    HW115005   4.733   4.860   0.327
 4702SOL    HW215006   4.889   4.849   0.280
 4703SOL     OW15007   1.152   0.223   2.825
 4703SOL    HW115008   1.061   0.254   2.852
 4703SOL    HW215009   1.220   0.294   2.849
 4704SOL     OW15010   6.463   5.952   6.212
 4704SOL    HW115011   6.392   6.008   6.171
 4704SOL    HW215012   6.473   5.867   6.160
 4705SOL     OW15013   4.266   2.483   1.002
 4705SOL    HW115014   4.194   2.423   1.037
 4705SOL    HW215015   4.350   2.468   1.054
 4706SOL     OW15016   1.758   0.277   0.470
 4706SOL    HW115017   1.852   0.269   0.437
 4706SOL    HW215018   1.758   0.283   0.570
 4707SOL     OW15019   0.799   6.729   1.534
 4707SOL    HW115020   0.883   6.773   1.566
 4707SOL    HW215021   0.819   6.669   1.457
 4708SOL     OW15022   1.275   1.839   5.557
 4708SOL    HW115023   1.216   1.770   5.514
 4708SOL    HW215024   1.348   1.794   5.608
 4709SOL     OW15025   4.794   5.615   5.002
 4709SOL    HW115026   4.822   5.520   5.014
 4709SOL    HW215027   4.865   5.666   4.953
 4710SOL     OW15028   5.181   0.193   5.968
 4710SOL    HW115029   5.243   0.150   5.903
 4710SOL    HW215030   5.214   0.177   6.061
 4711SOL     OW15031   6.528   1.658   1.411
 4711SOL    HW115032   6.616   1.706   1.406
 4711SOL    HW215033   6.454   1.724   1.395
 4712SOL     OW15034   3.045   4.778   6.885
 4712SOL    HW115035   2.973   4.821   6.939
 4712SOL    HW215036   3.028   4.793   6.788
 4713SOL     OW15037   3.744   4.653   0.881
 4713SOL    HW115038   3.646   4.653   0.901
 4713SOL    HW215039   3.781   4.745   0.897
 4714SOL     OW15040   0.492   1.559   6.128
 4714SOL    HW115041   0.540   1.504   6.197
 4714SOL    HW215042   0.559   1.600   6.066
 4715SOL     OW15043   6.176   3.612   1.391
 4715SOL    HW115044   6.111   3.591   1.318
 4715SOL    HW215045   6.189   3.530   1.448
 4716SOL     OW15046   4.198   6.347   5.523
 4716SOL    HW115047   4.277   6.285   5.516
 4716SOL    HW215048   4.119   6.297   5.559
 4717SOL     OW15049   0.839   6.122   4.633
 4717SOL    HW115050   0.917   6.159   4.583
 4717SOL    HW215051   0.872   6.073   4.713
 4718SOL     OW15052   5.475   1.736   1.088
 4718SOL    HW115053   5.425   1.819   1.111
 4718SOL    HW215054   5.538   1.713   1.162
 4719SOL     OW15055   4.881   3.582   2.352
 4719SOL    HW115056   4.828   3.501   2.328
 4719SOL    HW215057   4.957   3.593   2.288
 4720SOL     OW15058   2.161   5.275   5.902
 4720SOL    HW115059   2.220   5.234   5.833
 4720SOL    HW215060   2.115   5.355   5.864
 4721SOL     OW15061   6.557   1.798   1.988
 4721SOL    HW115062   6.598   1.792   1.897
 4721SOL    HW215063   6.507   1.884   1.996
 4722SOL     OW15064   1.156   6.011   0.001
 4722SOL    HW115065   1.112   5.956   0.072
 4722SOL    HW215066   1.125   5.981   6.939
 4723SOL     OW15067   2.870   3.648   5.427
 4723SOL    HW115068   2.896   3.724   5.486
 4723SOL    HW215069   2.833   3.573   5.482
 4724SOL     OW15070   6.934   6.812   4.316
 4724SOL    HW115071   6.966   6.907   4.317
 4724SOL    HW215072   7.011   6.751   4.300
 4725SOL     OW15073   6.290   5.350   0.241
 4725SOL    HW115074   6.356   5.327   0.170
 4725SOL    HW215075   6.292   5.449   0.257
 4726SOL     OW15076   1.447   3.028   6.190
 4726SOL    HW115077   1.448   3.064   6.283
 4726SOL    HW215078   1.437   2.928   6.193
 4727SOL     OW15079   0.708   6.264   1.233
 4727SOL    HW115080   0.659   6.201   1.172
 4727SOL    HW215081   0.731   6.347   1.183
 4728SOL     OW15082   5.534   1.264   2.567
 4728SOL    HW115083   5.569   1.197   2.632
 4728SOL    HW215084   5.435   1.252   2.557
 4729SOL     OW15085   5.102   1.197   0.524
 4729SOL    HW115086   5.140   1.147   0.602
 4729SOL    HW215087   5.055   1.133   0.463
 4730SOL     OW15088   3.286   6.037   5.001
 4730SOL    HW115089   3.350   6.090   5.057
 4730SOL    HW215090   3.204   6.018   5.055
 4731SOL     OW15091   3.133   1.167   0.750
 4731SOL    HW115092   3.092   1.254   0.777
 4731SOL    HW215093   3.114   1.098   0.820
 4732SOL     OW15094   0.798   3.425   5.440
 4732SOL    HW115095   0.866   3.354   5.419
 4732SOL    HW215096   0.829   3.512   5.403
 4733SOL     OW15097   1.629   3.837   4.059
 4733SOL    HW115098   1.633   3.739   4.036
 4733SOL    HW215099   1.691   3.887   3.999
 4734SOL     OW15100   4.431   3.440   0.448
 4734SOL    HW115101   4.403   3.344   0.441
 4734SOL    HW215102   4.377   3.496   0.386
 4735SOL     OW15103   6.948   5.555   4.067
 4735SOL    HW115104   6.869   5.495   4.084
 4735SOL    HW215105   6.917   5.639   4.022
 4736SOL     OW15106   5.616   1.645   6.028
 4736SOL    HW115107   5.607   1.628   5.930
 4736SOL    HW215108   5.591   1.740   6.047
 4737SOL     OW15109   2.844   4.247   0.964
 4737SOL    HW115110   2.789   4.289   0.892
 4737SOL    HW215111   2.785   4.227   1.043
 4738SOL     OW15112   2.273   6.455   3.168
 4738SOL    HW115113   2.260   6.502   3.256
 4738SOL    HW215114   2.279   6.522   3.095
 4739SOL     OW15115   5.245   1.680   2.869
 4739SOL    HW115116   5.189   1.702   2.949
 4739SOL    HW215117   5.253   1.580   2.860
 4740SOL     OW15118   0.394   1.002   0.787
 4740SOL    HW115119   0.429   1.076   0.845
 4740SOL    HW215120   0.296   0.991   0.803
 4741SOL     OW15121   4.539   3.342   1.392
 4741SOL    HW115122   4.561   3.294   1.307
 4741SOL    HW215123   4.615   3.403   1.416
 4742SOL     OW15124   2.477   6.657   1.132
 4742SOL    HW115125   2.496   6.584   1.066
 4742SOL    HW215126   2.535   6.736   1.111
 4743SOL     OW15127   1.795   2.979   5.008
 4743SOL    HW115128   1.715   3.012   5.058
 4743SOL    HW215129   1.770   2.958   4.914
 4744SOL     OW15130   2.783   4.183   6.130
 4744SOL    HW115131   2.823   4.268   6.096
 4744SOL    HW215132   2.731   4.139   6.057
 4745SOL     OW15133   2.731   5.262   5.298
 4745SOL    HW115134   2.758   5.201   5.372
 4745SOL    HW215135   2.674   5.212   5.233
 4746SOL     OW15136   5.865   6.401   2.567
 4746SOL    HW115137   5.788   6.360   2.616
 4746SOL    HW215138   5.946   6.345   2.578
 4747SOL     OW15139   1.210   4.165   0.162
 4747SOL    HW115140   1.211   4.220   0.246
 4747SOL    HW215141   1.248   4.074   0.181
 4748SOL     OW15142   1.136   5.164   0.611
 4748SOL    HW115143   1.126   5.066   0.626
 4748SOL    HW215144   1.055   5.199   0.565
 4749SOL     OW15145   2.864   6.358   5.150
 4749SOL    HW115146   2.942   6.420   5.139
 4749SOL    HW215147   2.879   6.299   5.229
 4750SOL     OW15148   0.050   3.497   4.247
 4750SOL    HW115149   0.052   3.517   4.344
 4750SOL    HW215150   0.143   3.493   4.211
 4751SOL     OW15151   2.738   2.986   0.371
 4751SOL    HW115152   2.832   2.957   0.348
 4751SOL    HW215153   2.676   2.908   0.361
 4752SOL     OW15154   2.922   0.394   0.049
 4752SOL    HW115155   2.998   0.345   0.092
 4752SOL    HW215156   2.871   0.443   0.120
 4753SOL     OW15157   5.737   0.019   4.574
 4753SOL    HW115158   5.689   6.981   4.633
 4753SOL    HW215159   5.727   7.018   4.478
 4754SOL     OW15160   5.917   0.559   4.930
 4754SOL    HW115161   5.991   0.561   4.997
 4754SOL    HW215162   5.935   0.489   4.861
 4755SOL     OW15163   2.959   0.896   1.153
 4755SOL    HW115164   2.897   0.937   1.220
 4755SOL    HW215165   3.045   0.871   1.197
 4756SOL     OW15166   5.807   3.181   1.337
 4756SOL    HW115167   5.835   3.251   1.404
 4756SOL    HW215168   5.769   3.103   1.386
 4757SOL     OW15169   1.730   2.301   1.677
 4757SOL    HW115170   1.709   2.388   1.633
 4757SOL    HW215171   1.728   2.312   1.776
 4758SOL     OW15172   2.777   5.872   4.585
 4758SOL    HW115173   2.837   5.858   4.507
 4758SOL    HW215174   2.682   5.854   4.558
 4759SOL     OW15175   5.372   5.501   4.491
 4759SOL    HW115176   5.277   5.527   4.507
 4759SOL    HW215177   5.383   5.403   4.508
 4760SOL     OW15178   3.799   1.915   0.658
 4760SOL    HW115179   3.767   1.993   0.604
 4760SOL    HW215180   3.899   1.913   0.658
 4761SOL     OW15181   0.938   6.472   6.248
 4761SOL    HW115182   0.873   6.399   6.228
 4761SOL    HW215183   0.914   6.515   6.336
 4762SOL     OW15184   2.013   5.299   3.089
 4762SOL    HW115185   1.980   5.389   3.119
 4762SOL    HW215186   2.101   5.309   3.044
 4763SOL     OW15187   6.159   6.475   3.724
 4763SOL    HW115188   6.218   6.397   3.700
 4763SOL    HW215189   6.072   6.441   3.762
 4764SOL     OW15190   5.267   4.255   5.436
 4764SOL    HW115191   5.185   4.253   5.494
 4764SOL    HW215192   5.248   4.209   5.349
 4765SOL     OW15193   5.513   0.546   4.671
 4765SOL    HW115194   5.503   0.480   4.745
 4765SOL    HW215195   5.611   0.560   4.652
 4766SOL     OW15196   4.694   6.986   4.039
 4766SOL    HW115197   4.786   7.015   4.063
 4766SOL    HW215198   4.654   6.937   4.116
 4767SOL     OW15199   3.879   4.935   5.748
 4767SOL    HW115200   3.803   4.979   5.700
 4767SOL    HW215201   3.861   4.937   5.846
 4768SOL     OW15202   4.577   1.810   4.857
 4768SOL    HW115203   4.538   1.728   4.900
 4768SOL    HW215204   4.527   1.831   4.774
 4769SOL     OW15205   4.971   4.633   6.955
 4769SOL    HW115206   5.052   4.692   6.945
 4769SOL    HW215207   4.889   4.690   6.950
 4770SOL     OW15208   0.997   1.029   4.669
 4770SOL    HW115209   0.949   0.941   4.675
 4770SOL    HW215210   0.954   1.086   4.599
 4771SOL     OW15211   3.130   5.493   5.646
 4771SOL    HW115212   3.114   5.401   5.681
 4771SOL    HW215213   3.119   5.560   5.720
 4772SOL     OW15214   3.159   4.916   1.657
 4772SOL    HW115215   3.163   4.991   1.723
 4772SOL    HW215216   3.083   4.856   1.680
 4773SOL     OW15217   6.584   5.510   4.786
 4773SOL    HW115218   6.490   5.524   4.818
 4773SOL    HW215219   6.643   5.580   4.828
 4774SOL     OW15220   1.166   2.420   1.588
 4774SOL    HW115221   1.164   2.411   1.688
 4774SOL    HW215222   1.136   2.335   1.546
 4775SOL     OW15223   5.119   6.645   2.375
 4775SOL    HW115224   5.183   6.677   2.305
 4775SOL    HW215225   5.117   6.545   2.374
 4776SOL     OW15226   0.944   6.346   4.904
 4776SOL    HW115227   0.977   6.403   4.980
 4776SOL    HW215228   1.001   6.264   4.897
 4777SOL     OW15229   2.873   4.329   1.421
 4777SOL    HW115230   2.838   4.235   1.409
 4777SOL    HW215231   2.821   4.374   1.494
 4778SOL     OW15232   6.205   2.869   2.375
 4778SOL    HW115233   6.171   2.782   2.338
 4778SOL    HW215234   6.278   2.850   2.441
 4779SOL     OW15235   6.485   6.646   2.396
 4779SOL    HW115236   6.394   6.649   2.355
 4779SOL    HW215237   6.546   6.593   2.337
 4780SOL     OW15238   6.849   0.831   0.813
 4780SOL    HW115239   6.855   0.927   0.784
 4780SOL    HW215240   6.803   0.777   0.742
 4781SOL     OW15241   2.697   6.086   2.249
 4781SOL    HW115242   2.751   6.150   2.195
 4781SOL    HW215243   2.648   6.023   2.188
 4782SOL     OW15244   4.492   6.181   0.095
 4782SOL    HW115245   4.457   6.087   0.087
 4782SOL    HW215246   4.454   6.223   0.178
 4783SOL     OW15247   4.785   4.585   6.629
 4783SOL    HW115248   4.739   4.500   6.655
 4783SOL    HW215249   4.783   4.649   6.706
 4784SOL     OW15250   5.892   4.216   6.243
 4784SOL    HW115251   5.955   4.183   6.173
 4784SOL    HW215252   5.943   4.268   6.312
 4785SOL     OW15253   5.731   5.591   1.578
 4785SOL    HW115254   5.828   5.572   1.559
 4785SOL    HW215255   5.676   5.565   1.499
 4786SOL     OW15256   2.617   2.126   1.277
 4786SOL    HW115257   2.710   2.163   1.268
 4786SOL    HW215258   2.576   2.160   1.361
 4787SOL     OW15259   3.329   2.074   3.246
 4787SOL    HW115260   3.405   2.102   3.304
 4787SOL    HW215261   3.364   2.054   3.154
 4788SOL     OW15262   1.214   5.087   5.880
 4788SOL    HW115263   1.133   5.036   5.908
 4788SOL    HW215264   1.217   5.175   5.928
 4789SOL     OW15265   5.581   1.024   0.683
 4789SOL    HW115266   5.630   1.069   0.757
 4789SOL    HW215267   5.577   0.925   0.701
 4790SOL     OW15268   0.487   2.915   5.683
 4790SOL    HW115269   0.429   2.859   5.743
 4790SOL    HW215270   0.564   2.951   5.735
 4791SOL     OW15271   6.366   1.752   1.002
 4791SOL    HW115272   6.290   1.816   0.987
 4791SOL    HW215273   6.409   1.729   0.915
 4792SOL     OW15274   2.180   3.263   3.001
 4792SOL    HW115275   2.192   3.359   3.028
 4792SOL    HW215276   2.164   3.257   2.903
 4793SOL     OW15277   1.893   3.063   5.940
 4793SOL    HW115278   1.858   3.037   5.850
 4793SOL    HW215279   1.818   3.064   6.006
 4794SOL     OW15280   4.753   0.480   3.412
 4794SOL    HW115281   4.666   0.529   3.423
 4794SOL    HW215282   4.735   0.381   3.410
 4795SOL     OW15283   6.911   1.597   3.825
 4795SOL    HW115284   6.941   1.656   3.750
 4795SOL    HW215285   6.824   1.553   3.800
 4796SOL     OW15286   5.111   1.866   6.363
 4796SOL    HW115287   5.110   1.914   6.276
 4796SOL    HW215288   5.171   1.786   6.357
 4797SOL     OW15289   1.883   6.156   5.903
 4797SOL    HW115290   1.956   6.209   5.859
 4797SOL    HW215291   1.918   6.113   5.986
 4798SOL     OW15292   6.994   3.013   4.822
 4798SOL    HW115293   6.908   2.967   4.800
 4798SOL    HW215294   7.001   3.024   4.922
 4799SOL     OW15295   4.657   2.315   6.648
 4799SOL    HW115296   4.566   2.286   6.680
 4799SOL    HW215297   4.680   2.403   6.689
 4800SOL     OW15298   2.714   3.314   5.938
 4800SOL    HW115299   2.671   3.362   6.015
 4800SOL    HW215300   2.754   3.380   5.875
 4801SOL     OW15301   2.864   2.199   1.253
 4801SOL    HW115302   2.933   2.180   1.183
 4801SOL    HW215303   2.906   2.252   1.327
 4802SOL     OW15304   0.777   6.235   2.411
 4802SOL    HW115305   0.841   6.162   2.385
 4802SOL    HW215306   0.828   6.320   2.425
 4803SOL     OW15307   1.430   6.054   0.655
 4803SOL    HW115308   1.366   5.980   0.675
 4803SOL    HW215309   1.518   6.015   0.629
 4804SOL     OW15310   4.932   5.720   6.482
 4804SOL    HW115311   4.924   5.816   6.509
 4804SOL    HW215312   4.910   5.712   6.384
 4805SOL     OW15313   5.715   0.318   1.461
 4805SOL    HW115314   5.633   0.312   1.405
 4805SOL    HW215315   5.796   0.321   1.401
 4806SOL     OW15316   0.960   4.730   2.752
 4806SOL    HW115317   0.981   4.657   2.687
 4806SOL    HW215318   1.042   4.784   2.770
 4807SOL     OW15319   0.722   4.885   0.231
 4807SOL    HW115320   0.680   4.975   0.218
 4807SOL    HW215321   0.718   4.859   0.327
 4808SOL     OW15322   6.258   3.634   6.322
 4808SOL    HW115323   6.250   3.694   6.402
 4808SOL    HW215324   6.169   3.594   6.301
 4809SOL     OW15325   3.552   4.167   0.126
 4809SOL    HW115326   3.583   4.262   0.132
 4809SOL    HW215327   3.632   4.107   0.124
 4810SOL     OW15328   0.869   5.142   2.480
 4810SOL    HW115329   0.838   5.067   2.421
 4810SOL    HW215330   0.941   5.193   2.433
 4811SOL     OW15331   1.780   4.783   2.086
 4811SOL    HW115332   1.848   4.807   2.017
 4811SOL    HW215333   1.731   4.701   2.057
 4812SOL     OW15334   6.887   4.783   4.767
 4812SOL    HW115335   6.933   4.723   4.834
 4812SOL    HW215336   6.915   4.878   4.783
 4813SOL     OW15337   5.908   1.933   0.573
 4813SOL    HW115338   5.978   1.999   0.548
 4813SOL    HW215339   5.854   1.969   0.650
 4814SOL     OW15340   5.921   3.963   0.696
 4814SOL    HW115341   5.901   4.060   0.682
 4814SOL    HW215342   5.910   3.914   0.610
 4815SOL     OW15343   5.968   4.158   3.202
 4815SOL    HW115344   6.032   4.082   3.212
 4815SOL    HW215345   5.998   4.234   3.258
 4816SOL     OW15346   0.743   5.102   1.290
 4816SOL    HW115347   0.798   5.020   1.277
 4816SOL    HW215348   0.799   5.173   1.334
 4817SOL     OW15349   0.648   2.256   6.758
 4817SOL    HW115350   0.601   2.325   6.812
 4817SOL    HW215351   0.727   2.221   6.809
 4818SOL     OW15352   0.996   0.560   5.250
 4818SOL    HW115353   0.913   0.570   5.196
 4818SOL    HW215354   1.044   0.477   5.222
 4819SOL     OW15355   0.880   2.310   0.270
 4819SOL    HW115356   0.957   2.349   0.220
 4819SOL    HW215357   0.907   2.222   0.310
 4820SOL     OW15358   6.497   2.623   1.101
 4820SOL    HW115359   6.455   2.606   1.189
 4820SOL    HW215360   6.586   2.667   1.114
 4821SOL     OW15361   1.342   6.119   2.575
 4821SOL    HW115362   1.351   6.110   2.476
 4821SOL    HW215363   1.413   6.065   2.620
 4822SOL     OW15364   1.927   3.121   4.255
 4822SOL    HW115365   1.945   3.203   4.310
 4822SOL    HW215366   2.014   3.082   4.225
 4823SOL     OW15367   1.788   1.175   4.164
 4823SOL    HW115368   1.845   1.122   4.101
 4823SOL    HW215369   1.816   1.271   4.161
 4824SOL     OW15370   4.814   3.005   5.053
 4824SOL    HW115371   4.786   3.074   5.119
 4824SOL    HW215372   4.817   3.046   4.962
 4825SOL     OW15373   1.279   2.909   4.237
 4825SOL    HW115374   1.267   2.811   4.249
 4825SOL    HW215375   1.343   2.944   4.306
 4826SOL     OW15376   5.631   0.680   0.387
 4826SOL    HW115377   5.538   0.718   0.389
 4826SOL    HW215378   5.664   0.679   0.293
 4827SOL     OW15379   6.139   1.714   0.714
 4827SOL    HW115380   6.122   1.764   0.798
 4827SOL    HW215381   6.148   1.616   0.733
 4828SOL     OW15382   5.194   1.641   0.581
 4828SOL    HW115383   5.238   1.677   0.663
 4828SOL    HW215384   5.143   1.558   0.603
 4829SOL     OW15385   3.209   0.064   5.661
 4829SOL    HW115386   3.165   0.017   5.738
 4829SOL    HW215387   3.250   0.149   5.694
 4830SOL     OW15388   3.901   5.971   4.364
 4830SOL    HW115389   3.817   5.919   4.379
 4830SOL    HW215390   3.971   5.940   4.429
 4831SOL     OW15391   1.331   4.891   5.591
 4831SOL    HW115392   1.376   4.980   5.597
 4831SOL    HW215393   1.299   4.864   5.682
 4832SOL     OW15394   3.333   4.107   3.747
 4832SOL    HW115395   3.289   4.137   3.831
 4832SOL    HW215396   3.305   4.013   3.726
 4833SOL     OW15397   6.320   1.553   3.197
 4833SOL    HW115398   6.297   1.642   3.158
 4833SOL    HW215399   6.345   1.563   3.293
 4834SOL     OW15400   2.925   5.420   1.860
 4834SOL    HW115401   2.902   5.512   1.893
 4834SOL    HW215402   2.854   5.356   1.889
 4835SOL     OW15403   5.736   2.772   5.451
 4835SOL    HW115404   5.652   2.751   5.501
 4835SOL    HW215405   5.720   2.762   5.353
 4836SOL     OW15406   5.166   1.756   4.605
 4836SOL    HW115407   5.096   1.692   4.574
 4836SOL    HW215408   5.194   1.815   4.529
 4837SOL     OW15409   6.986   3.588   2.864
 4837SOL    HW115410   7.005   3.629   2.775
 4837SOL    HW215411   6.949   3.496   2.851
 4838SOL     OW15412   2.027   6.040   0.404
 4838SOL    HW115413   1.949   6.084   0.360
 4838SOL    HW215414   1.996   5.958   0.454
 4839SOL     OW15415   1.038   3.637   0.224
 4839SOL    HW115416   1.032   3.537   0.215
 4839SOL    HW215417   1.081   3.660   0.311
 4840SOL     OW15418   6.742   4.650   6.317
 4840SOL    HW115419   6.800   4.731   6.316
 4840SOL    HW215420   6.648   4.677   6.294
 4841SOL     OW15421   2.272   5.290   3.004
 4841SOL    HW115422   2.364   5.267   3.035
 4841SOL    HW215423   2.277   5.359   2.932
 4842SOL     OW15424   2.584   5.166   2.995
 4842SOL    HW115425   2.544   5.202   3.079
 4842SOL    HW215426   2.679   5.197   2.988
 4843SOL     OW15427   6.192   2.571   1.612
 4843SOL    HW115428   6.115   2.513   1.637
 4843SOL    HW215429   6.179   2.663   1.651
 4844SOL     OW15430   0.406   3.735   6.018
 4844SOL    HW115431   0.435   3.725   6.113
 4844SOL    HW215432   0.486   3.743   5.959
 4845SOL     OW15433   4.669   4.925   6.276
 4845SOL    HW115434   4.724   4.898   6.355
 4845SOL    HW215435   4.578   4.884   6.282
 4846SOL     OW15436   0.537   2.562   3.714
 4846SOL    HW115437   0.612   2.627   3.707
 4846SOL    HW215438   0.475   2.574   3.637
 4847SOL     OW15439   1.963   1.602   6.125
 4847SOL    HW115440   1.977   1.545   6.044
 4847SOL    HW215441   2.049   1.645   6.151
 4848SOL     OW15442   2.472   0.902   4.882
 4848SOL    HW115443   2.409   0.824   4.878
 4848SOL    HW215444   2.537   0.896   4.807
 4849SOL     OW15445   1.611   5.872   0.949
 4849SOL    HW115446   1.568   5.785   0.928
 4849SOL    HW215447   1.543   5.936   0.985
 4850SOL     OW15448   4.723   0.696   1.791
 4850SOL    HW115449   4.795   0.633   1.762
 4850SOL    HW215450   4.712   0.767   1.722
 4851SOL     OW15451   2.869   5.328   5.681
 4851SOL    HW115452   2.913   5.271   5.611
 4851SOL    HW215453   2.921   5.322   5.766
 4852SOL     OW15454   2.063   5.739   5.071
 4852SOL    HW115455   2.009   5.659   5.045
 4852SOL    HW215456   2.020   5.822   5.037
 4853SOL     OW15457   4.089   1.368   3.250
 4853SOL    HW115458   4.169   1.402   3.200
 4853SOL    HW215459   4.065   1.277   3.217
 4854SOL     OW15460   5.049   7.014   1.976
 4854SOL    HW115461   5.010   0.064   1.927
 4854SOL    HW215462   5.049   0.005   2.074
 4855SOL     OW15463   6.266   3.307   5.638
 4855SOL    HW115464   6.268   3.329   5.541
 4855SOL    HW215465   6.356   3.273   5.666
 4856SOL     OW15466   1.587   3.076   2.846
 4856SOL    HW115467   1.599   3.151   2.781
 4856SOL    HW215468   1.492   3.073   2.875
 4857SOL     OW15469   2.876   1.946   3.376
 4857SOL    HW115470   2.951   1.989   3.427
 4857SOL    HW215471   2.831   2.014   3.319
 4858SOL     OW15472   6.778   6.317   4.898
 4858SOL    HW115473   6.785   6.272   4.987
 4858SOL    HW215474   6.868   6.351   4.870
 4859SOL     OW15475   0.205   4.798   1.754
 4859SOL    HW115476   0.267   4.822   1.830
 4859SOL    HW215477   0.133   4.738   1.788
 4860SOL     OW15478   4.539   4.181   6.879
 4860SOL    HW115479   4.532   4.085   6.848
 4860SOL    HW215480   4.613   4.189   6.945
 4861SOL     OW15481   5.811   5.789   6.558
 4861SOL    HW115482   5.757   5.775   6.475
 4861SOL    HW215483   5.773   5.735   6.633
 4862SOL     OW15484   2.442   4.811   5.018
 4862SOL    HW115485   2.436   4.715   4.990
 4862SOL    HW215486   2.531   4.828   5.059
 4863SOL     OW15487   5.036   2.860   2.360
 4863SOL    HW115488   5.016   2.794   2.433
 4863SOL    HW215489   5.111   2.825   2.304
 4864SOL     OW15490   3.334   1.203   2.026
 4864SOL    HW115491   3.295   1.275   2.083
 4864SOL    HW215492   3.311   1.220   1.930
 4865SOL     OW15493   2.270   5.809   4.661
 4865SOL    HW115494   2.251   5.759   4.745
 4865SOL    HW215495   2.235   5.902   4.668
 4866SOL     OW15496   5.965   4.396   1.187
 4866SOL    HW115497   5.933   4.382   1.093
 4866SOL    HW215498   6.036   4.467   1.187
 4867SOL     OW15499   4.708   5.777   3.333
 4867SOL    HW115500   4.613   5.781   3.304
 4867SOL    HW215501   4.762   5.727   3.264
 4868SOL     OW15502   6.978   5.519   1.439
 4868SOL    HW115503   0.010   5.501   1.518
 4868SOL    HW215504   0.002   5.503   1.355
 4869SOL     OW15505   0.026   2.347   1.020
 4869SOL    HW115506   0.124   2.362   1.037
 4869SOL    HW215507   7.005   2.434   1.030
 4870SOL     OW15508   5.369   5.460   1.909
 4870SOL    HW115509   5.457   5.414   1.924
 4870SOL    HW215510   5.371   5.550   1.952
 4871SOL     OW15511   0.267   1.222   4.610
 4871SOL    HW115512   0.228   1.205   4.700
 4871SOL    HW215513   0.330   1.300   4.614
 4872SOL     OW15514   0.441   5.931   4.095
 4872SOL    HW115515   0.400   5.891   4.013
 4872SOL    HW215516   0.470   6.025   4.076
 4873SOL     OW15517   6.828   4.899   4.004
 4873SOL    HW115518   6.909   4.951   4.029
 4873SOL    HW215519   6.848   4.839   3.927
 4874SOL     OW15520   5.887   4.001   2.548
 4874SOL    HW115521   5.932   4.018   2.461
 4874SOL    HW215522   5.798   3.959   2.532
 4875SOL     OW15523   5.239   2.361   1.138
 4875SOL    HW115524   5.194   2.448   1.161
 4875SOL    HW215525   5.287   2.326   1.218
 4876SOL     OW15526   6.200   0.902   4.426
 4876SOL    HW115527   6.268   0.836   4.393
 4876SOL    HW215528   6.169   0.958   4.350
 4877SOL     OW15529   6.903   1.670   0.756
 4877SOL    HW115530   6.971   1.601   0.781
 4877SOL    HW215531   6.811   1.632   0.766
 4878SOL     OW15532   6.145   1.640   2.367
 4878SOL    HW115533   6.218   1.692   2.410
 4878SOL    HW215534   6.131   1.554   2.416
 4879SOL     OW15535   4.383   5.372   3.454
 4879SOL    HW115536   4.305   5.419   3.413
 4879SOL    HW215537   4.392   5.399   3.550
 4880SOL     OW15538   5.400   3.036   6.292
 4880SOL    HW115539   5.384   3.106   6.362
 4880SOL    HW215540   5.416   2.948   6.336
 4881SOL     OW15541   2.294   6.034   0.041
 4881SOL    HW115542   2.342   5.948   0.059
 4881SOL    HW215543   2.352   6.111   0.067
 4882SOL     OW15544   6.048   1.101   4.254
 4882SOL    HW115545   5.952   1.097   4.225
 4882SOL    HW215546   6.056   1.161   4.334
 4883SOL     OW15547   5.410   4.509   2.816
 4883SOL    HW115548   5.323   4.461   2.815
 4883SOL    HW215549   5.441   4.526   2.723
 4884SOL     OW15550   4.418   0.162   0.779
 4884SOL    HW115551   4.346   0.231   0.777
 4884SOL    HW215552   4.401   0.097   0.853
 4885SOL     OW15553   2.518   6.494   2.618
 4885SOL    HW115554   2.600   6.545   2.641
 4885SOL    HW215555   2.485   6.445   2.699
 4886SOL     OW15556   0.112   5.627   6.139
 4886SOL    HW115557   0.204   5.597   6.165
 4886SOL    HW215558   0.112   5.656   6.044
 4887SOL     OW15559   0.371   1.476   2.581
 4887SOL    HW115560   0.383   1.569   2.547
 4887SOL    HW215561   0.285   1.470   2.632
 4888SOL     OW15562   1.742   6.696   4.427
 4888SOL    HW115563   1.769   6.785   4.390
 4888SOL    HW215564   1.661   6.708   4.485
 4889SOL     OW15565   0.322   1.372   6.776
 4889SOL    HW115566   0.379   1.312   6.721
 4889SOL    HW215567   0.334   1.466   6.747
 4890SOL     OW15568   0.606   2.425   5.327
 4890SOL    HW115569   0.598   2.331   5.292
 4890SOL    HW215570   0.602   2.489   5.251
 4891SOL     OW15571   1.130   6.059   0.323
 4891SOL    HW115572   1.221   6.022   0.341
 4891SOL    HW215573   1.070   5.987   0.290
 4892SOL     OW15574   2.355   6.141   2.178
 4892SOL    HW115575   2.382   6.223   2.128
 4892SOL    HW215576   2.429   6.113   2.239
 4893SOL     OW15577   5.978   4.585   6.844
 4893SOL    HW115578   5.889   4.602   6.886
 4893SOL    HW215579   5.993   4.652   6.771
 4894SOL     OW15580   2.688   0.922   2.097
 4894SOL    HW115581   2.690   0.913   1.998
 4894SOL    HW215582   2.779   0.947   2.131
 4895SOL     OW15583   0.103   4.867   1.460
 4895SOL    HW115584   0.108   4.904   1.552
 4895SOL    HW215585   0.015   4.892   1.419
 4896SOL     OW15586   2.249   5.195   2.361
 4896SOL    HW115587   2.190   5.225   2.435
 4896SOL    HW215588   2.304   5.272   2.329
 4897SOL     OW15589   2.797   5.224   6.395
 4897SOL    HW115590   2.883   5.207   6.442
 4897SOL    HW215591   2.747   5.297   6.441
 4898SOL     OW15592   5.934   1.594   5.327
 4898SOL    HW115593   5.926   1.533   5.248
 4898SOL    HW215594   5.857   1.580   5.388
 4899SOL     OW15595   6.154   4.577   2.946
 4899SOL    HW115596   6.227   4.617   2.891
 4899SOL    HW215597   6.193   4.528   3.023
 4900SOL     OW15598   1.887   6.165   5.387
 4900SOL    HW115599   1.795   6.203   5.398
 4900SOL    HW215600   1.950   6.237   5.359
 4901SOL     OW15601   2.449   6.633   5.295
 4901SOL    HW115602   2.401   6.721   5.287
 4901SOL    HW215603   2.449   6.603   5.390
 4902SOL     OW15604   2.096   2.342   4.502
 4902SOL    HW115605   2.030   2.402   4.547
 4902SOL    HW215606   2.052   2.297   4.425
 4903SOL     OW15607   3.403   6.759   6.915
 4903SOL    HW115608   3.375   6.680   6.860
 4903SOL    HW215609   3.383   6.843   6.866
 4904SOL     OW15610   1.538   0.167   3.920
 4904SOL    HW115611   1.459   0.119   3.958
 4904SOL    HW215612   1.591   0.104   3.863
 4905SOL     OW15613   4.306   1.981   2.753
 4905SOL    HW115614   4.334   1.987   2.657
 4905SOL    HW215615   4.295   1.885   2.778
 4906SOL     OW15616   3.494   1.171   6.534
 4906SOL    HW115617   3.432   1.214   6.468
 4906SOL    HW215618   3.460   1.080   6.557
 4907SOL     OW15619   4.418   6.103   2.253
 4907SOL    HW115620   4.344   6.048   2.213
 4907SOL    HW215621   4.405   6.108   2.352
 4908SOL     OW15622   4.238   4.971   6.949
 4908SOL    HW115623   4.173   5.037   6.988
 4908SOL    HW215624   4.243   4.891   7.008
 4909SOL     OW15625   6.233   6.940   6.282
 4909SOL    HW115626   6.198   7.011   6.221
 4909SOL    HW215627   6.298   6.980   6.346
 4910SOL     OW15628   5.689   6.920   4.856
 4910SOL    HW115629   5.716   7.015   4.847
 4910SOL    HW215630   5.706   6.888   4.949
 4911SOL     OW15631   6.876   2.584   5.923
 4911SOL    HW115632   6.974   2.584   5.904
 4911SOL    HW215633   6.846   2.678   5.943
 4912SOL     OW15634   5.296   1.603   1.286
 4912SOL    HW115635   5.339   1.556   1.364
 4912SOL    HW215636   5.366   1.651   1.234
 4913SOL     OW15637   3.511   3.308   3.522
 4913SOL    HW115638   3.528   3.406   3.533
 4913SOL    HW215639   3.509   3.284   3.425
 4914SOL     OW15640   3.842   0.907   4.687
 4914SOL    HW115641   3.829   0.991   4.634
 4914SOL    HW215642   3.802   0.830   4.638
 4915SOL     OW15643   4.642   0.651   4.641
 4915SOL    HW115644   4.640   0.552   4.650
 4915SOL    HW215645   4.712   0.688   4.702
 4916SOL     OW15646   1.762   1.331   3.111
 4916SOL    HW115647   1.850   1.286   3.095
 4916SOL    HW215648   1.767   1.425   3.078
 4917SOL     OW15649   1.689   4.161   0.646
 4917SOL    HW115650   1.665   4.168   0.743
 4917SOL    HW215651   1.673   4.067   0.615
 4918SOL     OW15652   2.998   0.245   2.470
 4918SOL    HW115653   3.036   0.236   2.563
 4918SOL    HW215654   2.899   0.252   2.475
 4919SOL     OW15655   2.660   1.816   1.390
 4919SOL    HW115656   2.587   1.823   1.322
 4919SOL    HW215657   2.749   1.813   1.344
 4920SOL     OW15658   4.093   0.768   7.009
 4920SOL    HW115659   4.081   0.824   6.927
 4920SOL    HW215660   4.017   0.704   7.017
 4921SOL     OW15661   1.755   3.664   1.347
 4921SOL    HW115662   1.740   3.763   1.357
 4921SOL    HW215663   1.681   3.625   1.293
 4922SOL     OW15664   1.011   3.370   5.073
 4922SOL    HW115665   0.916   3.340   5.065
 4922SOL    HW215666   1.070   3.307   5.022
 4923SOL     OW15667   4.206   0.651   1.457
 4923SOL    HW115668   4.236   0.694   1.372
 4923SOL    HW215669   4.196   0.721   1.528
 4924SOL     OW15670   2.072   2.833   6.077
 4924SOL    HW115671   2.101   2.902   6.144
 4924SOL    HW215672   1.976   2.809   6.093
 4925SOL     OW15673   6.244   6.279   0.633
 4925SOL    HW115674   6.340   6.277   0.659
 4925SOL    HW215675   6.236   6.276   0.533
 4926SOL     OW15676   5.455   3.120   1.554
 4926SOL    HW115677   5.378   3.105   1.616
 4926SOL    HW215678   5.448   3.212   1.515
 4927SOL     OW15679   4.068   3.193   3.974
 4927SOL    HW115680   3.987   3.235   4.014
 4927SOL    HW215681   4.097   3.117   4.032
 4928SOL     OW15682   0.402   6.655   7.005
 4928SOL    HW115683   0.398   6.557   7.024
 4928SOL    HW215684   0.484   6.694   0.018
 4929SOL     OW15685   1.398   4.266   5.534
 4929SOL    HW115686   1.372   4.310   5.448
 4929SOL    HW215687   1.323   4.275   5.599
 4930SOL     OW15688   6.805   0.249   1.333
 4930SOL    HW115689   6.820   0.181   1.261
 4930SOL    HW215690   6.893   0.291   1.358
 4931SOL     OW15691   0.548   6.583   0.599
 4931SOL    HW115692   0.546   6.511   0.669
 4931SOL    HW215693   0.630   6.573   0.544
 4932SOL     OW15694   2.315   3.224   1.678
 4932SOL    HW115695   2.323   3.268   1.768
 4932SOL    HW215696   2.230   3.252   1.634
 4933SOL     OW15697   2.706   0.119   4.325
 4933SOL    HW115698   2.781   0.057   4.348
 4933SOL    HW215699   2.729   0.169   4.241
 4934SOL     OW15700   1.301   5.300   3.406
 4934SOL    HW115701   1.275   5.383   3.357
 4934SOL    HW215702   1.357   5.324   3.485
 4935SOL     OW15703   1.063   1.128   6.813
 4935SOL    HW115704   1.146   1.184   6.815
 4935SOL    HW215705   1.024   1.129   6.720
 4936SOL     OW15706   1.757   4.986   1.872
 4936SOL    HW115707   1.789   4.913   1.812
 4936SOL    HW215708   1.657   4.989   1.869
 4937SOL     OW15709   0.903   3.901   5.886
 4937SOL    HW115710   0.964   3.957   5.943
 4937SOL    HW215711   0.907   3.932   5.792
 4938SOL     OW15712   3.396   5.265   1.673
 4938SOL    HW115713   3.396   5.363   1.697
 4938SOL    HW215714   3.338   5.216   1.738
 4939SOL     OW15715   1.428   1.960   3.504
 4939SOL    HW115716   1.473   2.022   3.568
 4939SOL    HW215717   1.496   1.896   3.466
 4940SOL     OW15718   0.082   1.686   5.874
 4940SOL    HW115719   0.023   1.713   5.951
 4940SOL    HW215720   0.053   1.597   5.839
 4941SOL     OW15721   4.266   2.758   5.345
 4941SOL    HW115722   4.221   2.847   5.338
 4941SOL    HW215723   4.227   2.695   5.278
 4942SOL     OW15724   5.139   3.283   4.469
 4942SOL    HW115725   5.160   3.190   4.439
 4942SOL    HW215726   5.212   3.316   4.529
 4943SOL     OW15727   4.921   3.924   5.932
 4943SOL    HW115728   5.009   3.889   5.964
 4943SOL    HW215729   4.854   3.849   5.932
 4944SOL     OW15730   2.325   4.560   1.761
 4944SOL    HW115731   2.424   4.556   1.776
 4944SOL    HW215732   2.296   4.478   1.712
 4945SOL     OW15733   0.977   0.363   4.887
 4945SOL    HW115734   1.011   0.344   4.980
 4945SOL    HW215735   0.901   0.302   4.866
 4946SOL     OW15736   1.124   5.373   7.001
 4946SOL    HW115737   1.130   5.289   6.948
 4946SOL    HW215738   1.137   5.352   0.071
 4947SOL     OW15739   2.167   1.132   1.268
 4947SOL    HW115740   2.208   1.079   1.342
 4947SOL    HW215741   2.148   1.072   1.190
 4948SOL     OW15742   2.208   2.944   2.851
 4948SOL    HW115743   2.222   2.956   2.949
 4948SOL    HW215744   2.216   3.033   2.805
 4949SOL     OW15745   0.083   3.987   5.099
 4949SOL    HW115746   0.112   3.892   5.086
 4949SOL    HW215747   0.157   4.039   5.141
 4950SOL     OW15748   2.370   4.075   5.735
 4950SOL    HW115749   2.282   4.110   5.703
 4950SOL    HW215750   2.435   4.150   5.743
 4951SOL     OW15751   6.315   6.936   4.513
 4951SOL    HW115752   6.376   6.860   4.535
 4951SOL    HW215753   6.220   6.909   4.529
 4952SOL     OW15754   0.284   6.631   6.090
 4952SOL    HW115755   0.221   6.662   6.162
 4952SOL    HW215756   0.289   6.700   6.018
 4953SOL     OW15757   1.537   6.955   2.810
 4953SOL    HW115758   1.458   6.973   2.868
 4953SOL    HW215759   1.508   6.911   2.725
 4954SOL     OW15760   3.311   3.683   6.854
 4954SOL    HW115761   3.283   3.712   6.946
 4954SOL    HW215762   3.253   3.608   6.824
 4955SOL     OW15763   3.097   6.372   7.018
 4955SOL    HW115764   3.001   6.361   6.993
 4955SOL    HW215765   3.145   6.285   7.004
 4956SOL     OW15766   2.750   0.351   4.909
 4956SOL    HW115767   2.801   0.267   4.928
 4956SOL    HW215768   2.665   0.351   4.962
 4957SOL     OW15769   5.386   3.194   0.640
 4957SOL    HW115770   5.437   3.117   0.601
 4957SOL    HW215771   5.290   3.187   0.614
 4958SOL     OW15772   1.810   5.552   5.932
 4958SOL    HW115773   1.752   5.627   5.963
 4958SOL    HW215774   1.770   5.510   5.850
 4959SOL     OW15775   6.136   0.978   1.272
 4959SOL    HW115776   6.053   0.964   1.217
 4959SOL    HW215777   6.186   0.892   1.279
 4960SOL     OW15778   4.338   4.756   4.407
 4960SOL    HW115779   4.337   4.661   4.437
 4960SOL    HW215780   4.262   4.805   4.450
 4961SOL     OW15781   3.156   0.126   6.329
 4961SOL    HW115782   3.206   0.211   6.309
 4961SOL    HW215783   3.222   0.054   6.352
 4962SOL     OW15784   5.784   2.600   0.794
 4962SOL    HW115785   5.768   2.697   0.775
 4962SOL    HW215786   5.720   2.545   0.740
 4963SOL     OW15787   0.925   5.264   0.476
 4963SOL    HW115788   0.847   5.203   0.461
 4963SOL    HW215789   0.938   5.323   0.396
 4964SOL     OW15790   2.422   0.023   4.277
 4964SOL    HW115791   2.505   0.052   4.325
 4964SOL    HW215792   2.356   7.014   4.343
 4965SOL     OW15793   1.142   6.324   2.489
 4965SOL    HW115794   1.186   6.243   2.528
 4965SOL    HW215795   1.075   6.361   2.553
 4966SOL     OW15796   3.004   6.742   4.982
 4966SOL    HW115797   2.990   6.738   4.883
 4966SOL    HW215798   3.035   6.653   5.015
 4967SOL     OW15799   3.014   5.037   5.838
 4967SOL    HW115800   2.915   5.051   5.839
 4967SOL    HW215801   3.045   5.010   5.929
 4968SOL     OW15802   0.659   1.444   3.582
 4968SOL    HW115803   0.598   1.403   3.650
 4968SOL    HW215804   0.612   1.520   3.537
 4969SOL     OW15805   1.534   6.025   2.762
 4969SOL    HW115806   1.554   6.083   2.841
 4969SOL    HW215807   1.562   5.931   2.782
 4970SOL     OW15808   2.547   1.473   1.272
 4970SOL    HW115809   2.540   1.559   1.221
 4970SOL    HW215810   2.493   1.402   1.226
 4971SOL     OW15811   6.375   5.627   3.045
 4971SOL    HW115812   6.410   5.720   3.037
 4971SOL    HW215813   6.276   5.627   3.032
 4972SOL     OW15814   0.507   4.093   0.991
 4972SOL    HW115815   0.423   4.051   1.024
 4972SOL    HW215816   0.521   4.181   1.036
 4973SOL     OW15817   0.789   0.323   1.779
 4973SOL    HW115818   0.760   0.228   1.766
 4973SOL    HW215819   0.729   0.367   1.846
 4974SOL     OW15820   6.195   5.090   0.577
 4974SOL    HW115821   6.165   5.092   0.482
 4974SOL    HW215822   6.154   5.167   0.627
 4975SOL     OW15823   5.270   3.990   6.981
 4975SOL    HW115824   5.272   4.046   6.898
 4975SOL    HW215825   5.189   4.012   0.007
 4976SOL     OW15826   1.427   1.411   4.260
 4976SOL    HW115827   1.457   1.332   4.207
 4976SOL    HW215828   1.327   1.414   4.261
 4977SOL     OW15829   4.491   4.967   7.022
 4977SOL    HW115830   4.508   4.873   0.024
 4977SOL    HW215831   4.409   4.969   6.964
 4978SOL     OW15832   5.852   4.814   4.651
 4978SOL    HW115833   5.830   4.824   4.749
 4978SOL    HW215834   5.786   4.753   4.609
 4979SOL     OW15835   6.720   6.752   5.958
 4979SOL    HW115836   6.668   6.738   6.042
 4979SOL    HW215837   6.658   6.749   5.879
 4980SOL     OW15838   5.607   5.203   3.381
 4980SOL    HW115839   5.524   5.161   3.418
 4980SOL    HW215840   5.646   5.266   3.449
 4981SOL     OW15841   3.983   5.229   2.326
 4981SOL    HW115842   4.031   5.309   2.289
 4981SOL    HW215843   4.050   5.164   2.363
 4982SOL     OW15844   3.139   2.221   5.667
 4982SOL    HW115845   3.045   2.252   5.653
 4982SOL    HW215846   3.194   2.249   5.588
 4983SOL     OW15847   5.637   4.061   5.009
 4983SOL    HW115848   5.605   4.118   5.084
 4983SOL    HW215849   5.728   4.025   5.030
 4984SOL     OW15850   4.866   3.628   2.993
 4984SOL    HW115851   4.855   3.545   3.048
 4984SOL    HW215852   4.860   3.605   2.896
 4985SOL     OW15853   5.825   6.857   3.169
 4985SOL    HW115854   5.732   6.892   3.167
 4985SOL    HW215855   5.839   6.796   3.090
 4986SOL     OW15856   6.350   5.320   0.500
 4986SOL    HW115857   6.345   5.359   0.408
 4986SOL    HW215858   6.337   5.221   0.495
 4987SOL     OW15859   1.117   6.634   2.443
 4987SOL    HW115860   1.156   6.579   2.369
 4987SOL    HW215861   1.168   6.617   2.528
 4988SOL     OW15862   5.833   1.016   2.478
 4988SOL    HW115863   5.932   1.025   2.464
 4988SOL    HW215864   5.809   1.053   2.568
 4989SOL     OW15865   5.445   6.957   1.301
 4989SOL    HW115866   5.460   6.922   1.393
 4989SOL    HW215867   5.350   6.986   1.291
 4990SOL     OW15868   2.946   2.333   6.093
 4990SOL    HW115869   2.933   2.425   6.057
 4990SOL    HW215870   2.863   2.304   6.141
 4991SOL     OW15871   6.275   5.267   4.151
 4991SOL    HW115872   6.329   5.335   4.103
 4991SOL    HW215873   6.194   5.243   4.096
 4992SOL     OW15874   4.940   0.311   2.254
 4992SOL    HW115875   4.885   0.316   2.337
 4992SOL    HW215876   5.036   0.328   2.276
 4993SOL     OW15877   3.705   6.574   4.987
 4993SOL    HW115878   3.638   6.512   4.947
 4993SOL    HW215879   3.776   6.521   5.033
 4994SOL     OW15880   2.246   6.910   4.429
 4994SOL    HW115881   2.157   6.886   4.390
 4994SOL    HW215882   2.235   6.935   4.525
 4995SOL     OW15883   1.017   2.094   5.593
 4995SOL    HW115884   0.926   2.131   5.573
 4995SOL    HW215885   1.013   1.994   5.593
 4996SOL     OW15886   0.081   1.058   3.278
 4996SOL    HW115887   0.093   0.959   3.281
 4996SOL    HW215888   7.013   1.080   3.256
 4997SOL     OW15889   4.485   2.417   2.307
 4997SOL    HW115890   4.539   2.335   2.289
 4997SOL    HW215891   4.544   2.489   2.343
 4998SOL     OW15892   2.019   3.816   4.452
 4998SOL    HW115893   2.045   3.740   4.511
 4998SOL    HW215894   1.926   3.802   4.419
 4999SOL     OW15895   6.677   3.253   4.785
 4999SOL    HW115896   6.734   3.301   4.719
 4999SOL    HW215897   6.634   3.173   4.741
 5000SOL     OW15898   3.071   0.223   3.444
 5000SOL    HW115899   3.131   0.157   3.489
 5000SOL    HW215900   3.011   0.176   3.380
 5001SOL     OW15901   0.824   5.249   2.026
 5001SOL    HW115902   0.821   5.317   1.954
 5001SOL    HW215903   0.919   5.231   2.051
 5002SOL     OW15904   0.698   3.733   1.957
 5002SOL    HW115905   0.599   3.741   1.968
 5002SOL    HW215906   0.737   3.681   2.033
 5003SOL     OW15907   3.147   5.970   3.303
 5003SOL    HW115908   3.076   6.009   3.245
 5003SOL    HW215909   3.145   5.871   3.296
 5004SOL     OW15910   2.534   4.825   5.592
 5004SOL    HW115911   2.525   4.890   5.516
 5004SOL    HW215912   2.580   4.742   5.560
 5005SOL     OW15913   3.594   3.133   7.002
 5005SOL    HW115914   3.576   3.180   0.062
 5005SOL    HW215915   3.508   3.119   6.953
 5006SOL     OW15916   5.544   0.894   1.868
 5006SOL    HW115917   5.596   0.978   1.856
 5006SOL    HW215918   5.570   0.851   1.955
 5007SOL     OW15919   0.130   6.770   1.583
 5007SOL    HW115920   0.065   6.799   1.513
 5007SOL    HW215921   0.212   6.732   1.540
 5008SOL     OW15922   5.602   5.949   2.086
 5008SOL    HW115923   5.574   5.877   2.022
 5008SOL    HW215924   5.678   5.915   2.142
 5009SOL     OW15925   0.084   2.084   0.340
 5009SOL    HW115926   0.089   2.129   0.250
 5009SOL    HW215927   0.169   2.034   0.356
 5010SOL     OW15928   4.187   2.890   1.097
 5010SOL    HW115929   4.280   2.859   1.076
 5010SOL    HW215930   4.178   2.902   1.195
 5011SOL     OW15931   1.256   4.804   1.819
 5011SOL    HW115932   1.190   4.729   1.823
 5011SOL    HW215933   1.250   4.849   1.730
 5012SOL     OW15934   5.715   3.106   5.139
 5012SOL    HW115935   5.688   3.164   5.216
 5012SOL    HW215936   5.764   3.025   5.174
 5013SOL     OW15937   5.223   1.629   6.468
 5013SOL    HW115938   5.321   1.645   6.454
 5013SOL    HW215939   5.194   1.677   6.551
 5014SOL     OW15940   5.732   4.219   1.301
 5014SOL    HW115941   5.826   4.238   1.273
 5014SOL    HW215942   5.732   4.154   1.377
 5015SOL     OW15943   5.235   1.642   4.934
 5015SOL    HW115944   5.331   1.617   4.937
 5015SOL    HW215945   5.225   1.741   4.926
 5016SOL     OW15946   2.025   2.961   5.322
 5016SOL    HW115947   1.968   2.893   5.367
 5016SOL    HW215948   2.061   3.025   5.390
 5017SOL     OW15949   2.490   2.479   1.157
 5017SOL    HW115950   2.463   2.388   1.125
 5017SOL    HW215951   2.437   2.502   1.239
 5018SOL     OW15952   1.129   4.804   2.429
 5018SOL    HW115953   1.221   4.767   2.442
 5018SOL    HW215954   1.101   4.854   2.511
 5019SOL     OW15955   1.526   5.842   5.844
 5019SOL    HW115956   1.486   5.933   5.831
 5019SOL    HW215957   1.465   5.785   5.899
 5020SOL     OW15958   5.484   6.969   6.104
 5020SOL    HW115959   5.464   6.967   6.202
 5020SOL    HW215960   5.564   7.027   6.088
 5021SOL     OW15961   1.015   1.383   0.278
 5021SOL    HW115962   1.029   1.463   0.337
 5021SOL    HW215963   0.944   1.325   0.317
 5022SOL     OW15964   2.645   2.463   0.804
 5022SOL    HW115965   2.643   2.558   0.835
 5022SOL    HW215966   2.556   2.421   0.821
 5023SOL     OW15967   0.291   3.300   1.749
 5023SOL    HW115968   0.235   3.320   1.829
 5023SOL    HW215969   0.234   3.261   1.677
 5024SOL     OW15970   6.006   5.538   1.567
 5024SOL    HW115971   6.059   5.473   1.512
 5024SOL    HW215972   6.068   5.587   1.629
 5025SOL     OW15973   4.347   1.751   3.496
 5025SOL    HW115974   4.410   1.673   3.488
 5025SOL    HW215975   4.285   1.736   3.573
 5026SOL     OW15976   6.702   6.153   5.375
 5026SOL    HW115977   6.635   6.174   5.447
 5026SOL    HW215978   6.788   6.200   5.395
 5027SOL     OW15979   6.545   6.487   1.532
 5027SOL    HW115980   6.462   6.450   1.574
 5027SOL    HW215981   6.612   6.414   1.520
 5028SOL     OW15982   0.486   2.031   2.734
 5028SOL    HW115983   0.429   2.054   2.656
 5028SOL    HW215984   0.571   1.989   2.702
 5029SOL     OW15985   6.385   2.505   2.307
 5029SOL    HW115986   6.458   2.447   2.342
 5029SOL    HW215987   6.320   2.449   2.256
 5030SOL     OW15988   0.659   6.193   6.443
 5030SOL    HW115989   0.593   6.255   6.485
 5030SOL    HW215990   0.615   6.105   6.424
 5031SOL     OW15991   6.610   0.760   6.254
 5031SOL    HW115992   6.688   0.714   6.213
 5031SOL    HW215993   6.594   0.723   6.346
 5032SOL     OW15994   2.432   2.660   5.842
 5032SOL    HW115995   2.388   2.577   5.810
 5032SOL    HW215996   2.530   2.644   5.855
 5033SOL     OW15997   2.141   6.762   5.970
 5033SOL    HW115998   2.192   6.774   6.055
 5033SOL    HW215999   2.055   6.813   5.975
 5034SOL     OW16000   5.940   6.858   3.417
 5034SOL    HW116001   5.893   6.860   3.329
 5034SOL    HW216002   6.022   6.801   3.410
 5035SOL     OW16003   0.487   4.258   6.214
 5035SOL    HW116004   0.420   4.199   6.168
 5035SOL    HW216005   0.494   4.233   6.310
 5036SOL     OW16006   0.117   5.046   6.643
 5036SOL    HW116007   0.046   5.084   6.702
 5036SOL    HW216008   0.188   5.115   6.627
 5037SOL     OW16009   4.942   4.202   1.600
 5037SOL    HW116010   4.875   4.240   1.537
 5037SOL    HW216011   5.007   4.144   1.549
 5038SOL     OW16012   3.195   3.652   5.730
 5038SOL    HW116013   3.116   3.699   5.693
 5038SOL    HW216014   3.241   3.710   5.797
 5039SOL     OW16015   2.290   4.542   5.931
 5039SOL    HW116016   2.264   4.447   5.947
 5039SOL    HW216017   2.209   4.600   5.934
 5040SOL     OW16018   1.349   6.984   6.094
 5040SOL    HW116019   1.437   6.987   6.141
 5040SOL    HW216020   1.341   6.897   6.045
 5041SOL     OW16021   1.376   1.815   2.460
 5041SOL    HW116022   1.468   1.796   2.493
 5041SOL    HW216023   1.344   1.739   2.404
 5042SOL     OW16024   6.340   3.599   7.026
 5042SOL    HW116025   6.242   3.620   7.023
 5042SOL    HW216026   6.354   3.509   0.041
 5043SOL     OW16027   3.358   6.946   6.432
 5043SOL    HW116028   3.451   6.911   6.420
 5043SOL    HW216029   3.336   6.951   6.529
 5044SOL     OW16030   0.737   6.488   0.353
 5044SOL    HW116031   0.767   6.575   0.393
 5044SOL    HW216032   0.809   6.452   0.294
 5045SOL     OW16033   5.743   7.026   6.016
 5045SOL    HW116034   5.725   0.091   5.981
 5045SOL    HW216035   5.835   6.998   5.992
 5046SOL     OW16036   3.292   4.057   2.955
 5046SOL    HW116037   3.280   4.115   3.036
 5046SOL    HW216038   3.203   4.035   2.916
 5047SOL     OW16039   0.921   4.322   2.598
 5047SOL    HW116040   0.913   4.238   2.544
 5047SOL    HW216041   0.901   4.401   2.539
 5048SOL     OW16042   1.138   1.640   2.766
 5048SOL    HW116043   1.164   1.546   2.746
 5048SOL    HW216044   1.220   1.694   2.784
 5049SOL     OW16045   5.059   2.039   6.718
 5049SOL    HW116046   4.977   2.065   6.667
 5049SOL    HW216047   5.139   2.044   6.658
 5050SOL     OW16048   1.902   0.435   1.387
 5050SOL    HW116049   1.923   0.357   1.328
 5050SOL    HW216050   1.913   0.520   1.335
 5051SOL     OW16051   4.127   4.506   0.904
 5051SOL    HW116052   4.210   4.480   0.953
 5051SOL    HW216053   4.132   4.474   0.810
 5052SOL     OW16054   2.430   0.669   6.055
 5052SOL    HW116055   2.433   0.728   6.136
 5052SOL    HW216056   2.487   0.708   5.983
 5053SOL     OW16057   2.160   3.746   4.045
 5053SOL    HW116058   2.217   3.689   4.103
 5053SOL    HW216059   2.129   3.692   3.966
 5054SOL     OW16060   3.366   4.953   4.342
 5054SOL    HW116061   3.312   4.875   4.311
 5054SOL    HW216062   3.346   4.972   4.438
 5055SOL     OW16063   1.525   2.357   5.318
 5055SOL    HW116064   1.440   2.375   5.368
 5055SOL    HW216065   1.504   2.321   5.228
 5056SOL     OW16066   5.257   4.161   6.750
 5056SOL    HW116067   5.232   4.240   6.694
 5056SOL    HW216068   5.209   4.080   6.716
 5057SOL     OW16069   6.750   6.242   3.709
 5057SOL    HW116070   6.849   6.226   3.711
 5057SOL    HW216071   6.704   6.165   3.666
 5058SOL     OW16072   3.111   4.206   5.694
 5058SOL    HW116073   3.189   4.184   5.635
 5058SOL    HW216074   3.047   4.265   5.644
 5059SOL     OW16075   6.968   1.442   3.091
 5059SOL    HW116076   6.911   1.414   3.014
 5059SOL    HW216077   7.023   1.364   3.122
 5060SOL     OW16078   0.766   2.011   5.882
 5060SOL    HW116079   0.794   2.107   5.881
 5060SOL    HW216080   0.692   1.998   5.816
 5061SOL     OW16081   4.555   2.747   1.272
 5061SOL    HW116082   4.608   2.713   1.349
 5061SOL    HW216083   4.458   2.722   1.285
 5062SOL     OW16084   5.971   0.302   3.188
 5062SOL    HW116085   5.925   0.242   3.122
 5062SOL    HW216086   5.939   0.396   3.175
 5063SOL     OW16087   0.988   7.004   2.263
 5063SOL    HW116088   1.058   0.034   2.220
 5063SOL    HW216089   1.019   6.972   2.352
 5064SOL     OW16090   5.264   3.708   1.209
 5064SOL    HW116091   5.319   3.653   1.272
 5064SOL    HW216092   5.167   3.687   1.223
 5065SOL     OW16093   2.337   0.834   4.182
 5065SOL    HW116094   2.319   0.736   4.189
 5065SOL    HW216095   2.349   0.872   4.274
 5066SOL     OW16096   5.051   4.811   2.820
 5066SOL    HW116097   5.086   4.816   2.726
 5066SOL    HW216098   4.954   4.786   2.817
 5067SOL     OW16099   4.395   0.925   1.717
 5067SOL    HW116100   4.489   0.943   1.690
 5067SOL    HW216101   4.393   0.855   1.787
 5068SOL     OW16102   2.655   3.981   0.806
 5068SOL    HW116103   2.687   3.945   0.894
 5068SOL    HW216104   2.733   4.006   0.750
 5069SOL     OW16105   1.924   3.630   5.848
 5069SOL    HW116106   1.840   3.678   5.873
 5069SOL    HW216107   1.979   3.689   5.789
 5070SOL     OW16108   5.243   4.113   4.358
 5070SOL    HW116109   5.157   4.154   4.326
 5070SOL    HW216110   5.294   4.079   4.279
 5071SOL     OW16111   4.496   2.530   4.311
 5071SOL    HW116112   4.580   2.583   4.303
 5071SOL    HW216113   4.477   2.510   4.407
 5072SOL     OW16114   1.161   0.073   0.876
 5072SOL    HW116115   1.231   0.017   0.832
 5072SOL    HW216116   1.198   0.111   0.961
 5073SOL     OW16117   0.087   5.975   2.661
 5073SOL    HW116118   0.102   5.966   2.563
 5073SOL    HW216119   0.169   6.013   2.704
 5074SOL     OW16120   2.893   3.057   0.957
 5074SOL    HW116121   2.877   3.093   1.049
 5074SOL    HW216122   2.988   3.074   0.930
 5075SOL     OW16123   1.355   1.931   6.884
 5075SOL    HW116124   1.348   1.893   6.792
 5075SOL    HW216125   1.264   1.941   6.923
 5076SOL     OW16126   3.531   1.117   0.662
 5076SOL    HW116127   3.551   1.179   0.587
 5076SOL    HW216128   3.447   1.066   0.641
 5077SOL     OW16129   0.936   3.986   5.627
 5077SOL    HW116130   0.922   4.078   5.591
 5077SOL    HW216131   1.010   3.942   5.576
 5078SOL     OW16132   1.872   1.879   3.899
 5078SOL    HW116133   1.910   1.896   3.990
 5078SOL    HW216134   1.893   1.785   3.872
 5079SOL     OW16135   2.200   3.669   5.717
 5079SOL    HW116136   2.232   3.575   5.729
 5079SOL    HW216137   2.266   3.722   5.664
 5080SOL     OW16138   6.377   6.394   6.197
 5080SOL    HW116139   6.397   6.305   6.239
 5080SOL    HW216140   6.456   6.454   6.207
 5081SOL     OW16141   3.364   2.980   4.077
 5081SOL    HW116142   3.403   3.002   3.987
 5081SOL    HW216143   3.438   2.969   4.144
 5082SOL     OW16144   5.108   6.164   6.276
 5082SOL    HW116145   5.089   6.127   6.186
 5082SOL    HW216146   5.031   6.219   6.307
 5083SOL     OW16147   2.895   0.085   2.933
 5083SOL    HW116148   2.879   0.030   3.015
 5083SOL    HW216149   2.953   0.164   2.957
 5084SOL     OW16150   0.698   4.550   4.247
 5084SOL    HW116151   0.681   4.610   4.169
 5084SOL    HW216152   0.643   4.579   4.325
 5085SOL     OW16153   4.571   3.630   6.356
 5085SOL    HW116154   4.508   3.685   6.300
 5085SOL    HW216155   4.582   3.673   6.445
 5086SOL     OW16156   0.255   5.614   3.287
 5086SOL    HW116157   0.183   5.674   3.252
 5086SOL    HW216158   0.342   5.636   3.241
 5087SOL     OW16159   0.138   4.700   3.115
 5087SOL    HW116160   0.072   4.743   3.177
 5087SOL    HW216161   0.098   4.690   3.024
 5088SOL     OW16162   6.422   1.788   4.820
 5088SOL    HW116163   6.345   1.727   4.800
 5088SOL    HW216164   6.491   1.738   4.872
 5089SOL     OW16165   5.307   3.479   3.835
 5089SOL    HW116166   5.233   3.525   3.884
 5089SOL    HW216167   5.364   3.430   3.900
 5090SOL     OW16168   2.087   3.854   2.722
 5090SOL    HW116169   2.001   3.823   2.682
 5090SOL    HW216170   2.138   3.776   2.758
 5091SOL     OW16171   1.704   6.520   2.365
 5091SOL    HW116172   1.760   6.470   2.431
 5091SOL    HW216173   1.664   6.456   2.300
 5092SOL     OW16174   3.615   2.916   1.496
 5092SOL    HW116175   3.645   2.821   1.481
 5092SOL    HW216176   3.688   2.967   1.542
 5093SOL     OW16177   2.953   1.523   1.095
 5093SOL    HW116178   2.930   1.426   1.106
 5093SOL    HW216179   3.052   1.535   1.102
 5094SOL     OW16180   1.673   6.310   5.385
 5094SOL    HW116181   1.609   6.320   5.462
 5094SOL    HW216182   1.694   6.399   5.347
 5095SOL     OW16183   0.270   2.606   4.747
 5095SOL    HW116184   0.255   2.704   4.738
 5095SOL    HW216185   0.194   2.556   4.705
 5096SOL     OW16186   4.006   3.547   0.884
 5096SOL    HW116187   3.966   3.462   0.918
 5096SOL    HW216188   4.103   3.549   0.907
 5097SOL     OW16189   1.378   0.850   6.824
 5097SOL    HW116190   1.343   0.798   6.901
 5097SOL    HW216191   1.413   0.788   6.754
 5098SOL     OW16192   1.533   0.455   1.200
 5098SOL    HW116193   1.570   0.382   1.142
 5098SOL    HW216194   1.559   0.544   1.164
 5099SOL     OW16195   0.943   6.324   6.760
 5099SOL    HW116196   0.865   6.385   6.767
 5099SOL    HW216197   1.023   6.367   6.802
 5100SOL     OW16198   4.142   6.275   5.148
 5100SOL    HW116199   4.196   6.257   5.066
 5100SOL    HW216200   4.181   6.353   5.197
 5101SOL     OW16201   3.869   6.678   0.269
 5101SOL    HW116202   3.884   6.592   0.317
 5101SOL    HW216203   3.945   6.740   0.287
 5102SOL     OW16204   6.327   0.479   4.820
 5102SOL    HW116205   6.287   0.499   4.909
 5102SOL    HW216206   6.257   0.490   4.749
 5103SOL     OW16207   0.475   0.722   4.242
 5103SOL    HW116208   0.532   0.757   4.168
 5103SOL    HW216209   0.442   0.798   4.298
 5104SOL     OW16210   2.027   6.760   2.532
 5104SOL    HW116211   1.943   6.770   2.477
 5104SOL    HW216212   2.106   6.777   2.473
 5105SOL     OW16213   3.600   2.835   0.103
 5105SOL    HW116214   3.692   2.796   0.100
 5105SOL    HW216215   3.598   2.921   0.052
 5106SOL     OW16216   3.469   0.864   1.155
 5106SOL    HW116217   3.492   0.938   1.218
 5106SOL    HW216218   3.448   0.902   1.065
 5107SOL     OW16219   4.271   0.717   1.199
 5107SOL    HW116220   4.201   0.784   1.223
 5107SOL    HW216221   4.298   0.730   1.103
 5108SOL     OW16222   2.986   3.791   4.113
 5108SOL    HW116223   3.014   3.876   4.156
 5108SOL    HW216224   2.967   3.722   4.183
 5109SOL     OW16225   1.253   0.548   0.882
 5109SOL    HW116226   1.312   0.586   0.811
 5109SOL    HW216227   1.295   0.465   0.919
 5110SOL     OW16228   0.751   0.166   6.442
 5110SOL    HW116229   0.738   0.205   6.350
 5110SOL    HW216230   0.766   0.240   6.507
 5111SOL     OW16231   2.010   1.016   5.602
 5111SOL    HW116232   1.996   0.980   5.694
 5111SOL    HW216233   2.078   1.090   5.605
 5112SOL     OW16234   1.079   6.884   2.480
 5112SOL    HW116235   1.097   6.791   2.448
 5112SOL    HW216236   1.164   6.923   2.516
 5113SOL     OW16237   2.477   0.222   2.154
 5113SOL    HW116238   2.381   0.211   2.129
 5113SOL    HW216239   2.531   0.243   2.073
 5114SOL     OW16240   3.408   2.684   6.983
 5114SOL    HW116241   3.365   2.668   0.044
 5114SOL    HW216242   3.500   2.720   6.997
 5115SOL     OW16243   2.187   5.054   4.740
 5115SOL    HW116244   2.155   4.981   4.678
 5115SOL    HW216245   2.110   5.112   4.765
 5116SOL     OW16246   5.445   6.530   6.457
 5116SOL    HW116247   5.405   6.440   6.435
 5116SOL    HW216248   5.395   6.570   6.533
 5117SOL     OW16249   1.745   4.523   4.630
 5117SOL    HW116250   1.793   4.496   4.546
 5117SOL    HW216251   1.811   4.559   4.696
 5118SOL     OW16252   4.446   0.210   0.501
 5118SOL    HW116253   4.422   0.147   0.428
 5118SOL    HW216254   4.437   0.164   0.589
 5119SOL     OW16255   5.290   1.145   1.963
 5119SOL    HW116256   5.293   1.122   1.866
 5119SOL    HW216257   5.313   1.065   2.017
 5120SOL     OW16258   4.208   1.171   3.872
 5120SOL    HW116259   4.307   1.183   3.862
 5120SOL    HW216260   4.171   1.247   3.925
 5121SOL     OW16261   2.227   2.382   7.013
 5121SOL    HW116262   2.270   2.369   0.075
 5121SOL    HW216263   2.165   2.306   6.995
 5122SOL     OW16264   3.274   0.582   4.006
 5122SOL    HW116265   3.333   0.643   3.954
 5122SOL    HW216266   3.180   0.588   3.971
 5123SOL     OW16267   5.927   2.411   4.837
 5123SOL    HW116268   5.833   2.383   4.856
 5123SOL    HW216269   5.954   2.376   4.748
 5124SOL     OW16270   2.746   5.233   4.950
 5124SOL    HW116271   2.769   5.137   4.963
 5124SOL    HW216272   2.647   5.244   4.947
 5125SOL     OW16273   6.217   3.106   4.311
 5125SOL    HW116274   6.272   3.058   4.243
 5125SOL    HW216275   6.173   3.185   4.269
 5126SOL     OW16276   6.079   5.245   6.343
 5126SOL    HW116277   6.100   5.343   6.347
 5126SOL    HW216278   6.126   5.204   6.265
 5127SOL     OW16279   6.708   4.003   0.193
 5127SOL    HW116280   6.702   4.053   0.107
 5127SOL    HW216281   6.720   4.068   0.268
 5128SOL     OW16282   0.254   6.645   6.779
 5128SOL    HW116283   0.209   6.723   6.735
 5128SOL    HW216284   0.293   6.674   6.866
 5129SOL     OW16285   5.029   0.253   3.122
 5129SOL    HW116286   5.053   0.314   3.198
 5129SOL    HW216287   5.005   0.308   3.042
 5130SOL     OW16288   1.581   6.147   4.127
 5130SOL    HW116289   1.668   6.150   4.078
 5130SOL    HW216290   1.514   6.205   4.079
 5131SOL     OW16291   2.746   4.674   3.531
 5131SOL    HW116292   2.757   4.698   3.434
 5131SOL    HW216293   2.702   4.585   3.539
 5132SOL     OW16294   3.577   1.204   6.177
 5132SOL    HW116295   3.640   1.130   6.153
 5132SOL    HW216296   3.628   1.290   6.186
 5133SOL     OW16297   2.598   5.651   6.717
 5133SOL    HW116298   2.592   5.613   6.809
 5133SOL    HW216299   2.650   5.736   6.720
 5134SOL     OW16300   0.079   0.112   2.730
 5134SOL    HW116301   0.037   0.199   2.706
 5134SOL    HW216302   0.063   0.045   2.657
 5135SOL     OW16303   5.431   3.782   3.949
 5135SOL    HW116304   5.442   3.685   3.927
 5135SOL    HW216305   5.472   3.838   3.876
 5136SOL     OW16306   5.784   0.525   6.103
 5136SOL    HW116307   5.821   0.617   6.092
 5136SOL    HW216308   5.685   0.531   6.114
 5137SOL     OW16309   5.451   3.397   5.042
 5137SOL    HW116310   5.504   3.480   5.056
 5137SOL    HW216311   5.512   3.323   5.014
 5138SOL     OW16312   3.726   4.101   4.636
 5138SOL    HW116313   3.675   4.145   4.563
 5138SOL    HW216314   3.662   4.063   4.704
 5139SOL     OW16315   0.789   6.977   4.674
 5139SOL    HW116316   0.715   6.932   4.623
 5139SOL    HW216317   0.801   6.933   4.762
 5140SOL     OW16318   3.843   2.267   5.663
 5140SOL    HW116319   3.873   2.172   5.674
 5140SOL    HW216320   3.832   2.287   5.566
 5141SOL     OW16321   6.689   3.500   0.775
 5141SOL    HW116322   6.643   3.579   0.817
 5141SOL    HW216323   6.621   3.441   0.731
 5142SOL     OW16324   5.412   6.680   4.968
 5142SOL    HW116325   5.502   6.640   4.957
 5142SOL    HW216326   5.387   6.731   4.885
 5143SOL     OW16327   1.094   4.301   5.128
 5143SOL    HW116328   1.015   4.325   5.070
 5143SOL    HW216329   1.160   4.376   5.127
 5144SOL     OW16330   1.839   4.081   6.019
 5144SOL    HW116331   1.767   4.144   6.048
 5144SOL    HW216332   1.891   4.122   5.944
 5145SOL     OW16333   4.050   6.292   6.305
 5145SOL    HW116334   3.971   6.335   6.261
 5145SOL    HW216335   4.020   6.244   6.387
 5146SOL     OW16336   3.785   4.155   5.303
 5146SOL    HW116337   3.721   4.127   5.232
 5146SOL    HW216338   3.867   4.193   5.260
 5147SOL     OW16339   6.108   4.672   3.398
 5147SOL    HW116340   6.054   4.753   3.372
 5147SOL    HW216341   6.046   4.599   3.427
 5148SOL     OW16342   0.442   1.247   1.917
 5148SOL    HW116343   0.515   1.182   1.897
 5148SOL    HW216344   0.462   1.295   2.002
 5149SOL     OW16345   6.096   5.796   4.790
 5149SOL    HW116346   6.127   5.832   4.702
 5149SOL    HW216347   6.057   5.705   4.778
 5150SOL     OW16348   2.056   4.296   3.918
 5150SOL    HW116349   2.072   4.394   3.930
 5150SOL    HW216350   1.980   4.282   3.855
 5151SOL     OW16351   6.705   3.957   2.173
 5151SOL    HW116352   6.679   3.969   2.077
 5151SOL    HW216353   6.756   4.037   2.204
 5152SOL     OW16354   2.124   5.837   6.530
 5152SOL    HW116355   2.129   5.871   6.624
 5152SOL    HW216356   2.213   5.850   6.485
 5153SOL     OW16357   0.473   2.107   1.009
 5153SOL    HW116358   0.410   2.029   1.012
 5153SOL    HW216359   0.491   2.132   0.915
 5154SOL     OW16360   1.417   2.555   6.053
 5154SOL    HW116361   1.507   2.554   6.009
 5154SOL    HW216362   1.414   2.626   6.122
 5155SOL     OW16363   3.864   0.876   1.497
 5155SOL    HW116364   3.953   0.887   1.540
 5155SOL    HW216365   3.842   0.959   1.445
 5156SOL     OW16366   5.734   4.886   4.996
 5156SOL    HW116367   5.803   4.944   4.955
 5156SOL    HW216368   5.759   4.790   4.984
 5157SOL     OW16369   3.269   2.053   2.341
 5157SOL    HW116370   3.362   2.047   2.304
 5157SOL    HW216371   3.234   1.960   2.357
 5158SOL     OW16372   3.769   2.536   0.915
 5158SOL    HW116373   3.725   2.446   0.917
 5158SOL    HW216374   3.817   2.552   1.001
 5159SOL     OW16375   5.781   3.750   6.262
 5159SOL    HW116376   5.746   3.806   6.338
 5159SOL    HW216377   5.704   3.712   6.211
 5160SOL     OW16378   0.200   5.303   3.119
 5160SOL    HW116379   0.253   5.361   3.057
 5160SOL    HW216380   0.247   5.297   3.207
 5161SOL     OW16381   1.326   3.655   0.256
 5161SOL    HW116382   1.310   3.637   0.159
 5161SOL    HW216383   1.333   3.568   0.305
 5162SOL     OW16384   0.885   5.350   2.703
 5162SOL    HW116385   0.836   5.271   2.739
 5162SOL    HW216386   0.919   5.329   2.611
 5163SOL     OW16387   3.476   6.633   0.819
 5163SOL    HW116388   3.550   6.670   0.763
 5163SOL    HW216389   3.513   6.565   0.882
 5164SOL     OW16390   3.280   3.022   6.532
 5164SOL    HW116391   3.231   3.105   6.504
 5164SOL    HW216392   3.348   3.045   6.601
 5165SOL     OW16393   1.068   4.219   6.462
 5165SOL    HW116394   1.123   4.182   6.387
 5165SOL    HW216395   1.117   4.205   6.548
 5166SOL     OW16396   1.878   5.233   2.573
 5166SOL    HW116397   1.883   5.201   2.667
 5166SOL    HW216398   1.783   5.240   2.545
 5167SOL     OW16399   6.306   4.138   4.828
 5167SOL    HW116400   6.265   4.070   4.889
 5167SOL    HW216401   6.326   4.096   4.740
 5168SOL     OW16402   5.238   2.682   2.742
 5168SOL    HW116403   5.205   2.632   2.822
 5168SOL    HW216404   5.162   2.697   2.679
 5169SOL     OW16405   4.664   1.833   3.563
 5169SOL    HW116406   4.620   1.922   3.573
 5169SOL    HW216407   4.603   1.762   3.597
 5170SOL     OW16408   1.377   3.464   5.146
 5170SOL    HW116409   1.427   3.419   5.072
 5170SOL    HW216410   1.379   3.406   5.228
 5171SOL     OW16411   6.831   4.401   5.886
 5171SOL    HW116412   6.829   4.301   5.890
 5171SOL    HW216413   6.923   4.431   5.862
 5172SOL     OW16414   1.450   4.382   3.245
 5172SOL    HW116415   1.463   4.288   3.212
 5172SOL    HW216416   1.516   4.402   3.317
 5173SOL     OW16417   4.678   5.182   5.269
 5173SOL    HW116418   4.770   5.143   5.276
 5173SOL    HW216419   4.684   5.281   5.276
 5174SOL     OW16420   2.187   4.958   3.699
 5174SOL    HW116421   2.117   4.992   3.762
 5174SOL    HW216422   2.277   4.977   3.736
 5175SOL     OW16423   2.870   3.966   0.159
 5175SOL    HW116424   2.912   3.875   0.163
 5175SOL    HW216425   2.780   3.959   0.117
 5176SOL     OW16426   4.990   4.678   6.333
 5176SOL    HW116427   4.932   4.597   6.326
 5176SOL    HW216428   5.060   4.676   6.262
 5177SOL     OW16429   4.396   6.646   0.833
 5177SOL    HW116430   4.310   6.623   0.878
 5177SOL    HW216431   4.414   6.743   0.844
 5178SOL     OW16432   1.617   4.562   1.963
 5178SOL    HW116433   1.598   4.603   1.873
 5178SOL    HW216434   1.533   4.562   2.018
 5179SOL     OW16435   5.003   4.181   4.217
 5179SOL    HW116436   4.947   4.105   4.184
 5179SOL    HW216437   4.953   4.230   4.288
 5180SOL     OW16438   3.586   1.036   1.363
 5180SOL    HW116439   3.512   1.085   1.316
 5180SOL    HW216440   3.666   1.097   1.371
 5181SOL     OW16441   6.365   0.156   1.623
 5181SOL    HW116442   6.402   0.220   1.556
 5181SOL    HW216443   6.399   0.179   1.714
 5182SOL     OW16444   4.735   4.475   1.940
 5182SOL    HW116445   4.821   4.479   1.889
 5182SOL    HW216446   4.703   4.380   1.945
 5183SOL     OW16447   4.112   1.941   2.345
 5183SOL    HW116448   4.078   2.035   2.345
 5183SOL    HW216449   4.045   1.881   2.389
 5184SOL     OW16450   2.454   1.868   3.269
 5184SOL    HW116451   2.434   1.774   3.242
 5184SOL    HW216452   2.491   1.919   3.191
 5185SOL     OW16453   5.303   0.360   2.531
 5185SOL    HW116454   5.302   0.435   2.464
 5185SOL    HW216455   5.213   0.354   2.575
 5186SOL     OW16456   6.098   2.623   6.433
 5186SOL    HW116457   6.016   2.606   6.379
 5186SOL    HW216458   6.103   2.721   6.456
 5187SOL     OW16459   1.055   5.697   5.518
 5187SOL    HW116460   1.056   5.787   5.561
 5187SOL    HW216461   0.961   5.673   5.494
 5188SOL     OW16462   6.018   6.016   1.910
 5188SOL    HW116463   6.076   5.986   1.834
 5188SOL    HW216464   5.946   5.948   1.926
 5189SOL     OW16465   5.042   5.944   0.526
 5189SOL    HW116466   5.073   5.911   0.437
 5189SOL    HW216467   5.042   6.044   0.527
 5190SOL     OW16468   0.834   3.956   3.610
 5190SOL    HW116469   0.912   3.931   3.669
 5190SOL    HW216470   0.852   3.924   3.517
 5191SOL     OW16471   3.391   5.960   2.289
 5191SOL    HW116472   3.457   5.960   2.365
 5191SOL    HW216473   3.299   5.973   2.325
 5192SOL     OW16474   1.278   5.746   1.232
 5192SOL    HW116475   1.358   5.763   1.175
 5192SOL    HW216476   1.296   5.666   1.291
 5193SOL     OW16477   4.839   5.780   5.730
 5193SOL    HW116478   4.752   5.812   5.691
 5193SOL    HW216479   4.914   5.808   5.671
 5194SOL     OW16480   3.472   2.252   6.817
 5194SOL    HW116481   3.567   2.272   6.842
 5194SOL    HW216482   3.418   2.337   6.823
 5195SOL     OW16483   0.554   0.806   4.565
 5195SOL    HW116484   0.555   0.710   4.594
 5195SOL    HW216485   0.482   0.820   4.498
 5196SOL     OW16486   4.761   6.837   2.412
 5196SOL    HW116487   4.835   6.871   2.354
 5196SOL    HW216488   4.690   6.906   2.420
 5197SOL     OW16489   1.579   3.808   6.544
 5197SOL    HW116490   1.633   3.847   6.618
 5197SOL    HW216491   1.631   3.736   6.499
 5198SOL     OW16492   4.522   5.335   3.133
 5198SOL    HW116493   4.445   5.380   3.177
 5198SOL    HW216494   4.605   5.349   3.188
 5199SOL     OW16495   0.848   5.347   0.748
 5199SOL    HW116496   0.776   5.413   0.725
 5199SOL    HW216497   0.853   5.277   0.677
 5200SOL     OW16498   7.019   3.556   5.051
 5200SOL    HW116499   6.949   3.582   4.985
 5200SOL    HW216500   0.081   3.588   5.019
 5201SOL     OW16501   1.277   7.025   2.929
 5201SOL    HW116502   1.276   7.018   3.029
 5201SOL    HW216503   1.256   0.093   2.903
 5202SOL     OW16504   5.182   3.106   6.632
 5202SOL    HW116505   5.182   3.169   6.710
 5202SOL    HW216506   5.088   3.087   6.604
 5203SOL     OW16507   2.136   1.905   6.832
 5203SOL    HW116508   2.164   1.811   6.850
 5203SOL    HW216509   2.037   1.913   6.842
 5204SOL     OW16510   3.818   5.013   0.450
 5204SOL    HW116511   3.741   4.984   0.393
 5204SOL    HW216512   3.896   4.953   0.435
 5205SOL     OW16513   1.776   6.493   1.145
 5205SOL    HW116514   1.857   6.547   1.122
 5205SOL    HW216515   1.801   6.397   1.154
 5206SOL     OW16516   0.604   4.276   5.409
 5206SOL    HW116517   0.529   4.231   5.457
 5206SOL    HW216518   0.657   4.207   5.359
 5207SOL     OW16519   1.037   5.904   3.967
 5207SOL    HW116520   0.961   5.966   3.985
 5207SOL    HW216521   1.003   5.820   3.925
 5208SOL     OW16522   3.901   2.177   6.719
 5208SOL    HW116523   3.887   2.238   6.641
 5208SOL    HW216524   3.839   2.202   6.793
 5209SOL     OW16525   5.454   5.942   3.793
 5209SOL    HW116526   5.485   6.014   3.731
 5209SOL    HW216527   5.475   5.853   3.753
 5210SOL     OW16528   5.946   2.390   5.387
 5210SOL    HW116529   5.996   2.408   5.303
 5210SOL    HW216530   5.848   2.399   5.370
 5211SOL     OW16531   3.816   3.027   4.905
 5211SOL    HW116532   3.882   3.099   4.887
 5211SOL    HW216533   3.836   2.986   4.995
 5212SOL     OW16534   6.225   1.216   0.525
 5212SOL    HW116535   6.167   1.148   0.569
 5212SOL    HW216536   6.187   1.239   0.435
 5213SOL     OW16537   5.163   4.299   6.381
 5213SOL    HW116538   5.164   4.344   6.292
 5213SOL    HW216539   5.235   4.230   6.384
 5214SOL     OW16540   5.024   1.508   6.304
 5214SOL    HW116541   5.104   1.563   6.325
 5214SOL    HW216542   5.048   1.411   6.308
 5215SOL     OW16543   6.000   5.132   3.595
 5215SOL    HW116544   6.056   5.088   3.525
 5215SOL    HW216545   5.927   5.070   3.623
 5216SOL     OW16546   4.298   5.227   1.495
 5216SOL    HW116547   4.259   5.227   1.587
 5216SOL    HW216548   4.243   5.168   1.436
 5217SOL     OW16549   3.343   5.376   4.068
 5217SOL    HW116550   3.309   5.286   4.096
 5217SOL    HW216551   3.273   5.424   4.016
 5218SOL     OW16552   1.306   0.893   3.385
 5218SOL    HW116553   1.236   0.938   3.441
 5218SOL    HW216554   1.262   0.834   3.317
 5219SOL     OW16555   3.575   0.303   5.802
 5219SOL    HW116556   3.652   0.253   5.764
 5219SOL    HW216557   3.605   0.356   5.881
 5220SOL     OW16558   1.739   5.767   2.572
 5220SOL    HW116559   1.750   5.667   2.580
 5220SOL    HW216560   1.765   5.810   2.658
 5221SOL     OW16561   5.568   2.268   3.742
 5221SOL    HW116562   5.570   2.261   3.642
 5221SOL    HW216563   5.476   2.245   3.775
 5222SOL     OW16564   2.551   0.028   3.196
 5222SOL    HW116565   2.484   6.985   3.219
 5222SOL    HW216566   2.505   0.117   3.190
 5223SOL     OW16567   5.426   0.494   1.258
 5223SOL    HW116568   5.370   0.445   1.326
 5223SOL    HW216569   5.460   0.430   1.190
 5224SOL     OW16570   0.479   2.103   4.053
 5224SOL    HW116571   0.518   2.111   3.961
 5224SOL    HW216572   0.395   2.157   4.060
 5225SOL     OW16573   6.771   0.244   3.182
 5225SOL    HW116574   6.744   0.330   3.225
 5225SOL    HW216575   6.778   0.172   3.251
 5226SOL     OW16576   0.621   5.632   5.093
 5226SOL    HW116577   0.566   5.600   5.170
 5226SOL    HW216578   0.561   5.657   5.017
 5227SOL     OW16579   1.194   5.228   3.845
 5227SOL    HW116580   1.172   5.196   3.753
 5227SOL    HW216581   1.285   5.269   3.846
 5228SOL     OW16582   6.509   2.190   0.989
 5228SOL    HW116583   6.539   2.119   0.926
 5228SOL    HW216584   6.535   2.280   0.953
 5229SOL     OW16585   1.378   3.952   0.268
 5229SOL    HW116586   1.406   3.957   0.364
 5229SOL    HW216587   1.331   3.866   0.251
 5230SOL     OW16588   0.366   6.753   1.173
 5230SOL    HW116589   0.428   6.790   1.242
 5230SOL    HW216590   0.276   6.794   1.183
 5231SOL     OW16591   4.144   3.584   4.894
 5231SOL    HW116592   4.074   3.552   4.830
 5231SOL    HW216593   4.215   3.633   4.843
 5232SOL     OW16594   3.211   1.728   5.916
 5232SOL    HW116595   3.150   1.731   5.836
 5232SOL    HW216596   3.205   1.815   5.965
 5233SOL     OW16597   5.918   0.482   1.795
 5233SOL    HW116598   5.934   0.463   1.892
 5233SOL    HW216599   6.001   0.518   1.754
 5234SOL     OW16600   2.254   0.149   6.826
 5234SOL    HW116601   2.160   0.181   6.813
 5234SOL    HW216602   2.309   0.174   6.746
 5235SOL     OW16603   2.203   2.909   1.421
 5235SOL    HW116604   2.192   2.980   1.490
 5235SOL    HW216605   2.276   2.847   1.448
 5236SOL     OW16606   5.823   3.641   2.422
 5236SOL    HW116607   5.737   3.677   2.458
 5236SOL    HW216608   5.843   3.685   2.334
 5237SOL     OW16609   2.556   0.749   5.824
 5237SOL    HW116610   2.612   0.666   5.836
 5237SOL    HW216611   2.616   0.826   5.804
 5238SOL     OW16612   1.569   4.890   0.532
 5238SOL    HW116613   1.646   4.907   0.471
 5238SOL    HW216614   1.508   4.970   0.532
 5239SOL     OW16615   4.114   3.752   4.137
 5239SOL    HW116616   4.092   3.797   4.223
 5239SOL    HW216617   4.162   3.666   4.156
 5240SOL     OW16618   2.753   1.723   6.380
 5240SOL    HW116619   2.820   1.781   6.332
 5240SOL    HW216620   2.663   1.765   6.374
 5241SOL     OW16621   1.284   5.482   6.565
 5241SOL    HW116622   1.184   5.479   6.559
 5241SOL    HW216623   1.315   5.576   6.551
 5242SOL     OW16624   0.012   6.822   5.554
 5242SOL    HW116625   7.011   6.866   5.468
 5242SOL    HW216626   0.025   6.724   5.538
 5243SOL     OW16627   1.097   5.774   1.479
 5243SOL    HW116628   1.119   5.840   1.408
 5243SOL    HW216629   1.129   5.808   1.567
 5244SOL     OW16630   3.493   4.294   5.920
 5244SOL    HW116631   3.476   4.288   6.018
 5244SOL    HW216632   3.416   4.339   5.875
 5245SOL     OW16633   4.375   4.453   6.894
 5245SOL    HW116634   4.422   4.368   6.871
 5245SOL    HW216635   4.385   4.470   6.992
 5246SOL     OW16636   5.809   4.482   2.607
 5246SOL    HW116637   5.773   4.505   2.697
 5246SOL    HW216638   5.766   4.399   2.573
 5247SOL     OW16639   1.379   6.299   0.736
 5247SOL    HW116640   1.463   6.319   0.786
 5247SOL    HW216641   1.386   6.208   0.694
 5248SOL     OW16642   6.436   0.123   4.405
 5248SOL    HW116643   6.507   0.089   4.343
 5248SOL    HW216644   6.376   0.048   4.431
 5249SOL     OW16645   0.892   5.099   4.956
 5249SOL    HW116646   0.881   5.063   5.048
 5249SOL    HW216647   0.826   5.055   4.895
 5250SOL     OW16648   0.321   1.008   5.856
 5250SOL    HW116649   0.332   0.911   5.877
 5250SOL    HW216650   0.270   1.053   5.929
 5251SOL     OW16651   0.462   3.212   1.092
 5251SOL    HW116652   0.461   3.267   1.176
 5251SOL    HW216653   0.385   3.148   1.093
 5252SOL     OW16654   1.953   5.726   0.909
 5252SOL    HW116655   2.024   5.657   0.902
 5252SOL    HW216656   1.938   5.749   1.006
 5253SOL     OW16657   6.242   3.797   5.146
 5253SOL    HW116658   6.275   3.861   5.216
 5253SOL    HW216659   6.294   3.811   5.062
 5254SOL     OW16660   5.709   1.353   3.679
 5254SOL    HW116661   5.687   1.256   3.667
 5254SOL    HW216662   5.633   1.409   3.647
 5255SOL     OW16663   4.368   0.409   5.700
 5255SOL    HW116664   4.449   0.349   5.704
 5255SOL    HW216665   4.363   0.451   5.609
 5256SOL     OW16666   4.518   0.675   3.522
 5256SOL    HW116667   4.467   0.730   3.456
 5256SOL    HW216668   4.517   0.721   3.611
 5257SOL     OW16669   4.557   0.014   2.448
 5257SOL    HW116670   4.556   0.109   2.479
 5257SOL    HW216671   4.511   0.008   2.359
 5258SOL     OW16672   5.078   3.353   1.493
 5258SOL    HW116673   5.037   3.286   1.555
 5258SOL    HW216674   5.063   3.324   1.398
 5259SOL     OW16675   4.174   6.014   1.131
 5259SOL    HW116676   4.260   5.963   1.135
 5259SOL    HW216677   4.142   6.031   1.224
 5260SOL     OW16678   5.636   3.668   1.391
 5260SOL    HW116679   5.689   3.729   1.332
 5260SOL    HW216680   5.633   3.706   1.484
 5261SOL     OW16681   1.706   3.059   6.130
 5261SOL    HW116682   1.625   3.003   6.116
 5261SOL    HW216683   1.739   3.046   6.224
 5262SOL     OW16684   2.994   0.438   2.898
 5262SOL    HW116685   3.029   0.456   2.806
 5262SOL    HW216686   2.925   0.506   2.921
 5263SOL     OW16687   1.078   1.248   5.392
 5263SOL    HW116688   1.017   1.313   5.347
 5263SOL    HW216689   1.106   1.285   5.481
 5264SOL     OW16690   6.645   0.401   2.609
 5264SOL    HW116691   6.569   0.448   2.656
 5264SOL    HW216692   6.688   0.337   2.672
 5265SOL     OW16693   4.899   4.370   3.037
 5265SOL    HW116694   4.872   4.448   2.980
 5265SOL    HW216695   4.888   4.285   2.984
 5266SOL     OW16696   2.745   0.731   2.359
 5266SOL    HW116697   2.649   0.742   2.333
 5266SOL    HW216698   2.770   0.799   2.428
 5267SOL     OW16699   4.725   4.565   5.778
 5267SOL    HW116700   4.656   4.607   5.836
 5267SOL    HW216701   4.776   4.636   5.730
 5268SOL     OW16702   5.917   5.954   5.708
 5268SOL    HW116703   5.977   5.875   5.699
 5268SOL    HW216704   5.964   6.035   5.673
 5269SOL     OW16705   2.202   6.527   4.234
 5269SOL    HW116706   2.120   6.532   4.290
 5269SOL    HW216707   2.262   6.604   4.255
 5270SOL     OW16708   5.409   1.385   1.881
 5270SOL    HW116709   5.494   1.362   1.833
 5270SOL    HW216710   5.362   1.302   1.910
 5271SOL     OW16711   4.711   5.097   4.955
 5271SOL    HW116712   4.729   5.152   5.037
 5271SOL    HW216713   4.795   5.048   4.930
 5272SOL     OW16714   2.141   5.953   2.944
 5272SOL    HW116715   2.046   5.984   2.941
 5272SOL    HW216716   2.195   6.018   2.996
 5273SOL     OW16717   0.402   3.434   3.540
 5273SOL    HW116718   0.418   3.529   3.510
 5273SOL    HW216719   0.306   3.423   3.565
 5274SOL     OW16720   5.859   5.571   2.156
 5274SOL    HW116721   5.869   5.540   2.250
 5274SOL    HW216722   5.791   5.644   2.152
 5275SOL     OW16723   4.116   1.165   6.489
 5275SOL    HW116724   4.181   1.090   6.503
 5275SOL    HW216725   4.165   1.252   6.487
 5276SOL     OW16726   0.801   6.873   1.147
 5276SOL    HW116727   0.851   6.911   1.069
 5276SOL    HW216728   0.779   6.777   1.129
 5277SOL     OW16729   1.594   2.802   3.046
 5277SOL    HW116730   1.589   2.895   3.009
 5277SOL    HW216731   1.683   2.763   3.026
 5278SOL     OW16732   4.933   0.041   4.103
 5278SOL    HW116733   4.988   0.015   4.024
 5278SOL    HW216734   4.962   0.131   4.136
 5279SOL     OW16735   1.500   5.553   6.752
 5279SOL    HW116736   1.587   5.513   6.722
 5279SOL    HW216737   1.444   5.483   6.796
 5280SOL     OW16738   2.636   5.736   5.823
 5280SOL    HW116739   2.558   5.784   5.863
 5280SOL    HW216740   2.611   5.642   5.802
 5281SOL     OW16741   0.975   1.557   3.657
 5281SOL    HW116742   1.003   1.633   3.598
 5281SOL    HW216743   0.980   1.472   3.605
 5282SOL     OW16744   1.654   1.411   2.808
 5282SOL    HW116745   1.722   1.390   2.739
 5282SOL    HW216746   1.696   1.464   2.882
 5283SOL     OW16747   2.757   0.487   2.475
 5283SOL    HW116748   2.680   0.453   2.529
 5283SOL    HW216749   2.736   0.579   2.440
 5284SOL     OW16750   4.779   2.938   2.712
 5284SOL    HW116751   4.794   3.006   2.783
 5284SOL    HW216752   4.788   2.981   2.622
 5285SOL     OW16753   1.202   4.207   4.386
 5285SOL    HW116754   1.216   4.247   4.477
 5285SOL    HW216755   1.281   4.151   4.361
 5286SOL     OW16756   6.794   3.970   1.267
 5286SOL    HW116757   6.710   4.023   1.264
 5286SOL    HW216758   6.867   4.025   1.307
 5287SOL     OW16759   1.846   6.053   1.417
 5287SOL    HW116760   1.893   5.964   1.421
 5287SOL    HW216761   1.785   6.062   1.495
 5288SOL     OW16762   3.739   1.156   2.399
 5288SOL    HW116763   3.670   1.138   2.329
 5288SOL    HW216764   3.801   1.228   2.367
 5289SOL     OW16765   1.917   5.188   6.387
 5289SOL    HW116766   1.817   5.194   6.379
 5289SOL    HW216767   1.958   5.270   6.349
 5290SOL     OW16768   1.153   4.392   5.627
 5290SOL    HW116769   1.123   4.422   5.717
 5290SOL    HW216770   1.209   4.463   5.585
 5291SOL     OW16771   2.852   4.808   6.212
 5291SOL    HW116772   2.792   4.831   6.288
 5291SOL    HW216773   2.833   4.870   6.135
 5292SOL     OW16774   5.984   4.797   6.653
 5292SOL    HW116775   6.073   4.796   6.607
 5292SOL    HW216776   5.913   4.767   6.589
 5293SOL     OW16777   1.203   0.217   4.436
 5293SOL    HW116778   1.181   0.135   4.382
 5293SOL    HW216779   1.189   0.198   4.533
 5294SOL     OW16780   5.854   2.925   4.882
 5294SOL    HW116781   5.941   2.973   4.879
 5294SOL    HW216782   5.790   2.976   4.940
 5295SOL     OW16783   3.969   1.218   2.925
 5295SOL    HW116784   3.883   1.170   2.945
 5295SOL    HW216785   3.950   1.299   2.870
 5296SOL     OW16786   3.008   5.323   0.087
 5296SOL    HW116787   2.980   5.401   0.144
 5296SOL    HW216788   3.073   5.354   0.018
 5297SOL     OW16789   1.940   2.670   0.730
 5297SOL    HW116790   2.030   2.628   0.719
 5297SOL    HW216791   1.920   2.680   0.828
 5298SOL     OW16792   1.016   5.868   0.170
 5298SOL    HW116793   1.054   5.782   0.204
 5298SOL    HW216794   0.927   5.851   0.129
 5299SOL     OW16795   2.397   3.157   0.509
 5299SOL    HW116796   2.459   3.183   0.435
 5299SOL    HW216797   2.427   3.202   0.593
 5300SOL     OW16798   0.819   5.931   1.346
 5300SOL    HW116799   0.809   5.895   1.439
 5300SOL    HW216800   0.915   5.951   1.327
 5301SOL     OW16801   3.233   2.286   6.654
 5301SOL    HW116802   3.264   2.374   6.690
 5301SOL    HW216803   3.258   2.278   6.558
 5302SOL     OW16804   6.011   5.745   4.049
 5302SOL    HW116805   6.016   5.702   3.959
 5302SOL    HW216806   5.989   5.676   4.118
 5303SOL     OW16807   6.672   5.757   3.519
 5303SOL    HW116808   6.744   5.800   3.465
 5303SOL    HW216809   6.599   5.725   3.459
 5304SOL     OW16810   5.408   1.244   0.107
 5304SOL    HW116811   5.354   1.326   0.086
 5304SOL    HW216812   5.379   1.207   0.196
 5305SOL     OW16813   0.569   4.984   2.695
 5305SOL    HW116814   0.649   5.024   2.739
 5305SOL    HW216815   0.589   4.889   2.670
 5306SOL     OW16816   1.268   4.509   4.972
 5306SOL    HW116817   1.314   4.593   5.002
 5306SOL    HW216818   1.327   4.461   4.907
 5307SOL     OW16819   4.516   2.071   0.566
 5307SOL    HW116820   4.433   2.062   0.511
 5307SOL    HW216821   4.499   2.136   0.640
 5308SOL     OW16822   0.874   5.637   3.827
 5308SOL    HW116823   0.918   5.548   3.841
 5308SOL    HW216824   0.775   5.626   3.835
 5309SOL     OW16825   4.382   4.524   1.524
 5309SOL    HW116826   4.344   4.610   1.558
 5309SOL    HW216827   4.343   4.448   1.575
 5310SOL     OW16828   6.503   3.598   2.169
 5310SOL    HW116829   6.498   3.651   2.084
 5310SOL    HW216830   6.418   3.547   2.182
 5311SOL     OW16831   6.373   6.009   6.689
 5311SOL    HW116832   6.294   5.967   6.644
 5311SOL    HW216833   6.457   5.963   6.660
 5312SOL     OW16834   6.625   5.405   1.775
 5312SOL    HW116835   6.532   5.375   1.755
 5312SOL    HW216836   6.658   5.465   1.702
 5313SOL     OW16837   1.438   4.077   6.027
 5313SOL    HW116838   1.452   4.135   5.947
 5313SOL    HW216839   1.459   4.129   6.110
 5314SOL     OW16840   3.383   6.262   0.940
 5314SOL    HW116841   3.445   6.292   1.013
 5314SOL    HW216842   3.289   6.258   0.976
 5315SOL     OW16843   4.997   3.625   1.502
 5315SOL    HW116844   4.958   3.619   1.594
 5315SOL    HW216845   5.058   3.548   1.487
 5316SOL     OW16846   0.864   4.182   4.993
 5316SOL    HW116847   0.799   4.115   5.028
 5316SOL    HW216848   0.953   4.138   4.977
 5317SOL     OW16849   6.696   6.662   4.255
 5317SOL    HW116850   6.622   6.729   4.265
 5317SOL    HW216851   6.784   6.707   4.270
 5318SOL     OW16852   0.538   2.908   6.500
 5318SOL    HW116853   0.607   2.836   6.506
 5318SOL    HW216854   0.518   2.943   6.591
 5319SOL     OW16855   3.391   6.725   0.153
 5319SOL    HW116856   3.368   6.628   0.159
 5319SOL    HW216857   3.408   6.749   0.057
 5320SOL     OW16858   5.627   5.406   0.124
 5320SOL    HW116859   5.672   5.329   0.078
 5320SOL    HW216860   5.549   5.437   0.069
 5321SOL     OW16861   1.168   5.112   4.173
 5321SOL    HW116862   1.233   5.096   4.247
 5321SOL    HW216863   1.170   5.035   4.109
 5322SOL     OW16864   5.206   6.380   6.113
 5322SOL    HW116865   5.199   6.302   6.175
 5322SOL    HW216866   5.269   6.448   6.152
 5323SOL     OW16867   3.898   1.762   6.870
 5323SOL    HW116868   3.909   1.681   6.813
 5323SOL    HW216869   3.872   1.840   6.813
 5324SOL     OW16870   4.084   2.552   0.785
 5324SOL    HW116871   4.138   2.534   0.868
 5324SOL    HW216872   4.053   2.465   0.747
 5325SOL     OW16873   4.554   0.999   4.403
 5325SOL    HW116874   4.496   1.032   4.328
 5325SOL    HW216875   4.557   1.068   4.475
 5326SOL     OW16876   0.476   4.999   3.305
 5326SOL    HW116877   0.561   4.979   3.354
 5326SOL    HW216878   0.398   4.973   3.362
 5327SOL     OW16879   5.569   3.165   5.391
 5327SOL    HW116880   5.507   3.113   5.331
 5327SOL    HW216881   5.526   3.251   5.418
 5328SOL     OW16882   4.762   2.726   5.009
 5328SOL    HW116883   4.771   2.824   4.997
 5328SOL    HW216884   4.669   2.705   5.041
 5329SOL     OW16885   7.005   4.659   0.018
 5329SOL    HW116886   6.932   4.594   0.037
 5329SOL    HW216887   6.995   4.739   0.078
 5330SOL     OW16888   3.782   4.383   5.730
 5330SOL    HW116889   3.808   4.479   5.741
 5330SOL    HW216890   3.718   4.357   5.801
 5331SOL     OW16891   5.288   1.194   0.943
 5331SOL    HW116892   5.388   1.204   0.948
 5331SOL    HW216893   5.247   1.280   0.913
 5332SOL     OW16894   0.691   3.789   1.560
 5332SOL    HW116895   0.670   3.840   1.477
 5332SOL    HW216896   0.667   3.844   1.640
 5333SOL     OW16897   0.968   0.748   3.533
 5333SOL    HW116898   1.005   0.840   3.547
 5333SOL    HW216899   0.925   0.743   3.443
 5334SOL     OW16900   4.045   0.400   4.629
 5334SOL    HW116901   4.077   0.491   4.602
 5334SOL    HW216902   4.103   0.330   4.587
 5335SOL     OW16903   5.692   5.956   2.642
 5335SOL    HW116904   5.710   5.930   2.737
 5335SOL    HW216905   5.732   5.888   2.581
 5336SOL     OW16906   2.803   1.686   3.339
 5336SOL    HW116907   2.827   1.779   3.368
 5336SOL    HW216908   2.875   1.623   3.366
 5337SOL     OW16909   5.344   3.817   1.558
 5337SOL    HW116910   5.263   3.858   1.599
 5337SOL    HW216911   5.378   3.877   1.485
 5338SOL     OW16912   5.447   1.759   6.371
 5338SOL    HW116913   5.484   1.836   6.422
 5338SOL    HW216914   5.516   1.688   6.362
 5339SOL     OW16915   6.713   2.524   3.947
 5339SOL    HW116916   6.635   2.505   3.887
 5339SOL    HW216917   6.776   2.446   3.945
 5340SOL     OW16918   5.686   2.849   0.730
 5340SOL    HW116919   5.588   2.830   0.735
 5340SOL    HW216920   5.703   2.941   0.766
 5341SOL     OW16921   3.406   4.258   6.467
 5341SOL    HW116922   3.396   4.351   6.503
 5341SOL    HW216923   3.368   4.193   6.533
 5342SOL     OW16924   3.425   6.950   3.769
 5342SOL    HW116925   3.464   7.006   3.842
 5342SOL    HW216926   3.383   6.869   3.810
 5343SOL     OW16927   3.903   3.453   4.746
 5343SOL    HW116928   3.864   3.414   4.662
 5343SOL    HW216929   3.830   3.491   4.802
 5344SOL     OW16930   2.569   2.005   2.052
 5344SOL    HW116931   2.551   2.020   1.955
 5344SOL    HW216932   2.594   1.909   2.067
 5345SOL     OW16933   3.621   6.732   1.488
 5345SOL    HW116934   3.577   6.772   1.407
 5345SOL    HW216935   3.557   6.733   1.564
 5346SOL     OW16936   3.454   5.672   4.494
 5346SOL    HW116937   3.459   5.574   4.475
 5346SOL    HW216938   3.366   5.708   4.463
 5347SOL     OW16939   0.110   2.510   1.626
 5347SOL    HW116940   0.052   2.591   1.633
 5347SOL    HW216941   0.197   2.526   1.673
 5348SOL     OW16942   6.997   1.874   0.957
 5348SOL    HW116943   6.969   1.811   0.885
 5348SOL    HW216944   6.977   1.968   0.928
 5349SOL     OW16945   2.022   2.347   0.377
 5349SOL    HW116946   1.989   2.432   0.419
 5349SOL    HW216947   1.967   2.326   0.296
 5350SOL     OW16948   1.918   0.021   5.476
 5350SOL    HW116949   2.010   0.010   5.515
 5350SOL    HW216950   1.924   0.070   5.389
 5351SOL     OW16951   0.136   5.133   2.610
 5351SOL    HW116952   0.088   5.164   2.528
 5351SOL    HW216953   0.088   5.056   2.650
 5352SOL     OW16954   2.418   4.834   3.321
 5352SOL    HW116955   2.346   4.866   3.382
 5352SOL    HW216956   2.389   4.844   3.226
 5353SOL     OW16957   4.088   5.150   4.085
 5353SOL    HW116958   4.122   5.223   4.145
 5353SOL    HW216959   4.152   5.074   4.086
 5354SOL     OW16960   2.430   5.261   1.924
 5354SOL    HW116961   2.395   5.225   1.838
 5354SOL    HW216962   2.413   5.194   1.997
 5355SOL     OW16963   0.040   4.265   4.185
 5355SOL    HW116964   0.091   4.220   4.111
 5355SOL    HW216965   7.013   4.339   4.147
 5356SOL     OW16966   5.957   4.748   2.045
 5356SOL    HW116967   6.046   4.731   2.089
 5356SOL    HW216968   5.884   4.717   2.106
 5357SOL     OW16969   3.283   5.924   0.568
 5357SOL    HW116970   3.329   5.896   0.652
 5357SOL    HW216971   3.187   5.942   0.587
 5358SOL     OW16972   4.742   1.230   0.395
 5358SOL    HW116973   4.758   1.314   0.447
 5358SOL    HW216974   4.828   1.181   0.383
 5359SOL     OW16975   1.439   1.401   5.589
 5359SOL    HW116976   1.526   1.364   5.555
 5359SOL    HW216977   1.456   1.457   5.670
 5360SOL     OW16978   3.615   6.672   4.630
 5360SOL    HW116979   3.613   6.702   4.534
 5360SOL    HW216980   3.644   6.577   4.635
 5361SOL     OW16981   2.370   0.874   5.416
 5361SOL    HW116982   2.393   0.971   5.430
 5361SOL    HW216983   2.286   0.866   5.363
 5362SOL     OW16984   6.828   5.895   3.366
 5362SOL    HW116985   6.773   5.967   3.323
 5362SOL    HW216986   6.911   5.880   3.312
 5363SOL     OW16987   0.475   0.507   6.319
 5363SOL    HW116988   0.537   0.446   6.270
 5363SOL    HW216989   0.388   0.460   6.337
 5364SOL     OW16990   0.043   6.427   2.081
 5364SOL    HW116991   0.025   6.338   2.039
 5364SOL    HW216992   7.026   6.498   2.027
 5365SOL     OW16993   4.053   3.153   0.040
 5365SOL    HW116994   3.967   3.205   0.040
 5365SOL    HW216995   4.049   3.083   0.112
 5366SOL     OW16996   5.236   5.856   1.867
 5366SOL    HW116997   5.327   5.864   1.908
 5366SOL    HW216998   5.240   5.887   1.772
 5367SOL     OW16999   0.717   6.601   1.137
 5367SOL    HW117000   0.752   6.593   1.231
 5367SOL    HW217001   0.617   6.604   1.139
 5368SOL     OW17002   5.430   0.130   2.590
 5368SOL    HW117003   5.499   0.135   2.519
 5368SOL    HW217004   5.383   0.219   2.597
 5369SOL     OW17005   2.716   7.001   1.737
 5369SOL    HW117006   2.659   0.009   1.811
 5369SOL    HW217007   2.664   7.006   1.651
 5370SOL     OW17008   4.732   2.750   1.509
 5370SOL    HW117009   4.779   2.662   1.514
 5370SOL    HW217010   4.737   2.797   1.597
 5371SOL     OW17011   0.939   3.668   5.382
 5371SOL    HW117012   0.939   3.755   5.332
 5371SOL    HW217013   0.967   3.684   5.477
 5372SOL     OW17014   2.021   6.261   3.801
 5372SOL    HW117015   2.001   6.259   3.899
 5372SOL    HW217016   2.115   6.292   3.786
 5373SOL     OW17017   3.692   6.755   4.374
 5373SOL    HW117018   3.679   6.853   4.384
 5373SOL    HW217019   3.787   6.732   4.394
 5374SOL     OW17020   1.676   3.944   0.257
 5374SOL    HW117021   1.696   3.863   0.312
 5374SOL    HW217022   1.577   3.956   0.250
 5375SOL     OW17023   0.858   5.779   5.049
 5375SOL    HW117024   0.786   5.721   5.089
 5375SOL    HW217025   0.895   5.735   4.967
 5376SOL     OW17026   1.835   2.654   1.022
 5376SOL    HW117027   1.904   2.710   1.068
 5376SOL    HW217028   1.839   2.560   1.058
 5377SOL     OW17029   0.018   6.773   2.435
 5377SOL    HW117030   0.002   6.762   2.533
 5377SOL    HW217031   6.967   6.737   2.384
 5378SOL     OW17032   6.488   0.253   1.869
 5378SOL    HW117033   6.574   0.300   1.884
 5378SOL    HW217034   6.480   0.176   1.932
 5379SOL     OW17035   1.398   4.741   5.080
 5379SOL    HW117036   1.460   4.804   5.034
 5379SOL    HW217037   1.308   4.784   5.089
 5380SOL     OW17038   2.638   1.321   2.844
 5380SOL    HW117039   2.585   1.295   2.763
 5380SOL    HW217040   2.718   1.374   2.816
 5381SOL     OW17041   6.318   5.030   1.795
 5381SOL    HW117042   6.233   5.082   1.799
 5381SOL    HW217043   6.344   5.003   1.888
 5382SOL     OW17044   2.999   1.202   1.745
 5382SOL    HW117045   2.924   1.174   1.804
 5382SOL    HW217046   3.046   1.280   1.785
 5383SOL     OW17047   2.535   2.300   5.432
 5383SOL    HW117048   2.539   2.396   5.457
 5383SOL    HW217049   2.503   2.291   5.338
 5384SOL     OW17050   6.047   6.656   5.374
 5384SOL    HW117051   6.052   6.598   5.456
 5384SOL    HW217052   6.117   6.627   5.309
 5385SOL     OW17053   3.343   3.270   4.271
 5385SOL    HW117054   3.269   3.204   4.260
 5385SOL    HW217055   3.305   3.362   4.282
 5386SOL     OW17056   4.930   1.556   4.596
 5386SOL    HW117057   4.942   1.474   4.539
 5386SOL    HW217058   4.942   1.533   4.692
 5387SOL     OW17059   2.349   0.233   3.249
 5387SOL    HW117060   2.407   0.257   3.326
 5387SOL    HW217061   2.293   0.154   3.272
 5388SOL     OW17062   6.981   1.656   4.074
 5388SOL    HW117063   6.958   1.631   3.980
 5388SOL    HW217064   0.052   1.667   4.083
 5389SOL     OW17065   4.628   1.508   3.198
 5389SOL    HW117066   4.681   1.423   3.189
 5389SOL    HW217067   4.651   1.569   3.123
 5390SOL     OW17068   4.809   3.946   3.391
 5390SOL    HW117069   4.791   3.871   3.327
 5390SOL    HW217070   4.818   3.909   3.483
 5391SOL     OW17071   2.240   1.840   0.755
 5391SOL    HW117072   2.234   1.809   0.850
 5391SOL    HW217073   2.206   1.934   0.749
 5392SOL     OW17074   5.274   3.319   0.871
 5392SOL    HW117075   5.334   3.264   0.812
 5392SOL    HW217076   5.193   3.266   0.895
 5393SOL     OW17077   4.404   6.767   5.686
 5393SOL    HW117078   4.423   6.768   5.785
 5393SOL    HW217079   4.479   6.719   5.639
 5394SOL     OW17080   6.914   4.888   0.149
 5394SOL    HW117081   6.939   4.938   0.067
 5394SOL    HW217082   6.926   4.946   0.229
 5395SOL     OW17083   4.992   0.916   1.466
 5395SOL    HW117084   4.955   0.851   1.532
 5395SOL    HW217085   5.087   0.893   1.446
 5396SOL     OW17086   4.638   4.490   1.442
 5396SOL    HW117087   4.548   4.524   1.471
 5396SOL    HW217088   4.638   4.390   1.443
 5397SOL     OW17089   0.343   2.644   1.143
 5397SOL    HW117090   0.264   2.704   1.127
 5397SOL    HW217091   0.371   2.650   1.239
 5398SOL     OW17092   3.392   1.810   3.633
 5398SOL    HW117093   3.393   1.908   3.653
 5398SOL    HW217094   3.300   1.774   3.651
 5399SOL     OW17095   2.703   5.273   0.881
 5399SOL    HW117096   2.773   5.284   0.951
 5399SOL    HW217097   2.687   5.360   0.835
 5400SOL     OW17098   2.989   4.021   6.791
 5400SOL    HW117099   3.064   3.994   6.851
 5400SOL    HW217100   2.953   4.110   6.819
 5401SOL     OW17101   5.928   4.010   1.251
 5401SOL    HW117102   5.992   4.069   1.203
 5401SOL    HW217103   5.978   3.947   1.311
 5402SOL     OW17104   2.710   5.254   1.907
 5402SOL    HW117105   2.721   5.165   1.951
 5402SOL    HW217106   2.614   5.268   1.885
 5403SOL     OW17107   5.219   2.694   5.892
 5403SOL    HW117108   5.316   2.699   5.868
 5403SOL    HW217109   5.194   2.774   5.947
 5404SOL     OW17110   0.957   0.489   2.212
 5404SOL    HW117111   1.045   0.496   2.259
 5404SOL    HW217112   0.970   0.449   2.122
 5405SOL     OW17113   5.894   6.260   7.013
 5405SOL    HW117114   5.987   6.227   6.993
 5405SOL    HW217115   5.847   6.278   6.927
 5406SOL     OW17116   2.390   0.079   6.367
 5406SOL    HW117117   2.346   0.056   6.279
 5406SOL    HW217118   2.346   0.159   6.406
 5407SOL     OW17119   4.156   2.129   1.480
 5407SOL    HW117120   4.209   2.190   1.421
 5407SOL    HW217121   4.099   2.183   1.541
 5408SOL     OW17122   3.535   1.081   5.896
 5408SOL    HW117123   3.482   0.997   5.880
 5408SOL    HW217124   3.484   1.140   5.959
 5409SOL     OW17125   6.407   2.213   3.869
 5409SOL    HW117126   6.446   2.121   3.880
 5409SOL    HW217127   6.307   2.206   3.864
 5410SOL     OW17128   1.278   3.076   6.934
 5410SOL    HW117129   1.228   3.145   6.987
 5410SOL    HW217130   1.364   3.055   6.981
 5411SOL     OW17131   6.312   4.798   5.264
 5411SOL    HW117132   6.286   4.855   5.343
 5411SOL    HW217133   6.411   4.801   5.252
 5412SOL     OW17134   4.193   0.415   0.278
 5412SOL    HW117135   4.169   0.324   0.243
 5412SOL    HW217136   4.255   0.461   0.215
 5413SOL     OW17137   0.437   0.267   1.186
 5413SOL    HW117138   0.344   0.255   1.221
 5413SOL    HW217139   0.487   0.180   1.194
 5414SOL     OW17140   6.979   3.045   5.081
 5414SOL    HW117141   7.004   3.134   5.119
 5414SOL    HW217142   6.899   3.009   5.129
 5415SOL     OW17143   1.237   6.526   1.314
 5415SOL    HW117144   1.290   6.465   1.256
 5415SOL    HW217145   1.244   6.495   1.409
 5416SOL     OW17146   3.758   4.875   6.379
 5416SOL    HW117147   3.685   4.827   6.330
 5416SOL    HW217148   3.769   4.833   6.470
 5417SOL     OW17149   4.520   6.678   4.705
 5417SOL    HW117150   4.584   6.704   4.633
 5417SOL    HW217151   4.427   6.694   4.675
 5418SOL     OW17152   5.255   0.537   4.563
 5418SOL    HW117153   5.345   0.521   4.604
 5418SOL    HW217154   5.198   0.456   4.574
 5419SOL     OW17155   3.249   5.411   0.620
 5419SOL    HW117156   3.261   5.324   0.573
 5419SOL    HW217157   3.164   5.410   0.672
 5420SOL     OW17158   1.857   2.784   2.213
 5420SOL    HW117159   1.893   2.716   2.276
 5420SOL    HW217160   1.767   2.755   2.179
 5421SOL     OW17161   2.339   4.178   3.156
 5421SOL    HW117162   2.362   4.241   3.082
 5421SOL    HW217163   2.304   4.092   3.118
 5422SOL     OW17164   1.078   5.726   5.889
 5422SOL    HW117165   1.137   5.777   5.827
 5422SOL    HW217166   0.988   5.715   5.848
 5423SOL     OW17167   5.587   3.462   7.021
 5423SOL    HW117168   5.536   3.434   6.940
 5423SOL    HW217169   5.561   3.404   0.071
 5424SOL     OW17170   6.196   3.675   4.357
 5424SOL    HW117171   6.290   3.704   4.336
 5424SOL    HW217172   6.185   3.579   4.333
 5425SOL     OW17173   5.462   1.492   3.547
 5425SOL    HW117174   5.445   1.582   3.589
 5425SOL    HW217175   5.388   1.430   3.571
 5426SOL     OW17176   6.951   5.307   3.815
 5426SOL    HW117177   0.005   5.274   3.864
 5426SOL    HW217178   6.929   5.244   3.740
 5427SOL     OW17179   5.288   4.826   1.247
 5427SOL    HW117180   5.201   4.834   1.200
 5427SOL    HW217181   5.290   4.742   1.301
 5428SOL     OW17182   6.973   0.494   2.275
 5428SOL    HW117183   6.886   0.507   2.324
 5428SOL    HW217184   7.012   0.405   2.300
 5429SOL     OW17185   1.336   0.808   4.997
 5429SOL    HW117186   1.335   0.891   4.941
 5429SOL    HW217187   1.256   0.807   5.057
 5430SOL     OW17188   1.856   2.636   5.254
 5430SOL    HW117189   1.897   2.677   5.336
 5430SOL    HW217190   1.895   2.679   5.172
 5431SOL     OW17191   3.659   5.178   6.811
 5431SOL    HW117192   3.623   5.125   6.735
 5431SOL    HW217193   3.744   5.222   6.784
 5432SOL     OW17194   3.844   6.230   5.936
 5432SOL    HW117195   3.816   6.134   5.943
 5432SOL    HW217196   3.944   6.234   5.929
 5433SOL     OW17197   0.129   1.887   3.500
 5433SOL    HW117198   0.135   1.984   3.476
 5433SOL    HW217199   0.125   1.833   3.416
 5434SOL     OW17200   3.847   0.872   4.962
 5434SOL    HW117201   3.833   0.894   4.865
 5434SOL    HW217202   3.927   0.812   4.971
 5435SOL     OW17203   5.874   1.624   1.168
 5435SOL    HW117204   5.890   1.594   1.074
 5435SOL    HW217205   5.946   1.587   1.227
 5436SOL     OW17206   5.765   4.072   4.781
 5436SOL    HW117207   5.689   4.015   4.815
 5436SOL    HW217208   5.728   4.152   4.735
 5437SOL     OW17209   2.749   5.003   5.737
 5437SOL    HW117210   2.698   4.930   5.691
 5437SOL    HW217211   2.820   5.038   5.676
 5438SOL     OW17212   5.385   4.032   2.257
 5438SOL    HW117213   5.378   3.961   2.187
 5438SOL    HW217214   5.342   4.000   2.342
 5439SOL     OW17215   0.070   2.496   0.123
 5439SOL    HW117216   0.042   2.410   0.165
 5439SOL    HW217217   7.019   2.539   0.077
 5440SOL     OW17218   0.760   0.079   2.762
 5440SOL    HW117219   0.719   0.046   2.847
 5440SOL    HW217220   0.816   0.006   2.722
 5441SOL     OW17221   4.845   2.950   3.813
 5441SOL    HW117222   4.785   2.892   3.759
 5441SOL    HW217223   4.911   2.893   3.862
 5442SOL     OW17224   3.058   6.757   3.244
 5442SOL    HW117225   3.119   6.771   3.166
 5442SOL    HW217226   3.044   6.844   3.291
 5443SOL     OW17227   2.624   6.044   3.799
 5443SOL    HW117228   2.672   5.957   3.790
 5443SOL    HW217229   2.648   6.086   3.887
 5444SOL     OW17230   0.524   0.672   3.117
 5444SOL    HW117231   0.506   0.610   3.040
 5444SOL    HW217232   0.516   0.767   3.086
 5445SOL     OW17233   6.627   4.698   4.071
 5445SOL    HW117234   6.628   4.624   4.005
 5445SOL    HW217235   6.691   4.770   4.042
 5446SOL     OW17236   5.323   4.934   4.658
 5446SOL    HW117237   5.231   4.922   4.696
 5446SOL    HW217238   5.389   4.941   4.733
 5447SOL     OW17239   1.325   1.797   0.843
 5447SOL    HW117240   1.229   1.810   0.819
 5447SOL    HW217241   1.344   1.843   0.930
 5448SOL     OW17242   6.017   4.028   4.840
 5448SOL    HW117243   6.032   4.115   4.887
 5448SOL    HW217244   5.922   4.023   4.810
 5449SOL     OW17245   1.568   1.928   0.291
 5449SOL    HW117246   1.656   1.965   0.261
 5449SOL    HW217247   1.580   1.833   0.319
 5450SOL     OW17248   2.758   0.156   1.419
 5450SOL    HW117249   2.692   0.212   1.368
 5450SOL    HW217250   2.784   0.077   1.365
 5451SOL     OW17251   1.740   5.625   3.314
 5451SOL    HW117252   1.718   5.722   3.330
 5451SOL    HW217253   1.780   5.586   3.397
 5452SOL     OW17254   2.282   3.589   0.637
 5452SOL    HW117255   2.342   3.510   0.648
 5452SOL    HW217256   2.238   3.610   0.724
 5453SOL     OW17257   5.268   4.366   1.227
 5453SOL    HW117258   5.354   4.382   1.275
 5453SOL    HW217259   5.204   4.440   1.247
 5454SOL     OW17260   6.189   4.622   5.751
 5454SOL    HW117261   6.137   4.550   5.705
 5454SOL    HW217262   6.249   4.667   5.686
 5455SOL     OW17263   6.628   2.472   1.951
 5455SOL    HW117264   6.669   2.514   2.033
 5455SOL    HW217265   6.655   2.376   1.946
 5456SOL     OW17266   2.812   0.460   0.382
 5456SOL    HW117267   2.815   0.559   0.391
 5456SOL    HW217268   2.904   0.422   0.395
 5457SOL     OW17269   0.323   2.405   1.011
 5457SOL    HW117270   0.415   2.367   0.997
 5457SOL    HW217271   0.330   2.492   1.059
 5458SOL     OW17272   0.360   4.806   0.547
 5458SOL    HW117273   0.293   4.826   0.619
 5458SOL    HW217274   0.353   4.874   0.474
 5459SOL     OW17275   2.909   3.545   6.542
 5459SOL    HW117276   2.841   3.499   6.599
 5459SOL    HW217277   2.881   3.640   6.527
 5460SOL     OW17278   3.911   0.174   2.862
 5460SOL    HW117279   3.998   0.176   2.813
 5460SOL    HW217280   3.904   0.254   2.922
 5461SOL     OW17281   0.581   0.477   6.006
 5461SOL    HW117282   0.481   0.471   6.012
 5461SOL    HW217283   0.607   0.557   5.953
 5462SOL     OW17284   6.170   6.695   1.128
 5462SOL    HW117285   6.103   6.636   1.083
 5462SOL    HW217286   6.193   6.657   1.217
 5463SOL     OW17287   0.071   1.297   0.600
 5463SOL    HW117288   0.131   1.256   0.531
 5463SOL    HW217289   0.032   1.382   0.564
 5464SOL     OW17290   6.473   0.457   4.452
 5464SOL    HW117291   6.421   0.378   4.420
 5464SOL    HW217292   6.568   0.430   4.468
 5465SOL     OW17293   4.995   0.927   4.459
 5465SOL    HW117294   4.908   0.878   4.455
 5465SOL    HW217295   5.065   0.866   4.495
 5466SOL     OW17296   5.379   2.941   4.628
 5466SOL    HW117297   5.338   2.874   4.689
 5466SOL    HW217298   5.458   2.901   4.582
 5467SOL     OW17299   4.747   4.204   3.403
 5467SOL    HW117300   4.754   4.105   3.396
 5467SOL    HW217301   4.716   4.229   3.495
 5468SOL     OW17302   6.888   2.818   3.665
 5468SOL    HW117303   6.962   2.883   3.649
 5468SOL    HW217304   6.913   2.758   3.741
 5469SOL     OW17305   2.809   5.595   5.644
 5469SOL    HW117306   2.783   5.651   5.722
 5469SOL    HW217307   2.841   5.506   5.676
 5470SOL     OW17308   3.448   5.165   3.573
 5470SOL    HW117309   3.525   5.135   3.629
 5470SOL    HW217310   3.415   5.089   3.518
 5471SOL     OW17311   5.573   6.954   3.160
 5471SOL    HW117312   5.542   6.930   3.069
 5471SOL    HW217313   5.495   6.961   3.222
 5472SOL     OW17314   2.898   4.270   6.895
 5472SOL    HW117315   2.974   4.322   6.935
 5472SOL    HW217316   2.819   4.275   6.955
 5473SOL     OW17317   0.789   3.622   2.248
 5473SOL    HW117318   0.718   3.552   2.246
 5473SOL    HW217319   0.786   3.671   2.335
 5474SOL     OW17320   1.152   4.963   3.866
 5474SOL    HW117321   1.187   5.056   3.855
 5474SOL    HW217322   1.054   4.967   3.887
 5475SOL     OW17323   2.268   2.932   1.165
 5475SOL    HW117324   2.228   2.939   1.256
 5475SOL    HW217325   2.347   2.870   1.168
 5476SOL     OW17326   2.467   4.366   5.665
 5476SOL    HW117327   2.375   4.353   5.627
 5476SOL    HW217328   2.460   4.397   5.760
 5477SOL     OW17329   1.981   4.449   2.585
 5477SOL    HW117330   2.078   4.427   2.599
 5477SOL    HW217331   1.944   4.390   2.513
 5478SOL     OW17332   2.964   5.787   4.341
 5478SOL    HW117333   3.063   5.788   4.330
 5478SOL    HW217334   2.937   5.708   4.397
 5479SOL     OW17335   5.316   1.399   6.609
 5479SOL    HW117336   5.407   1.433   6.631
 5479SOL    HW217337   5.274   1.458   6.540
 5480SOL     OW17338   5.466   4.939   3.890
 5480SOL    HW117339   5.528   4.878   3.938
 5480SOL    HW217340   5.484   4.935   3.792
 5481SOL     OW17341   4.233   1.522   4.130
 5481SOL    HW117342   4.133   1.523   4.140
 5481SOL    HW217343   4.274   1.489   4.216
 5482SOL     OW17344   3.553   4.415   1.715
 5482SOL    HW117345   3.550   4.504   1.760
 5482SOL    HW217346   3.536   4.342   1.781
 5483SOL     OW17347   0.353   1.881   5.527
 5483SOL    HW117348   0.274   1.878   5.588
 5483SOL    HW217349   0.375   1.788   5.497
 5484SOL     OW17350   3.843   1.373   4.498
 5484SOL    HW117351   3.792   1.433   4.560
 5484SOL    HW217352   3.792   1.363   4.412
 5485SOL     OW17353   3.704   0.440   4.483
 5485SOL    HW117354   3.755   0.462   4.400
 5485SOL    HW217355   3.677   0.344   4.481
 5486SOL     OW17356   2.243   6.261   5.222
 5486SOL    HW117357   2.332   6.269   5.266
 5486SOL    HW217358   2.253   6.217   5.133
 5487SOL     OW17359   5.151   2.397   6.771
 5487SOL    HW117360   5.057   2.393   6.806
 5487SOL    HW217361   5.215   2.367   6.841
 5488SOL     OW17362   6.017   0.287   0.950
 5488SOL    HW117363   6.017   0.305   0.852
 5488SOL    HW217364   6.089   0.340   0.994
 5489SOL     OW17365   0.175   4.121   1.695
 5489SOL    HW117366   0.214   4.037   1.733
 5489SOL    HW217367   0.131   4.173   1.768
 5490SOL     OW17368   3.147   0.245   2.049
 5490SOL    HW117369   3.074   0.178   2.061
 5490SOL    HW217370   3.205   0.246   2.131
 5491SOL     OW17371   0.981   3.393   0.102
 5491SOL    HW117372   1.021   3.304   0.125
 5491SOL    HW217373   0.938   3.388   0.012
 5492SOL     OW17374   0.670   3.511   6.073
 5492SOL    HW117375   0.631   3.552   6.155
 5492SOL    HW217376   0.707   3.584   6.015
 5493SOL     OW17377   3.293   4.114   4.510
 5493SOL    HW117378   3.353   4.060   4.569
 5493SOL    HW217379   3.202   4.120   4.551
 5494SOL     OW17380   0.758   3.579   6.475
 5494SOL    HW117381   0.696   3.525   6.417
 5494SOL    HW217382   0.706   3.652   6.519
 5495SOL     OW17383   5.194   1.118   1.179
 5495SOL    HW117384   5.259   1.122   1.255
 5495SOL    HW217385   5.240   1.143   1.094
 5496SOL     OW17386   4.137   0.747   3.411
 5496SOL    HW117387   4.227   0.776   3.377
 5496SOL    HW217388   4.148   0.670   3.473
 5497SOL     OW17389   6.969   0.899   4.953
 5497SOL    HW117390   6.989   0.914   5.050
 5497SOL    HW217391   6.892   0.836   4.944
 5498SOL     OW17392   6.886   5.783   1.341
 5498SOL    HW117393   6.958   5.853   1.342
 5498SOL    HW217394   6.918   5.702   1.390
 5499SOL     OW17395   0.266   0.580   4.540
 5499SOL    HW117396   0.181   0.584   4.486
 5499SOL    HW217397   0.344   0.571   4.478
 5500SOL     OW17398   1.002   0.484   0.189
 5500SOL    HW117399   1.034   0.414   0.253
 5500SOL    HW217400   1.041   0.467   0.098
 5501SOL     OW17401   3.502   1.642   6.766
 5501SOL    HW117402   3.557   1.641   6.850
 5501SOL    HW217403   3.553   1.687   6.693
 5502SOL     OW17404   4.745   3.797   0.589
 5502SOL    HW117405   4.840   3.827   0.575
 5502SOL    HW217406   4.738   3.699   0.571
 5503SOL     OW17407   6.894   4.341   1.544
 5503SOL    HW117408   6.832   4.272   1.579
 5503SOL    HW217409   6.948   4.379   1.620
 5504SOL     OW17410   4.776   1.677   5.165
 5504SOL    HW117411   4.723   1.744   5.113
 5504SOL    HW217412   4.863   1.661   5.120
 5505SOL     OW17413   2.181   5.154   3.938
 5505SOL    HW117414   2.256   5.108   3.985
 5505SOL    HW217415   2.120   5.196   4.006
 5506SOL     OW17416   0.262   3.377   0.889
 5506SOL    HW117417   0.308   3.398   0.976
 5506SOL    HW217418   0.233   3.462   0.845
 5507SOL     OW17419   4.100   1.263   4.609
 5507SOL    HW117420   4.124   1.201   4.535
 5507SOL    HW217421   4.012   1.306   4.589
 5508SOL     OW17422   1.296   0.911   0.071
 5508SOL    HW117423   1.322   0.965   7.018
 5508SOL    HW217424   1.197   0.917   0.084
 5509SOL     OW17425   0.752   6.284   6.175
 5509SOL    HW117426   0.724   6.279   6.271
 5509SOL    HW217427   0.720   6.202   6.127
 5510SOL     OW17428   4.700   5.424   0.311
 5510SOL    HW117429   4.610   5.442   0.351
 5510SOL    HW217430   4.752   5.363   0.371
 5511SOL     OW17431   1.028   0.304   3.614
 5511SOL    HW117432   1.063   0.229   3.670
 5511SOL    HW217433   0.932   0.288   3.593
 5512SOL     OW17434   5.145   2.503   0.730
 5512SOL    HW117435   5.118   2.586   0.681
 5512SOL    HW217436   5.106   2.423   0.684
 5513SOL     OW17437   3.842   4.942   6.049
 5513SOL    HW117438   3.848   5.015   6.117
 5513SOL    HW217439   3.749   4.906   6.047
 5514SOL     OW17440   3.615   0.383   4.759
 5514SOL    HW117441   3.650   0.416   4.671
 5514SOL    HW217442   3.516   0.367   4.752
 5515SOL     OW17443   0.813   5.993   2.080
 5515SOL    HW117444   0.864   5.972   1.996
 5515SOL    HW217445   0.779   6.087   2.075
 5516SOL     OW17446   2.140   3.570   6.043
 5516SOL    HW117447   2.134   3.611   6.135
 5516SOL    HW217448   2.070   3.610   5.985
 5517SOL     OW17449   2.059   3.331   2.205
 5517SOL    HW117450   2.052   3.241   2.162
 5517SOL    HW217451   2.105   3.395   2.142
 5518SOL     OW17452   5.517   5.972   6.715
 5518SOL    HW117453   5.437   6.032   6.716
 5518SOL    HW217454   5.547   5.958   6.620
 5519SOL     OW17455   5.592   3.269   3.110
 5519SOL    HW117456   5.610   3.287   3.013
 5519SOL    HW217457   5.658   3.319   3.166
 5520SOL     OW17458   6.594   6.877   2.422
 5520SOL    HW117459   6.530   6.942   2.461
 5520SOL    HW217460   6.547   6.791   2.403
 5521SOL     OW17461   4.930   6.470   2.033
 5521SOL    HW117462   4.876   6.522   2.099
 5521SOL    HW217463   4.893   6.377   2.026
 5522SOL     OW17464   6.181   4.600   0.477
 5522SOL    HW117465   6.134   4.682   0.446
 5522SOL    HW217466   6.195   4.605   0.576
 5523SOL     OW17467   3.947   1.577   1.706
 5523SOL    HW117468   3.884   1.506   1.677
 5523SOL    HW217469   3.897   1.663   1.720
 5524SOL     OW17470   4.371   0.429   4.668
 5524SOL    HW117471   4.329   0.434   4.758
 5524SOL    HW217472   4.468   0.408   4.678
 5525SOL     OW17473   0.383   2.231   0.007
 5525SOL    HW117474   0.433   2.288   6.969
 5525SOL    HW217475   0.402   2.135   7.016
 5526SOL     OW17476   4.925   5.212   3.022
 5526SOL    HW117477   4.884   5.223   3.112
 5526SOL    HW217478   4.853   5.209   2.953
 5527SOL     OW17479   5.108   3.609   3.999
 5527SOL    HW117480   5.045   3.540   4.032
 5527SOL    HW217481   5.160   3.647   4.076
 5528SOL     OW17482   1.466   0.740   0.560
 5528SOL    HW117483   1.403   0.678   0.513
 5528SOL    HW217484   1.511   0.799   0.492
 5529SOL     OW17485   3.434   7.015   4.944
 5529SOL    HW117486   3.518   6.961   4.953
 5529SOL    HW217487   3.354   6.955   4.952
 5530SOL     OW17488   6.111   1.876   0.984
 5530SOL    HW117489   6.042   1.840   1.048
 5530SOL    HW217490   6.146   1.963   1.019
 5531SOL     OW17491   3.649   3.634   1.835
 5531SOL    HW117492   3.685   3.552   1.880
 5531SOL    HW217493   3.566   3.610   1.785
 5532SOL     OW17494   1.065   3.416   0.863
 5532SOL    HW117495   1.029   3.325   0.878
 5532SOL    HW217496   1.077   3.432   0.764
 5533SOL     OW17497   3.834   1.961   3.155
 5533SOL    HW117498   3.908   2.002   3.209
 5533SOL    HW217499   3.766   1.920   3.216
 5534SOL     OW17500   0.959   1.694   6.921
 5534SOL    HW117501   0.897   1.766   6.950
 5534SOL    HW217502   0.966   1.624   6.992
 5535SOL     OW17503   1.039   1.767   3.533
 5535SOL    HW117504   1.112   1.814   3.582
 5535SOL    HW217505   1.024   1.811   3.444
 5536SOL     OW17506   3.790   0.894   4.132
 5536SOL    HW117507   3.880   0.890   4.177
 5536SOL    HW217508   3.728   0.948   4.189
 5537SOL     OW17509   2.947   1.010   2.168
 5537SOL    HW117510   3.039   0.980   2.190
 5537SOL    HW217511   2.936   1.107   2.193
 5538SOL     OW17512   3.088   5.552   5.380
 5538SOL    HW117513   3.099   5.534   5.478
 5538SOL    HW217514   3.035   5.479   5.338
 5539SOL     OW17515   0.956   3.705   1.570
 5539SOL    HW117516   0.857   3.708   1.587
 5539SOL    HW217517   1.000   3.781   1.618
 5540SOL     OW17518   4.687   4.379   4.189
 5540SOL    HW117519   4.641   4.426   4.265
 5540SOL    HW217520   4.754   4.314   4.225
 5541SOL     OW17521   4.985   0.301   6.663
 5541SOL    HW117522   4.925   0.381   6.671
 5541SOL    HW217523   4.939   0.231   6.607
 5542SOL     OW17524   4.919   3.586   6.071
 5542SOL    HW117525   5.014   3.584   6.103
 5542SOL    HW217526   4.862   3.533   6.133
 5543SOL     OW17527   4.020   3.810   6.610
 5543SOL    HW117528   4.023   3.711   6.626
 5543SOL    HW217529   3.949   3.831   6.543
 5544SOL     OW17530   5.135   5.513   6.554
 5544SOL    HW117531   5.055   5.572   6.542
 5544SOL    HW217532   5.122   5.428   6.504
 5545SOL     OW17533   4.607   1.226   2.874
 5545SOL    HW117534   4.508   1.212   2.876
 5545SOL    HW217535   4.634   1.267   2.787
 5546SOL     OW17536   0.461   4.563   4.766
 5546SOL    HW117537   0.504   4.621   4.835
 5546SOL    HW217538   0.529   4.536   4.698
 5547SOL     OW17539   2.983   6.593   5.424
 5547SOL    HW117540   2.951   6.519   5.484
 5547SOL    HW217541   2.917   6.667   5.425
 5548SOL     OW17542   6.156   2.225   5.485
 5548SOL    HW117543   6.149   2.202   5.582
 5548SOL    HW217544   6.071   2.269   5.455
 5549SOL     OW17545   4.430   4.992   6.551
 5549SOL    HW117546   4.508   5.054   6.559
 5549SOL    HW217547   4.460   4.908   6.504
 5550SOL     OW17548   2.767   5.297   2.592
 5550SOL    HW117549   2.807   5.253   2.511
 5550SOL    HW217550   2.839   5.341   2.645
 5551SOL     OW17551   2.209   0.988   2.741
 5551SOL    HW117552   2.175   0.945   2.825
 5551SOL    HW217553   2.223   0.918   2.671
 5552SOL     OW17554   0.192   0.905   6.939
 5552SOL    HW117555   0.225   0.939   6.851
 5552SOL    HW217556   0.261   0.845   6.980
 5553SOL     OW17557   3.595   6.690   0.402
 5553SOL    HW117558   3.542   6.749   0.341
 5553SOL    HW217559   3.692   6.700   0.380
 5554SOL     OW17560   3.341   1.699   5.178
 5554SOL    HW117561   3.367   1.603   5.188
 5554SOL    HW217562   3.387   1.739   5.099
 5555SOL     OW17563   0.417   5.018   3.945
 5555SOL    HW117564   0.475   5.017   3.864
 5555SOL    HW217565   0.361   4.935   3.947
 5556SOL     OW17566   0.277   3.001   4.136
 5556SOL    HW117567   0.188   3.003   4.181
 5556SOL    HW217568   0.299   2.907   4.110
 5557SOL     OW17569   3.333   4.923   3.426
 5557SOL    HW117570   3.311   4.850   3.490
 5557SOL    HW217571   3.251   4.951   3.377
 5558SOL     OW17572   5.194   3.519   5.458
 5558SOL    HW117573   5.110   3.473   5.487
 5558SOL    HW217574   5.229   3.474   5.376
 5559SOL     OW17575   2.752   6.962   2.167
 5559SOL    HW117576   2.731   6.905   2.246
 5559SOL    HW217577   2.799   6.907   2.097
 5560SOL     OW17578   0.477   6.828   2.824
 5560SOL    HW117579   0.543   6.886   2.870
 5560SOL    HW217580   0.516   6.737   2.810
 5561SOL     OW17581   2.301   2.351   3.928
 5561SOL    HW117582   2.202   2.355   3.912
 5561SOL    HW217583   2.343   2.295   3.858
 5562SOL     OW17584   1.837   2.139   6.637
 5562SOL    HW117585   1.885   2.087   6.567
 5562SOL    HW217586   1.859   2.236   6.628
 5563SOL     OW17587   4.526   6.600   2.872
 5563SOL    HW117588   4.608   6.542   2.866
 5563SOL    HW217589   4.540   6.683   2.820
 5564SOL     OW17590   5.352   1.982   1.584
 5564SOL    HW117591   5.339   1.884   1.597
 5564SOL    HW217592   5.381   1.999   1.489
 5565SOL     OW17593   4.836   1.865   5.763
 5565SOL    HW117594   4.881   1.932   5.821
 5565SOL    HW217595   4.889   1.852   5.679
 5566SOL     OW17596   1.435   5.467   1.307
 5566SOL    HW117597   1.375   5.432   1.380
 5566SOL    HW217598   1.423   5.411   1.225
 5567SOL     OW17599   0.785   4.927   0.719
 5567SOL    HW117600   0.835   4.935   0.805
 5567SOL    HW217601   0.699   4.878   0.736
 5568SOL     OW17602   4.769   2.466   2.086
 5568SOL    HW117603   4.723   2.540   2.134
 5568SOL    HW217604   4.866   2.465   2.113
 5569SOL     OW17605   4.066   2.091   1.924
 5569SOL    HW117606   3.990   2.086   1.860
 5569SOL    HW217607   4.110   2.181   1.916
 5570SOL     OW17608   6.235   4.921   4.677
 5570SOL    HW117609   6.331   4.943   4.693
 5570SOL    HW217610   6.223   4.822   4.674
 5571SOL     OW17611   0.303   6.437   0.201
 5571SOL    HW117612   0.386   6.391   0.170
 5571SOL    HW217613   0.236   6.368   0.229
 5572SOL     OW17614   2.662   2.663   6.536
 5572SOL    HW117615   2.701   2.755   6.540
 5572SOL    HW217616   2.573   2.666   6.491
 5573SOL     OW17617   1.067   2.910   0.617
 5573SOL    HW117618   1.109   2.925   0.707
 5573SOL    HW217619   0.974   2.878   0.629
 5574SOL     OW17620   6.906   1.366   4.434
 5574SOL    HW117621   6.922   1.441   4.498
 5574SOL    HW217622   6.990   1.313   4.423
 5575SOL     OW17623   1.326   0.814   1.733
 5575SOL    HW117624   1.226   0.808   1.737
 5575SOL    HW217625   1.353   0.853   1.645
 5576SOL     OW17626   6.387   5.591   1.778
 5576SOL    HW117627   6.297   5.631   1.759
 5576SOL    HW217628   6.407   5.521   1.709
 5577SOL     OW17629   2.504   3.550   5.554
 5577SOL    HW117630   2.500   3.498   5.640
 5577SOL    HW217631   2.427   3.523   5.496
 5578SOL     OW17632   3.711   2.641   0.562
 5578SOL    HW117633   3.660   2.679   0.485
 5578SOL    HW217634   3.690   2.694   0.644
 5579SOL     OW17635   6.361   3.627   5.956
 5579SOL    HW117636   6.388   3.634   5.860
 5579SOL    HW217637   6.261   3.631   5.963
 5580SOL     OW17638   4.735   2.182   0.450
 5580SOL    HW117639   4.746   2.273   0.492
 5580SOL    HW217640   4.660   2.134   0.495
 5581SOL     OW17641   2.721   6.879   0.852
 5581SOL    HW117642   2.732   6.975   0.878
 5581SOL    HW217643   2.802   6.827   0.878
 5582SOL     OW17644   3.281   3.540   4.326
 5582SOL    HW117645   3.287   3.613   4.258
 5582SOL    HW217646   3.352   3.553   4.395
 5583SOL     OW17647   4.122   6.982   2.619
 5583SOL    HW117648   4.154   0.010   2.696
 5583SOL    HW217649   4.034   6.940   2.642
 5584SOL     OW17650   5.739   3.861   3.567
 5584SOL    HW117651   5.741   3.761   3.573
 5584SOL    HW217652   5.688   3.898   3.644
 5585SOL     OW17653   5.556   0.884   4.046
 5585SOL    HW117654   5.497   0.962   4.071
 5585SOL    HW217655   5.505   0.822   3.986
 5586SOL     OW17656   1.621   2.555   6.394
 5586SOL    HW117657   1.600   2.505   6.478
 5586SOL    HW217658   1.716   2.585   6.396
 5587SOL     OW17659   3.834   0.047   2.424
 5587SOL    HW117660   3.844   0.007   2.514
 5587SOL    HW217661   3.850   0.146   2.429
 5588SOL     OW17662   1.291   6.926   4.503
 5588SOL    HW117663   1.240   6.970   4.428
 5588SOL    HW217664   1.386   6.954   4.499
 5589SOL     OW17665   5.209   2.955   5.642
 5589SOL    HW117666   5.154   2.877   5.610
 5589SOL    HW217667   5.188   2.973   5.738
 5590SOL     OW17668   6.499   5.415   3.141
 5590SOL    HW117669   6.466   5.503   3.106
 5590SOL    HW217670   6.422   5.353   3.153
 5591SOL     OW17671   5.673   0.718   0.126
 5591SOL    HW117672   5.605   0.668   0.073
 5591SOL    HW217673   5.712   0.791   0.069
 5592SOL     OW17674   2.100   3.593   3.825
 5592SOL    HW117675   2.018   3.548   3.861
 5592SOL    HW217676   2.121   3.556   3.734
 5593SOL     OW17677   0.147   2.627   5.937
 5593SOL    HW117678   0.132   2.586   6.028
 5593SOL    HW217679   0.222   2.693   5.942
 5594SOL     OW17680   2.368   1.222   6.787
 5594SOL    HW117681   2.361   1.289   6.861
 5594SOL    HW217682   2.460   1.183   6.786
 5595SOL     OW17683   6.800   0.698   5.682
 5595SOL    HW117684   6.800   0.690   5.582
 5595SOL    HW217685   6.895   0.704   5.714
 5596SOL     OW17686   5.721   6.975   2.751
 5596SOL    HW117687   5.673   0.032   2.728
 5596SOL    HW217688   5.710   6.908   2.677
 5597SOL     OW17689   5.149   2.655   5.272
 5597SOL    HW117690   5.080   2.723   5.247
 5597SOL    HW217691   5.114   2.564   5.254
 5598SOL     OW17692   5.275   2.500   3.673
 5598SOL    HW117693   5.235   2.591   3.679
 5598SOL    HW217694   5.223   2.436   3.730
 5599SOL     OW17695   5.595   4.391   1.755
 5599SOL    HW117696   5.532   4.408   1.831
 5599SOL    HW217697   5.562   4.313   1.702
 5600SOL     OW17698   2.765   0.214   2.698
 5600SOL    HW117699   2.805   0.209   2.789
 5600SOL    HW217700   2.773   0.125   2.653
 5601SOL     OW17701   4.929   2.831   5.237
 5601SOL    HW117702   4.865   2.785   5.297
 5601SOL    HW217703   4.881   2.901   5.184
 5602SOL     OW17704   0.257   2.026   3.732
 5602SOL    HW117705   0.278   1.956   3.665
 5602SOL    HW217706   0.160   2.019   3.758
 5603SOL     OW17707   4.539   2.571   5.017
 5603SOL    HW117708   4.619   2.513   5.010
 5603SOL    HW217709   4.487   2.569   4.932
 5604SOL     OW17710   0.731   1.079   4.271
 5604SOL    HW117711   0.713   0.988   4.236
 5604SOL    HW217712   0.674   1.146   4.222
 5605SOL     OW17713   0.760   0.195   4.800
 5605SOL    HW117714   0.722   0.127   4.738
 5605SOL    HW217715   0.686   0.240   4.851
 5606SOL     OW17716   4.484   1.544   0.487
 5606SOL    HW117717   4.515   1.511   0.398
 5606SOL    HW217718   4.520   1.635   0.504
 5607SOL     OW17719   6.420   2.315   3.185
 5607SOL    HW117720   6.510   2.305   3.144
 5607SOL    HW217721   6.354   2.258   3.135
 5608SOL     OW17722   6.163   0.448   2.922
 5608SOL    HW117723   6.186   0.372   2.982
 5608SOL    HW217724   6.128   0.413   2.835
 5609SOL     OW17725   4.507   6.534   0.370
 5609SOL    HW117726   4.476   6.548   0.464
 5609SOL    HW217727   4.484   6.442   0.339
 5610SOL     OW17728   5.563   3.980   0.052
 5610SOL    HW117729   5.598   3.886   0.055
 5610SOL    HW217730   5.463   3.978   0.056
 5611SOL     OW17731   0.164   4.331   2.028
 5611SOL    HW117732   0.119   4.396   2.090
 5611SOL    HW217733   0.257   4.363   2.009
 5612SOL     OW17734   3.211   3.033   0.439
 5612SOL    HW117735   3.130   3.077   0.477
 5612SOL    HW217736   3.269   3.000   0.514
 5613SOL     OW17737   6.676   5.102   4.065
 5613SOL    HW117738   6.586   5.095   4.021
 5613SOL    HW217739   6.722   5.013   4.060
 5614SOL     OW17740   6.588   1.924   4.274
 5614SOL    HW117741   6.583   2.014   4.231
 5614SOL    HW217742   6.495   1.887   4.285
 5615SOL     OW17743   0.058   2.197   2.282
 5615SOL    HW117744   0.087   2.213   2.188
 5615SOL    HW217745   0.072   2.100   2.305
 5616SOL     OW17746   2.260   1.515   4.525
 5616SOL    HW117747   2.296   1.565   4.446
 5616SOL    HW217748   2.163   1.497   4.512
 5617SOL     OW17749   1.898   5.135   4.780
 5617SOL    HW117750   1.858   5.051   4.743
 5617SOL    HW217751   1.907   5.203   4.708
 5618SOL     OW17752   6.261   5.467   3.537
 5618SOL    HW117753   6.238   5.523   3.457
 5618SOL    HW217754   6.343   5.503   3.581
 5619SOL     OW17755   3.069   3.321   3.928
 5619SOL    HW117756   3.033   3.356   4.015
 5619SOL    HW217757   3.009   3.248   3.895
 5620SOL     OW17758   4.498   3.957   5.925
 5620SOL    HW117759   4.519   3.866   5.888
 5620SOL    HW217760   4.433   4.003   5.865
 5621SOL     OW17761   1.874   2.648   6.381
 5621SOL    HW117762   1.923   2.637   6.294
 5621SOL    HW217763   1.938   2.637   6.457
 5622SOL     OW17764   4.244   5.854   5.117
 5622SOL    HW117765   4.158   5.872   5.069
 5622SOL    HW217766   4.318   5.904   5.072
 5623SOL     OW17767   4.991   6.908   4.492
 5623SOL    HW117768   4.924   6.981   4.483
 5623SOL    HW217769   5.067   6.923   4.429
 5624SOL     OW17770   0.565   5.263   3.169
 5624SOL    HW117771   0.594   5.318   3.247
 5624SOL    HW217772   0.523   5.178   3.201
 5625SOL     OW17773   0.978   5.922   4.273
 5625SOL    HW117774   1.006   5.867   4.352
 5625SOL    HW217775   1.040   5.904   4.196
 5626SOL     OW17776   1.870   4.464   4.376
 5626SOL    HW117777   1.821   4.425   4.298
 5626SOL    HW217778   1.947   4.519   4.344
 5627SOL     OW17779   0.582   5.648   6.055
 5627SOL    HW117780   0.609   5.717   6.123
 5627SOL    HW217781   0.519   5.690   5.989
 5628SOL     OW17782   2.836   3.259   0.540
 5628SOL    HW117783   2.761   3.208   0.497
 5628SOL    HW217784   2.909   3.195   0.564
 5629SOL     OW17785   3.835   3.153   1.284
 5629SOL    HW117786   3.815   3.192   1.374
 5629SOL    HW217787   3.751   3.121   1.242
 5630SOL     OW17788   1.545   3.989   6.342
 5630SOL    HW117789   1.553   3.928   6.421
 5630SOL    HW217790   1.550   3.936   6.258
 5631SOL     OW17791   4.628   1.014   2.476
 5631SOL    HW117792   4.554   1.074   2.506
 5631SOL    HW217793   4.663   0.963   2.554
 5632SOL     OW17794   5.292   0.813   6.070
 5632SOL    HW117795   5.323   0.907   6.053
 5632SOL    HW217796   5.192   0.811   6.070
 5633SOL     OW17797   0.618   4.821   4.155
 5633SOL    HW117798   0.640   4.869   4.239
 5633SOL    HW217799   0.522   4.791   4.158
 5634SOL     OW17800   2.503   5.471   5.215
 5634SOL    HW117801   2.429   5.422   5.260
 5634SOL    HW217802   2.527   5.424   5.130
 5635SOL     OW17803   3.087   6.729   0.003
 5635SOL    HW117804   3.131   6.696   6.947
 5635SOL    HW217805   3.110   6.670   0.080
 5636SOL     OW17806   5.998   1.433   6.011
 5636SOL    HW117807   6.035   1.416   5.919
 5636SOL    HW217808   6.065   1.484   6.064
 5637SOL     OW17809   5.655   6.856   4.103
 5637SOL    HW117810   5.741   6.879   4.059
 5637SOL    HW217811   5.656   6.759   4.130
 5638SOL     OW17812   5.719   5.937   1.485
 5638SOL    HW117813   5.760   5.847   1.472
 5638SOL    HW217814   5.639   5.930   1.544
 5639SOL     OW17815   1.041   0.895   1.408
 5639SOL    HW117816   0.975   0.964   1.437
 5639SOL    HW217817   1.118   0.894   1.472
 5640SOL     OW17818   2.447   0.080   2.713
 5640SOL    HW117819   2.467   0.163   2.765
 5640SOL    HW217820   2.481   0.091   2.619
 5641SOL     OW17821   1.135   4.483   5.892
 5641SOL    HW117822   1.145   4.435   5.979
 5641SOL    HW217823   1.052   4.540   5.895
 5642SOL     OW17824   0.713   5.212   5.920
 5642SOL    HW117825   0.718   5.150   5.999
 5642SOL    HW217826   0.749   5.166   5.839
 5643SOL     OW17827   3.336   1.226   4.761
 5643SOL    HW117828   3.330   1.126   4.756
 5643SOL    HW217829   3.366   1.254   4.852
 5644SOL     OW17830   5.233   1.111   3.933
 5644SOL    HW117831   5.283   1.191   3.967
 5644SOL    HW217832   5.166   1.081   4.002
 5645SOL     OW17833   6.331   4.506   2.540
 5645SOL    HW117834   6.350   4.409   2.522
 5645SOL    HW217835   6.241   4.515   2.583
 5646SOL     OW17836   1.609   5.677   3.731
 5646SOL    HW117837   1.584   5.635   3.819
 5646SOL    HW217838   1.536   5.740   3.702
 5647SOL     OW17839   6.611   6.238   6.369
 5647SOL    HW117840   6.522   6.194   6.382
 5647SOL    HW217841   6.684   6.170   6.379
 5648SOL     OW17842   2.003   1.153   2.765
 5648SOL    HW117843   2.089   1.103   2.750
 5648SOL    HW217844   1.934   1.119   2.700
 5649SOL     OW17845   1.447   6.721   5.349
 5649SOL    HW117846   1.498   6.749   5.267
 5649SOL    HW217847   1.511   6.691   5.420
 5650SOL     OW17848   0.158   5.047   1.190
 5650SOL    HW117849   0.123   4.969   1.241
 5650SOL    HW217850   0.257   5.038   1.178
 5651SOL     OW17851   0.257   1.508   1.511
 5651SOL    HW117852   0.272   1.605   1.530
 5651SOL    HW217853   0.170   1.497   1.464
 5652SOL     OW17854   4.791   6.188   2.041
 5652SOL    HW117855   4.728   6.178   1.963
 5652SOL    HW217856   4.885   6.177   2.009
 5653SOL     OW17857   0.436   6.316   6.549
 5653SOL    HW117858   0.431   6.412   6.576
 5653SOL    HW217859   0.357   6.267   6.586
 5654SOL     OW17860   0.054   6.724   6.268
 5654SOL    HW117861   0.089   6.812   6.235
 5654SOL    HW217862   0.007   6.738   6.356
 5655SOL     OW17863   0.768   3.379   4.500
 5655SOL    HW117864   0.797   3.317   4.427
 5655SOL    HW217865   0.677   3.352   4.532
 5656SOL     OW17866   2.894   4.799   0.565
 5656SOL    HW117867   2.804   4.841   0.552
 5656SOL    HW217868   2.893   4.747   0.651
 5657SOL     OW17869   4.686   6.852   1.336
 5657SOL    HW117870   4.664   6.759   1.308
 5657SOL    HW217871   4.637   6.917   1.278
 5658SOL     OW17872   2.947   6.628   5.943
 5658SOL    HW117873   2.900   6.683   6.011
 5658SOL    HW217874   3.034   6.673   5.918
 5659SOL     OW17875   2.924   3.628   2.961
 5659SOL    HW117876   2.917   3.718   3.004
 5659SOL    HW217877   2.927   3.638   2.861
 5660SOL     OW17878   5.412   0.497   6.403
 5660SOL    HW117879   5.504   0.536   6.408
 5660SOL    HW217880   5.346   0.568   6.377
 5661SOL     OW17881   0.118   5.052   6.183
 5661SOL    HW117882   0.207   5.033   6.224
 5661SOL    HW217883   0.060   4.970   6.189
 5662SOL     OW17884   2.395   4.976   4.413
 5662SOL    HW117885   2.397   5.048   4.483
 5662SOL    HW217886   2.412   4.888   4.457
 5663SOL     OW17887   1.387   3.996   6.976
 5663SOL    HW117888   1.445   4.059   0.001
 5663SOL    HW217889   1.300   3.984   7.023
 5664SOL     OW17890   6.975   3.870   4.104
 5664SOL    HW117891   6.943   3.779   4.081
 5664SOL    HW217892   6.933   3.937   4.043
 5665SOL     OW17893   1.861   1.091   6.227
 5665SOL    HW117894   1.882   1.135   6.315
 5665SOL    HW217895   1.780   1.133   6.187
 5666SOL     OW17896   4.963   5.963   1.194
 5666SOL    HW117897   4.903   5.886   1.171
 5666SOL    HW217898   5.051   5.951   1.149
 5667SOL     OW17899   0.634   5.329   3.620
 5667SOL    HW117900   0.558   5.387   3.648
 5667SOL    HW217901   0.695   5.379   3.559
 5668SOL     OW17902   5.160   2.308   6.496
 5668SOL    HW117903   5.173   2.341   6.590
 5668SOL    HW217904   5.221   2.231   6.479
 5669SOL     OW17905   0.240   3.388   6.622
 5669SOL    HW117906   0.326   3.382   6.672
 5669SOL    HW217907   0.227   3.305   6.568
 5670SOL     OW17908   0.609   3.091   3.366
 5670SOL    HW117909   0.512   3.088   3.388
 5670SOL    HW217910   0.643   2.998   3.352
 5671SOL     OW17911   1.060   6.767   6.450
 5671SOL    HW117912   1.032   6.733   6.360
 5671SOL    HW217913   1.018   6.856   6.467
 5672SOL     OW17914   4.063   5.221   6.411
 5672SOL    HW117915   4.103   5.206   6.502
 5672SOL    HW217916   4.102   5.305   6.372
 5673SOL     OW17917   1.094   6.665   1.916
 5673SOL    HW117918   1.031   6.708   1.980
 5673SOL    HW217919   1.189   6.682   1.945
 5674SOL     OW17920   6.644   3.373   2.436
 5674SOL    HW117921   6.616   3.466   2.461
 5674SOL    HW217922   6.622   3.310   2.510
 5675SOL     OW17923   4.283   2.312   5.988
 5675SOL    HW117924   4.342   2.290   5.910
 5675SOL    HW217925   4.254   2.407   5.982
 5676SOL     OW17926   2.122   1.753   1.664
 5676SOL    HW117927   2.130   1.663   1.708
 5676SOL    HW217928   2.027   1.767   1.635
 5677SOL     OW17929   0.921   2.056   3.009
 5677SOL    HW117930   0.969   2.005   2.937
 5677SOL    HW217931   0.832   2.014   3.027
 5678SOL     OW17932   2.802   6.688   3.285
 5678SOL    HW117933   2.898   6.715   3.278
 5678SOL    HW217934   2.765   6.673   3.193
 5679SOL     OW17935   1.242   6.866   3.767
 5679SOL    HW117936   1.305   6.904   3.700
 5679SOL    HW217937   1.231   6.932   3.842
 5680SOL     OW17938   1.599   5.263   0.662
 5680SOL    HW117939   1.611   5.233   0.567
 5680SOL    HW217940   1.502   5.286   0.677
 5681SOL     OW17941   0.980   3.599   6.834
 5681SOL    HW117942   0.957   3.650   6.751
 5681SOL    HW217943   0.962   3.656   6.914
 5682SOL     OW17944   2.083   4.924   6.151
 5682SOL    HW117945   2.134   4.985   6.212
 5682SOL    HW217946   2.033   4.857   6.204
 5683SOL     OW17947   4.617   1.960   6.206
 5683SOL    HW117948   4.712   1.985   6.226
 5683SOL    HW217949   4.583   1.899   6.277
 5684SOL     OW17950   4.093   3.553   4.509
 5684SOL    HW117951   4.133   3.644   4.522
 5684SOL    HW217952   4.032   3.532   4.585
 5685SOL     OW17953   0.561   4.603   1.695
 5685SOL    HW117954   0.485   4.548   1.661
 5685SOL    HW217955   0.623   4.545   1.748
 5686SOL     OW17956   3.184   0.610   0.305
 5686SOL    HW117957   3.208   0.539   0.238
 5686SOL    HW217958   3.239   0.692   0.289
 5687SOL     OW17959   6.830   3.645   4.891
 5687SOL    HW117960   6.844   3.721   4.827
 5687SOL    HW217961   6.773   3.575   4.848
 5688SOL     OW17962   6.386   1.263   6.929
 5688SOL    HW117963   6.429   1.314   7.004
 5688SOL    HW217964   6.437   1.280   6.844
 5689SOL     OW17965   4.105   1.156   7.014
 5689SOL    HW117966   4.156   1.213   0.053
 5689SOL    HW217967   4.167   1.088   6.975
 5690SOL     OW17968   2.562   6.259   1.104
 5690SOL    HW117969   2.625   6.251   1.182
 5690SOL    HW217970   2.548   6.169   1.063
 5691SOL     OW17971   3.053   6.349   2.234
 5691SOL    HW117972   3.076   6.446   2.224
 5691SOL    HW217973   3.132   6.294   2.208
 5692SOL     OW17974   6.826   2.939   5.726
 5692SOL    HW117975   6.912   2.889   5.736
 5692SOL    HW217976   6.844   3.032   5.693
 5693SOL     OW17977   5.402   3.231   2.087
 5693SOL    HW117978   5.365   3.297   2.021
 5693SOL    HW217979   5.359   3.142   2.074
 5694SOL     OW17980   0.345   1.093   4.021
 5694SOL    HW117981   0.364   1.121   4.115
 5694SOL    HW217982   0.412   1.025   3.992
 5695SOL     OW17983   1.104   2.707   3.130
 5695SOL    HW117984   1.005   2.701   3.137
 5695SOL    HW217985   1.146   2.653   3.203
 5696SOL     OW17986   1.484   0.618   3.174
 5696SOL    HW117987   1.504   0.544   3.238
 5696SOL    HW217988   1.395   0.658   3.196
 5697SOL     OW17989   6.208   1.979   0.563
 5697SOL    HW117990   6.225   2.067   0.608
 5697SOL    HW217991   6.196   1.909   0.633
 5698SOL     OW17992   0.397   2.341   2.086
 5698SOL    HW117993   0.427   2.437   2.086
 5698SOL    HW217994   0.473   2.282   2.111
 5699SOL     OW17995   6.356   2.442   3.413
 5699SOL    HW117996   6.365   2.402   3.322
 5699SOL    HW217997   6.444   2.480   3.442
 5700SOL     OW17998   6.643   6.115   4.567
 5700SOL    HW117999   6.570   6.175   4.601
 5700SOL    HW218000   6.686   6.068   4.644
 5701SOL     OW18001   1.214   5.891   3.291
 5701SOL    HW118002   1.266   5.921   3.211
 5701SOL    HW218003   1.269   5.826   3.344
 5702SOL     OW18004   1.847   0.158   5.710
 5702SOL    HW118005   1.889   0.246   5.732
 5702SOL    HW218006   1.882   0.126   5.622
 5703SOL     OW18007   5.038   4.618   0.469
 5703SOL    HW118008   5.128   4.616   0.512
 5703SOL    HW218009   5.036   4.689   0.399
 5704SOL     OW18010   4.264   5.349   2.466
 5704SOL    HW118011   4.182   5.405   2.482
 5704SOL    HW218012   4.240   5.252   2.474
 5705SOL     OW18013   5.961   0.844   0.536
 5705SOL    HW118014   5.902   0.793   0.599
 5705SOL    HW218015   6.010   0.780   0.477
 5706SOL     OW18016   1.069   1.878   0.760
 5706SOL    HW118017   1.101   1.965   0.723
 5706SOL    HW218018   0.994   1.843   0.705
 5707SOL     OW18019   0.352   6.656   0.353
 5707SOL    HW118020   0.433   6.630   0.405
 5707SOL    HW218021   0.338   6.591   0.278
 5708SOL     OW18022   5.560   6.358   1.370
 5708SOL    HW118023   5.516   6.420   1.306
 5708SOL    HW218024   5.599   6.280   1.320
 5709SOL     OW18025   0.950   0.009   3.493
 5709SOL    HW118026   1.003   7.021   3.576
 5709SOL    HW218027   0.867   0.060   3.516
 5710SOL     OW18028   2.458   3.310   5.780
 5710SOL    HW118029   2.534   3.278   5.836
 5710SOL    HW218030   2.376   3.318   5.836
 5711SOL     OW18031   5.320   0.881   3.163
 5711SOL    HW118032   5.249   0.904   3.097
 5711SOL    HW218033   5.314   0.784   3.188
 5712SOL     OW18034   0.657   6.165   5.747
 5712SOL    HW118035   0.658   6.068   5.772
 5712SOL    HW218036   0.562   6.195   5.737
 5713SOL     OW18037   1.118   1.928   1.237
 5713SOL    HW118038   1.089   1.902   1.329
 5713SOL    HW218039   1.053   1.892   1.170
 5714SOL     OW18040   1.323   6.219   0.050
 5714SOL    HW118041   1.268   6.138   0.029
 5714SOL    HW218042   1.419   6.200   0.033
 5715SOL     OW18043   1.359   6.186   3.689
 5715SOL    HW118044   1.281   6.123   3.683
 5715SOL    HW218045   1.393   6.186   3.783
 5716SOL     OW18046   1.096   3.747   5.589
 5716SOL    HW118047   1.171   3.809   5.568
 5716SOL    HW218048   1.109   3.708   5.679
 5717SOL     OW18049   1.860   5.424   0.324
 5717SOL    HW118050   1.939   5.485   0.323
 5717SOL    HW218051   1.778   5.475   0.299
 5718SOL     OW18052   1.150   4.139   5.775
 5718SOL    HW118053   1.080   4.094   5.719
 5718SOL    HW218054   1.132   4.121   5.872
 5719SOL     OW18055   2.482   1.624   6.153
 5719SOL    HW118056   2.478   1.723   6.138
 5719SOL    HW218057   2.401   1.581   6.114
 5720SOL     OW18058   1.226   4.808   4.271
 5720SOL    HW118059   1.321   4.837   4.283
 5720SOL    HW218060   1.211   4.780   4.177
 5721SOL     OW18061   0.335   3.639   0.768
 5721SOL    HW118062   0.271   3.683   0.705
 5721SOL    HW218063   0.412   3.701   0.786
 5722SOL     OW18064   5.760   1.608   4.921
 5722SOL    HW118065   5.807   1.574   4.839
 5722SOL    HW218066   5.826   1.657   4.978
 5723SOL     OW18067   4.062   3.767   0.052
 5723SOL    HW118068   3.970   3.787   0.085
 5723SOL    HW218069   4.061   3.681   0.002
 5724SOL     OW18070   4.032   2.424   5.389
 5724SOL    HW118071   4.099   2.410   5.462
 5724SOL    HW218072   4.064   2.496   5.327
 5725SOL     OW18073   5.240   5.771   3.237
 5725SOL    HW118074   5.208   5.724   3.155
 5725SOL    HW218075   5.245   5.869   3.220
 5726SOL     OW18076   6.345   3.436   3.475
 5726SOL    HW118077   6.316   3.363   3.413
 5726SOL    HW218078   6.399   3.397   3.549
 5727SOL     OW18079   0.373   3.109   3.724
 5727SOL    HW118080   0.467   3.142   3.719
 5727SOL    HW218081   0.325   3.158   3.798
 5728SOL     OW18082   4.625   1.262   6.036
 5728SOL    HW118083   4.666   1.288   5.949
 5728SOL    HW218084   4.697   1.240   6.102
 5729SOL     OW18085   0.976   1.265   0.613
 5729SOL    HW118086   1.067   1.225   0.602
 5729SOL    HW218087   0.954   1.273   0.710
 5730SOL     OW18088   4.183   5.519   5.664
 5730SOL    HW118089   4.190   5.451   5.591
 5730SOL    HW218090   4.179   5.610   5.624
 5731SOL     OW18091   2.020   6.697   3.900
 5731SOL    HW118092   1.979   6.638   3.969
 5731SOL    HW218093   2.041   6.643   3.819
 5732SOL     OW18094   6.503   4.319   4.890
 5732SOL    HW118095   6.593   4.278   4.906
 5732SOL    HW218096   6.434   4.248   4.879
 5733SOL     OW18097   3.319   0.493   5.585
 5733SOL    HW118098   3.353   0.504   5.491
 5733SOL    HW218099   3.334   0.399   5.615
 5734SOL     OW18100   1.417   6.586   6.288
 5734SOL    HW118101   1.328   6.540   6.293
 5734SOL    HW218102   1.446   6.613   6.380
 5735SOL     OW18103   3.880   1.526   2.832
 5735SOL    HW118104   3.782   1.510   2.830
 5735SOL    HW218105   3.898   1.619   2.863
 5736SOL     OW18106   5.498   4.878   0.449
 5736SOL    HW118107   5.472   4.853   0.356
 5736SOL    HW218108   5.574   4.820   0.480
 5737SOL     OW18109   5.277   6.281   0.296
 5737SOL    HW118110   5.354   6.234   0.253
 5737SOL    HW218111   5.191   6.241   0.265
 5738SOL     OW18112   3.661   1.665   7.002
 5738SOL    HW118113   3.686   1.580   0.022
 5738SOL    HW218114   3.739   1.697   6.949
 5739SOL     OW18115   1.225   6.552   5.296
 5739SOL    HW118116   1.200   6.519   5.387
 5739SOL    HW218117   1.303   6.614   5.303
 5740SOL     OW18118   4.621   3.609   1.140
 5740SOL    HW118119   4.645   3.600   1.237
 5740SOL    HW218120   4.524   3.631   1.132
 5741SOL     OW18121   0.217   3.828   4.077
 5741SOL    HW118122   0.229   3.753   4.012
 5741SOL    HW218123   0.120   3.850   4.086
 5742SOL     OW18124   4.534   6.120   3.119
 5742SOL    HW118125   4.558   6.156   3.029
 5742SOL    HW218126   4.551   6.189   3.189
 5743SOL     OW18127   2.534   5.970   5.165
 5743SOL    HW118128   2.607   5.982   5.099
 5743SOL    HW218129   2.559   5.899   5.231
 5744SOL     OW18130   5.358   0.970   2.260
 5744SOL    HW118131   5.349   1.068   2.242
 5744SOL    HW218132   5.449   0.952   2.298
 5745SOL     OW18133   2.603   0.856   4.040
 5745SOL    HW118134   2.528   0.829   4.100
 5745SOL    HW218135   2.580   0.832   3.945
 5746SOL     OW18136   4.980   6.831   1.415
 5746SOL    HW118137   5.012   6.742   1.448
 5746SOL    HW218138   4.881   6.828   1.404
 5747SOL     OW18139   0.516   5.227   1.628
 5747SOL    HW118140   0.611   5.205   1.651
 5747SOL    HW218141   0.465   5.142   1.617
 5748SOL     OW18142   1.629   6.770   1.028
 5748SOL    HW118143   1.686   6.689   1.014
 5748SOL    HW218144   1.550   6.746   1.084
 5749SOL     OW18145   1.450   6.984   4.895
 5749SOL    HW118146   1.523   6.924   4.863
 5749SOL    HW218147   1.362   6.949   4.862
 5750SOL     OW18148   6.198   6.245   5.297
 5750SOL    HW118149   6.283   6.297   5.305
 5750SOL    HW218150   6.127   6.287   5.353
 5751SOL     OW18151   2.125   2.735   4.742
 5751SOL    HW118152   2.072   2.671   4.798
 5751SOL    HW218153   2.178   2.795   4.802
 5752SOL     OW18154   5.584   0.122   0.565
 5752SOL    HW118155   5.663   0.151   0.618
 5752SOL    HW218156   5.594   0.025   0.541
 5753SOL     OW18157   3.539   4.176   4.889
 5753SOL    HW118158   3.447   4.136   4.892
 5753SOL    HW218159   3.532   4.275   4.879
 5754SOL     OW18160   0.919   5.609   1.651
 5754SOL    HW118161   0.982   5.668   1.600
 5754SOL    HW218162   0.838   5.591   1.596
 5755SOL     OW18163   1.473   2.006   6.299
 5755SOL    HW118164   1.458   1.937   6.228
 5755SOL    HW218165   1.482   2.096   6.257
 5756SOL     OW18166   0.706   0.563   2.618
 5756SOL    HW118167   0.748   0.510   2.544
 5756SOL    HW218168   0.628   0.512   2.656
 5757SOL     OW18169   0.478   5.407   4.281
 5757SOL    HW118170   0.452   5.330   4.223
 5757SOL    HW218171   0.578   5.416   4.282
 5758SOL     OW18172   2.407   1.420   2.669
 5758SOL    HW118173   2.357   1.395   2.587
 5758SOL    HW218174   2.349   1.478   2.727
 5759SOL     OW18175   4.789   0.722   0.227
 5759SOL    HW118176   4.857   0.739   0.156
 5759SOL    HW218177   4.790   0.797   0.294
 5760SOL     OW18178   6.120   2.328   0.609
 5760SOL    HW118179   6.101   2.422   0.639
 5760SOL    HW218180   6.086   2.315   0.516
 5761SOL     OW18181   6.114   5.089   5.773
 5761SOL    HW118182   6.051   5.108   5.849
 5761SOL    HW218183   6.111   4.991   5.752
 5762SOL     OW18184   4.903   4.585   1.116
 5762SOL    HW118185   4.960   4.577   1.197
 5762SOL    HW218186   4.960   4.606   1.036
 5763SOL     OW18187   5.781   6.052   0.789
 5763SOL    HW118188   5.744   6.066   0.697
 5763SOL    HW218189   5.844   6.126   0.811
 5764SOL     OW18190   4.524   4.611   4.677
 5764SOL    HW118191   4.558   4.566   4.760
 5764SOL    HW218192   4.497   4.704   4.699
 5765SOL     OW18193   6.235   3.354   0.359
 5765SOL    HW118194   6.237   3.266   0.312
 5765SOL    HW218195   6.329   3.389   0.368
 5766SOL     OW18196   1.504   1.738   5.139
 5766SOL    HW118197   1.427   1.706   5.194
 5766SOL    HW218198   1.560   1.660   5.111
 5767SOL     OW18199   2.297   0.057   1.012
 5767SOL    HW118200   2.244   7.021   1.069
 5767SOL    HW218201   2.362   0.005   0.957
 5768SOL     OW18202   0.394   7.021   3.799
 5768SOL    HW118203   0.367   0.047   3.718
 5768SOL    HW218204   0.361   6.927   3.788
 5769SOL     OW18205   2.670   5.177   4.214
 5769SOL    HW118206   2.680   5.146   4.120
 5769SOL    HW218207   2.573   5.179   4.239
 5770SOL     OW18208   6.843   6.397   5.833
 5770SOL    HW118209   6.755   6.413   5.876
 5770SOL    HW218210   6.852   6.300   5.809
 5771SOL     OW18211   0.725   7.014   4.055
 5771SOL    HW118212   0.789   7.016   4.131
 5771SOL    HW218213   0.735   0.070   4.001
 5772SOL     OW18214   5.030   1.182   1.423
 5772SOL    HW118215   5.101   1.197   1.354
 5772SOL    HW218216   5.014   1.084   1.434
 5773SOL     OW18217   4.234   1.167   3.544
 5773SOL    HW118218   4.211   1.137   3.637
 5773SOL    HW218219   4.173   1.123   3.479
 5774SOL     OW18220   3.158   0.112   3.829
 5774SOL    HW118221   3.125   0.083   3.919
 5774SOL    HW218222   3.173   0.031   3.772
 5775SOL     OW18223   1.248   0.071   2.165
 5775SOL    HW118224   1.286   7.007   2.155
 5775SOL    HW218225   1.278   0.129   2.090
 5776SOL     OW18226   0.488   0.256   3.917
 5776SOL    HW118227   0.544   0.322   3.867
 5776SOL    HW218228   0.466   0.179   3.857
 5777SOL     OW18229   6.710   0.346   4.934
 5777SOL    HW118230   6.650   0.266   4.927
 5777SOL    HW218231   6.694   0.392   5.022
 5778SOL     OW18232   1.397   0.496   0.195
 5778SOL    HW118233   1.460   0.465   0.267
 5778SOL    HW218234   1.388   0.424   0.126
 5779SOL     OW18235   5.062   2.130   0.848
 5779SOL    HW118236   5.060   2.211   0.906
 5779SOL    HW218237   4.989   2.067   0.876
 5780SOL     OW18238   6.327   6.163   3.713
 5780SOL    HW118239   6.382   6.238   3.750
 5780SOL    HW218240   6.387   6.095   3.670
 5781SOL     OW18241   6.962   4.878   4.383
 5781SOL    HW118242   6.869   4.841   4.381
 5781SOL    HW218243   6.964   4.968   4.341
 5782SOL     OW18244   1.996   1.752   0.940
 5782SOL    HW118245   1.961   1.813   1.011
 5782SOL    HW218246   2.078   1.705   0.973
 5783SOL     OW18247   0.772   0.950   1.149
 5783SOL    HW118248   0.870   0.937   1.161
 5783SOL    HW218249   0.725   0.927   1.235
 5784SOL     OW18250   6.942   6.257   5.435
 5784SOL    HW118251   6.979   6.306   5.514
 5784SOL    HW218252   7.013   6.199   5.396
 5785SOL     OW18253   2.365   2.069   0.169
 5785SOL    HW118254   2.408   2.051   0.081
 5785SOL    HW218255   2.367   2.167   0.188
 5786SOL     OW18256   0.540   4.633   0.387
 5786SOL    HW118257   0.474   4.671   0.452
 5786SOL    HW218258   0.493   4.613   0.301
 5787SOL     OW18259   2.605   1.500   4.557
 5787SOL    HW118260   2.628   1.434   4.486
 5787SOL    HW218261   2.673   1.497   4.630
 5788SOL     OW18262   3.192   1.665   1.600
 5788SOL    HW118263   3.278   1.624   1.629
 5788SOL    HW218264   3.177   1.749   1.652
 5789SOL     OW18265   3.537   4.783   0.247
 5789SOL    HW118266   3.517   4.881   0.252
 5789SOL    HW218267   3.505   4.747   0.160
 5790SOL     OW18268   1.463   4.206   5.167
 5790SOL    HW118269   1.426   4.145   5.097
 5790SOL    HW218270   1.562   4.213   5.157
 5791SOL     OW18271   4.116   1.518   2.325
 5791SOL    HW118272   4.100   1.547   2.231
 5791SOL    HW218273   4.156   1.593   2.378
 5792SOL     OW18274   5.978   3.436   2.268
 5792SOL    HW118275   6.038   3.385   2.330
 5792SOL    HW218276   5.914   3.491   2.321
 5793SOL     OW18277   5.261   1.317   3.591
 5793SOL    HW118278   5.181   1.288   3.644
 5793SOL    HW218279   5.326   1.242   3.586
 5794SOL     OW18280   2.710   1.448   0.469
 5794SOL    HW118281   2.700   1.545   0.490
 5794SOL    HW218282   2.788   1.410   0.518
 5795SOL     OW18283   6.337   6.957   6.899
 5795SOL    HW118284   6.318   6.974   6.803
 5795SOL    HW218285   6.436   6.955   6.914
 5796SOL     OW18286   4.799   1.491   6.746
 5796SOL    HW118287   4.811   1.467   6.649
 5796SOL    HW218288   4.832   1.584   6.761
 5797SOL     OW18289   4.640   2.732   6.214
 5797SOL    HW118290   4.686   2.672   6.280
 5797SOL    HW218291   4.634   2.824   6.252
 5798SOL     OW18292   0.816   4.659   5.553
 5798SOL    HW118293   0.834   4.617   5.642
 5798SOL    HW218294   0.899   4.655   5.497
 5799SOL     OW18295   0.339   0.221   2.816
 5799SOL    HW118296   0.260   0.192   2.762
 5799SOL    HW218297   0.423   0.209   2.762
 5800SOL     OW18298   6.428   6.526   1.886
 5800SOL    HW118299   6.520   6.491   1.905
 5800SOL    HW218300   6.360   6.466   1.928
 5801SOL     OW18301   2.193   2.166   3.272
 5801SOL    HW118302   2.177   2.132   3.179
 5801SOL    HW218303   2.178   2.265   3.274
 5802SOL     OW18304   0.813   4.368   2.167
 5802SOL    HW118305   0.906   4.380   2.202
 5802SOL    HW218306   0.755   4.441   2.202
 5803SOL     OW18307   2.231   4.646   2.266
 5803SOL    HW118308   2.189   4.735   2.280
 5803SOL    HW218309   2.290   4.624   2.345
 5804SOL     OW18310   0.417   5.307   3.986
 5804SOL    HW118311   0.331   5.347   3.955
 5804SOL    HW218312   0.428   5.216   3.945
 5805SOL     OW18313   2.880   3.451   6.841
 5805SOL    HW118314   2.848   3.411   6.926
 5805SOL    HW218315   2.806   3.451   6.774
 5806SOL     OW18316   0.385   5.660   4.845
 5806SOL    HW118317   0.472   5.629   4.807
 5806SOL    HW218318   0.311   5.640   4.780
 5807SOL     OW18319   0.431   3.933   2.445
 5807SOL    HW118320   0.404   3.957   2.352
 5807SOL    HW218321   0.362   3.965   2.509
 5808SOL     OW18322   5.623   5.631   4.996
 5808SOL    HW118323   5.603   5.704   5.062
 5808SOL    HW218324   5.690   5.663   4.930
 5809SOL     OW18325   5.497   1.443   4.626
 5809SOL    HW118326   5.533   1.350   4.623
 5809SOL    HW218327   5.512   1.487   4.537
 5810SOL     OW18328   3.626   1.736   4.793
 5810SOL    HW118329   3.632   1.792   4.710
 5810SOL    HW218330   3.541   1.756   4.841
 5811SOL     OW18331   2.843   0.889   5.526
 5811SOL    HW118332   2.759   0.869   5.476
 5811SOL    HW218333   2.901   0.809   5.527
 5812SOL     OW18334   6.523   2.702   4.135
 5812SOL    HW118335   6.597   2.727   4.196
 5812SOL    HW218336   6.560   2.678   4.045
 5813SOL     OW18337   1.890   2.245   0.964
 5813SOL    HW118338   1.797   2.232   0.996
 5813SOL    HW218339   1.943   2.295   1.032
 5814SOL     OW18340   6.362   4.778   1.339
 5814SOL    HW118341   6.434   4.788   1.408
 5814SOL    HW218342   6.273   4.789   1.384
 5815SOL     OW18343   3.959   2.187   4.256
 5815SOL    HW118344   3.860   2.185   4.242
 5815SOL    HW218345   3.992   2.281   4.253
 5816SOL     OW18346   4.350   5.266   0.262
 5816SOL    HW118347   4.290   5.193   0.295
 5816SOL    HW218348   4.390   5.239   0.175
 5817SOL     OW18349   5.605   3.554   6.139
 5817SOL    HW118350   5.685   3.496   6.154
 5817SOL    HW218351   5.596   3.575   6.042
 5818SOL     OW18352   6.555   6.319   4.761
 5818SOL    HW118353   6.483   6.264   4.805
 5818SOL    HW218354   6.639   6.312   4.814
 5819SOL     OW18355   3.982   6.748   6.899
 5819SOL    HW118356   3.935   6.739   6.811
 5819SOL    HW218357   3.916   6.763   6.972
 5820SOL     OW18358   4.310   5.640   4.107
 5820SOL    HW118359   4.378   5.594   4.164
 5820SOL    HW218360   4.350   5.661   4.018
 5821SOL     OW18361   0.126   6.868   1.238
 5821SOL    HW118362   0.080   6.914   1.314
 5821SOL    HW218363   0.058   6.836   1.172
 5822SOL     OW18364   1.325   2.180   1.762
 5822SOL    HW118365   1.286   2.272   1.757
 5822SOL    HW218366   1.398   2.171   1.694
 5823SOL     OW18367   1.646   1.255   5.523
 5823SOL    HW118368   1.684   1.169   5.489
 5823SOL    HW218369   1.688   1.277   5.611
 5824SOL     OW18370   6.536   5.359   2.461
 5824SOL    HW118371   6.633   5.334   2.456
 5824SOL    HW218372   6.503   5.383   2.370
 5825SOL     OW18373   1.839   1.639   5.570
 5825SOL    HW118374   1.752   1.641   5.520
 5825SOL    HW218375   1.897   1.713   5.538
 5826SOL     OW18376   0.071   4.562   5.418
 5826SOL    HW118377   7.014   4.616   5.415
 5826SOL    HW218378   0.080   4.508   5.334
 5827SOL     OW18379   1.814   4.500   5.090
 5827SOL    HW118380   1.717   4.516   5.073
 5827SOL    HW218381   1.848   4.431   5.026
 5828SOL     OW18382   6.617   2.058   1.213
 5828SOL    HW118383   6.703   2.017   1.183
 5828SOL    HW218384   6.583   2.121   1.143
 5829SOL     OW18385   1.445   1.009   3.145
 5829SOL    HW118386   1.483   0.936   3.089
 5829SOL    HW218387   1.428   0.976   3.237
 5830SOL     OW18388   5.197   6.505   5.090
 5830SOL    HW118389   5.285   6.536   5.053
 5830SOL    HW218390   5.140   6.584   5.113
 5831SOL     OW18391   0.529   0.970   5.672
 5831SOL    HW118392   0.442   1.003   5.708
 5831SOL    HW218393   0.567   1.037   5.609
 5832SOL     OW18394   2.946   4.879   6.561
 5832SOL    HW118395   3.027   4.845   6.514
 5832SOL    HW218396   2.878   4.806   6.570
 5833SOL     OW18397   3.681   3.510   4.993
 5833SOL    HW118398   3.701   3.414   4.972
 5833SOL    HW218399   3.593   3.536   4.954
 5834SOL     OW18400   0.379   3.191   6.903
 5834SOL    HW118401   0.347   3.245   6.981
 5834SOL    HW218402   0.384   3.095   6.930
 5835SOL     OW18403   5.337   3.274   4.002
 5835SOL    HW118404   5.263   3.215   3.970
 5835SOL    HW218405   5.337   3.275   4.102
 5836SOL     OW18406   2.713   6.868   2.421
 5836SOL    HW118407   2.716   6.768   2.417
 5836SOL    HW218408   2.764   6.900   2.501
 5837SOL     OW18409   3.991   4.455   5.984
 5837SOL    HW118410   3.995   4.538   6.040
 5837SOL    HW218411   3.940   4.475   5.900
 5838SOL     OW18412   3.382   2.497   6.755
 5838SOL    HW118413   3.435   2.540   6.681
 5838SOL    HW218414   3.384   2.556   6.836
 5839SOL     OW18415   0.614   1.715   2.299
 5839SOL    HW118416   0.700   1.753   2.332
 5839SOL    HW218417   0.610   1.618   2.321
 5840SOL     OW18418   0.542   5.375   6.376
 5840SOL    HW118419   0.579   5.457   6.419
 5840SOL    HW218420   0.616   5.322   6.335
 5841SOL     OW18421   5.269   2.077   2.393
 5841SOL    HW118422   5.260   1.982   2.363
 5841SOL    HW218423   5.187   2.103   2.444
 5842SOL     OW18424   4.465   3.092   1.433
 5842SOL    HW118425   4.549   3.045   1.404
 5842SOL    HW218426   4.477   3.191   1.425
 5843SOL     OW18427   1.887   4.279   3.050
 5843SOL    HW118428   1.925   4.228   3.127
 5843SOL    HW218429   1.907   4.232   2.965
 5844SOL     OW18430   1.883   6.319   6.433
 5844SOL    HW118431   1.785   6.325   6.454
 5844SOL    HW218432   1.898   6.345   6.338
 5845SOL     OW18433   0.183   0.916   2.402
 5845SOL    HW118434   0.224   1.004   2.377
 5845SOL    HW218435   0.162   0.864   2.318
 5846SOL     OW18436   0.437   2.571   4.140
 5846SOL    HW118437   0.359   2.631   4.132
 5846SOL    HW218438   0.432   2.520   4.226
 5847SOL     OW18439   2.591   2.070   1.771
 5847SOL    HW118440   2.615   1.997   1.707
 5847SOL    HW218441   2.669   2.090   1.830
 5848SOL     OW18442   2.328   5.548   3.437
 5848SOL    HW118443   2.246   5.491   3.439
 5848SOL    HW218444   2.407   5.493   3.465
 5849SOL     OW18445   0.085   0.145   6.517
 5849SOL    HW118446   0.008   0.083   6.502
 5849SOL    HW218447   0.051   0.239   6.521
 5850SOL     OW18448   6.859   2.667   1.598
 5850SOL    HW118449   6.815   2.642   1.512
 5850SOL    HW218450   6.790   2.675   1.670
 5851SOL     OW18451   5.282   3.767   3.307
 5851SOL    HW118452   5.209   3.718   3.261
 5851SOL    HW218453   5.318   3.838   3.245
 5852SOL     OW18454   6.633   5.812   3.032
 5852SOL    HW118455   6.716   5.785   2.982
 5852SOL    HW218456   6.659   5.861   3.115
 5853SOL     OW18457   4.035   6.097   4.086
 5853SOL    HW118458   4.095   6.176   4.097
 5853SOL    HW218459   4.088   6.013   4.099
 5854SOL     OW18460   5.896   5.019   5.994
 5854SOL    HW118461   5.896   4.960   6.075
 5854SOL    HW218462   5.830   4.984   5.927
 5855SOL     OW18463   0.218   1.567   4.867
 5855SOL    HW118464   0.176   1.595   4.780
 5855SOL    HW218465   0.175   1.616   4.942
 5856SOL     OW18466   1.706   5.909   4.021
 5856SOL    HW118467   1.654   5.871   4.097
 5856SOL    HW218468   1.778   5.969   4.057
 5857SOL     OW18469   6.604   2.218   5.982
 5857SOL    HW118470   6.639   2.140   5.930
 5857SOL    HW218471   6.539   2.269   5.926
 5858SOL     OW18472   2.567   2.537   2.704
 5858SOL    HW118473   2.619   2.464   2.659
 5858SOL    HW218474   2.543   2.608   2.638
 5859SOL     OW18475   5.665   6.267   1.743
 5859SOL    HW118476   5.682   6.282   1.841
 5859SOL    HW218477   5.672   6.355   1.695
 5860SOL     OW18478   1.063   4.393   1.602
 5860SOL    HW118479   1.123   4.352   1.534
 5860SOL    HW218480   1.108   4.394   1.691
 5861SOL     OW18481   4.528   1.479   4.555
 5861SOL    HW118482   4.584   1.410   4.602
 5861SOL    HW218483   4.470   1.526   4.621
 5862SOL     OW18484   5.171   5.163   1.911
 5862SOL    HW118485   5.094   5.204   1.860
 5862SOL    HW218486   5.257   5.200   1.875
 5863SOL     OW18487   3.077   1.529   5.020
 5863SOL    HW118488   2.997   1.560   5.071
 5863SOL    HW218489   3.094   1.433   5.041
 5864SOL     OW18490   3.681   3.892   1.844
 5864SOL    HW118491   3.735   3.910   1.927
 5864SOL    HW218492   3.678   3.794   1.827
 5865SOL     OW18493   5.868   0.885   5.258
 5865SOL    HW118494   5.817   0.938   5.190
 5865SOL    HW218495   5.928   0.946   5.309
 5866SOL     OW18496   4.035   4.229   0.737
 5866SOL    HW118497   3.964   4.271   0.794
 5866SOL    HW218498   4.095   4.300   0.700
 5867SOL     OW18499   1.116   3.919   0.649
 5867SOL    HW118500   1.132   3.898   0.745
 5867SOL    HW218501   1.115   4.018   0.637
 5868SOL     OW18502   0.398   1.608   5.518
 5868SOL    HW118503   0.375   1.624   5.422
 5868SOL    HW218504   0.410   1.510   5.534
 5869SOL     OW18505   2.014   6.391   4.055
 5869SOL    HW118506   1.941   6.375   4.120
 5869SOL    HW218507   2.092   6.432   4.101
 5870SOL     OW18508   5.249   6.048   4.624
 5870SOL    HW118509   5.223   6.067   4.530
 5870SOL    HW218510   5.305   6.123   4.660
 5871SOL     OW18511   3.919   2.813   1.078
 5871SOL    HW118512   3.858   2.890   1.058
 5871SOL    HW218513   4.014   2.844   1.070
 5872SOL     OW18514   3.794   6.021   1.649
 5872SOL    HW118515   3.815   6.115   1.677
 5872SOL    HW218516   3.878   5.972   1.628
 5873SOL     OW18517   3.230   2.068   1.363
 5873SOL    HW118518   3.165   1.996   1.386
 5873SOL    HW218519   3.180   2.153   1.344
 5874SOL     OW18520   3.321   4.358   6.966
 5874SOL    HW118521   3.328   4.402   6.877
 5874SOL    HW218522   3.348   4.262   6.959
 5875SOL     OW18523   4.725   1.240   6.613
 5875SOL    HW118524   4.783   1.234   6.694
 5875SOL    HW218525   4.665   1.320   6.620
 5876SOL     OW18526   3.332   3.395   0.728
 5876SOL    HW118527   3.264   3.425   0.661
 5876SOL    HW218528   3.286   3.343   0.801
 5877SOL     OW18529   0.255   0.405   0.625
 5877SOL    HW118530   0.342   0.453   0.633
 5877SOL    HW218531   0.233   0.394   0.528
 5878SOL     OW18532   5.758   5.263   4.054
 5878SOL    HW118533   5.667   5.305   4.047
 5878SOL    HW218534   5.774   5.234   4.149
 5879SOL     OW18535   1.516   3.454   6.789
 5879SOL    HW118536   1.575   3.373   6.786
 5879SOL    HW218537   1.429   3.430   6.830
 5880SOL     OW18538   5.131   4.400   6.635
 5880SOL    HW118539   5.128   4.500   6.637
 5880SOL    HW218540   5.148   4.369   6.541
 5881SOL     OW18541   1.129   0.006   1.518
 5881SOL    HW118542   1.138   6.935   1.531
 5881SOL    HW218543   1.043   0.025   1.470
 5882SOL     OW18544   0.950   6.515   5.787
 5882SOL    HW118545   0.858   6.484   5.809
 5882SOL    HW218546   0.993   6.554   5.869
 5883SOL     OW18547   1.192   1.291   0.095
 5883SOL    HW118548   1.148   1.220   0.040
 5883SOL    HW218549   1.121   1.346   0.140
 5884SOL     OW18550   4.544   1.171   4.640
 5884SOL    HW118551   4.469   1.205   4.697
 5884SOL    HW218552   4.630   1.211   4.672
 5885SOL     OW18553   0.384   5.858   2.607
 5885SOL    HW118554   0.425   5.789   2.667
 5885SOL    HW218555   0.391   5.948   2.650
 5886SOL     OW18556   1.099   2.051   4.067
 5886SOL    HW118557   1.126   2.136   4.111
 5886SOL    HW218558   1.147   1.974   4.110
 5887SOL     OW18559   2.621   1.803   1.644
 5887SOL    HW118560   2.552   1.733   1.663
 5887SOL    HW218561   2.629   1.817   1.546
 5888SOL     OW18562   2.351   6.753   1.363
 5888SOL    HW118563   2.369   6.695   1.283
 5888SOL    HW218564   2.435   6.802   1.388
 5889SOL     OW18565   6.255   1.969   6.462
 5889SOL    HW118566   6.193   2.039   6.426
 5889SOL    HW218567   6.205   1.883   6.474
 5890SOL     OW18568   2.418   0.307   2.887
 5890SOL    HW118569   2.497   0.253   2.914
 5890SOL    HW218570   2.335   0.267   2.925
 5891SOL     OW18571   2.390   3.842   0.595
 5891SOL    HW118572   2.320   3.771   0.607
 5891SOL    HW218573   2.354   3.930   0.625
 5892SOL     OW18574   0.317   5.234   1.912
 5892SOL    HW118575   0.343   5.314   1.966
 5892SOL    HW218576   0.392   5.210   1.850
 5893SOL     OW18577   2.110   4.487   1.944
 5893SOL    HW118578   2.202   4.518   1.922
 5893SOL    HW218579   2.104   4.466   2.042
 5894SOL     OW18580   0.910   5.997   4.868
 5894SOL    HW118581   0.861   5.933   4.927
 5894SOL    HW218582   0.981   6.043   4.921
 5895SOL     OW18583   6.095   3.668   3.616
 5895SOL    HW118584   6.192   3.644   3.612
 5895SOL    HW218585   6.044   3.594   3.658
 5896SOL     OW18586   4.784   1.710   1.269
 5896SOL    HW118587   4.725   1.769   1.324
 5896SOL    HW218588   4.879   1.724   1.297
 5897SOL     OW18589   3.885   0.835   1.129
 5897SOL    HW118590   3.866   0.742   1.160
 5897SOL    HW218591   3.976   0.839   1.088
 5898SOL     OW18592   2.631   0.631   5.089
 5898SOL    HW118593   2.566   0.618   5.014
 5898SOL    HW218594   2.658   0.542   5.125
 5899SOL     OW18595   5.687   6.387   6.496
 5899SOL    HW118596   5.652   6.302   6.457
 5899SOL    HW218597   5.612   6.453   6.504
 5900SOL     OW18598   6.806   4.530   3.146
 5900SOL    HW118599   6.721   4.484   3.171
 5900SOL    HW218600   6.801   4.558   3.050
 5901SOL     OW18601   3.231   0.819   1.241
 5901SOL    HW118602   3.327   0.824   1.212
 5901SOL    HW218603   3.227   0.799   1.339
 5902SOL     OW18604   5.552   3.370   5.753
 5902SOL    HW118605   5.636   3.317   5.763
 5902SOL    HW218606   5.569   3.465   5.776
 5903SOL     OW18607   4.450   3.793   6.171
 5903SOL    HW118608   4.522   3.814   6.104
 5903SOL    HW218609   4.361   3.795   6.126
 5904SOL     OW18610   0.947   4.282   1.148
 5904SOL    HW118611   0.911   4.265   1.057
 5904SOL    HW218612   1.012   4.359   1.144
 5905SOL     OW18613   6.678   0.455   3.351
 5905SOL    HW118614   6.694   0.552   3.332
 5905SOL    HW218615   6.690   0.438   3.449
 5906SOL     OW18616   4.783   1.961   4.580
 5906SOL    HW118617   4.863   1.974   4.639
 5906SOL    HW218618   4.765   1.863   4.569
 5907SOL     OW18619   1.128   6.707   0.833
 5907SOL    HW118620   1.144   6.621   0.784
 5907SOL    HW218621   1.188   6.778   0.797
 5908SOL     OW18622   6.685   4.162   6.992
 5908SOL    HW118623   6.780   4.194   6.991
 5908SOL    HW218624   6.626   4.228   6.947
 5909SOL     OW18625   6.174   5.089   6.587
 5909SOL    HW118626   6.149   5.138   6.503
 5909SOL    HW218627   6.126   5.130   6.665
 5910SOL     OW18628   0.434   4.417   1.437
 5910SOL    HW118629   0.365   4.483   1.409
 5910SOL    HW218630   0.520   4.437   1.391
 5911SOL     OW18631   6.437   5.034   6.522
 5911SOL    HW118632   6.469   4.946   6.556
 5911SOL    HW218633   6.338   5.040   6.532
 5912SOL     OW18634   5.916   3.142   6.784
 5912SOL    HW118635   5.958   3.224   6.823
 5912SOL    HW218636   5.944   3.062   6.837
 5913SOL     OW18637   3.595   3.194   6.381
 5913SOL    HW118638   3.557   3.279   6.344
 5913SOL    HW218639   3.541   3.117   6.347
 5914SOL     OW18640   3.026   5.718   6.226
 5914SOL    HW118641   2.966   5.690   6.151
 5914SOL    HW218642   3.060   5.637   6.273
 5915SOL     OW18643   5.887   4.300   1.764
 5915SOL    HW118644   5.937   4.316   1.679
 5915SOL    HW218645   5.817   4.371   1.775
 5916SOL     OW18646   4.022   6.171   5.663
 5916SOL    HW118647   4.067   6.205   5.746
 5916SOL    HW218648   3.976   6.085   5.684
 5917SOL     OW18649   3.558   3.478   4.142
 5917SOL    HW118650   3.487   3.418   4.179
 5917SOL    HW218651   3.643   3.463   4.193
 5918SOL     OW18652   2.341   3.776   5.272
 5918SOL    HW118653   2.426   3.748   5.315
 5918SOL    HW218654   2.350   3.869   5.237
 5919SOL     OW18655   3.448   2.412   0.862
 5919SOL    HW118656   3.520   2.363   0.910
 5919SOL    HW218657   3.403   2.351   0.797
 5920SOL     OW18658   3.511   0.233   0.382
 5920SOL    HW118659   3.528   0.206   0.288
 5920SOL    HW218660   3.494   0.332   0.386
 5921SOL     OW18661   3.353   5.276   5.915
 5921SOL    HW118662   3.439   5.268   5.866
 5921SOL    HW218663   3.368   5.255   6.012
 5922SOL     OW18664   6.724   5.419   3.307
 5922SOL    HW118665   6.651   5.422   3.239
 5922SOL    HW218666   6.684   5.408   3.398
 5923SOL     OW18667   5.156   0.274   1.058
 5923SOL    HW118668   5.120   0.343   0.995
 5923SOL    HW218669   5.256   0.281   1.062
 5924SOL     OW18670   6.582   2.025   5.005
 5924SOL    HW118671   6.634   2.083   4.943
 5924SOL    HW218672   6.491   2.009   4.968
 5925SOL     OW18673   4.308   5.580   3.187
 5925SOL    HW118674   4.296   5.662   3.243
 5925SOL    HW218675   4.242   5.582   3.112
 5926SOL     OW18676   4.154   4.990   2.019
 5926SOL    HW118677   4.059   5.006   2.044
 5926SOL    HW218678   4.205   4.959   2.099
 5927SOL     OW18679   1.654   4.368   3.516
 5927SOL    HW118680   1.633   4.423   3.597
 5927SOL    HW218681   1.734   4.311   3.534
 5928SOL     OW18682   3.287   0.423   1.588
 5928SOL    HW118683   3.324   0.458   1.674
 5928SOL    HW218684   3.341   0.460   1.512
 5929SOL     OW18685   0.677   6.441   5.812
 5929SOL    HW118686   0.609   6.449   5.885
 5929SOL    HW218687   0.684   6.345   5.783
 5930SOL     OW18688   0.026   2.146   3.399
 5930SOL    HW118689   6.971   2.094   3.374
 5930SOL    HW218690   0.096   2.132   3.329
 5931SOL     OW18691   5.981   5.380   3.113
 5931SOL    HW118692   5.981   5.284   3.084
 5931SOL    HW218693   5.992   5.385   3.212
 5932SOL     OW18694   2.326   6.271   1.232
 5932SOL    HW118695   2.281   6.190   1.269
 5932SOL    HW218696   2.416   6.246   1.196
 5933SOL     OW18697   0.619   6.023   3.039
 5933SOL    HW118698   0.697   6.068   3.082
 5933SOL    HW218699   0.555   5.991   3.109
 5934SOL     OW18700   3.813   3.469   4.240
 5934SOL    HW118701   3.906   3.436   4.223
 5934SOL    HW218702   3.810   3.568   4.228
 5935SOL     OW18703   4.248   3.258   5.265
 5935SOL    HW118704   4.323   3.316   5.297
 5935SOL    HW218705   4.212   3.295   5.180
 5936SOL     OW18706   4.085   3.649   0.390
 5936SOL    HW118707   4.185   3.645   0.390
 5936SOL    HW218708   4.052   3.624   0.481
 5937SOL     OW18709   0.692   4.657   2.430
 5937SOL    HW118710   0.662   4.671   2.525
 5937SOL    HW218711   0.620   4.611   2.378
 5938SOL     OW18712   1.252   5.601   3.899
 5938SOL    HW118713   1.171   5.549   3.929
 5938SOL    HW218714   1.231   5.645   3.812
 5939SOL     OW18715   3.563   7.000   3.215
 5939SOL    HW118716   3.523   6.926   3.269
 5939SOL    HW218717   3.606   0.040   3.276
 5940SOL     OW18718   4.348   5.586   1.179
 5940SOL    HW118719   4.380   5.505   1.228
 5940SOL    HW218720   4.312   5.652   1.245
 5941SOL     OW18721   6.474   3.090   1.634
 5941SOL    HW118722   6.392   3.122   1.681
 5941SOL    HW218723   6.546   3.073   1.701
 5942SOL     OW18724   4.595   2.830   6.689
 5942SOL    HW118725   4.569   2.894   6.761
 5942SOL    HW218726   4.679   2.861   6.645
 5943SOL     OW18727   3.229   5.173   1.058
 5943SOL    HW118728   3.277   5.086   1.069
 5943SOL    HW218729   3.225   5.197   0.961
 5944SOL     OW18730   5.926   2.246   1.199
 5944SOL    HW118731   5.996   2.315   1.185
 5944SOL    HW218732   5.934   2.175   1.129
 5945SOL     OW18733   6.407   5.247   5.404
 5945SOL    HW118734   6.440   5.275   5.494
 5945SOL    HW218735   6.483   5.243   5.340
 5946SOL     OW18736   3.055   3.290   6.022
 5946SOL    HW118737   2.976   3.352   6.022
 5946SOL    HW218738   3.082   3.271   5.928
 5947SOL     OW18739   4.153   3.208   2.045
 5947SOL    HW118740   4.237   3.169   2.085
 5947SOL    HW218741   4.115   3.276   2.108
 5948SOL     OW18742   3.807   4.869   3.693
 5948SOL    HW118743   3.866   4.905   3.621
 5948SOL    HW218744   3.762   4.786   3.660
 5949SOL     OW18745   3.761   3.114   1.640
 5949SOL    HW118746   3.801   3.052   1.707
 5949SOL    HW218747   3.763   3.208   1.675
 5950SOL     OW18748   5.057   2.738   5.553
 5950SOL    HW118749   4.960   2.718   5.537
 5950SOL    HW218750   5.113   2.669   5.508
 5951SOL     OW18751   0.263   5.707   4.570
 5951SOL    HW118752   0.166   5.713   4.550
 5951SOL    HW218753   0.295   5.614   4.551
 5952SOL     OW18754   5.738   5.589   3.991
 5952SOL    HW118755   5.665   5.640   4.036
 5952SOL    HW218756   5.797   5.547   4.060
 5953SOL     OW18757   6.619   2.468   5.663
 5953SOL    HW118758   6.708   2.427   5.681
 5953SOL    HW218759   6.597   2.458   5.566
 5954SOL     OW18760   0.096   4.350   5.745
 5954SOL    HW118761   0.040   4.298   5.681
 5954SOL    HW218762   0.150   4.418   5.694
 5955SOL     OW18763   4.824   5.707   2.444
 5955SOL    HW118764   4.872   5.629   2.484
 5955SOL    HW218765   4.888   5.763   2.392
 5956SOL     OW18766   3.651   1.703   6.393
 5956SOL    HW118767   3.614   1.610   6.387
 5956SOL    HW218768   3.636   1.739   6.485
 5957SOL     OW18769   4.440   0.514   5.959
 5957SOL    HW118770   4.455   0.479   5.867
 5957SOL    HW218771   4.518   0.569   5.987
 5958SOL     OW18772   6.454   5.959   2.410
 5958SOL    HW118773   6.360   5.967   2.377
 5958SOL    HW218774   6.496   5.877   2.371
 5959SOL     OW18775   3.830   1.979   5.333
 5959SOL    HW118776   3.846   1.896   5.388
 5959SOL    HW218777   3.876   2.056   5.375
 5960SOL     OW18778   4.293   6.309   4.887
 5960SOL    HW118779   4.291   6.249   4.807
 5960SOL    HW218780   4.253   6.398   4.864
 5961SOL     OW18781   5.220   1.498   3.326
 5961SOL    HW118782   5.140   1.482   3.269
 5961SOL    HW218783   5.233   1.422   3.389
 5962SOL     OW18784   4.414   5.892   1.112
 5962SOL    HW118785   4.436   5.797   1.133
 5962SOL    HW218786   4.496   5.948   1.123
 5963SOL     OW18787   3.443   2.988   4.541
 5963SOL    HW118788   3.533   2.962   4.577
 5963SOL    HW218789   3.447   2.989   4.441
 5964SOL     OW18790   0.502   5.284   5.365
 5964SOL    HW118791   0.482   5.233   5.283
 5964SOL    HW218792   0.589   5.253   5.404
 5965SOL     OW18793   1.382   2.403   6.847
 5965SOL    HW118794   1.410   2.497   6.825
 5965SOL    HW218795   1.423   2.375   6.934
 5966SOL     OW18796   2.283   5.855   4.994
 5966SOL    HW118797   2.200   5.807   5.024
 5966SOL    HW218798   2.262   5.951   4.978
 5967SOL     OW18799   3.992   6.053   0.688
 5967SOL    HW118800   4.080   6.076   0.729
 5967SOL    HW218801   4.005   5.984   0.617
 5968SOL     OW18802   4.660   1.035   2.165
 5968SOL    HW118803   4.628   1.032   2.260
 5968SOL    HW218804   4.590   0.998   2.105
 5969SOL     OW18805   6.734   0.385   6.502
 5969SOL    HW118806   6.710   0.371   6.597
 5969SOL    HW218807   6.798   0.462   6.494
 5970SOL     OW18808   0.849   3.971   2.566
 5970SOL    HW118809   0.899   3.994   2.650
 5970SOL    HW218810   0.752   3.990   2.578
 5971SOL     OW18811   1.742   1.292   3.411
 5971SOL    HW118812   1.734   1.282   3.312
 5971SOL    HW218813   1.661   1.254   3.455
 5972SOL     OW18814   5.349   6.977   0.014
 5972SOL    HW118815   5.272   0.009   7.022
 5972SOL    HW218816   5.366   6.975   0.113
 5973SOL     OW18817   1.740   4.411   2.171
 5973SOL    HW118818   1.831   4.442   2.200
 5973SOL    HW218819   1.705   4.473   2.102
 5974SOL     OW18820   5.465   4.316   6.658
 5974SOL    HW118821   5.547   4.318   6.600
 5974SOL    HW218822   5.421   4.227   6.651
 5975SOL     OW18823   3.225   1.639   0.871
 5975SOL    HW118824   3.188   1.698   0.942
 5975SOL    HW218825   3.216   1.543   0.898
 5976SOL     OW18826   3.264   3.728   5.046
 5976SOL    HW118827   3.337   3.781   5.090
 5976SOL    HW218828   3.176   3.767   5.072
 5977SOL     OW18829   1.755   4.695   1.155
 5977SOL    HW118830   1.811   4.724   1.077
 5977SOL    HW218831   1.801   4.721   1.240
 5978SOL     OW18832   4.870   5.876   3.586
 5978SOL    HW118833   4.949   5.835   3.539
 5978SOL    HW218834   4.786   5.849   3.538
 5979SOL     OW18835   6.605   6.873   2.832
 5979SOL    HW118836   6.520   6.925   2.844
 5979SOL    HW218837   6.584   6.775   2.831
 5980SOL     OW18838   3.881   3.512   0.268
 5980SOL    HW118839   3.961   3.570   0.283
 5980SOL    HW218840   3.877   3.485   0.172
 5981SOL     OW18841   6.367   0.776   2.734
 5981SOL    HW118842   6.352   0.737   2.825
 5981SOL    HW218843   6.279   0.789   2.688
 5982SOL     OW18844   6.424   2.679   0.595
 5982SOL    HW118845   6.482   2.710   0.670
 5982SOL    HW218846   6.426   2.746   0.521
 5983SOL     OW18847   1.394   0.784   4.595
 5983SOL    HW118848   1.377   0.746   4.686
 5983SOL    HW218849   1.442   0.871   4.603
 5984SOL     OW18850   6.687   6.591   5.052
 5984SOL    HW118851   6.657   6.673   5.101
 5984SOL    HW218852   6.768   6.554   5.097
 5985SOL     OW18853   6.457   3.452   3.948
 5985SOL    HW118854   6.465   3.472   4.045
 5985SOL    HW218855   6.363   3.425   3.926
 5986SOL     OW18856   3.538   3.588   4.420
 5986SOL    HW118857   3.565   3.625   4.331
 5986SOL    HW218858   3.560   3.491   4.424
 5987SOL     OW18859   4.413   0.844   5.183
 5987SOL    HW118860   4.449   0.910   5.117
 5987SOL    HW218861   4.465   0.759   5.177
 5988SOL     OW18862   4.662   6.777   5.276
 5988SOL    HW118863   4.612   6.720   5.211
 5988SOL    HW218864   4.635   6.873   5.265
 5989SOL     OW18865   2.976   5.536   0.471
 5989SOL    HW118866   3.052   5.589   0.435
 5989SOL    HW218867   2.924   5.496   0.396
 5990SOL     OW18868   4.194   4.404   0.631
 5990SOL    HW118869   4.182   4.438   0.537
 5990SOL    HW218870   4.275   4.345   0.635
 5991SOL     OW18871   3.880   5.479   5.601
 5991SOL    HW118872   3.914   5.517   5.515
 5991SOL    HW218873   3.957   5.460   5.662
 5992SOL     OW18874   3.508   0.526   3.739
 5992SOL    HW118875   3.440   0.452   3.739
 5992SOL    HW218876   3.545   0.537   3.647
 5993SOL     OW18877   3.154   6.268   5.462
 5993SOL    HW118878   3.193   6.314   5.542
 5993SOL    HW218879   3.227   6.225   5.409
 5994SOL     OW18880   6.338   2.217   1.718
 5994SOL    HW118881   6.387   2.301   1.697
 5994SOL    HW218882   6.397   2.138   1.700
 5995SOL     OW18883   5.847   4.893   2.653
 5995SOL    HW118884   5.878   4.833   2.579
 5995SOL    HW218885   5.754   4.925   2.633
 5996SOL     OW18886   0.870   5.970   0.846
 5996SOL    HW118887   0.892   5.905   0.918
 5996SOL    HW218888   0.948   5.979   0.783
 5997SOL     OW18889   1.211   6.204   3.055
 5997SOL    HW118890   1.166   6.291   3.072
 5997SOL    HW218891   1.145   6.138   3.019
 5998SOL     OW18892   6.258   1.774   1.522
 5998SOL    HW118893   6.182   1.798   1.582
 5998SOL    HW218894   6.338   1.829   1.547
 5999SOL     OW18895   1.666   1.950   2.753
 5999SOL    HW118896   1.661   1.902   2.840
 5999SOL    HW218897   1.662   1.884   2.678
 6000SOL     OW18898   3.959   6.793   1.920
 6000SOL    HW118899   3.987   6.887   1.900
 6000SOL    HW218900   3.888   6.765   1.856
 6001SOL     OW18901   0.810   4.156   6.408
 6001SOL    HW118902   0.906   4.182   6.414
 6001SOL    HW218903   0.784   4.104   6.490
 6002SOL     OW18904   6.710   0.339   0.825
 6002SOL    HW118905   6.685   0.351   0.921
 6002SOL    HW218906   6.809   0.322   0.818
 6003SOL     OW18907   6.987   2.199   4.499
 6003SOL    HW118908   6.984   2.193   4.598
 6003SOL    HW218909   6.914   2.143   4.460
 6004SOL     OW18910   0.259   4.411   3.073
 6004SOL    HW118911   0.220   4.497   3.105
 6004SOL    HW218912   0.200   4.335   3.100
 6005SOL     OW18913   5.062   5.394   4.697
 6005SOL    HW118914   5.042   5.415   4.601
 6005SOL    HW218915   5.159   5.374   4.707
 6006SOL     OW18916   2.969   0.305   6.705
 6006SOL    HW118917   3.001   0.362   6.781
 6006SOL    HW218918   3.046   0.260   6.661
 6007SOL     OW18919   4.886   3.705   4.648
 6007SOL    HW118920   4.845   3.779   4.702
 6007SOL    HW218921   4.902   3.626   4.707
 6008SOL     OW18922   2.471   5.505   5.797
 6008SOL    HW118923   2.515   5.425   5.838
 6008SOL    HW218924   2.457   5.489   5.699
 6009SOL     OW18925   4.310   1.198   4.790
 6009SOL    HW118926   4.232   1.239   4.743
 6009SOL    HW218927   4.293   1.196   4.889
 6010SOL     OW18928   1.261   4.067   3.462
 6010SOL    HW118929   1.345   4.100   3.507
 6010SOL    HW218930   1.263   3.968   3.456
 6011SOL     OW18931   4.563   2.618   2.888
 6011SOL    HW118932   4.536   2.567   2.806
 6011SOL    HW218933   4.509   2.586   2.966
 6012SOL     OW18934   5.924   1.350   0.134
 6012SOL    HW118935   5.847   1.289   0.150
 6012SOL    HW218936   5.996   1.302   0.084
 6013SOL     OW18937   5.913   2.368   2.597
 6013SOL    HW118938   5.967   2.449   2.573
 6013SOL    HW218939   5.970   2.286   2.589
 6014SOL     OW18940   4.238   2.707   0.628
 6014SOL    HW118941   4.283   2.626   0.590
 6014SOL    HW218942   4.161   2.680   0.685
 6015SOL     OW18943   5.538   1.969   5.081
 6015SOL    HW118944   5.446   1.930   5.093
 6015SOL    HW218945   5.550   2.046   5.142
 6016SOL     OW18946   0.145   1.388   6.381
 6016SOL    HW118947   0.052   1.371   6.346
 6016SOL    HW218948   0.203   1.310   6.358
 6017SOL     OW18949   6.856   4.367   2.764
 6017SOL    HW118950   6.928   4.399   2.825
 6017SOL    HW218951   6.767   4.371   2.811
 6018SOL     OW18952   3.468   1.288   0.007
 6018SOL    HW118953   3.525   1.370   0.015
 6018SOL    HW218954   3.518   1.218   6.984
 6019SOL     OW18955   6.679   1.674   4.104
 6019SOL    HW118956   6.611   1.728   4.154
 6019SOL    HW218957   6.756   1.733   4.078
 6020SOL     OW18958   2.308   5.063   1.780
 6020SOL    HW118959   2.261   5.006   1.847
 6020SOL    HW218960   2.245   5.132   1.744
 6021SOL     OW18961   3.923   1.135   2.602
 6021SOL    HW118962   3.841   1.159   2.550
 6021SOL    HW218963   3.989   1.210   2.596
 6022SOL     OW18964   4.764   1.307   4.737
 6022SOL    HW118965   4.846   1.257   4.710
 6022SOL    HW218966   4.784   1.363   4.817
 6023SOL     OW18967   5.933   1.273   2.256
 6023SOL    HW118968   5.873   1.353   2.262
 6023SOL    HW218969   5.890   1.205   2.196
 6024SOL     OW18970   0.563   4.443   3.403
 6024SOL    HW118971   0.617   4.401   3.329
 6024SOL    HW218972   0.599   4.533   3.424
 6025SOL     OW18973   3.603   1.535   2.278
 6025SOL    HW118974   3.673   1.507   2.212
 6025SOL    HW218975   3.543   1.604   2.236
 6026SOL     OW18976   0.112   4.497   4.608
 6026SOL    HW118977   0.162   4.477   4.523
 6026SOL    HW218978   0.156   4.573   4.655
 6027SOL     OW18979   1.406   3.816   5.787
 6027SOL    HW118980   1.390   3.887   5.718
 6027SOL    HW218981   1.391   3.854   5.878
 6028SOL     OW18982   0.978   3.940   0.351
 6028SOL    HW118983   0.972   3.860   0.411
 6028SOL    HW218984   1.019   3.914   0.264
 6029SOL     OW18985   1.882   6.585   4.830
 6029SOL    HW118986   1.789   6.554   4.811
 6029SOL    HW218987   1.911   6.552   4.920
 6030SOL     OW18988   3.749   6.405   3.351
 6030SOL    HW118989   3.749   6.493   3.305
 6030SOL    HW218990   3.770   6.418   3.448
 6031SOL     OW18991   3.395   5.000   4.004
 6031SOL    HW118992   3.487   4.967   3.985
 6031SOL    HW218993   3.341   4.999   3.919
 6032SOL     OW18994   2.019   3.635   3.412
 6032SOL    HW118995   1.943   3.579   3.378
 6032SOL    HW218996   2.082   3.578   3.463
 6033SOL     OW18997   3.267   1.717   2.438
 6033SOL    HW118998   3.362   1.746   2.450
 6033SOL    HW218999   3.265   1.627   2.394
 6034SOL     OW19000   1.560   5.771   4.811
 6034SOL    HW119001   1.601   5.820   4.887
 6034SOL    HW219002   1.573   5.822   4.726
 6035SOL     OW19003   0.408   0.497   2.915
 6035SOL    HW119004   0.401   0.428   2.987
 6035SOL    HW219005   0.439   0.453   2.830
 6036SOL     OW19006   6.524   6.439   4.098
 6036SOL    HW119007   6.516   6.525   4.149
 6036SOL    HW219008   6.540   6.364   4.162
 6037SOL     OW19009   4.209   4.622   5.736
 6037SOL    HW119010   4.229   4.713   5.773
 6037SOL    HW219011   4.285   4.592   5.678
 6038SOL     OW19012   1.410   2.746   6.267
 6038SOL    HW119013   1.316   2.734   6.298
 6038SOL    HW219014   1.470   2.682   6.315
 6039SOL     OW19015   3.389   2.915   2.554
 6039SOL    HW119016   3.364   2.821   2.529
 6039SOL    HW219017   3.488   2.920   2.566
 6040SOL     OW19018   0.435   2.428   6.560
 6040SOL    HW119019   0.341   2.450   6.584
 6040SOL    HW219020   0.460   2.475   6.475
 6041SOL     OW19021   2.074   0.339   4.743
 6041SOL    HW119022   2.035   0.400   4.674
 6041SOL    HW219023   2.132   0.271   4.699
 6042SOL     OW19024   5.307   5.770   2.348
 6042SOL    HW119025   5.342   5.810   2.433
 6042SOL    HW219026   5.365   5.694   2.320
 6043SOL     OW19027   0.937   4.247   5.555
 6043SOL    HW119028   0.896   4.311   5.491
 6043SOL    HW219029   1.026   4.281   5.584
 6044SOL     OW19030   1.662   2.591   1.606
 6044SOL    HW119031   1.750   2.585   1.651
 6044SOL    HW219032   1.649   2.684   1.570
 6045SOL     OW19033   6.007   5.390   1.331
 6045SOL    HW119034   5.941   5.437   1.272
 6045SOL    HW219035   6.094   5.381   1.284
 6046SOL     OW19036   3.167   1.879   0.026
 6046SOL    HW119037   3.070   1.875   7.027
 6046SOL    HW219038   3.224   1.846   6.978
 6047SOL     OW19039   6.244   2.334   2.192
 6047SOL    HW119040   6.147   2.348   2.210
 6047SOL    HW219041   6.255   2.290   2.103
 6048SOL     OW19042   4.306   6.293   3.731
 6048SOL    HW119043   4.331   6.355   3.656
 6048SOL    HW219044   4.353   6.206   3.719
 6049SOL     OW19045   5.858   3.562   5.525
 6049SOL    HW119046   5.835   3.656   5.549
 6049SOL    HW219047   5.929   3.528   5.587
 6050SOL     OW19048   3.266   4.704   5.235
 6050SOL    HW119049   3.313   4.790   5.255
 6050SOL    HW219050   3.171   4.723   5.210
 6051SOL     OW19051   1.737   1.598   4.346
 6051SOL    HW119052   1.767   1.655   4.423
 6051SOL    HW219053   1.639   1.613   4.330
 6052SOL     OW19054   6.218   6.266   0.343
 6052SOL    HW119055   6.284   6.266   0.268
 6052SOL    HW219056   6.126   6.251   0.306
 6053SOL     OW19057   3.075   0.843   6.039
 6053SOL    HW119058   2.998   0.900   6.069
 6053SOL    HW219059   3.045   0.749   6.027
 6054SOL     OW19060   2.854   4.173   0.563
 6054SOL    HW119061   2.933   4.138   0.613
 6054SOL    HW219062   2.820   4.104   0.500
 6055SOL     OW19063   5.417   1.572   5.696
 6055SOL    HW119064   5.490   1.512   5.730
 6055SOL    HW219065   5.386   1.631   5.770
 6056SOL     OW19066   5.063   3.210   4.803
 6056SOL    HW119067   5.056   3.281   4.733
 6056SOL    HW219068   5.090   3.252   4.890
 6057SOL     OW19069   5.193   2.990   4.438
 6057SOL    HW119070   5.238   2.942   4.363
 6057SOL    HW219071   5.256   2.997   4.515
 6058SOL     OW19072   5.227   3.027   2.045
 6058SOL    HW119073   5.223   2.938   2.090
 6058SOL    HW219074   5.134   3.058   2.025
 6059SOL     OW19075   4.543   5.749   5.088
 6059SOL    HW119076   4.466   5.686   5.102
 6059SOL    HW219077   4.627   5.696   5.074
 6060SOL     OW19078   3.085   4.210   6.378
 6060SOL    HW119079   3.149   4.275   6.420
 6060SOL    HW219080   3.079   4.227   6.280
 6061SOL     OW19081   4.399   1.813   1.242
 6061SOL    HW119082   4.358   1.744   1.184
 6061SOL    HW219083   4.341   1.828   1.323
 6062SOL     OW19084   1.616   1.424   4.795
 6062SOL    HW119085   1.585   1.357   4.863
 6062SOL    HW219086   1.599   1.388   4.703
 6063SOL     OW19087   3.600   1.469   6.592
 6063SOL    HW119088   3.546   1.535   6.644
 6063SOL    HW219089   3.539   1.403   6.548
 6064SOL     OW19090   2.573   5.981   2.001
 6064SOL    HW119091   2.494   6.042   1.995
 6064SOL    HW219092   2.650   6.020   1.951
 6065SOL     OW19093   5.893   6.857   1.737
 6065SOL    HW119094   5.905   6.821   1.644
 6065SOL    HW219095   5.808   6.910   1.741
 6066SOL     OW19096   4.496   1.658   0.032
 6066SOL    HW119097   4.405   1.677   0.069
 6066SOL    HW219098   4.487   1.616   6.969
 6067SOL     OW19099   5.571   2.007   6.502
 6067SOL    HW119100   5.602   2.093   6.460
 6067SOL    HW219101   5.615   1.996   6.591
 6068SOL     OW19102   5.620   2.853   4.516
 6068SOL    HW119103   5.649   2.847   4.611
 6068SOL    HW219104   5.658   2.776   4.464
 6069SOL     OW19105   0.057   3.306   5.111
 6069SOL    HW119106   0.152   3.295   5.082
 6069SOL    HW219107   0.021   3.392   5.076
 6070SOL     OW19108   2.456   1.570   6.473
 6070SOL    HW119109   2.412   1.586   6.385
 6070SOL    HW219110   2.555   1.568   6.461
 6071SOL     OW19111   5.480   4.883   4.434
 6071SOL    HW119112   5.424   4.919   4.509
 6071SOL    HW219113   5.438   4.799   4.399
 6072SOL     OW19114   6.817   0.260   2.766
 6072SOL    HW119115   6.870   0.293   2.688
 6072SOL    HW219116   6.862   0.289   2.851
 6073SOL     OW19117   6.378   4.111   7.026
 6073SOL    HW119118   6.404   4.032   6.970
 6073SOL    HW219119   6.460   4.161   0.026
 6074SOL     OW19120   0.938   6.584   4.267
 6074SOL    HW119121   0.906   6.564   4.359
 6074SOL    HW219122   0.861   6.616   4.211
 6075SOL     OW19123   6.853   2.075   6.957
 6075SOL    HW119124   6.897   2.003   7.011
 6075SOL    HW219125   6.860   2.053   6.860
 6076SOL     OW19126   2.851   5.836   4.844
 6076SOL    HW119127   2.893   5.751   4.875
 6076SOL    HW219128   2.829   5.829   4.747
 6077SOL     OW19129   4.310   5.894   2.077
 6077SOL    HW119130   4.299   5.831   2.154
 6077SOL    HW219131   4.235   5.960   2.077
 6078SOL     OW19132   3.891   4.793   1.791
 6078SOL    HW119133   3.938   4.831   1.871
 6078SOL    HW219134   3.817   4.733   1.821
 6079SOL     OW19135   3.431   2.962   6.322
 6079SOL    HW119136   3.365   2.975   6.396
 6079SOL    HW219137   3.396   2.894   6.257
 6080SOL     OW19138   6.649   1.147   1.802
 6080SOL    HW119139   6.618   1.144   1.897
 6080SOL    HW219140   6.702   1.065   1.781
 6081SOL     OW19141   6.127   3.066   4.829
 6081SOL    HW119142   6.181   3.132   4.881
 6081SOL    HW219143   6.103   3.105   4.740
 6082SOL     OW19144   2.704   1.612   3.099
 6082SOL    HW119145   2.737   1.643   3.189
 6082SOL    HW219146   2.760   1.653   3.027
 6083SOL     OW19147   0.766   5.463   5.977
 6083SOL    HW119148   0.693   5.515   6.021
 6083SOL    HW219149   0.735   5.369   5.960
 6084SOL     OW19150   0.241   5.684   3.684
 6084SOL    HW119151   0.144   5.709   3.685
 6084SOL    HW219152   0.287   5.730   3.609
 6085SOL     OW19153   0.533   4.216   0.143
 6085SOL    HW119154   0.572   4.253   0.227
 6085SOL    HW219155   0.532   4.287   0.073
 6086SOL     OW19156   2.886   1.326   5.231
 6086SOL    HW119157   2.822   1.318   5.154
 6086SOL    HW219158   2.978   1.303   5.200
 6087SOL     OW19159   4.222   5.514   0.277
 6087SOL    HW119160   4.271   5.429   0.261
 6087SOL    HW219161   4.233   5.574   0.198
 6088SOL     OW19162   5.795   6.743   4.654
 6088SOL    HW119163   5.729   6.672   4.632
 6088SOL    HW219164   5.757   6.804   4.724
 6089SOL     OW19165   0.160   3.199   1.530
 6089SOL    HW119166   0.133   3.112   1.488
 6089SOL    HW219167   0.191   3.262   1.459
 6090SOL     OW19168   1.914   6.430   6.180
 6090SOL    HW119169   1.914   6.452   6.083
 6090SOL    HW219170   1.953   6.507   6.231
 6091SOL     OW19171   2.074   1.877   2.316
 6091SOL    HW119172   2.124   1.832   2.241
 6091SOL    HW219173   2.088   1.975   2.310
 6092SOL     OW19174   2.728   0.639   3.548
 6092SOL    HW119175   2.660   0.678   3.487
 6092SOL    HW219176   2.696   0.550   3.582
 6093SOL     OW19177   1.084   2.821   2.666
 6093SOL    HW119178   1.178   2.813   2.697
 6093SOL    HW219179   1.062   2.917   2.651
 6094SOL     OW19180   3.952   0.525   0.670
 6094SOL    HW119181   3.900   0.535   0.755
 6094SOL    HW219182   3.897   0.474   0.603
 6095SOL     OW19183   4.256   3.475   6.751
 6095SOL    HW119184   4.303   3.522   6.677
 6095SOL    HW219185   4.239   3.380   6.724
 6096SOL     OW19186   5.811   0.295   3.684
 6096SOL    HW119187   5.829   0.349   3.601
 6096SOL    HW219188   5.867   0.330   3.759
 6097SOL     OW19189   1.602   0.379   2.085
 6097SOL    HW119190   1.559   0.438   2.017
 6097SOL    HW219191   1.532   0.343   2.147
 6098SOL     OW19192   1.175   2.021   6.327
 6098SOL    HW119193   1.274   2.009   6.323
 6098SOL    HW219194   1.139   2.035   6.235
 6099SOL     OW19195   0.219   5.925   0.357
 6099SOL    HW119196   0.241   5.979   0.276
 6099SOL    HW219197   0.284   5.946   0.430
 6100SOL     OW19198   4.600   3.306   6.882
 6100SOL    HW119199   4.537   3.381   6.900
 6100SOL    HW219200   4.692   3.343   6.866
 6101SOL     OW19201   6.257   1.826   5.188
 6101SOL    HW119202   6.189   1.887   5.229
 6101SOL    HW219203   6.349   1.862   5.204
 6102SOL     OW19204   3.560   0.775   4.090
 6102SOL    HW119205   3.526   0.760   4.183
 6102SOL    HW219206   3.651   0.816   4.094
 6103SOL     OW19207   0.547   2.218   2.903
 6103SOL    HW119208   0.485   2.164   2.846
 6103SOL    HW219209   0.593   2.287   2.846
 6104SOL     OW19210   6.166   2.433   5.804
 6104SOL    HW119211   6.166   2.513   5.744
 6104SOL    HW219212   6.120   2.455   5.890
 6105SOL     OW19213   2.177   0.336   5.683
 6105SOL    HW119214   2.167   0.432   5.706
 6105SOL    HW219215   2.114   0.312   5.609
 6106SOL     OW19216   1.512   3.834   5.450
 6106SOL    HW119217   1.567   3.829   5.534
 6106SOL    HW219218   1.465   3.747   5.436
 6107SOL     OW19219   2.419   4.441   4.638
 6107SOL    HW119220   2.465   4.429   4.550
 6107SOL    HW219221   2.366   4.358   4.659
 6108SOL     OW19222   0.776   2.676   2.765
 6108SOL    HW119223   0.685   2.641   2.743
 6108SOL    HW219224   0.826   2.693   2.680
 6109SOL     OW19225   4.989   3.057   6.306
 6109SOL    HW119226   5.062   3.114   6.267
 6109SOL    HW219227   4.999   2.963   6.274
 6110SOL     OW19228   3.846   2.731   0.014
 6110SOL    HW119229   3.776   2.661   0.031
 6110SOL    HW219230   3.927   2.710   0.068
 6111SOL     OW19231   1.657   4.462   2.497
 6111SOL    HW119232   1.669   4.431   2.403
 6111SOL    HW219233   1.574   4.420   2.535
 6112SOL     OW19234   3.433   0.775   3.826
 6112SOL    HW119235   3.495   0.748   3.900
 6112SOL    HW219236   3.423   0.700   3.761
 6113SOL     OW19237   0.805   1.308   5.757
 6113SOL    HW119238   0.858   1.234   5.798
 6113SOL    HW219239   0.719   1.320   5.807
 6114SOL     OW19240   5.101   4.669   0.936
 6114SOL    HW119241   5.102   4.760   0.977
 6114SOL    HW219242   5.194   4.636   0.924
 6115SOL     OW19243   5.499   6.184   3.141
 6115SOL    HW119244   5.470   6.276   3.168
 6115SOL    HW219245   5.598   6.176   3.152
 6116SOL     OW19246   2.873   1.240   0.860
 6116SOL    HW119247   2.867   1.141   0.844
 6116SOL    HW219248   2.862   1.288   0.773
 6117SOL     OW19249   6.227   0.481   6.074
 6117SOL    HW119250   6.268   0.536   6.001
 6117SOL    HW219251   6.254   0.385   6.064
 6118SOL     OW19252   0.019   0.333   1.452
 6118SOL    HW119253   0.062   0.423   1.445
 6118SOL    HW219254   0.018   0.303   1.547
 6119SOL     OW19255   0.665   3.788   4.574
 6119SOL    HW119256   0.746   3.801   4.518
 6119SOL    HW219257   0.607   3.869   4.568
 6120SOL     OW19258   4.432   6.971   3.519
 6120SOL    HW119259   4.465   6.981   3.612
 6120SOL    HW219260   4.405   0.033   3.483
 6121SOL     OW19261   0.095   3.225   4.703
 6121SOL    HW119262   0.051   3.147   4.748
 6121SOL    HW219263   0.113   3.202   4.607
 6122SOL     OW19264   3.774   6.745   1.707
 6122SOL    HW119265   3.707   6.721   1.777
 6122SOL    HW219266   3.731   6.738   1.616
 6123SOL     OW19267   6.568   0.122   6.630
 6123SOL    HW119268   6.537   0.214   6.655
 6123SOL    HW219269   6.591   0.071   6.712
 6124SOL     OW19270   2.474   0.825   6.281
 6124SOL    HW119271   2.572   0.804   6.281
 6124SOL    HW219272   2.449   0.864   6.370
 6125SOL     OW19273   3.329   5.595   0.402
 6125SOL    HW119274   3.308   5.545   0.487
 6125SOL    HW219275   3.383   5.676   0.424
 6126SOL     OW19276   6.699   6.891   3.848
 6126SOL    HW119277   6.738   6.811   3.893
 6126SOL    HW219278   6.623   6.926   3.903
 6127SOL     OW19279   2.559   0.367   2.629
 6127SOL    HW119280   2.626   0.297   2.654
 6127SOL    HW219281   2.550   0.433   2.703
 6128SOL     OW19282   6.530   3.796   0.640
 6128SOL    HW119283   6.463   3.722   0.641
 6128SOL    HW219284   6.487   3.880   0.609
 6129SOL     OW19285   6.185   4.222   3.361
 6129SOL    HW119286   6.261   4.241   3.423
 6129SOL    HW219287   6.194   4.128   3.327
 6130SOL     OW19288   6.383   1.814   3.928
 6130SOL    HW119289   6.387   1.796   4.026
 6130SOL    HW219290   6.447   1.754   3.881
 6131SOL     OW19291   6.452   1.276   5.227
 6131SOL    HW119292   6.380   1.231   5.279
 6131SOL    HW219293   6.440   1.256   5.130
 6132SOL     OW19294   5.137   1.517   0.174
 6132SOL    HW119295   5.188   1.480   0.252
 6132SOL    HW219296   5.049   1.554   0.207
 6133SOL     OW19297   1.136   2.375   2.747
 6133SOL    HW119298   1.192   2.299   2.779
 6133SOL    HW219299   1.154   2.456   2.802
 6134SOL     OW19300   3.966   4.424   6.894
 6134SOL    HW119301   3.974   4.326   6.877
 6134SOL    HW219302   3.871   4.452   6.880
 6135SOL     OW19303   0.428   6.986   1.623
 6135SOL    HW119304   0.511   7.005   1.676
 6135SOL    HW219305   0.352   0.011   1.660
 6136SOL     OW19306   1.111   2.758   1.818
 6136SOL    HW119307   1.154   2.667   1.828
 6136SOL    HW219308   1.160   2.824   1.875
 6137SOL     OW19309   5.760   1.652   4.456
 6137SOL    HW119310   5.718   1.692   4.538
 6137SOL    HW219311   5.857   1.637   4.472
 6138SOL     OW19312   4.228   6.301   2.457
 6138SOL    HW119313   4.324   6.316   2.481
 6138SOL    HW219314   4.179   6.388   2.461
 6139SOL     OW19315   1.858   2.517   4.886
 6139SOL    HW119316   1.862   2.611   4.920
 6139SOL    HW219317   1.925   2.461   4.936
 6140SOL     OW19318   0.234   6.071   2.010
 6140SOL    HW119319   0.242   5.976   1.982
 6140SOL    HW219320   0.277   6.083   2.100
 6141SOL     OW19321   5.570   5.950   5.506
 6141SOL    HW119322   5.509   6.020   5.467
 6141SOL    HW219323   5.524   5.861   5.504
 6142SOL     OW19324   6.737   5.319   0.622
 6142SOL    HW119325   6.666   5.388   0.632
 6142SOL    HW219326   6.737   5.260   0.703
 6143SOL     OW19327   6.136   5.112   0.309
 6143SOL    HW119328   6.196   5.185   0.278
 6143SOL    HW219329   6.041   5.139   0.295
 6144SOL     OW19330   6.042   4.836   2.348
 6144SOL    HW119331   5.975   4.784   2.400
 6144SOL    HW219332   6.006   4.927   2.328
 6145SOL     OW19333   4.797   5.713   4.405
 6145SOL    HW119334   4.739   5.655   4.464
 6145SOL    HW219335   4.743   5.744   4.327
 6146SOL     OW19336   3.837   1.418   3.673
 6146SOL    HW119337   3.896   1.478   3.727
 6146SOL    HW219338   3.793   1.351   3.732
 6147SOL     OW19339   1.129   3.869   4.145
 6147SOL    HW119340   1.208   3.903   4.094
 6147SOL    HW219341   1.046   3.913   4.113
 6148SOL     OW19342   0.017   0.035   4.677
 6148SOL    HW119343   0.005   0.120   4.625
 6148SOL    HW219344   6.958   7.013   4.680
 6149SOL     OW19345   3.622   5.204   2.780
 6149SOL    HW119346   3.592   5.289   2.822
 6149SOL    HW219347   3.668   5.224   2.693
 6150SOL     OW19348   3.614   4.770   6.921
 6150SOL    HW119349   3.516   4.780   6.900
 6150SOL    HW219350   3.642   4.846   6.980
 6151SOL     OW19351   6.003   3.898   5.090
 6151SOL    HW119352   6.023   3.932   4.998
 6151SOL    HW219353   6.083   3.851   5.126
 6152SOL     OW19354   5.934   5.411   5.435
 6152SOL    HW119355   5.920   5.338   5.502
 6152SOL    HW219356   6.028   5.443   5.438
 6153SOL     OW19357   4.871   3.598   1.754
 6153SOL    HW119358   4.777   3.563   1.755
 6153SOL    HW219359   4.870   3.697   1.766
 6154SOL     OW19360   6.138   1.458   2.927
 6154SOL    HW119361   6.118   1.556   2.925
 6154SOL    HW219362   6.072   1.412   2.987
 6155SOL     OW19363   1.849   2.073   4.447
 6155SOL    HW119364   1.819   2.131   4.523
 6155SOL    HW219365   1.937   2.031   4.469
 6156SOL     OW19366   4.715   4.709   2.572
 6156SOL    HW119367   4.782   4.645   2.534
 6156SOL    HW219368   4.634   4.659   2.603
 6157SOL     OW19369   1.342   1.586   4.505
 6157SOL    HW119370   1.255   1.630   4.483
 6157SOL    HW219371   1.378   1.542   4.423
 6158SOL     OW19372   4.669   0.874   5.585
 6158SOL    HW119373   4.639   0.919   5.501
 6158SOL    HW219374   4.599   0.886   5.656
 6159SOL     OW19375   4.709   2.389   1.268
 6159SOL    HW119376   4.762   2.426   1.193
 6159SOL    HW219377   4.755   2.408   1.355
 6160SOL     OW19378   4.818   6.706   6.764
 6160SOL    HW119379   4.836   6.730   6.669
 6160SOL    HW219380   4.875   6.762   6.824
 6161SOL     OW19381   6.195   1.648   5.398
 6161SOL    HW119382   6.227   1.704   5.321
 6161SOL    HW219383   6.099   1.625   5.384
 6162SOL     OW19384   1.122   6.025   3.705
 6162SOL    HW119385   1.143   5.927   3.704
 6162SOL    HW219386   1.054   6.043   3.776
 6163SOL     OW19387   5.361   6.322   1.576
 6163SOL    HW119388   5.453   6.332   1.538
 6163SOL    HW219389   5.310   6.254   1.523
 6164SOL     OW19390   2.745   3.190   1.706
 6164SOL    HW119391   2.716   3.155   1.616
 6164SOL    HW219392   2.677   3.256   1.739
 6165SOL     OW19393   4.472   0.118   6.213
 6165SOL    HW119394   4.455   0.098   6.116
 6165SOL    HW219395   4.404   0.071   6.269
 6166SOL     OW19396   3.780   1.002   6.159
 6166SOL    HW119397   3.866   1.030   6.203
 6166SOL    HW219398   3.796   0.988   6.061
 6167SOL     OW19399   0.958   4.582   2.474
 6167SOL    HW119400   1.035   4.626   2.428
 6167SOL    HW219401   0.874   4.631   2.452
 6168SOL     OW19402   0.630   3.251   0.877
 6168SOL    HW119403   0.617   3.172   0.817
 6168SOL    HW219404   0.577   3.240   0.960
 6169SOL     OW19405   1.268   3.065   1.760
 6169SOL    HW119406   1.299   2.997   1.694
 6169SOL    HW219407   1.241   3.148   1.712
 6170SOL     OW19408   0.674   3.867   5.603
 6170SOL    HW119409   0.601   3.935   5.597
 6170SOL    HW219410   0.760   3.913   5.629
 6171SOL     OW19411   0.788   1.725   0.210
 6171SOL    HW119412   0.737   1.778   0.277
 6171SOL    HW219413   0.873   1.772   0.187
 6172SOL     OW19414   1.419   3.209   2.457
 6172SOL    HW119415   1.508   3.249   2.433
 6172SOL    HW219416   1.377   3.170   2.376
 6173SOL     OW19417   6.445   4.972   3.066
 6173SOL    HW119418   6.520   5.033   3.038
 6173SOL    HW219419   6.362   5.026   3.081
 6174SOL     OW19420   5.190   5.737   4.094
 6174SOL    HW119421   5.231   5.719   4.183
 6174SOL    HW219422   5.252   5.794   4.040
 6175SOL     OW19423   4.045   0.367   4.211
 6175SOL    HW119424   3.964   0.425   4.224
 6175SOL    HW219425   4.075   0.332   4.300
 6176SOL     OW19426   5.578   3.871   5.664
 6176SOL    HW119427   5.520   3.811   5.610
 6176SOL    HW219428   5.522   3.923   5.729
 6177SOL     OW19429   5.964   1.737   1.978
 6177SOL    HW119430   5.950   1.815   1.917
 6177SOL    HW219431   6.021   1.669   1.933
 6178SOL     OW19432   4.946   4.539   2.546
 6178SOL    HW119433   4.992   4.628   2.539
 6178SOL    HW219434   4.987   4.486   2.619
 6179SOL     OW19435   6.521   4.704   2.495
 6179SOL    HW119436   6.461   4.625   2.484
 6179SOL    HW219437   6.472   4.787   2.469
 6180SOL     OW19438   2.735   4.556   1.313
 6180SOL    HW119439   2.799   4.607   1.370
 6180SOL    HW219440   2.762   4.459   1.311
 6181SOL     OW19441   4.779   6.428   6.028
 6181SOL    HW119442   4.758   6.431   5.931
 6181SOL    HW219443   4.868   6.470   6.044
 6182SOL     OW19444   4.397   3.405   5.900
 6182SOL    HW119445   4.468   3.344   5.934
 6182SOL    HW219446   4.440   3.482   5.852
 6183SOL     OW19447   1.780   2.057   1.927
 6183SOL    HW119448   1.756   1.964   1.952
 6183SOL    HW219449   1.761   2.118   2.004
 6184SOL     OW19450   2.929   6.839   6.291
 6184SOL    HW119451   2.896   6.899   6.365
 6184SOL    HW219452   3.017   6.800   6.317
 6185SOL     OW19453   1.220   4.595   6.272
 6185SOL    HW119454   1.249   4.521   6.212
 6185SOL    HW219455   1.256   4.580   6.364
 6186SOL     OW19456   6.035   0.766   1.051
 6186SOL    HW119457   6.009   0.833   0.982
 6186SOL    HW219458   6.133   0.745   1.042
 6187SOL     OW19459   4.861   2.976   4.340
 6187SOL    HW119460   4.866   3.023   4.251
 6187SOL    HW219461   4.851   3.044   4.413
 6188SOL     OW19462   1.571   1.631   5.957
 6188SOL    HW119463   1.669   1.636   5.937
 6188SOL    HW219464   1.518   1.652   5.875
 6189SOL     OW19465   3.875   4.858   3.273
 6189SOL    HW119466   3.931   4.913   3.336
 6189SOL    HW219467   3.778   4.870   3.296
 6190SOL     OW19468   0.251   3.584   5.271
 6190SOL    HW119469   0.319   3.652   5.296
 6190SOL    HW219470   0.242   3.580   5.172
 6191SOL     OW19471   2.981   3.408   6.326
 6191SOL    HW119472   2.938   3.432   6.239
 6191SOL    HW219473   2.944   3.464   6.399
 6192SOL     OW19474   2.480   1.794   6.744
 6192SOL    HW119475   2.489   1.704   6.701
 6192SOL    HW219476   2.423   1.852   6.686
 6193SOL     OW19477   4.502   5.919   1.551
 6193SOL    HW119478   4.600   5.912   1.533
 6193SOL    HW219479   4.455   5.953   1.470
 6194SOL     OW19480   6.532   0.327   6.350
 6194SOL    HW119481   6.607   0.352   6.412
 6194SOL    HW219482   6.570   0.297   6.262
 6195SOL     OW19483   5.365   6.103   4.227
 6195SOL    HW119484   5.388   6.137   4.136
 6195SOL    HW219485   5.446   6.109   4.286
 6196SOL     OW19486   4.889   4.117   2.657
 6196SOL    HW119487   4.836   4.051   2.710
 6196SOL    HW219488   4.850   4.125   2.566
 6197SOL     OW19489   2.500   5.494   2.082
 6197SOL    HW119490   2.499   5.405   2.036
 6197SOL    HW219491   2.435   5.493   2.157
 6198SOL     OW19492   4.056   6.572   1.168
 6198SOL    HW119493   4.115   6.558   1.089
 6198SOL    HW219494   4.035   6.484   1.211
 6199SOL     OW19495   0.778   1.213   0.370
 6199SOL    HW119496   0.742   1.305   0.352
 6199SOL    HW219497   0.789   1.201   0.469
 6200SOL     OW19498   1.266   2.025   4.725
 6200SOL    HW119499   1.228   2.109   4.687
 6200SOL    HW219500   1.199   1.982   4.785
 6201SOL     OW19501   0.851   3.694   4.763
 6201SOL    HW119502   0.794   3.724   4.687
 6201SOL    HW219503   0.878   3.598   4.749
 6202SOL     OW19504   5.830   0.830   1.891
 6202SOL    HW119505   5.837   0.784   1.979
 6202SOL    HW219506   5.922   0.857   1.860
 6203SOL     OW19507   5.471   5.734   1.960
 6203SOL    HW119508   5.488   5.697   2.052
 6203SOL    HW219509   5.536   5.694   1.896
 6204SOL     OW19510   1.075   6.088   5.057
 6204SOL    HW119511   1.015   6.120   5.130
 6204SOL    HW219512   1.142   6.024   5.094
 6205SOL     OW19513   6.125   4.615   1.039
 6205SOL    HW119514   6.067   4.689   1.076
 6205SOL    HW219515   6.221   4.644   1.043
 6206SOL     OW19516   5.616   1.674   2.544
 6206SOL    HW119517   5.608   1.574   2.541
 6206SOL    HW219518   5.575   1.708   2.628
 6207SOL     OW19519   1.725   6.580   5.382
 6207SOL    HW119520   1.756   6.591   5.477
 6207SOL    HW219521   1.735   6.667   5.334
 6208SOL     OW19522   3.542   2.247   5.520
 6208SOL    HW119523   3.623   2.284   5.476
 6208SOL    HW219524   3.460   2.283   5.475
 6209SOL     OW19525   3.556   5.579   0.249
 6209SOL    HW119526   3.613   5.497   0.248
 6209SOL    HW219527   3.478   5.565   0.309
 6210SOL     OW19528   5.093   3.593   3.167
 6210SOL    HW119529   5.160   3.520   3.151
 6210SOL    HW219530   5.027   3.594   3.092
 6211SOL     OW19531   3.227   6.657   5.465
 6211SOL    HW119532   3.131   6.630   5.460
 6211SOL    HW219533   3.263   6.666   5.372
 6212SOL     OW19534   2.342   4.480   4.127
 6212SOL    HW119535   2.353   4.380   4.129
 6212SOL    HW219536   2.337   4.514   4.221
 6213SOL     OW19537   4.467   6.859   7.003
 6213SOL    HW119538   4.411   6.780   0.001
 6213SOL    HW219539   4.463   6.928   0.049
 6214SOL     OW19540   5.926   5.769   5.258
 6214SOL    HW119541   5.907   5.675   5.229
 6214SOL    HW219542   5.894   5.782   5.352
 6215SOL     OW19543   3.588   2.831   6.649
 6215SOL    HW119544   3.497   2.813   6.612
 6215SOL    HW219545   3.618   2.753   6.703
 6216SOL     OW19546   6.353   2.140   2.373
 6216SOL    HW119547   6.354   2.044   2.345
 6216SOL    HW219548   6.318   2.197   2.298
 6217SOL     OW19549   0.614   4.358   2.672
 6217SOL    HW119550   0.697   4.303   2.677
 6217SOL    HW219551   0.564   4.337   2.588
 6218SOL     OW19552   3.768   6.836   0.030
 6218SOL    HW119553   3.801   6.773   0.100
 6218SOL    HW219554   3.727   6.916   0.073
 6219SOL     OW19555   1.164   0.700   4.816
 6219SOL    HW119556   1.220   0.737   4.890
 6219SOL    HW219557   1.164   0.600   4.822
 6220SOL     OW19558   3.705   1.479   6.210
 6220SOL    HW119559   3.702   1.507   6.114
 6220SOL    HW219560   3.800   1.470   6.240
 6221SOL     OW19561   6.239   6.489   0.040
 6221SOL    HW119562   6.213   6.517   6.975
 6221SOL    HW219563   6.157   6.459   0.090
 6222SOL     OW19564   6.999   0.349   2.597
 6222SOL    HW119565   6.996   0.316   2.502
 6222SOL    HW219566   7.023   0.446   2.597
 6223SOL     OW19567   1.431   5.697   3.323
 6223SOL    HW119568   1.482   5.783   3.322
 6223SOL    HW219569   1.484   5.627   3.370
 6224SOL     OW19570   3.990   1.814   6.085
 6224SOL    HW119571   3.916   1.881   6.074
 6224SOL    HW219572   4.003   1.766   5.998
 6225SOL     OW19573   3.818   2.191   6.290
 6225SOL    HW119574   3.838   2.259   6.219
 6225SOL    HW219575   3.842   2.228   6.380
 6226SOL     OW19576   1.121   1.460   3.878
 6226SOL    HW119577   1.129   1.544   3.931
 6226SOL    HW219578   1.090   1.482   3.785
 6227SOL     OW19579   3.210   5.140   5.451
 6227SOL    HW119580   3.202   5.192   5.536
 6227SOL    HW219581   3.218   5.203   5.374
 6228SOL     OW19582   0.831   2.626   3.214
 6228SOL    HW119583   0.742   2.594   3.246
 6228SOL    HW219584   0.840   2.604   3.117
 6229SOL     OW19585   0.683   2.980   4.822
 6229SOL    HW119586   0.737   3.054   4.783
 6229SOL    HW219587   0.598   2.969   4.770
 6230SOL     OW19588   1.343   2.220   3.190
 6230SOL    HW119589   1.250   2.223   3.155
 6230SOL    HW219590   1.390   2.306   3.168
 6231SOL     OW19591   5.230   5.642   0.557
 6231SOL    HW119592   5.226   5.573   0.484
 6231SOL    HW219593   5.300   5.709   0.535
 6232SOL     OW19594   6.214   1.323   0.247
 6232SOL    HW119595   6.174   1.280   0.167
 6232SOL    HW219596   6.217   1.422   0.233
 6233SOL     OW19597   0.041   2.854   1.597
 6233SOL    HW119598   6.987   2.796   1.596
 6233SOL    HW219599   0.113   2.811   1.543
 6234SOL     OW19600   0.147   0.052   5.156
 6234SOL    HW119601   0.104   0.131   5.200
 6234SOL    HW219602   0.241   0.075   5.130
 6235SOL     OW19603   0.303   0.592   1.984
 6235SOL    HW119604   0.354   0.676   2.003
 6235SOL    HW219605   0.317   0.527   2.059
 6236SOL     OW19606   7.021   5.037   0.361
 6236SOL    HW119607   7.013   5.125   0.313
 6236SOL    HW219608   6.997   5.050   0.457
 6237SOL     OW19609   3.469   7.001   0.166
 6237SOL    HW119610   3.402   6.979   0.238
 6237SOL    HW219611   3.437   6.965   0.079
 6238SOL     OW19612   4.653   6.665   3.480
 6238SOL    HW119613   4.682   6.760   3.486
 6238SOL    HW219614   4.560   6.656   3.517
 6239SOL     OW19615   3.757   0.598   0.906
 6239SOL    HW119616   3.792   0.551   0.987
 6239SOL    HW219617   3.733   0.692   0.929
 6240SOL     OW19618   3.142   3.531   5.378
 6240SOL    HW119619   3.229   3.578   5.398
 6240SOL    HW219620   3.066   3.595   5.390
 6241SOL     OW19621   4.185   0.095   3.907
 6241SOL    HW119622   4.284   0.108   3.916
 6241SOL    HW219623   4.138   0.178   3.938
 6242SOL     OW19624   2.989   0.660   3.437
 6242SOL    HW119625   2.903   0.656   3.488
 6242SOL    HW219626   2.970   0.680   3.341
 6243SOL     OW19627   6.788   0.421   6.079
 6243SOL    HW119628   6.725   0.345   6.096
 6243SOL    HW219629   6.774   0.457   5.987
 6244SOL     OW19630   4.964   3.609   3.418
 6244SOL    HW119631   5.010   3.597   3.330
 6244SOL    HW219632   4.941   3.519   3.456
 6245SOL     OW19633   0.701   4.411   1.887
 6245SOL    HW119634   0.774   4.382   1.949
 6245SOL    HW219635   0.727   4.390   1.793
 6246SOL     OW19636   0.617   1.036   4.690
 6246SOL    HW119637   0.665   1.100   4.630
 6246SOL    HW219638   0.594   0.953   4.639
 6247SOL     OW19639   1.553   6.399   3.201
 6247SOL    HW119640   1.650   6.422   3.196
 6247SOL    HW219641   1.519   6.418   3.293
 6248SOL     OW19642   3.756   4.003   0.095
 6248SOL    HW119643   3.777   3.927   0.156
 6248SOL    HW219644   3.798   3.987   0.005
 6249SOL     OW19645   7.023   2.938   0.823
 6249SOL    HW119646   0.082   2.927   0.773
 6249SOL    HW219647   6.968   3.009   0.779
 6250SOL     OW19648   6.676   6.584   0.616
 6250SOL    HW119649   6.715   6.495   0.590
 6250SOL    HW219650   6.611   6.571   0.691
 6251SOL     OW19651   3.718   6.116   4.559
 6251SOL    HW119652   3.776   6.091   4.482
 6251SOL    HW219653   3.683   6.032   4.603
 6252SOL     OW19654   2.699   4.636   0.175
 6252SOL    HW119655   2.774   4.622   0.110
 6252SOL    HW219656   2.655   4.548   0.195
 6253SOL     OW19657   2.427   5.135   4.657
 6253SOL    HW119658   2.498   5.117   4.725
 6253SOL    HW219659   2.337   5.132   4.701
 6254SOL     OW19660   7.008   6.801   1.022
 6254SOL    HW119661   0.065   6.776   0.973
 6254SOL    HW219662   6.985   6.896   1.001
 6255SOL     OW19663   2.168   2.558   0.579
 6255SOL    HW119664   2.227   2.595   0.507
 6255SOL    HW219665   2.197   2.465   0.600
 6256SOL     OW19666   4.032   4.800   2.253
 6256SOL    HW119667   3.962   4.831   2.187
 6256SOL    HW219668   4.104   4.752   2.204
 6257SOL     OW19669   4.090   2.709   0.135
 6257SOL    HW119670   4.078   2.613   0.159
 6257SOL    HW219671   4.176   2.742   0.174
 6258SOL     OW19672   3.046   0.232   5.119
 6258SOL    HW119673   3.048   0.133   5.105
 6258SOL    HW219674   3.101   0.277   5.049
 6259SOL     OW19675   1.971   0.819   6.231
 6259SOL    HW119676   1.931   0.902   6.269
 6259SOL    HW219677   2.006   0.838   6.139
 6260SOL     OW19678   2.364   0.709   0.812
 6260SOL    HW119679   2.409   0.620   0.823
 6260SOL    HW219680   2.413   0.778   0.865
 6261SOL     OW19681   4.151   6.525   0.903
 6261SOL    HW119682   4.065   6.533   0.853
 6261SOL    HW219683   4.173   6.428   0.916
 6262SOL     OW19684   1.524   5.796   2.396
 6262SOL    HW119685   1.595   5.794   2.466
 6262SOL    HW219686   1.473   5.710   2.397
 6263SOL     OW19687   0.750   6.351   5.382
 6263SOL    HW119688   0.698   6.364   5.297
 6263SOL    HW219689   0.812   6.429   5.395
 6264SOL     OW19690   1.347   0.020   1.317
 6264SOL    HW119691   1.275   0.048   1.381
 6264SOL    HW219692   1.423   7.007   1.367
 6265SOL     OW19693   3.980   2.802   0.810
 6265SOL    HW119694   4.007   2.712   0.778
 6265SOL    HW219695   3.957   2.798   0.908
 6266SOL     OW19696   4.048   6.965   3.225
 6266SOL    HW119697   4.107   6.996   3.151
 6266SOL    HW219698   3.972   6.912   3.188
 6267SOL     OW19699   1.363   0.172   4.764
 6267SOL    HW119700   1.411   0.108   4.824
 6267SOL    HW219701   1.429   0.235   4.722
 6268SOL     OW19702   2.958   0.797   1.982
 6268SOL    HW119703   2.964   0.886   2.027
 6268SOL    HW219704   2.925   0.729   2.046
 6269SOL     OW19705   5.994   6.741   1.431
 6269SOL    HW119706   6.016   6.838   1.422
 6269SOL    HW219707   5.895   6.730   1.441
 6270SOL     OW19708   0.534   6.960   0.250
 6270SOL    HW119709   0.591   6.951   0.332
 6270SOL    HW219710   0.438   6.942   0.273
 6271SOL     OW19711   5.794   2.537   6.606
 6271SOL    HW119712   5.705   2.554   6.564
 6271SOL    HW219713   5.847   2.474   6.549
 6272SOL     OW19714   0.848   0.852   0.585
 6272SOL    HW119715   0.787   0.866   0.507
 6272SOL    HW219716   0.921   0.789   0.559
 6273SOL     OW19717   0.263   5.559   2.977
 6273SOL    HW119718   0.308   5.631   2.924
 6273SOL    HW219719   0.214   5.497   2.916
 6274SOL     OW19720   3.121   6.993   5.047
 6274SOL    HW119721   3.169   6.985   5.134
 6274SOL    HW219722   3.063   6.912   5.033
 6275SOL     OW19723   2.412   5.866   0.855
 6275SOL    HW119724   2.331   5.875   0.797
 6275SOL    HW219725   2.466   5.950   0.850
 6276SOL     OW19726   3.531   5.595   3.824
 6276SOL    HW119727   3.551   5.629   3.732
 6276SOL    HW219728   3.513   5.672   3.885
 6277SOL     OW19729   5.480   2.093   0.895
 6277SOL    HW119730   5.418   2.086   0.817
 6277SOL    HW219731   5.486   2.188   0.924
 6278SOL     OW19732   3.731   0.693   5.587
 6278SOL    HW119733   3.791   0.664   5.513
 6278SOL    HW219734   3.693   0.783   5.566
 6279SOL     OW19735   4.053   5.684   0.695
 6279SOL    HW119736   3.995   5.730   0.627
 6279SOL    HW219737   4.102   5.753   0.747
 6280SOL     OW19738   0.177   0.916   6.505
 6280SOL    HW119739   0.090   0.875   6.480
 6280SOL    HW219740   0.228   0.853   6.564
 6281SOL     OW19741   6.284   4.411   3.947
 6281SOL    HW119742   6.244   4.327   3.909
 6281SOL    HW219743   6.245   4.490   3.900
 6282SOL     OW19744   6.190   2.963   5.242
 6282SOL    HW119745   6.119   2.905   5.202
 6282SOL    HW219746   6.155   3.006   5.326
 6283SOL     OW19747   0.701   4.294   4.172
 6283SOL    HW119748   0.696   4.390   4.201
 6283SOL    HW219749   0.778   4.250   4.218
 6284SOL     OW19750   1.341   5.791   6.780
 6284SOL    HW119751   1.395   5.745   6.710
 6284SOL    HW219752   1.391   5.790   6.867
 6285SOL     OW19753   1.262   3.490   3.577
 6285SOL    HW119754   1.178   3.525   3.618
 6285SOL    HW219755   1.334   3.487   3.646
 6286SOL     OW19756   6.641   3.667   3.994
 6286SOL    HW119757   6.601   3.585   3.954
 6286SOL    HW219758   6.685   3.644   4.081
 6287SOL     OW19759   3.900   5.166   5.424
 6287SOL    HW119760   3.906   5.176   5.324
 6287SOL    HW219761   3.966   5.227   5.467
 6288SOL     OW19762   4.842   4.665   1.380
 6288SOL    HW119763   4.778   4.594   1.409
 6288SOL    HW219764   4.794   4.732   1.322
 6289SOL     OW19765   2.799   4.657   6.548
 6289SOL    HW119766   2.716   4.638   6.495
 6289SOL    HW219767   2.823   4.575   6.601
 6290SOL     OW19768   5.634   5.636   6.700
 6290SOL    HW119769   5.540   5.653   6.730
 6290SOL    HW219770   5.636   5.554   6.642
 6291SOL     OW19771   3.887   3.394   3.526
 6291SOL    HW119772   3.957   3.464   3.542
 6291SOL    HW219773   3.930   3.304   3.520
 6292SOL     OW19774   2.353   2.240   4.425
 6292SOL    HW119775   2.255   2.252   4.446
 6292SOL    HW219776   2.378   2.144   4.443
 6293SOL     OW19777   4.465   1.707   0.838
 6293SOL    HW119778   4.497   1.612   0.828
 6293SOL    HW219779   4.523   1.755   0.904
 6294SOL     OW19780   4.298   0.357   3.161
 6294SOL    HW119781   4.289   0.389   3.256
 6294SOL    HW219782   4.239   0.278   3.147
 6295SOL     OW19783   5.045   5.100   4.707
 6295SOL    HW119784   4.982   5.055   4.771
 6295SOL    HW219785   5.047   5.198   4.726
 6296SOL     OW19786   0.632   4.229   5.774
 6296SOL    HW119787   0.674   4.254   5.686
 6296SOL    HW219788   0.584   4.142   5.764
 6297SOL     OW19789   6.485   0.202   5.534
 6297SOL    HW119790   6.431   0.118   5.543
 6297SOL    HW219791   6.576   0.180   5.500
 6298SOL     OW19792   6.201   4.365   6.466
 6298SOL    HW119793   6.209   4.465   6.468
 6298SOL    HW219794   6.219   4.333   6.373
 6299SOL     OW19795   6.182   2.761   1.967
 6299SOL    HW119796   6.246   2.688   1.991
 6299SOL    HW219797   6.203   2.794   1.875
 6300SOL     OW19798   4.954   0.614   6.532
 6300SOL    HW119799   5.043   0.593   6.574
 6300SOL    HW219800   4.882   0.568   6.584
 6301SOL     OW19801   3.168   6.727   6.350
 6301SOL    HW119802   3.232   6.656   6.378
 6301SOL    HW219803   3.215   6.794   6.293
 6302SOL     OW19804   2.332   1.105   5.627
 6302SOL    HW119805   2.260   1.166   5.593
 6302SOL    HW219806   2.419   1.127   5.582
 6303SOL     OW19807   0.381   6.224   5.775
 6303SOL    HW119808   0.335   6.136   5.768
 6303SOL    HW219809   0.322   6.289   5.822
 6304SOL     OW19810   3.896   1.624   3.872
 6304SOL    HW119811   3.930   1.711   3.909
 6304SOL    HW219812   3.801   1.611   3.900
 6305SOL     OW19813   6.031   5.909   0.172
 6305SOL    HW119814   5.945   5.951   0.143
 6305SOL    HW219815   6.018   5.811   0.185
 6306SOL     OW19816   0.300   3.572   3.925
 6306SOL    HW119817   0.310   3.540   4.019
 6306SOL    HW219818   0.236   3.513   3.876
 6307SOL     OW19819   3.159   3.082   4.208
 6307SOL    HW119820   3.228   3.030   4.158
 6307SOL    HW219821   3.084   3.106   4.146
 6308SOL     OW19822   0.816   2.281   5.813
 6308SOL    HW119823   0.916   2.277   5.816
 6308SOL    HW219824   0.784   2.266   5.720
 6309SOL     OW19825   0.182   0.342   4.298
 6309SOL    HW119826   0.186   0.310   4.203
 6309SOL    HW219827   0.273   0.367   4.329
 6310SOL     OW19828   2.088   6.602   2.737
 6310SOL    HW119829   2.127   6.513   2.714
 6310SOL    HW219830   2.077   6.656   2.653
 6311SOL     OW19831   5.169   1.700   6.733
 6311SOL    HW119832   5.104   1.770   6.763
 6311SOL    HW219833   5.258   1.717   6.775
 6312SOL     OW19834   1.603   6.983   6.421
 6312SOL    HW119835   1.628   0.052   6.423
 6312SOL    HW219836   1.510   6.972   6.457
 6313SOL     OW19837   5.741   6.468   3.174
 6313SOL    HW119838   5.710   6.449   3.081
 6313SOL    HW219839   5.663   6.494   3.231
 6314SOL     OW19840   3.804   0.714   1.970
 6314SOL    HW119841   3.762   0.800   1.939
 6314SOL    HW219842   3.837   0.725   2.064
 6315SOL     OW19843   2.073   1.959   4.560
 6315SOL    HW119844   2.066   1.863   4.589
 6315SOL    HW219845   2.103   2.015   4.637
 6316SOL     OW19846   5.122   1.763   5.602
 6316SOL    HW119847   5.142   1.671   5.638
 6316SOL    HW219848   5.094   1.756   5.507
 6317SOL     OW19849   4.904   3.814   2.517
 6317SOL    HW119850   4.868   3.902   2.485
 6317SOL    HW219851   4.860   3.740   2.468
 6318SOL     OW19852   4.901   6.756   6.532
 6318SOL    HW119853   4.954   6.835   6.504
 6318SOL    HW219854   4.861   6.712   6.452
 6319SOL     OW19855   6.428   2.034   4.717
 6319SOL    HW119856   6.514   2.020   4.667
 6319SOL    HW219857   6.405   1.950   4.766
 6320SOL     OW19858   6.972   0.076   4.238
 6320SOL    HW119859   6.958   0.148   4.305
 6320SOL    HW219860   6.954   0.111   4.146
 6321SOL     OW19861   4.748   3.556   0.280
 6321SOL    HW119862   4.808   3.588   0.206
 6321SOL    HW219863   4.672   3.620   0.292
 6322SOL     OW19864   3.325   1.827   0.251
 6322SOL    HW119865   3.255   1.831   0.180
 6322SOL    HW219866   3.344   1.732   0.275
 6323SOL     OW19867   1.580   1.709   1.444
 6323SOL    HW119868   1.628   1.652   1.511
 6323SOL    HW219869   1.565   1.656   1.361
 6324SOL     OW19870   4.089   1.956   0.676
 6324SOL    HW119871   4.100   2.015   0.756
 6324SOL    HW219872   4.117   1.863   0.699
 6325SOL     OW19873   2.235   3.000   3.119
 6325SOL    HW119874   2.245   3.098   3.102
 6325SOL    HW219875   2.241   2.983   3.218
 6326SOL     OW19876   5.512   5.689   5.519
 6326SOL    HW119877   5.553   5.610   5.565
 6326SOL    HW219878   5.414   5.693   5.539
 6327SOL     OW19879   6.895   1.378   4.137
 6327SOL    HW119880   6.963   1.445   4.110
 6327SOL    HW219881   6.899   1.365   4.236
 6328SOL     OW19882   4.565   3.724   6.608
 6328SOL    HW119883   4.556   3.668   6.691
 6328SOL    HW219884   4.478   3.769   6.591
 6329SOL     OW19885   1.059   2.697   5.089
 6329SOL    HW119886   1.118   2.683   5.009
 6329SOL    HW219887   1.097   2.770   5.146
 6330SOL     OW19888   5.609   6.911   2.258
 6330SOL    HW119889   5.546   6.978   2.298
 6330SOL    HW219890   5.558   6.834   2.222
 6331SOL     OW19891   6.622   2.978   4.817
 6331SOL    HW119892   6.619   3.049   4.887
 6331SOL    HW219893   6.530   2.940   4.804
 6332SOL     OW19894   1.074   2.639   1.252
 6332SOL    HW119895   1.080   2.694   1.336
 6332SOL    HW219896   1.148   2.572   1.250
 6333SOL     OW19897   5.004   6.577   6.090
 6333SOL    HW119898   4.977   6.607   6.182
 6333SOL    HW219899   5.072   6.504   6.098
 6334SOL     OW19900   2.763   1.217   1.901
 6334SOL    HW119901   2.706   1.222   1.983
 6334SOL    HW219902   2.750   1.299   1.846
 6335SOL     OW19903   4.983   1.042   0.345
 6335SOL    HW119904   4.945   0.959   0.386
 6335SOL    HW219905   5.003   1.025   0.248
 6336SOL     OW19906   0.568   3.998   6.362
 6336SOL    HW119907   0.520   4.068   6.414
 6336SOL    HW219908   0.649   4.038   6.318
 6337SOL     OW19909   4.373   5.531   4.737
 6337SOL    HW119910   4.461   5.553   4.694
 6337SOL    HW219911   4.312   5.610   4.730
 6338SOL     OW19912   3.270   2.082   4.606
 6338SOL    HW119913   3.178   2.121   4.614
 6338SOL    HW219914   3.338   2.156   4.616
 6339SOL     OW19915   1.065   3.932   3.769
 6339SOL    HW119916   1.135   3.881   3.720
 6339SOL    HW219917   1.062   4.026   3.734
 6340SOL     OW19918   2.271   3.647   1.219
 6340SOL    HW119919   2.344   3.639   1.286
 6340SOL    HW219920   2.249   3.743   1.204
 6341SOL     OW19921   0.608   3.819   3.429
 6341SOL    HW119922   0.694   3.866   3.409
 6341SOL    HW219923   0.619   3.721   3.410
 6342SOL     OW19924   3.300   1.353   0.906
 6342SOL    HW119925   3.270   1.329   0.813
 6342SOL    HW219926   3.261   1.287   0.971
 6343SOL     OW19927   4.148   6.769   6.552
 6343SOL    HW119928   4.081   6.809   6.490
 6343SOL    HW219929   4.200   6.842   6.597
 6344SOL     OW19930   5.755   2.092   3.873
 6344SOL    HW119931   5.751   1.995   3.847
 6344SOL    HW219932   5.703   2.146   3.807
 6345SOL     OW19933   4.794   2.813   1.790
 6345SOL    HW119934   4.849   2.755   1.850
 6345SOL    HW219935   4.746   2.882   1.845
 6346SOL     OW19936   6.778   4.289   4.790
 6346SOL    HW119937   6.875   4.304   4.811
 6346SOL    HW219938   6.750   4.350   4.715
 6347SOL     OW19939   2.495   1.457   1.532
 6347SOL    HW119940   2.419   1.522   1.530
 6347SOL    HW219941   2.540   1.455   1.442
 6348SOL     OW19942   0.822   2.556   6.178
 6348SOL    HW119943   0.779   2.510   6.100
 6348SOL    HW219944   0.904   2.605   6.147
 6349SOL     OW19945   1.557   0.444   0.452
 6349SOL    HW119946   1.627   0.375   0.468
 6349SOL    HW219947   1.600   0.534   0.440
 6350SOL     OW19948   0.788   5.066   2.828
 6350SOL    HW119949   0.761   5.150   2.876
 6350SOL    HW219950   0.878   5.037   2.861
 6351SOL     OW19951   6.575   4.363   3.750
 6351SOL    HW119952   6.572   4.463   3.757
 6351SOL    HW219953   6.558   4.323   3.840
 6352SOL     OW19954   2.707   0.465   4.100
 6352SOL    HW119955   2.709   0.366   4.106
 6352SOL    HW219956   2.631   0.493   4.041
 6353SOL     OW19957   2.570   5.540   6.959
 6353SOL    HW119958   2.471   5.531   6.970
 6353SOL    HW219959   2.610   5.451   6.938
 6354SOL     OW19960   3.604   5.912   3.334
 6354SOL    HW119961   3.640   6.004   3.319
 6354SOL    HW219962   3.523   5.897   3.277
 6355SOL     OW19963   2.703   5.882   0.446
 6355SOL    HW119964   2.800   5.901   0.426
 6355SOL    HW219965   2.692   5.784   0.465
 6356SOL     OW19966   5.365   5.552   0.248
 6356SOL    HW119967   5.419   5.498   0.313
 6356SOL    HW219968   5.308   5.490   0.193
 6357SOL     OW19969   5.636   2.829   2.276
 6357SOL    HW119970   5.647   2.813   2.374
 6357SOL    HW219971   5.631   2.928   2.260
 6358SOL     OW19972   0.575   1.881   6.661
 6358SOL    HW119973   0.615   1.922   6.578
 6358SOL    HW219974   0.478   1.863   6.646
 6359SOL     OW19975   6.021   6.261   0.811
 6359SOL    HW119976   5.942   6.287   0.756
 6359SOL    HW219977   6.105   6.275   0.758
 6360SOL     OW19978   0.530   3.333   4.096
 6360SOL    HW119979   0.592   3.371   4.028
 6360SOL    HW219980   0.574   3.256   4.143
 6361SOL     OW19981   0.950   0.508   0.839
 6361SOL    HW119982   1.020   0.464   0.782
 6361SOL    HW219983   0.994   0.566   0.907
 6362SOL     OW19984   1.858   6.061   6.858
 6362SOL    HW119985   1.940   6.087   6.909
 6362SOL    HW219986   1.853   5.961   6.853
 6363SOL     OW19987   3.028   4.939   4.292
 6363SOL    HW119988   3.076   4.883   4.225
 6363SOL    HW219989   2.941   4.896   4.315
 6364SOL     OW19990   2.576   2.576   5.492
 6364SOL    HW119991   2.482   2.608   5.483
 6364SOL    HW219992   2.626   2.637   5.553
 6365SOL     OW19993   5.907   6.162   4.829
 6365SOL    HW119994   5.903   6.075   4.879
 6365SOL    HW219995   5.819   6.179   4.786
 6366SOL     OW19996   6.993   6.468   4.818
 6366SOL    HW119997   0.026   6.445   4.742
 6366SOL    HW219998   6.918   6.525   4.784
 6367SOL     OW19999   3.177   2.005   2.745
 6367SOL    HW120000   3.202   2.044   2.833
 6367SOL    HW220001   3.150   1.909   2.758
 6368SOL     OW20002   4.114   4.874   4.493
 6368SOL    HW120003   4.111   4.832   4.584
 6368SOL    HW220004   4.021   4.890   4.461
 6369SOL     OW20005   1.898   0.209   4.219
 6369SOL    HW120006   1.863   0.295   4.258
 6369SOL    HW220007   1.981   0.182   4.268
 6370SOL     OW20008   5.666   4.136   3.435
 6370SOL    HW120009   5.631   4.057   3.486
 6370SOL    HW220010   5.688   4.209   3.499
 6371SOL     OW20011   5.218   4.065   1.890
 6371SOL    HW120012   5.204   4.156   1.931
 6371SOL    HW220013   5.285   4.014   1.945
 6372SOL     OW20014   0.814   1.330   1.772
 6372SOL    HW120015   0.827   1.397   1.699
 6372SOL    HW220016   0.813   1.376   1.861
 6373SOL     OW20017   5.704   4.003   2.159
 6373SOL    HW120018   5.762   4.054   2.096
 6373SOL    HW220019   5.659   4.065   2.222
 6374SOL     OW20020   4.349   2.972   0.616
 6374SOL    HW120021   4.436   2.965   0.665
 6374SOL    HW220022   4.305   2.882   0.614
 6375SOL     OW20023   0.685   2.376   1.508
 6375SOL    HW120024   0.774   2.419   1.525
 6375SOL    HW220025   0.668   2.373   1.410
 6376SOL     OW20026   3.935   1.711   5.819
 6376SOL    HW120027   3.857   1.659   5.851
 6376SOL    HW220028   3.996   1.652   5.767
 6377SOL     OW20029   6.627   1.334   5.521
 6377SOL    HW120030   6.648   1.237   5.511
 6377SOL    HW220031   6.651   1.382   5.437
 6378SOL     OW20032   4.865   5.664   3.155
 6378SOL    HW120033   4.907   5.614   3.230
 6378SOL    HW220034   4.931   5.672   3.079
 6379SOL     OW20035   0.990   4.977   5.639
 6379SOL    HW120036   1.031   4.893   5.604
 6379SOL    HW220037   0.939   4.957   5.723
 6380SOL     OW20038   0.033   2.994   4.277
 6380SOL    HW120039   6.998   2.962   4.206
 6380SOL    HW220040   0.022   2.938   4.359
 6381SOL     OW20041   4.104   2.880   0.433
 6381SOL    HW120042   4.136   2.835   0.517
 6381SOL    HW220043   4.172   2.868   0.361
 6382SOL     OW20044   3.548   1.590   1.300
 6382SOL    HW120045   3.470   1.642   1.336
 6382SOL    HW220046   3.523   1.550   1.212
 6383SOL     OW20047   1.845   2.260   2.194
 6383SOL    HW120048   1.937   2.225   2.205
 6383SOL    HW220049   1.784   2.216   2.260
 6384SOL     OW20050   5.573   3.093   2.255
 6384SOL    HW120051   5.670   3.115   2.240
 6384SOL    HW220052   5.516   3.157   2.205
 6385SOL     OW20053   6.534   3.764   1.929
 6385SOL    HW120054   6.542   3.772   1.830
 6385SOL    HW220055   6.527   3.856   1.969
 6386SOL     OW20056   1.864   3.760   0.407
 6386SOL    HW120057   1.910   3.685   0.360
 6386SOL    HW220058   1.918   3.844   0.398
 6387SOL     OW20059   5.872   1.433   0.412
 6387SOL    HW120060   5.835   1.360   0.469
 6387SOL    HW220061   5.879   1.402   0.317
 6388SOL     OW20062   5.945   5.028   2.048
 6388SOL    HW120063   5.958   5.068   2.139
 6388SOL    HW220064   5.950   4.928   2.055
 6389SOL     OW20065   1.297   6.752   1.488
 6389SOL    HW120066   1.271   6.686   1.417
 6389SOL    HW220067   1.373   6.808   1.453
 6390SOL     OW20068   6.597   0.256   6.097
 6390SOL    HW120069   6.637   0.165   6.080
 6390SOL    HW220070   6.512   0.265   6.046
 6391SOL     OW20071   1.517   1.337   5.938
 6391SOL    HW120072   1.426   1.296   5.952
 6391SOL    HW220073   1.515   1.432   5.968
 6392SOL     OW20074   2.962   6.222   3.664
 6392SOL    HW120075   2.988   6.277   3.743
 6392SOL    HW220076   2.978   6.125   3.684
 6393SOL     OW20077   5.874   6.101   1.614
 6393SOL    HW120078   5.823   6.036   1.557
 6393SOL    HW220079   5.815   6.178   1.638
 6394SOL     OW20080   1.523   4.806   1.072
 6394SOL    HW120081   1.547   4.899   1.099
 6394SOL    HW220082   1.602   4.746   1.086
 6395SOL     OW20083   0.289   2.932   2.248
 6395SOL    HW120084   0.315   2.935   2.344
 6395SOL    HW220085   0.210   2.993   2.233
 6396SOL     OW20086   6.512   4.148   5.795
 6396SOL    HW120087   6.435   4.111   5.847
 6396SOL    HW220088   6.579   4.187   5.859
 6397SOL     OW20089   6.541   1.264   2.298
 6397SOL    HW120090   6.587   1.186   2.342
 6397SOL    HW220091   6.551   1.256   2.198
 6398SOL     OW20092   1.644   6.978   1.870
 6398SOL    HW120093   1.577   6.921   1.822
 6398SOL    HW220094   1.730   6.928   1.878
 6399SOL     OW20095   1.552   0.153   0.060
 6399SOL    HW120096   1.459   0.117   0.069
 6399SOL    HW220097   1.618   0.083   0.089
 6400SOL     OW20098   1.875   4.915   2.789
 6400SOL    HW120099   1.853   4.825   2.827
 6400SOL    HW220100   1.970   4.916   2.760
 6401SOL     OW20101   5.417   4.940   3.289
 6401SOL    HW120102   5.350   4.935   3.215
 6401SOL    HW220103   5.407   5.027   3.337
 6402SOL     OW20104   1.866   3.188   3.596
 6402SOL    HW120105   1.931   3.204   3.670
 6402SOL    HW220106   1.777   3.162   3.635
 6403SOL     OW20107   6.011   6.357   6.016
 6403SOL    HW120108   5.938   6.335   6.080
 6403SOL    HW220109   6.073   6.425   6.056
 6404SOL     OW20110   4.206   1.716   2.514
 6404SOL    HW120111   4.246   1.739   2.602
 6404SOL    HW220112   4.113   1.753   2.509
 6405SOL     OW20113   4.466   1.392   4.056
 6405SOL    HW120114   4.376   1.432   4.071
 6405SOL    HW220115   4.492   1.336   4.135
 6406SOL     OW20116   1.678   3.167   2.093
 6406SOL    HW120117   1.722   3.163   2.003
 6406SOL    HW220118   1.599   3.228   2.088
 6407SOL     OW20119   2.227   0.151   3.001
 6407SOL    HW120120   2.287   0.183   3.074
 6407SOL    HW220121   2.132   0.167   3.027
 6408SOL     OW20122   6.161   0.550   0.691
 6408SOL    HW120123   6.178   0.456   0.660
 6408SOL    HW220124   6.122   0.603   0.615
 6409SOL     OW20125   0.011   4.854   3.280
 6409SOL    HW120126   7.016   4.811   3.368
 6409SOL    HW220127   6.960   4.907   3.248
 6410SOL     OW20128   2.178   1.069   6.672
 6410SOL    HW120129   2.174   0.981   6.720
 6410SOL    HW220130   2.229   1.135   6.728
 6411SOL     OW20131   1.288   3.107   2.226
 6411SOL    HW120132   1.227   3.029   2.213
 6411SOL    HW220133   1.313   3.144   2.136
 6412SOL     OW20134   2.702   0.858   6.961
 6412SOL    HW120135   2.761   0.877   0.012
 6412SOL    HW220136   2.631   0.793   6.988
 6413SOL     OW20137   3.705   4.928   4.822
 6413SOL    HW120138   3.731   4.831   4.830
 6413SOL    HW220139   3.612   4.941   4.857
 6414SOL     OW20140   6.023   6.609   6.630
 6414SOL    HW120141   6.065   6.672   6.565
 6414SOL    HW220142   6.030   6.516   6.594
 6415SOL     OW20143   1.705   3.368   3.931
 6415SOL    HW120144   1.646   3.288   3.943
 6415SOL    HW220145   1.682   3.414   3.845
 6416SOL     OW20146   2.777   0.016   6.452
 6416SOL    HW120147   2.856   0.049   6.401
 6416SOL    HW220148   2.790   0.037   6.549
 6417SOL     OW20149   5.036   2.715   0.880
 6417SOL    HW120150   5.079   2.625   0.869
 6417SOL    HW220151   5.105   2.783   0.904
 6418SOL     OW20152   5.243   4.298   2.937
 6418SOL    HW120153   5.322   4.324   2.993
 6418SOL    HW220154   5.216   4.204   2.958
 6419SOL     OW20155   0.632   5.227   4.722
 6419SOL    HW120156   0.676   5.276   4.647
 6419SOL    HW220157   0.629   5.286   4.803
 6420SOL     OW20158   1.862   1.621   3.802
 6420SOL    HW120159   1.788   1.584   3.858
 6420SOL    HW220160   1.851   1.590   3.708
 6421SOL     OW20161   4.304   0.441   1.160
 6421SOL    HW120162   4.296   0.538   1.183
 6421SOL    HW220163   4.364   0.431   1.081
 6422SOL     OW20164   6.709   1.442   5.264
 6422SOL    HW120165   6.643   1.513   5.289
 6422SOL    HW220166   6.660   1.363   5.227
 6423SOL     OW20167   4.797   5.489   4.692
 6423SOL    HW120168   4.732   5.414   4.684
 6423SOL    HW220169   4.890   5.454   4.688
 6424SOL     OW20170   1.623   3.595   4.999
 6424SOL    HW120171   1.677   3.571   5.079
 6424SOL    HW220172   1.529   3.563   5.011
 6425SOL     OW20173   0.075   5.715   2.780
 6425SOL    HW120174   0.086   5.803   2.734
 6425SOL    HW220175   0.115   5.643   2.724
 6426SOL     OW20176   5.390   5.350   3.640
 6426SOL    HW120177   5.478   5.398   3.641
 6426SOL    HW220178   5.375   5.306   3.729
 6427SOL     OW20179   3.015   3.688   3.366
 6427SOL    HW120180   2.989   3.677   3.462
 6427SOL    HW220181   3.021   3.786   3.345
 6428SOL     OW20182   5.511   3.485   0.612
 6428SOL    HW120183   5.469   3.395   0.624
 6428SOL    HW220184   5.549   3.515   0.700
 6429SOL     OW20185   1.168   0.444   5.576
 6429SOL    HW120186   1.168   0.512   5.503
 6429SOL    HW220187   1.118   0.480   5.655
 6430SOL     OW20188   6.606   0.915   5.115
 6430SOL    HW120189   6.660   0.944   5.194
 6430SOL    HW220190   6.590   0.816   5.120
 6431SOL     OW20191   4.575   5.344   2.880
 6431SOL    HW120192   4.548   5.434   2.847
 6431SOL    HW220193   4.544   5.332   2.974
 6432SOL     OW20194   3.711   4.277   6.517
 6432SOL    HW120195   3.659   4.242   6.439
 6432SOL    HW220196   3.702   4.376   6.522
 6433SOL     OW20197   3.393   5.019   0.242
 6433SOL    HW120198   3.306   4.982   0.274
 6433SOL    HW220199   3.394   5.118   0.254
 6434SOL     OW20200   2.663   6.562   5.950
 6434SOL    HW120201   2.762   6.561   5.931
 6434SOL    HW220202   2.613   6.570   5.863
 6435SOL     OW20203   6.427   0.041   1.052
 6435SOL    HW120204   6.397   0.074   1.141
 6435SOL    HW220205   6.353   7.016   1.009
 6436SOL     OW20206   1.231   3.786   3.446
 6436SOL    HW120207   1.284   3.715   3.400
 6436SOL    HW220208   1.154   3.813   3.388
 6437SOL     OW20209   1.712   2.407   6.128
 6437SOL    HW120210   1.761   2.320   6.138
 6437SOL    HW220211   1.705   2.452   6.217
 6438SOL     OW20212   1.267   5.010   6.444
 6438SOL    HW120213   1.308   5.095   6.478
 6438SOL    HW220214   1.197   4.980   6.509
 6439SOL     OW20215   5.741   0.729   2.814
 6439SOL    HW120216   5.683   0.700   2.890
 6439SOL    HW220217   5.835   0.738   2.845
 6440SOL     OW20218   3.002   0.560   6.010
 6440SOL    HW120219   3.082   0.551   5.950
 6440SOL    HW220220   3.000   0.485   6.075
 6441SOL     OW20221   0.452   0.887   1.690
 6441SOL    HW120222   0.481   0.849   1.602
 6441SOL    HW220223   0.372   0.946   1.677
 6442SOL     OW20224   2.346   1.927   4.754
 6442SOL    HW120225   2.445   1.934   4.768
 6442SOL    HW220226   2.306   2.019   4.755
 6443SOL     OW20227   3.407   2.132   5.730
 6443SOL    HW120228   3.311   2.104   5.730
 6443SOL    HW220229   3.424   2.192   5.652
 6444SOL     OW20230   6.504   2.614   4.800
 6444SOL    HW120231   6.477   2.710   4.800
 6444SOL    HW220232   6.547   2.591   4.713
 6445SOL     OW20233   4.153   3.456   3.368
 6445SOL    HW120234   4.135   3.362   3.397
 6445SOL    HW220235   4.140   3.517   3.446
 6446SOL     OW20236   0.694   2.106   0.572
 6446SOL    HW120237   0.623   2.058   0.625
 6446SOL    HW220238   0.680   2.204   0.579
 6447SOL     OW20239   6.243   4.447   2.010
 6447SOL    HW120240   6.230   4.543   1.984
 6447SOL    HW220241   6.223   4.389   1.931
 6448SOL     OW20242   4.984   4.946   1.310
 6448SOL    HW120243   5.023   4.993   1.230
 6448SOL    HW220244   4.918   5.007   1.355
 6449SOL     OW20245   2.702   4.985   2.015
 6449SOL    HW120246   2.614   4.996   2.061
 6449SOL    HW220247   2.777   5.003   2.079
 6450SOL     OW20248   1.106   3.892   0.093
 6450SOL    HW120249   1.065   3.957   0.030
 6450SOL    HW220250   1.067   3.801   0.079
 6451SOL     OW20251   2.894   1.572   5.842
 6451SOL    HW120252   2.905   1.478   5.808
 6451SOL    HW220253   2.863   1.569   5.937
 6452SOL     OW20254   4.829   3.886   2.881
 6452SOL    HW120255   4.805   3.820   2.952
 6452SOL    HW220256   4.920   3.865   2.844
 6453SOL     OW20257   2.827   6.947   1.280
 6453SOL    HW120258   2.826   6.847   1.287
 6453SOL    HW220259   2.862   6.974   1.190
 6454SOL     OW20260   0.690   1.395   2.368
 6454SOL    HW120261   0.713   1.469   2.432
 6454SOL    HW220262   0.768   1.377   2.309
 6455SOL     OW20263   6.788   3.525   3.578
 6455SOL    HW120264   6.776   3.426   3.587
 6455SOL    HW220265   6.764   3.553   3.485
 6456SOL     OW20266   1.274   0.984   2.770
 6456SOL    HW120267   1.367   1.020   2.773
 6456SOL    HW220268   1.221   1.033   2.701
 6457SOL     OW20269   4.698   6.343   1.360
 6457SOL    HW120270   4.748   6.415   1.313
 6457SOL    HW220271   4.642   6.382   1.433
 6458SOL     OW20272   1.580   5.271   5.167
 6458SOL    HW120273   1.522   5.274   5.249
 6458SOL    HW220274   1.647   5.197   5.176
 6459SOL     OW20275   6.305   2.617   2.806
 6459SOL    HW120276   6.339   2.610   2.900
 6459SOL    HW220277   6.205   2.618   2.806
 6460SOL     OW20278   5.921   6.076   6.090
 6460SOL    HW120279   5.893   5.980   6.086
 6460SOL    HW220280   5.876   6.127   6.017
 6461SOL     OW20281   2.505   4.390   0.251
 6461SOL    HW120282   2.420   4.436   0.277
 6461SOL    HW220283   2.514   4.305   0.304
 6462SOL     OW20284   0.492   2.958   4.635
 6462SOL    HW120285   0.508   2.882   4.573
 6462SOL    HW220286   0.404   2.946   4.681
 6463SOL     OW20287   5.047   6.644   0.821
 6463SOL    HW120288   5.059   6.561   0.767
 6463SOL    HW220289   5.030   6.619   0.917
 6464SOL     OW20290   1.836   5.898   5.280
 6464SOL    HW120291   1.813   5.989   5.315
 6464SOL    HW220292   1.831   5.832   5.354
 6465SOL     OW20293   6.833   2.716   2.531
 6465SOL    HW120294   6.776   2.654   2.585
 6465SOL    HW220295   6.921   2.671   2.512
 6466SOL     OW20296   7.022   1.830   0.008
 6466SOL    HW120297   0.036   1.744   7.006
 6466SOL    HW220298   0.058   1.879   0.068
 6467SOL     OW20299   3.854   0.541   1.163
 6467SOL    HW120300   3.874   0.574   1.255
 6467SOL    HW220301   3.920   0.470   1.138
 6468SOL     OW20302   3.490   6.467   1.815
 6468SOL    HW120303   3.540   6.444   1.898
 6468SOL    HW220304   3.489   6.388   1.754
 6469SOL     OW20305   3.444   2.103   4.163
 6469SOL    HW120306   3.393   2.098   4.249
 6469SOL    HW220307   3.387   2.069   4.088
 6470SOL     OW20308   6.097   2.387   0.139
 6470SOL    HW120309   6.032   2.352   0.206
 6470SOL    HW220310   6.189   2.355   0.161
 6471SOL     OW20311   0.896   6.219   5.605
 6471SOL    HW120312   0.824   6.190   5.667
 6471SOL    HW220313   0.863   6.293   5.546
 6472SOL     OW20314   6.027   5.596   2.725
 6472SOL    HW120315   5.934   5.565   2.741
 6472SOL    HW220316   6.047   5.592   2.627
 6473SOL     OW20317   2.097   1.819   4.908
 6473SOL    HW120318   2.170   1.862   4.856
 6473SOL    HW220319   2.095   1.720   4.889
 6474SOL     OW20320   3.670   5.547   5.947
 6474SOL    HW120321   3.752   5.603   5.958
 6474SOL    HW220322   3.592   5.605   5.925
 6475SOL     OW20323   5.948   4.742   3.734
 6475SOL    HW120324   5.986   4.651   3.715
 6475SOL    HW220325   5.926   4.788   3.649
 6476SOL     OW20326   4.715   3.195   6.266
 6476SOL    HW120327   4.708   3.271   6.330
 6476SOL    HW220328   4.799   3.144   6.283
 6477SOL     OW20329   6.061   5.288   0.737
 6477SOL    HW120330   6.122   5.367   0.748
 6477SOL    HW220331   5.973   5.308   0.782
 6478SOL     OW20332   3.277   6.904   2.543
 6478SOL    HW120333   3.294   6.899   2.445
 6478SOL    HW220334   3.351   6.955   2.587
 6479SOL     OW20335   3.288   5.055   4.592
 6479SOL    HW120336   3.344   5.125   4.635
 6479SOL    HW220337   3.204   5.096   4.557
 6480SOL     OW20338   2.038   1.431   0.260
 6480SOL    HW120339   2.078   1.517   0.226
 6480SOL    HW220340   2.047   1.361   0.189
 6481SOL     OW20341   3.278   2.658   1.721
 6481SOL    HW120342   3.321   2.580   1.768
 6481SOL    HW220343   3.346   2.729   1.705
 6482SOL     OW20344   6.349   2.588   6.312
 6482SOL    HW120345   6.262   2.599   6.360
 6482SOL    HW220346   6.350   2.645   6.230
 6483SOL     OW20347   0.485   6.215   4.024
 6483SOL    HW120348   0.505   6.234   4.120
 6483SOL    HW220349   0.420   6.284   3.990
 6484SOL     OW20350   3.018   1.274   2.525
 6484SOL    HW120351   2.980   1.192   2.568
 6484SOL    HW220352   2.990   1.278   2.429
 6485SOL     OW20353   1.762   5.954   3.765
 6485SOL    HW120354   1.799   5.867   3.735
 6485SOL    HW220355   1.757   5.955   3.865
 6486SOL     OW20356   0.598   5.244   2.542
 6486SOL    HW120357   0.659   5.187   2.487
 6486SOL    HW220358   0.558   5.190   2.616
 6487SOL     OW20359   0.941   6.514   5.477
 6487SOL    HW120360   1.015   6.480   5.535
 6487SOL    HW220361   0.965   6.605   5.443
 6488SOL     OW20362   4.344   5.963   4.778
 6488SOL    HW120363   4.322   6.049   4.731
 6488SOL    HW220364   4.402   5.982   4.857
 6489SOL     OW20365   3.417   3.438   6.181
 6489SOL    HW120366   3.348   3.504   6.211
 6489SOL    HW220367   3.383   3.389   6.101
 6490SOL     OW20368   3.114   1.193   6.229
 6490SOL    HW120369   3.201   1.179   6.183
 6490SOL    HW220370   3.065   1.268   6.185
 6491SOL     OW20371   2.936   0.944   1.670
 6491SOL    HW120372   3.005   0.875   1.693
 6491SOL    HW220373   2.967   1.034   1.699
 6492SOL     OW20374   4.091   3.336   5.033
 6492SOL    HW120375   4.091   3.279   4.951
 6492SOL    HW220376   4.112   3.431   5.007
 6493SOL     OW20377   1.306   4.555   6.516
 6493SOL    HW120378   1.310   4.639   6.570
 6493SOL    HW220379   1.359   4.484   6.561
 6494SOL     OW20380   6.734   6.513   2.490
 6494SOL    HW120381   6.765   6.577   2.419
 6494SOL    HW220382   6.699   6.565   2.568
 6495SOL     OW20383   6.312   0.630   4.328
 6495SOL    HW120384   6.248   0.578   4.270
 6495SOL    HW220385   6.383   0.569   4.363
 6496SOL     OW20386   5.883   0.053   1.537
 6496SOL    HW120387   5.941   0.112   1.592
 6496SOL    HW220388   5.921   0.046   1.445
 6497SOL     OW20389   1.296   0.218   1.115
 6497SOL    HW120390   1.308   0.125   1.152
 6497SOL    HW220391   1.285   0.282   1.191
 6498SOL     OW20392   0.587   4.046   4.568
 6498SOL    HW120393   0.672   4.092   4.542
 6498SOL    HW220394   0.516   4.066   4.500
 6499SOL     OW20395   5.636   3.697   4.679
 6499SOL    HW120396   5.598   3.767   4.740
 6499SOL    HW220397   5.613   3.719   4.585
 6500SOL     OW20398   0.254   3.994   2.611
 6500SOL    HW120399   0.253   4.011   2.709
 6500SOL    HW220400   0.179   4.042   2.567
 6501SOL     OW20401   0.208   1.181   1.134
 6501SOL    HW120402   0.243   1.218   1.047
 6501SOL    HW220403   0.284   1.157   1.193
 6502SOL     OW20404   6.956   3.713   1.335
 6502SOL    HW120405   6.870   3.747   1.374
 6502SOL    HW220406   6.993   3.641   1.395
 6503SOL     OW20407   5.487   1.107   3.570
 6503SOL    HW120408   5.546   1.087   3.648
 6503SOL    HW220409   5.539   1.158   3.501
 6504SOL     OW20410   3.553   6.382   6.968
 6504SOL    HW120411   3.539   6.314   0.013
 6504SOL    HW220412   3.465   6.425   6.946
 6505SOL     OW20413   4.259   6.292   6.139
 6505SOL    HW120414   4.187   6.269   6.204
 6505SOL    HW220415   4.344   6.246   6.165
 6506SOL     OW20416   0.062   2.995   3.640
 6506SOL    HW120417   0.107   3.085   3.647
 6506SOL    HW220418   0.110   2.939   3.573
 6507SOL     OW20419   2.832   5.615   6.028
 6507SOL    HW120420   2.814   5.674   5.949
 6507SOL    HW220421   2.747   5.602   6.080
 6508SOL     OW20422   1.676   0.615   2.492
 6508SOL    HW120423   1.645   0.523   2.472
 6508SOL    HW220424   1.641   0.679   2.423
 6509SOL     OW20425   4.833   1.539   4.881
 6509SOL    HW120426   4.819   1.629   4.840
 6509SOL    HW220427   4.902   1.545   4.953
 6510SOL     OW20428   5.037   5.289   6.421
 6510SOL    HW120429   4.941   5.319   6.423
 6510SOL    HW220430   5.042   5.193   6.450
 6511SOL     OW20431   4.463   1.287   5.116
 6511SOL    HW120432   4.495   1.192   5.106
 6511SOL    HW220433   4.379   1.300   5.064
 6512SOL     OW20434   3.074   6.749   2.639
 6512SOL    HW120435   3.116   6.659   2.629
 6512SOL    HW220436   3.127   6.816   2.586
 6513SOL     OW20437   1.921   6.086   4.096
 6513SOL    HW120438   1.952   6.166   4.147
 6513SOL    HW220439   1.999   6.038   4.057
 6514SOL     OW20440   5.962   0.811   4.446
 6514SOL    HW120441   6.060   0.824   4.433
 6514SOL    HW220442   5.932   0.864   4.525
 6515SOL     OW20443   1.454   3.764   2.484
 6515SOL    HW120444   1.372   3.722   2.444
 6515SOL    HW220445   1.532   3.748   2.424
 6516SOL     OW20446   6.821   3.274   1.155
 6516SOL    HW120447   6.828   3.331   1.237
 6516SOL    HW220448   6.845   3.329   1.074
 6517SOL     OW20449   0.326   1.893   1.313
 6517SOL    HW120450   0.319   1.982   1.267
 6517SOL    HW220451   0.243   1.876   1.365
 6518SOL     OW20452   0.328   0.436   2.214
 6518SOL    HW120453   0.242   0.398   2.248
 6518SOL    HW220454   0.355   0.515   2.270
 6519SOL     OW20455   0.179   2.027   2.963
 6519SOL    HW120456   0.109   1.970   2.921
 6519SOL    HW220457   0.270   1.991   2.939
 6520SOL     OW20458   6.781   5.649   6.775
 6520SOL    HW120459   6.817   5.712   6.844
 6520SOL    HW220460   6.688   5.678   6.749
 6521SOL     OW20461   2.301   2.853   3.931
 6521SOL    HW120462   2.258   2.882   4.016
 6521SOL    HW220463   2.257   2.770   3.897
 6522SOL     OW20464   2.312   4.724   5.283
 6522SOL    HW120465   2.369   4.666   5.341
 6522SOL    HW220466   2.359   4.742   5.196
 6523SOL     OW20467   3.821   0.664   6.628
 6523SOL    HW120468   3.772   0.718   6.559
 6523SOL    HW220469   3.759   0.595   6.666
 6524SOL     OW20470   2.900   2.542   1.404
 6524SOL    HW120471   2.841   2.546   1.323
 6524SOL    HW220472   2.938   2.633   1.421
 6525SOL     OW20473   2.077   5.058   3.195
 6525SOL    HW120474   2.082   5.151   3.159
 6525SOL    HW220475   2.006   5.053   3.265
 6526SOL     OW20476   0.601   0.444   1.079
 6526SOL    HW120477   0.538   0.374   1.113
 6526SOL    HW220478   0.660   0.405   1.009
 6527SOL     OW20479   6.651   2.134   0.195
 6527SOL    HW120480   6.635   2.149   0.097
 6527SOL    HW220481   6.686   2.042   0.209
 6528SOL     OW20482   6.540   1.659   5.317
 6528SOL    HW120483   6.519   1.645   5.414
 6528SOL    HW220484   6.539   1.757   5.296
 6529SOL     OW20485   1.025   0.927   2.575
 6529SOL    HW120486   1.099   0.863   2.597
 6529SOL    HW220487   0.941   0.876   2.558
 6530SOL     OW20488   0.229   1.689   0.821
 6530SOL    HW120489   0.275   1.688   0.910
 6530SOL    HW220490   0.210   1.784   0.795
 6531SOL     OW20491   5.052   3.524   5.125
 6531SOL    HW120492   4.956   3.547   5.112
 6531SOL    HW220493   5.104   3.607   5.144
 6532SOL     OW20494   2.040   1.323   1.032
 6532SOL    HW120495   2.077   1.345   1.122
 6532SOL    HW220496   1.949   1.361   1.022
 6533SOL     OW20497   3.978   5.846   0.476
 6533SOL    HW120498   3.896   5.789   0.469
 6533SOL    HW220499   4.024   5.850   0.387
 6534SOL     OW20500   4.951   5.263   1.772
 6534SOL    HW120501   4.955   5.199   1.695
 6534SOL    HW220502   4.856   5.293   1.785
 6535SOL     OW20503   6.263   4.628   4.383
 6535SOL    HW120504   6.186   4.654   4.442
 6535SOL    HW220505   6.255   4.676   4.296
 6536SOL     OW20506   0.459   1.927   5.108
 6536SOL    HW120507   0.417   1.850   5.059
 6536SOL    HW220508   0.551   1.901   5.139
 6537SOL     OW20509   6.663   4.541   4.993
 6537SOL    HW120510   6.632   4.463   4.940
 6537SOL    HW220511   6.616   4.624   4.961
 6538SOL     OW20512   1.359   3.546   5.734
 6538SOL    HW120513   1.260   3.532   5.732
 6538SOL    HW220514   1.382   3.610   5.808
 6539SOL     OW20515   4.812   0.504   6.731
 6539SOL    HW120516   4.864   0.527   6.813
 6539SOL    HW220517   4.724   0.465   6.756
 6540SOL     OW20518   3.719   2.661   6.216
 6540SOL    HW120519   3.627   2.662   6.256
 6540SOL    HW220520   3.728   2.737   6.152
 6541SOL     OW20521   5.630   2.160   6.110
 6541SOL    HW120522   5.611   2.196   6.201
 6541SOL    HW220523   5.707   2.209   6.070
 6542SOL     OW20524   1.244   3.420   3.944
 6542SOL    HW120525   1.267   3.517   3.935
 6542SOL    HW220526   1.284   3.383   4.028
 6543SOL     OW20527   4.129   2.780   5.586
 6543SOL    HW120528   4.171   2.760   5.498
 6543SOL    HW220529   4.038   2.819   5.572
 6544SOL     OW20530   0.893   6.582   3.026
 6544SOL    HW120531   0.934   6.663   2.986
 6544SOL    HW220532   0.964   6.515   3.048
 6545SOL     OW20533   3.945   0.561   0.320
 6545SOL    HW120534   4.035   0.518   0.329
 6545SOL    HW220535   3.937   0.604   0.230
 6546SOL     OW20536   3.659   4.132   6.282
 6546SOL    HW120537   3.636   4.044   6.240
 6546SOL    HW220538   3.698   4.192   6.213
 6547SOL     OW20539   4.897   0.848   6.433
 6547SOL    HW120540   4.845   0.840   6.348
 6547SOL    HW220541   4.927   0.757   6.461
 6548SOL     OW20542   1.570   2.774   0.656
 6548SOL    HW120543   1.485   2.824   0.670
 6548SOL    HW220544   1.596   2.727   0.740
 6549SOL     OW20545   4.493   0.257   2.496
 6549SOL    HW120546   4.480   0.282   2.592
 6549SOL    HW220547   4.405   0.260   2.448
 6550SOL     OW20548   0.421   6.720   4.145
 6550SOL    HW120549   0.380   6.682   4.062
 6550SOL    HW220550   0.433   6.819   4.135
 6551SOL     OW20551   2.246   3.633   1.706
 6551SOL    HW120552   2.188   3.596   1.634
 6551SOL    HW220553   2.291   3.558   1.755
 6552SOL     OW20554   2.243   6.707   0.576
 6552SOL    HW120555   2.149   6.694   0.544
 6552SOL    HW220556   2.265   6.638   0.644
 6553SOL     OW20557   1.054   2.293   3.110
 6553SOL    HW120558   1.026   2.198   3.093
 6553SOL    HW220559   0.984   2.355   3.075
 6554SOL     OW20560   1.872   0.439   4.353
 6554SOL    HW120561   1.956   0.446   4.406
 6554SOL    HW220562   1.793   0.450   4.415
 6555SOL     OW20563   5.867   2.047   3.618
 6555SOL    HW120564   5.889   2.035   3.715
 6555SOL    HW220565   5.950   2.074   3.568
 6556SOL     OW20566   6.213   3.363   3.152
 6556SOL    HW120567   6.257   3.403   3.072
 6556SOL    HW220568   6.245   3.269   3.164
 6557SOL     OW20569   2.527   0.793   3.431
 6557SOL    HW120570   2.468   0.749   3.363
 6557SOL    HW220571   2.475   0.811   3.514
 6558SOL     OW20572   5.771   5.879   0.396
 6558SOL    HW120573   5.849   5.862   0.457
 6558SOL    HW220574   5.740   5.792   0.357
 6559SOL     OW20575   0.166   4.157   6.482
 6559SOL    HW120576   0.115   4.104   6.415
 6559SOL    HW220577   0.133   4.252   6.482
 6560SOL     OW20578   3.557   4.584   1.293
 6560SOL    HW120579   3.599   4.588   1.384
 6560SOL    HW220580   3.602   4.650   1.233
 6561SOL     OW20581   3.210   4.178   1.224
 6561SOL    HW120582   3.249   4.110   1.285
 6561SOL    HW220583   3.259   4.264   1.233
 6562SOL     OW20584   5.798   2.076   0.808
 6562SOL    HW120585   5.701   2.081   0.785
 6562SOL    HW220586   5.813   1.997   0.868
 6563SOL     OW20587   5.432   6.150   5.914
 6563SOL    HW120588   5.371   6.214   5.867
 6563SOL    HW220589   5.482   6.197   5.986
 6564SOL     OW20590   6.649   3.375   1.653
 6564SOL    HW120591   6.633   3.397   1.557
 6564SOL    HW220592   6.668   3.278   1.663
 6565SOL     OW20593   6.218   6.726   2.962
 6565SOL    HW120594   6.237   6.786   3.040
 6565SOL    HW220595   6.172   6.779   2.890
 6566SOL     OW20596   3.398   6.270   2.874
 6566SOL    HW120597   3.416   6.174   2.853
 6566SOL    HW220598   3.416   6.287   2.971
 6567SOL     OW20599   5.150   0.866   2.414
 6567SOL    HW120600   5.226   0.890   2.353
 6567SOL    HW220601   5.094   0.796   2.371
 6568SOL     OW20602   3.643   1.779   3.750
 6568SOL    HW120603   3.554   1.810   3.716
 6568SOL    HW220604   3.696   1.859   3.778
 6569SOL     OW20605   2.135   2.452   6.742
 6569SOL    HW120606   2.189   2.430   6.824
 6569SOL    HW220607   2.099   2.545   6.750
 6570SOL     OW20608   3.301   0.798   2.438
 6570SOL    HW120609   3.349   0.865   2.494
 6570SOL    HW220610   3.279   0.839   2.349
 6571SOL     OW20611   2.825   4.893   2.653
 6571SOL    HW120612   2.838   4.986   2.618
 6571SOL    HW220613   2.727   4.873   2.658
 6572SOL     OW20614   0.214   4.451   4.340
 6572SOL    HW120615   0.191   4.545   4.315
 6572SOL    HW220616   0.156   4.388   4.289
 6573SOL     OW20617   0.699   1.896   2.636
 6573SOL    HW120618   0.753   1.896   2.552
 6573SOL    HW220619   0.761   1.892   2.715
 6574SOL     OW20620   2.539   5.651   2.833
 6574SOL    HW120621   2.490   5.729   2.872
 6574SOL    HW220622   2.481   5.570   2.838
 6575SOL     OW20623   0.237   6.538   3.362
 6575SOL    HW120624   0.295   6.619   3.366
 6575SOL    HW220625   0.217   6.517   3.266
 6576SOL     OW20626   3.013   6.028   0.930
 6576SOL    HW120627   3.010   6.128   0.932
 6576SOL    HW220628   2.934   5.990   0.977
 6577SOL     OW20629   1.686   1.801   3.441
 6577SOL    HW120630   1.780   1.823   3.469
 6577SOL    HW220631   1.674   1.702   3.437
 6578SOL     OW20632   0.986   6.490   2.099
 6578SOL    HW120633   1.019   6.551   2.027
 6578SOL    HW220634   0.889   6.472   2.086
 6579SOL     OW20635   6.426   2.790   3.831
 6579SOL    HW120636   6.412   2.715   3.766
 6579SOL    HW220637   6.337   2.823   3.863
 6580SOL     OW20638   0.662   1.921   0.373
 6580SOL    HW120639   0.651   1.984   0.450
 6580SOL    HW220640   0.643   1.969   0.287
 6581SOL     OW20641   2.104   0.833   0.849
 6581SOL    HW120642   2.178   0.774   0.818
 6581SOL    HW220643   2.107   0.920   0.799
 6582SOL     OW20644   0.063   1.152   3.010
 6582SOL    HW120645   0.035   1.071   2.959
 6582SOL    HW220646   0.066   1.131   3.108
 6583SOL     OW20647   4.583   6.184   5.195
 6583SOL    HW120648   4.570   6.119   5.270
 6583SOL    HW220649   4.681   6.198   5.180
 6584SOL     OW20650   4.257   1.749   0.137
 6584SOL    HW120651   4.242   1.751   0.235
 6584SOL    HW220652   4.190   1.808   0.092
 6585SOL     OW20653   5.787   6.038   0.099
 6585SOL    HW120654   5.729   5.997   0.029
 6585SOL    HW220655   5.829   6.121   0.063
 6586SOL     OW20656   6.178   1.746   5.660
 6586SOL    HW120657   6.135   1.836   5.663
 6586SOL    HW220658   6.178   1.713   5.565
 6587SOL     OW20659   1.377   4.794   6.617
 6587SOL    HW120660   1.467   4.787   6.574
 6587SOL    HW220661   1.325   4.866   6.572
 6588SOL     OW20662   0.896   2.569   1.559
 6588SOL    HW120663   0.991   2.540   1.571
 6588SOL    HW220664   0.874   2.640   1.625
 6589SOL     OW20665   4.513   0.754   2.328
 6589SOL    HW120666   4.549   0.661   2.320
 6589SOL    HW220667   4.534   0.790   2.419
 6590SOL     OW20668   0.836   1.014   6.321
 6590SOL    HW120669   0.820   0.925   6.363
 6590SOL    HW220670   0.772   1.027   6.245
 6591SOL     OW20671   5.178   5.865   3.738
 6591SOL    HW120672   5.178   5.854   3.639
 6591SOL    HW220673   5.265   5.905   3.767
 6592SOL     OW20674   5.253   6.074   2.977
 6592SOL    HW120675   5.233   6.038   3.069
 6592SOL    HW220676   5.216   6.166   2.968
 6593SOL     OW20677   2.634   2.392   2.306
 6593SOL    HW120678   2.690   2.366   2.385
 6593SOL    HW220679   2.647   2.326   2.232
 6594SOL     OW20680   3.591   1.332   5.707
 6594SOL    HW120681   3.638   1.410   5.667
 6594SOL    HW220682   3.493   1.350   5.711
 6595SOL     OW20683   1.209   3.946   6.286
 6595SOL    HW120684   1.288   3.967   6.228
 6595SOL    HW220685   1.241   3.900   6.369
 6596SOL     OW20686   3.738   0.040   4.249
 6596SOL    HW120687   3.700   0.112   4.306
 6596SOL    HW220688   3.770   0.079   4.163
 6597SOL     OW20689   1.480   4.985   1.850
 6597SOL    HW120690   1.399   4.928   1.861
 6597SOL    HW220691   1.456   5.071   1.806
 6598SOL     OW20692   1.706   4.807   3.478
 6598SOL    HW120693   1.642   4.850   3.541
 6598SOL    HW220694   1.765   4.877   3.437
 6599SOL     OW20695   4.495   6.150   6.630
 6599SOL    HW120696   4.430   6.081   6.661
 6599SOL    HW220697   4.534   6.121   6.542
 6600SOL     OW20698   3.941   6.475   4.707
 6600SOL    HW120699   4.040   6.487   4.698
 6600SOL    HW220700   3.908   6.525   4.787
 6601SOL     OW20701   0.866   2.345   4.007
 6601SOL    HW120702   0.856   2.259   4.058
 6601SOL    HW220703   0.778   2.370   3.967
 6602SOL     OW20704   1.673   0.203   1.141
 6602SOL    HW120705   1.676   0.194   1.241
 6602SOL    HW220706   1.758   0.246   1.109
 6603SOL     OW20707   0.859   3.112   3.536
 6603SOL    HW120708   0.913   3.184   3.493
 6603SOL    HW220709   0.791   3.078   3.472
 6604SOL     OW20710   2.179   6.115   1.456
 6604SOL    HW120711   2.246   6.150   1.522
 6604SOL    HW220712   2.096   6.170   1.461
 6605SOL     OW20713   5.363   5.114   2.300
 6605SOL    HW120714   5.338   5.201   2.258
 6605SOL    HW220715   5.343   5.117   2.397
 6606SOL     OW20716   6.462   5.363   2.183
 6606SOL    HW120717   6.427   5.441   2.132
 6606SOL    HW220718   6.536   5.319   2.131
 6607SOL     OW20719   0.728   4.678   3.455
 6607SOL    HW120720   0.820   4.637   3.449
 6607SOL    HW220721   0.732   4.773   3.422
 6608SOL     OW20722   0.059   6.440   6.840
 6608SOL    HW120723   0.123   6.516   6.831
 6608SOL    HW220724   0.006   6.451   6.925
 6609SOL     OW20725   5.635   1.114   0.028
 6609SOL    HW120726   5.704   1.109   0.101
 6609SOL    HW220727   5.559   1.172   0.058
 6610SOL     OW20728   2.573   6.790   0.268
 6610SOL    HW120729   2.671   6.770   0.276
 6610SOL    HW220730   2.557   6.886   0.290
 6611SOL     OW20731   4.746   2.924   3.317
 6611SOL    HW120732   4.732   2.896   3.222
 6611SOL    HW220733   4.836   2.894   3.348
 6612SOL     OW20734   6.790   2.190   6.525
 6612SOL    HW120735   6.814   2.150   6.436
 6612SOL    HW220736   6.695   2.221   6.522
 6613SOL     OW20737   6.356   6.485   5.523
 6613SOL    HW120738   6.416   6.430   5.465
 6613SOL    HW220739   6.397   6.497   5.613
 6614SOL     OW20740   4.657   6.343   6.965
 6614SOL    HW120741   4.598   6.304   0.009
 6614SOL    HW220742   4.664   6.442   6.979
 6615SOL     OW20743   1.285   5.460   1.610
 6615SOL    HW120744   1.330   5.548   1.625
 6615SOL    HW220745   1.196   5.475   1.567
 6616SOL     OW20746   4.488   0.042   6.601
 6616SOL    HW120747   4.453   0.049   6.507
 6616SOL    HW220748   4.420   7.023   6.658
 6617SOL     OW20749   4.348   6.054   3.410
 6617SOL    HW120750   4.367   6.060   3.508
 6617SOL    HW220751   4.399   6.125   3.361
 6618SOL     OW20752   1.901   1.673   2.650
 6618SOL    HW120753   1.958   1.653   2.570
 6618SOL    HW220754   1.919   1.766   2.681
 6619SOL     OW20755   4.984   0.296   4.193
 6619SOL    HW120756   5.075   0.312   4.233
 6619SOL    HW220757   4.981   0.333   4.101
 6620SOL     OW20758   2.102   3.342   5.223
 6620SOL    HW120759   2.073   3.339   5.127
 6620SOL    HW220760   2.170   3.271   5.239
 6621SOL     OW20761   4.018   3.075   5.551
 6621SOL    HW120762   3.939   3.115   5.506
 6621SOL    HW220763   4.058   3.142   5.614
 6622SOL     OW20764   5.888   6.134   2.382
 6622SOL    HW120765   5.888   6.034   2.374
 6622SOL    HW220766   5.796   6.168   2.362
 6623SOL     OW20767   4.047   3.489   5.424
 6623SOL    HW120768   4.082   3.413   5.368
 6623SOL    HW220769   4.047   3.573   5.370
 6624SOL     OW20770   0.872   4.390   5.317
 6624SOL    HW120771   0.965   4.408   5.285
 6624SOL    HW220772   0.841   4.302   5.282
 6625SOL     OW20773   5.227   1.487   4.703
 6625SOL    HW120774   5.204   1.583   4.715
 6625SOL    HW220775   5.322   1.479   4.672
 6626SOL     OW20776   2.960   6.829   5.647
 6626SOL    HW120777   2.978   6.861   5.553
 6626SOL    HW220778   3.045   6.797   5.688
 6627SOL     OW20779   1.929   6.528   3.657
 6627SOL    HW120780   1.903   6.496   3.566
 6627SOL    HW220781   1.977   6.455   3.706
 6628SOL     OW20782   5.908   5.099   4.598
 6628SOL    HW120783   5.886   5.003   4.613
 6628SOL    HW220784   5.950   5.111   4.508
 6629SOL     OW20785   4.823   5.972   6.200
 6629SOL    HW120786   4.869   5.884   6.194
 6629SOL    HW220787   4.873   6.040   6.146
 6630SOL     OW20788   3.698   1.799   1.463
 6630SOL    HW120789   3.619   1.813   1.523
 6630SOL    HW220790   3.670   1.751   1.381
 6631SOL     OW20791   2.153   5.961   4.398
 6631SOL    HW120792   2.186   5.872   4.367
 6631SOL    HW220793   2.054   5.956   4.412
 6632SOL     OW20794   0.786   0.795   0.920
 6632SOL    HW120795   0.765   0.831   1.011
 6632SOL    HW220796   0.879   0.757   0.919
 6633SOL     OW20797   2.027   5.422   6.328
 6633SOL    HW120798   1.968   5.486   6.280
 6633SOL    HW220799   2.097   5.388   6.265
 6634SOL     OW20800   5.527   1.706   5.263
 6634SOL    HW120801   5.521   1.649   5.345
 6634SOL    HW220802   5.619   1.741   5.253
 6635SOL     OW20803   5.209   4.698   3.974
 6635SOL    HW120804   5.274   4.771   3.953
 6635SOL    HW220805   5.154   4.724   4.053
 6636SOL     OW20806   4.583   1.801   0.606
 6636SOL    HW120807   4.576   1.900   0.592
 6636SOL    HW220808   4.541   1.777   0.693
 6637SOL     OW20809   1.756   6.836   6.922
 6637SOL    HW120810   1.670   6.787   6.904
 6637SOL    HW220811   1.830   6.769   6.932
 6638SOL     OW20812   3.049   3.502   3.168
 6638SOL    HW120813   3.006   3.530   3.082
 6638SOL    HW220814   3.038   3.574   3.237
 6639SOL     OW20815   4.282   4.229   0.076
 6639SOL    HW120816   4.306   4.134   0.097
 6639SOL    HW220817   4.332   4.258   7.021
 6640SOL     OW20818   0.140   1.948   5.276
 6640SOL    HW120819   0.105   1.872   5.331
 6640SOL    HW220820   0.125   1.929   5.179
 6641SOL     OW20821   3.300   1.800   6.840
 6641SOL    HW120822   3.361   1.724   6.819
 6641SOL    HW220823   3.354   1.882   6.860
 6642SOL     OW20824   2.906   5.965   6.315
 6642SOL    HW120825   2.940   5.876   6.283
 6642SOL    HW220826   2.818   5.984   6.272
 6643SOL     OW20827   5.559   6.473   0.024
 6643SOL    HW120828   5.568   6.552   6.991
 6643SOL    HW220829   5.574   6.389   6.999
 6644SOL     OW20830   2.243   5.828   1.773
 6644SOL    HW120831   2.321   5.772   1.746
 6644SOL    HW220832   2.266   5.925   1.759
 6645SOL     OW20833   5.172   3.583   0.836
 6645SOL    HW120834   5.188   3.488   0.865
 6645SOL    HW220835   5.101   3.584   0.766
 6646SOL     OW20836   5.030   1.537   5.093
 6646SOL    HW120837   5.099   1.563   5.026
 6646SOL    HW220838   5.047   1.443   5.124
 6647SOL     OW20839   4.491   0.076   0.180
 6647SOL    HW120840   4.456   0.158   0.136
 6647SOL    HW220841   4.587   0.089   0.205
 6648SOL     OW20842   3.076   6.947   4.560
 6648SOL    HW120843   3.058   6.855   4.594
 6648SOL    HW220844   3.074   7.011   4.637
 6649SOL     OW20845   5.924   1.781   5.950
 6649SOL    HW120846   6.022   1.772   5.969
 6649SOL    HW220847   5.902   1.733   5.865
 6650SOL     OW20848   3.812   1.671   5.192
 6650SOL    HW120849   3.753   1.731   5.139
 6650SOL    HW220850   3.827   1.710   5.283
 6651SOL     OW20851   1.749   1.286   5.800
 6651SOL    HW120852   1.811   1.236   5.860
 6651SOL    HW220853   1.664   1.307   5.849
 6652SOL     OW20854   0.216   4.599   6.528
 6652SOL    HW120855   0.219   4.699   6.521
 6652SOL    HW220856   0.283   4.559   6.465
 6653SOL     OW20857   4.227   2.941   1.362
 6653SOL    HW120858   4.155   3.006   1.388
 6653SOL    HW220859   4.316   2.987   1.365
 6654SOL     OW20860   1.668   5.344   1.728
 6654SOL    HW120861   1.727   5.305   1.799
 6654SOL    HW220862   1.722   5.404   1.670
 6655SOL     OW20863   6.576   6.240   2.769
 6655SOL    HW120864   6.532   6.155   2.798
 6655SOL    HW220865   6.605   6.231   2.674
 6656SOL     OW20866   6.181   1.895   2.816
 6656SOL    HW120867   6.278   1.900   2.792
 6656SOL    HW220868   6.156   1.976   2.870
 6657SOL     OW20869   6.320   3.524   4.919
 6657SOL    HW120870   6.402   3.493   4.968
 6657SOL    HW220871   6.243   3.466   4.945
 6658SOL     OW20872   5.268   0.091   5.514
 6658SOL    HW120873   5.187   0.035   5.531
 6658SOL    HW220874   5.240   0.182   5.483
 6659SOL     OW20875   1.918   2.829   1.453
 6659SOL    HW120876   1.948   2.896   1.521
 6659SOL    HW220877   1.911   2.739   1.495
 6660SOL     OW20878   1.154   5.123   1.656
 6660SOL    HW120879   1.110   5.212   1.669
 6660SOL    HW220880   1.250   5.137   1.630
 6661SOL     OW20881   2.302   0.117   5.124
 6661SOL    HW120882   2.353   0.117   5.038
 6661SOL    HW220883   2.367   0.122   5.201
 6662SOL     OW20884   1.372   1.231   0.289
 6662SOL    HW120885   1.379   1.131   0.295
 6662SOL    HW220886   1.311   1.256   0.214
 6663SOL     OW20887   6.793   6.651   4.803
 6663SOL    HW120888   6.735   6.631   4.882
 6663SOL    HW220889   6.874   6.702   4.833
 6664SOL     OW20890   1.883   6.680   0.668
 6664SOL    HW120891   1.909   6.762   0.719
 6664SOL    HW220892   1.949   6.608   0.686
 6665SOL     OW20893   1.697   6.812   4.799
 6665SOL    HW120894   1.652   6.772   4.719
 6665SOL    HW220895   1.749   6.741   4.847
 6666SOL     OW20896   6.421   6.025   5.684
 6666SOL    HW120897   6.334   5.992   5.646
 6666SOL    HW220898   6.461   5.955   5.742
 6667SOL     OW20899   6.807   6.635   5.388
 6667SOL    HW120900   6.751   6.601   5.464
 6667SOL    HW220901   6.899   6.596   5.396
 6668SOL     OW20902   6.427   6.080   0.968
 6668SOL    HW120903   6.450   6.063   1.064
 6668SOL    HW220904   6.438   6.178   0.948
 6669SOL     OW20905   3.093   2.080   2.080
 6669SOL    HW120906   3.142   2.075   2.167
 6669SOL    HW220907   3.035   2.162   2.080
 6670SOL     OW20908   3.187   1.210   5.414
 6670SOL    HW120909   3.246   1.185   5.491
 6670SOL    HW220910   3.092   1.188   5.436
 6671SOL     OW20911   5.000   7.021   0.210
 6671SOL    HW120912   5.003   0.021   0.306
 6671SOL    HW220913   5.034   6.928   0.201
 6672SOL     OW20914   6.336   1.664   0.529
 6672SOL    HW120915   6.258   1.681   0.590
 6672SOL    HW220916   6.420   1.661   0.583
 6673SOL     OW20917   4.701   4.155   3.687
 6673SOL    HW120918   4.718   4.176   3.783
 6673SOL    HW220919   4.767   4.087   3.655
 6674SOL     OW20920   6.887   4.201   0.441
 6674SOL    HW120921   6.953   4.245   0.503
 6674SOL    HW220922   6.879   4.257   0.358
 6675SOL     OW20923   6.271   2.910   0.100
 6675SOL    HW120924   6.184   2.903   0.052
 6675SOL    HW220925   6.271   2.988   0.161
 6676SOL     OW20926   0.578   3.718   5.101
 6676SOL    HW120927   0.557   3.620   5.098
 6676SOL    HW220928   0.612   3.742   5.192
 6677SOL     OW20929   0.576   1.520   6.509
 6677SOL    HW120930   0.581   1.458   6.431
 6677SOL    HW220931   0.643   1.594   6.497
 6678SOL     OW20932   3.292   3.969   0.369
 6678SOL    HW120933   3.232   4.019   0.306
 6678SOL    HW220934   3.381   4.014   0.372
 6679SOL     OW20935   4.029   0.300   3.959
 6679SOL    HW120936   3.993   0.375   3.904
 6679SOL    HW220937   4.018   0.322   4.056
 6680SOL     OW20938   4.463   6.512   6.370
 6680SOL    HW120939   4.496   6.504   6.463
 6680SOL    HW220940   4.363   6.522   6.371
 6681SOL     OW20941   4.722   5.936   0.473
 6681SOL    HW120942   4.791   5.973   0.535
 6681SOL    HW220943   4.700   6.003   0.403
 6682SOL     OW20944   2.044   4.936   0.243
 6682SOL    HW120945   2.067   4.938   0.341
 6682SOL    HW220946   2.112   4.989   0.192
 6683SOL     OW20947   5.930   3.333   5.368
 6683SOL    HW120948   5.903   3.387   5.448
 6683SOL    HW220949   5.945   3.395   5.290
 6684SOL     OW20950   3.590   6.497   2.580
 6684SOL    HW120951   3.639   6.494   2.667
 6684SOL    HW220952   3.627   6.427   2.518
 6685SOL     OW20953   4.566   2.971   6.347
 6685SOL    HW120954   4.483   2.994   6.397
 6685SOL    HW220955   4.623   3.053   6.338
 6686SOL     OW20956   5.350   5.579   3.868
 6686SOL    HW120957   5.252   5.560   3.875
 6686SOL    HW220958   5.398   5.534   3.943
 6687SOL     OW20959   0.923   3.293   2.131
 6687SOL    HW120960   0.989   3.348   2.080
 6687SOL    HW220961   0.872   3.235   2.068
 6688SOL     OW20962   3.900   4.683   1.340
 6688SOL    HW120963   3.845   4.616   1.389
 6688SOL    HW220964   3.842   4.758   1.309
 6689SOL     OW20965   5.097   4.087   5.745
 6689SOL    HW120966   5.015   4.052   5.791
 6689SOL    HW220967   5.137   4.159   5.800
 6690SOL     OW20968   0.616   6.966   0.691
 6690SOL    HW120969   0.549   7.013   0.749
 6690SOL    HW220970   0.682   6.917   0.749
 6691SOL     OW20971   2.264   0.539   2.222
 6691SOL    HW120972   2.337   0.476   2.249
 6691SOL    HW220973   2.178   0.509   2.262
 6692SOL     OW20974   3.915   3.941   3.460
 6692SOL    HW120975   3.997   3.995   3.446
 6692SOL    HW220976   3.925   3.885   3.542
 6693SOL     OW20977   4.292   2.184   4.991
 6693SOL    HW120978   4.241   2.141   4.917
 6693SOL    HW220979   4.281   2.284   4.986
 6694SOL     OW20980   4.181   6.062   1.749
 6694SOL    HW120981   4.277   6.087   1.760
 6694SOL    HW220982   4.141   6.040   1.838
 6695SOL     OW20983   2.963   2.577   6.375
 6695SOL    HW120984   2.906   2.513   6.324
 6695SOL    HW220985   2.960   2.667   6.332
 6696SOL     OW20986   3.794   2.958   4.299
 6696SOL    HW120987   3.783   2.953   4.200
 6696SOL    HW220988   3.885   2.925   4.324
 6697SOL     OW20989   4.916   2.015   3.026
 6697SOL    HW120990   4.953   2.092   2.973
 6697SOL    HW220991   4.986   1.945   3.037
 6698SOL     OW20992   2.900   2.596   0.882
 6698SOL    HW120993   2.811   2.632   0.910
 6698SOL    HW220994   2.891   2.548   0.795
 6699SOL     OW20995   2.099   6.504   5.575
 6699SOL    HW120996   2.145   6.420   5.605
 6699SOL    HW220997   2.165   6.578   5.568
 6700SOL     OW20998   6.904   1.621   1.140
 6700SOL    HW120999   6.947   1.688   1.080
 6700SOL    HW221000   6.809   1.647   1.156
 6701SOL     OW21001   5.333   4.949   1.484
 6701SOL    HW121002   5.278   5.032   1.487
 6701SOL    HW221003   5.322   4.904   1.395
 6702SOL     OW21004   2.172   2.401   1.304
 6702SOL    HW121005   2.163   2.356   1.393
 6702SOL    HW221006   2.238   2.476   1.311
 6703SOL     OW21007   6.659   6.930   0.735
 6703SOL    HW121008   6.743   6.875   0.732
 6703SOL    HW221009   6.666   6.996   0.811
 6704SOL     OW21010   3.903   2.086   3.441
 6704SOL    HW121011   3.901   1.986   3.443
 6704SOL    HW221012   3.975   2.117   3.380
 6705SOL     OW21013   6.028   2.984   0.380
 6705SOL    HW121014   6.116   3.006   0.423
 6705SOL    HW221015   6.020   3.034   0.294
 6706SOL     OW21016   0.646   5.923   1.127
 6706SOL    HW121017   0.707   5.960   1.057
 6706SOL    HW221018   0.690   5.927   1.217
 6707SOL     OW21019   5.536   6.505   3.345
 6707SOL    HW121020   5.599   6.558   3.401
 6707SOL    HW221021   5.464   6.564   3.309
 6708SOL     OW21022   5.485   5.278   1.086
 6708SOL    HW121023   5.571   5.237   1.055
 6708SOL    HW221024   5.468   5.251   1.181
 6709SOL     OW21025   1.310   5.949   3.026
 6709SOL    HW121026   1.349   6.040   3.036
 6709SOL    HW221027   1.227   5.954   2.970
 6710SOL     OW21028   3.529   0.869   6.245
 6710SOL    HW121029   3.460   0.914   6.188
 6710SOL    HW221030   3.620   0.897   6.215
 6711SOL     OW21031   5.624   6.641   5.410
 6711SOL    HW121032   5.651   6.547   5.431
 6711SOL    HW221033   5.526   6.643   5.391
 6712SOL     OW21034   5.458   3.502   1.301
 6712SOL    HW121035   5.518   3.573   1.338
 6712SOL    HW221036   5.514   3.428   1.264
 6713SOL     OW21037   1.097   1.019   3.527
 6713SOL    HW121038   1.009   1.055   3.496
 6713SOL    HW221039   1.136   1.079   3.596
 6714SOL     OW21040   6.980   1.808   6.430
 6714SOL    HW121041   6.881   1.823   6.426
 6714SOL    HW221042   7.007   1.788   6.524
 6715SOL     OW21043   1.871   0.413   0.957
 6715SOL    HW121044   1.886   0.508   0.929
 6715SOL    HW221045   1.952   0.359   0.934
 6716SOL     OW21046   0.354   5.684   1.734
 6716SOL    HW121047   0.437   5.630   1.720
 6716SOL    HW221048   0.276   5.637   1.693
 6717SOL     OW21049   3.161   3.251   6.497
 6717SOL    HW121050   3.097   3.308   6.445
 6717SOL    HW221051   3.120   3.227   6.585
 6718SOL     OW21052   4.491   6.905   0.827
 6718SOL    HW121053   4.560   6.929   0.759
 6718SOL    HW221054   4.535   6.889   0.915
 6719SOL     OW21055   2.910   0.092   0.456
 6719SOL    HW121056   2.933   0.106   0.552
 6719SOL    HW221057   2.820   0.129   0.437
 6720SOL     OW21058   1.923   0.742   3.429
 6720SOL    HW121059   1.933   0.706   3.337
 6720SOL    HW221060   1.864   0.681   3.483
 6721SOL     OW21061   0.068   6.571   0.171
 6721SOL    HW121062   0.148   6.512   0.162
 6721SOL    HW221063   0.063   6.606   0.265
 6722SOL     OW21064   6.309   2.516   0.338
 6722SOL    HW121065   6.349   2.558   0.420
 6722SOL    HW221066   6.315   2.416   0.346
 6723SOL     OW21067   1.108   0.211   4.713
 6723SOL    HW121068   1.062   0.269   4.780
 6723SOL    HW221069   1.197   0.183   4.750
 6724SOL     OW21070   2.092   3.409   6.359
 6724SOL    HW121071   2.003   3.434   6.396
 6724SOL    HW221072   2.079   3.355   6.276
 6725SOL     OW21073   6.689   2.106   1.490
 6725SOL    HW121074   6.663   2.083   1.396
 6725SOL    HW221075   6.708   2.204   1.497
 6726SOL     OW21076   1.039   2.831   3.919
 6726SOL    HW121077   1.024   2.871   4.009
 6726SOL    HW221078   1.051   2.905   3.852
 6727SOL     OW21079   0.253   4.715   5.553
 6727SOL    HW121080   0.194   4.671   5.485
 6727SOL    HW221081   0.210   4.799   5.586
 6728SOL     OW21082   3.996   2.138   2.850
 6728SOL    HW121083   4.035   2.177   2.767
 6728SOL    HW221084   4.066   2.131   2.920
 6729SOL     OW21085   6.982   1.066   0.671
 6729SOL    HW121086   7.004   1.012   0.590
 6729SOL    HW221087   7.021   1.158   0.662
 6730SOL     OW21088   1.810   6.734   1.351
 6730SOL    HW121089   1.864   6.783   1.283
 6730SOL    HW221090   1.788   6.643   1.317
 6731SOL     OW21091   1.424   6.699   1.162
 6731SOL    HW121092   1.345   6.705   1.222
 6731SOL    HW221093   1.428   6.608   1.119
 6732SOL     OW21094   6.097   4.236   4.548
 6732SOL    HW121095   6.174   4.172   4.553
 6732SOL    HW221096   6.046   4.221   4.464
 6733SOL     OW21097   3.700   5.578   6.620
 6733SOL    HW121098   3.622   5.532   6.662
 6733SOL    HW221099   3.669   5.630   6.541
 6734SOL     OW21100   6.093   2.533   5.027
 6734SOL    HW121101   6.047   2.471   4.963
 6734SOL    HW221102   6.170   2.577   4.980
 6735SOL     OW21103   6.361   3.413   4.501
 6735SOL    HW121104   6.284   3.350   4.510
 6735SOL    HW221105   6.359   3.480   4.575
 6736SOL     OW21106   2.676   3.373   6.677
 6736SOL    HW121107   2.675   3.301   6.608
 6736SOL    HW221108   2.594   3.430   6.669
 6737SOL     OW21109   1.743   3.354   1.251
 6737SOL    HW121110   1.747   3.305   1.338
 6737SOL    HW221111   1.829   3.402   1.236
 6738SOL     OW21112   1.644   5.885   3.328
 6738SOL    HW121113   1.681   5.942   3.255
 6738SOL    HW221114   1.610   5.943   3.402
 6739SOL     OW21115   4.904   6.618   4.291
 6739SOL    HW121116   4.935   6.584   4.380
 6739SOL    HW221117   4.970   6.592   4.221
 6740SOL     OW21118   6.786   0.190   5.790
 6740SOL    HW121119   6.868   0.164   5.739
 6740SOL    HW221120   6.785   0.290   5.803
 6741SOL     OW21121   3.304   2.799   5.546
 6741SOL    HW121122   3.274   2.705   5.564
 6741SOL    HW221123   3.339   2.840   5.630
 6742SOL     OW21124   5.750   5.518   3.058
 6742SOL    HW121125   5.823   5.450   3.065
 6742SOL    HW221126   5.768   5.592   3.122
 6743SOL     OW21127   3.658   4.547   6.465
 6743SOL    HW121128   3.679   4.585   6.555
 6743SOL    HW221129   3.729   4.573   6.400
 6744SOL     OW21130   6.840   5.110   5.429
 6744SOL    HW121131   6.914   5.043   5.424
 6744SOL    HW221132   6.851   5.178   5.356
 6745SOL     OW21133   6.925   6.629   3.537
 6745SOL    HW121134   6.954   6.721   3.562
 6745SOL    HW221135   6.849   6.600   3.596
 6746SOL     OW21136   0.663   0.401   3.764
 6746SOL    HW121137   0.696   0.495   3.763
 6746SOL    HW221138   0.642   0.371   3.671
 6747SOL     OW21139   5.590   1.523   6.374
 6747SOL    HW121140   5.603   1.481   6.463
 6747SOL    HW221141   5.654   1.483   6.308
 6748SOL     OW21142   3.655   1.870   3.321
 6748SOL    HW121143   3.585   1.802   3.301
 6748SOL    HW221144   3.716   1.835   3.392
 6749SOL     OW21145   3.706   4.287   0.689
 6749SOL    HW121146   3.692   4.193   0.658
 6749SOL    HW221147   3.768   4.288   0.767
 6750SOL     OW21148   3.612   2.041   4.452
 6750SOL    HW121149   3.557   1.972   4.408
 6750SOL    HW221150   3.604   2.032   4.552
 6751SOL     OW21151   5.197   0.284   3.397
 6751SOL    HW121152   5.277   0.309   3.452
 6751SOL    HW221153   5.126   0.353   3.407
 6752SOL     OW21154   2.078   0.092   2.744
 6752SOL    HW121155   2.067   0.031   2.666
 6752SOL    HW221156   2.161   0.068   2.794
 6753SOL     OW21157   3.309   0.962   6.103
 6753SOL    HW121158   3.239   0.906   6.059
 6753SOL    HW221159   3.289   1.059   6.086
 6754SOL     OW21160   0.050   0.693   0.554
 6754SOL    HW121161   0.054   0.676   0.652
 6754SOL    HW221162   0.141   0.688   0.515
 6755SOL     OW21163   4.434   1.954   2.046
 6755SOL    HW121164   4.460   1.992   1.957
 6755SOL    HW221165   4.335   1.943   2.050
 6756SOL     OW21166   3.631   6.378   4.575
 6756SOL    HW121167   3.649   6.402   4.480
 6756SOL    HW221168   3.673   6.290   4.596
 6757SOL     OW21169   3.049   2.438   0.146
 6757SOL    HW121170   2.969   2.460   0.090
 6757SOL    HW221171   3.075   2.342   0.130
 6758SOL     OW21172   6.320   1.598   2.053
 6758SOL    HW121173   6.368   1.678   2.090
 6758SOL    HW221174   6.238   1.581   2.107
 6759SOL     OW21175   1.496   3.834   3.024
 6759SOL    HW121176   1.413   3.804   3.072
 6759SOL    HW221177   1.505   3.782   2.939
 6760SOL     OW21178   0.057   3.429   2.312
 6760SOL    HW121179   7.023   3.505   2.290
 6760SOL    HW221180   0.129   3.461   2.374
 6761SOL     OW21181   6.666   2.406   5.366
 6761SOL    HW121182   6.680   2.472   5.292
 6761SOL    HW221183   6.572   2.411   5.399
 6762SOL     OW21184   1.027   4.551   4.846
 6762SOL    HW121185   1.120   4.553   4.882
 6762SOL    HW221186   1.012   4.630   4.786
 6763SOL     OW21187   6.550   5.763   3.870
 6763SOL    HW121188   6.649   5.779   3.865
 6763SOL    HW221189   6.516   5.799   3.957
 6764SOL     OW21190   1.914   5.287   1.342
 6764SOL    HW121191   1.857   5.205   1.333
 6764SOL    HW221192   1.868   5.354   1.400
 6765SOL     OW21193   5.715   5.169   3.817
 6765SOL    HW121194   5.740   5.222   3.898
 6765SOL    HW221195   5.707   5.073   3.842
 6766SOL     OW21196   4.766   6.877   5.530
 6766SOL    HW121197   4.734   6.845   5.441
 6766SOL    HW221198   4.850   6.931   5.518
 6767SOL     OW21199   1.954   0.986   1.062
 6767SOL    HW121200   2.013   1.067   1.058
 6767SOL    HW221201   2.003   0.907   1.027
 6768SOL     OW21202   1.688   0.197   4.780
 6768SOL    HW121203   1.680   0.246   4.867
 6768SOL    HW221204   1.772   0.142   4.780
 6769SOL     OW21205   2.715   0.868   6.629
 6769SOL    HW121206   2.810   0.843   6.610
 6769SOL    HW221207   2.671   0.897   6.544
 6770SOL     OW21208   6.760   1.034   2.951
 6770SOL    HW121209   6.672   1.078   2.928
 6770SOL    HW221210   6.785   0.971   2.877
 6771SOL     OW21211   4.973   1.927   3.567
 6771SOL    HW121212   5.024   1.918   3.481
 6771SOL    HW221213   4.919   1.845   3.583
 6772SOL     OW21214   4.108   2.208   2.608
 6772SOL    HW121215   4.205   2.199   2.586
 6772SOL    HW221216   4.056   2.222   2.524
 6773SOL     OW21217   6.323   5.157   2.254
 6773SOL    HW121218   6.235   5.172   2.209
 6773SOL    HW221219   6.381   5.237   2.242
 6774SOL     OW21220   1.121   3.459   5.338
 6774SOL    HW121221   1.086   3.416   5.255
 6774SOL    HW221222   1.074   3.545   5.353
 6775SOL     OW21223   2.644   2.263   2.064
 6775SOL    HW121224   2.740   2.285   2.044
 6775SOL    HW221225   2.632   2.164   2.067
 6776SOL     OW21226   5.011   4.113   6.959
 6776SOL    HW121227   5.042   4.193   6.908
 6776SOL    HW221228   4.936   4.068   6.910
 6777SOL     OW21229   4.687   4.566   0.734
 6777SOL    HW121230   4.779   4.605   0.728
 6777SOL    HW221231   4.625   4.634   0.772
 6778SOL     OW21232   6.000   5.492   1.940
 6778SOL    HW121233   6.076   5.557   1.951
 6778SOL    HW221234   5.958   5.475   2.029
 6779SOL     OW21235   5.437   5.466   6.969
 6779SOL    HW121236   5.459   5.381   6.920
 6779SOL    HW221237   5.376   5.522   6.912
 6780SOL     OW21238   1.220   2.507   2.095
 6780SOL    HW121239   1.239   2.593   2.047
 6780SOL    HW221240   1.193   2.527   2.189
 6781SOL     OW21241   6.840   2.032   4.298
 6781SOL    HW121242   6.904   1.956   4.295
 6781SOL    HW221243   6.746   1.997   4.294
 6782SOL     OW21244   0.193   0.664   3.025
 6782SOL    HW121245   0.123   0.687   2.958
 6782SOL    HW221246   0.249   0.588   2.991
 6783SOL     OW21247   6.300   1.376   5.474
 6783SOL    HW121248   6.372   1.355   5.407
 6783SOL    HW221249   6.223   1.420   5.427
 6784SOL     OW21250   1.655   2.975   0.490
 6784SOL    HW121251   1.606   2.889   0.505
 6784SOL    HW221252   1.705   3.001   0.572
 6785SOL     OW21253   5.886   5.619   4.472
 6785SOL    HW121254   5.927   5.595   4.560
 6785SOL    HW221255   5.946   5.588   4.398
 6786SOL     OW21256   1.744   2.191   0.224
 6786SOL    HW121257   1.707   2.237   0.305
 6786SOL    HW221258   1.705   2.232   0.142
 6787SOL     OW21259   2.151   2.713   0.307
 6787SOL    HW121260   2.169   2.759   0.394
 6787SOL    HW221261   2.055   2.726   0.282
 6788SOL     OW21262   1.031   4.087   1.322
 6788SOL    HW121263   1.104   4.128   1.376
 6788SOL    HW221264   1.002   4.152   1.251
 6789SOL     OW21265   0.289   5.381   2.714
 6789SOL    HW121266   0.229   5.311   2.678
 6789SOL    HW221267   0.347   5.342   2.785
 6790SOL     OW21268   0.128   3.652   0.933
 6790SOL    HW121269   0.215   3.671   0.887
 6790SOL    HW221270   0.074   3.736   0.939
 6791SOL     OW21271   4.205   2.359   1.929
 6791SOL    HW121272   4.296   2.333   1.960
 6791SOL    HW221273   4.157   2.407   2.002
 6792SOL     OW21274   6.432   6.428   5.053
 6792SOL    HW121275   6.501   6.488   5.013
 6792SOL    HW221276   6.432   6.340   5.006
 6793SOL     OW21277   1.734   1.950   0.695
 6793SOL    HW121278   1.761   1.968   0.601
 6793SOL    HW221279   1.682   2.028   0.730
 6794SOL     OW21280   4.744   1.254   5.726
 6794SOL    HW121281   4.733   1.342   5.681
 6794SOL    HW221282   4.657   1.205   5.726
 6795SOL     OW21283   2.531   6.562   0.661
 6795SOL    HW121284   2.484   6.500   0.597
 6795SOL    HW221285   2.521   6.527   0.754
 6796SOL     OW21286   0.025   0.227   2.360
 6796SOL    HW121287   6.976   0.168   2.386
 6796SOL    HW221288   0.081   0.180   2.292
 6797SOL     OW21289   6.678   1.754   1.734
 6797SOL    HW121290   6.739   1.685   1.774
 6797SOL    HW221291   6.732   1.830   1.698
 6798SOL     OW21292   5.205   6.977   2.225
 6798SOL    HW121293   5.161   6.988   2.315
 6798SOL    HW221294   5.261   6.895   2.225
 6799SOL     OW21295   6.904   6.610   1.955
 6799SOL    HW121296   6.886   6.543   1.883
 6799SOL    HW221297   6.828   6.675   1.961
 6800SOL     OW21298   2.128   3.710   2.081
 6800SOL    HW121299   2.159   3.617   2.063
 6800SOL    HW221300   2.182   3.774   2.026
 6801SOL     OW21301   1.233   0.029   2.625
 6801SOL    HW121302   1.310   0.090   2.607
 6801SOL    HW221303   1.166   0.076   2.683
 6802SOL     OW21304   3.008   6.013   1.265
 6802SOL    HW121305   2.973   5.992   1.356
 6802SOL    HW221306   2.960   5.958   1.197
 6803SOL     OW21307   4.603   3.227   5.382
 6803SOL    HW121308   4.670   3.249   5.312
 6803SOL    HW221309   4.570   3.133   5.369
 6804SOL     OW21310   3.247   5.081   3.783
 6804SOL    HW121311   3.191   5.148   3.832
 6804SOL    HW221312   3.308   5.129   3.719
 6805SOL     OW21313   0.361   5.029   6.292
 6805SOL    HW121314   0.420   5.105   6.316
 6805SOL    HW221315   0.411   4.965   6.233
 6806SOL     OW21316   5.849   0.754   3.569
 6806SOL    HW121317   5.821   0.812   3.646
 6806SOL    HW221318   5.947   0.736   3.575
 6807SOL     OW21319   3.290   3.587   1.329
 6807SOL    HW121320   3.346   3.586   1.412
 6807SOL    HW221321   3.195   3.563   1.352
 6808SOL     OW21322   6.894   2.300   5.443
 6808SOL    HW121323   6.812   2.324   5.391
 6808SOL    HW221324   6.881   2.323   5.539
 6809SOL     OW21325   0.968   2.920   1.401
 6809SOL    HW121326   0.885   2.969   1.373
 6809SOL    HW221327   0.981   2.930   1.499
 6810SOL     OW21328   1.516   1.130   2.712
 6810SOL    HW121329   1.571   1.098   2.789
 6810SOL    HW221330   1.510   1.230   2.715
 6811SOL     OW21331   6.016   3.674   1.153
 6811SOL    HW121332   6.075   3.649   1.077
 6811SOL    HW221333   5.963   3.756   1.128
 6812SOL     OW21334   2.953   3.867   4.385
 6812SOL    HW121335   2.969   3.933   4.459
 6812SOL    HW221336   2.857   3.841   4.384
 6813SOL     OW21337   5.395   2.491   2.346
 6813SOL    HW121338   5.421   2.576   2.393
 6813SOL    HW221339   5.411   2.414   2.407
 6814SOL     OW21340   3.592   1.752   6.139
 6814SOL    HW121341   3.630   1.719   6.226
 6814SOL    HW221342   3.652   1.823   6.102
 6815SOL     OW21343   3.398   6.621   1.150
 6815SOL    HW121344   3.489   6.660   1.142
 6815SOL    HW221345   3.333   6.692   1.178
 6816SOL     OW21346   6.654   6.753   6.485
 6816SOL    HW121347   6.576   6.776   6.543
 6816SOL    HW221348   6.658   6.654   6.471
 6817SOL     OW21349   2.482   2.551   2.953
 6817SOL    HW121350   2.490   2.570   2.855
 6817SOL    HW221351   2.568   2.512   2.986
 6818SOL     OW21352   2.532   6.327   2.039
 6818SOL    HW121353   2.544   6.350   1.942
 6818SOL    HW221354   2.618   6.345   2.088
 6819SOL     OW21355   5.119   2.005   3.327
 6819SOL    HW121356   5.173   1.924   3.304
 6819SOL    HW221357   5.035   2.006   3.273
 6820SOL     OW21358   2.372   5.476   2.326
 6820SOL    HW121359   2.306   5.513   2.391
 6820SOL    HW221360   2.463   5.510   2.347
 6821SOL     OW21361   3.803   2.124   4.878
 6821SOL    HW121362   3.874   2.092   4.941
 6821SOL    HW221363   3.797   2.223   4.881
 6822SOL     OW21364   4.997   2.702   6.262
 6822SOL    HW121365   4.984   2.752   6.177
 6822SOL    HW221366   5.009   2.605   6.242
 6823SOL     OW21367   4.569   3.467   5.536
 6823SOL    HW121368   4.471   3.451   5.527
 6823SOL    HW221369   4.618   3.383   5.514
 6824SOL     OW21370   1.080   2.071   0.327
 6824SOL    HW121371   1.044   2.000   0.266
 6824SOL    HW221372   1.177   2.085   0.308
 6825SOL     OW21373   4.951   6.228   1.302
 6825SOL    HW121374   4.950   6.136   1.263
 6825SOL    HW221375   4.862   6.248   1.344
 6826SOL     OW21376   1.644   3.308   3.389
 6826SOL    HW121377   1.624   3.280   3.295
 6826SOL    HW221378   1.725   3.259   3.422
 6827SOL     OW21379   4.402   5.677   6.206
 6827SOL    HW121380   4.465   5.606   6.237
 6827SOL    HW221381   4.365   5.652   6.117
 6828SOL     OW21382   3.119   1.892   1.739
 6828SOL    HW121383   3.171   1.904   1.824
 6828SOL    HW221384   3.089   1.981   1.705
 6829SOL     OW21385   4.913   6.377   5.337
 6829SOL    HW121386   4.897   6.309   5.265
 6829SOL    HW221387   4.826   6.411   5.371
 6830SOL     OW21388   4.973   1.120   3.443
 6830SOL    HW121389   5.015   1.104   3.532
 6830SOL    HW221390   5.044   1.143   3.376
 6831SOL     OW21391   1.396   0.678   6.580
 6831SOL    HW121392   1.433   0.609   6.518
 6831SOL    HW221393   1.319   0.725   6.536
 6832SOL     OW21394   2.593   3.677   0.878
 6832SOL    HW121395   2.579   3.776   0.884
 6832SOL    HW221396   2.605   3.640   0.971
 6833SOL     OW21397   3.168   4.722   6.385
 6833SOL    HW121398   3.101   4.649   6.375
 6833SOL    HW221399   3.201   4.750   6.295
 6834SOL     OW21400   4.443   6.380   1.091
 6834SOL    HW121401   4.527   6.383   1.038
 6834SOL    HW221402   4.416   6.473   1.117
 6835SOL     OW21403   3.723   0.697   4.567
 6835SOL    HW121404   3.721   0.597   4.558
 6835SOL    HW221405   3.659   0.737   4.501
 6836SOL     OW21406   2.614   4.599   0.503
 6836SOL    HW121407   2.681   4.573   0.433
 6836SOL    HW221408   2.571   4.517   0.540
 6837SOL     OW21409   0.375   1.896   2.290
 6837SOL    HW121410   0.446   1.825   2.286
 6837SOL    HW221411   0.333   1.906   2.200
 6838SOL     OW21412   3.468   6.192   0.130
 6838SOL    HW121413   3.511   6.102   0.139
 6838SOL    HW221414   3.431   6.220   0.219
 6839SOL     OW21415   5.539   1.150   6.783
 6839SOL    HW121416   5.571   1.133   6.876
 6839SOL    HW221417   5.524   1.063   6.736
 6840SOL     OW21418   3.311   0.959   4.777
 6840SOL    HW121419   3.355   0.870   4.786
 6840SOL    HW221420   3.237   0.967   4.845
 6841SOL     OW21421   4.163   4.542   6.744
 6841SOL    HW121422   4.243   4.483   6.755
 6841SOL    HW221423   4.085   4.503   6.793
 6842SOL     OW21424   2.498   4.200   0.840
 6842SOL    HW121425   2.566   4.272   0.860
 6842SOL    HW221426   2.546   4.114   0.820
 6843SOL     OW21427   6.467   6.605   1.293
 6843SOL    HW121428   6.368   6.605   1.308
 6843SOL    HW221429   6.512   6.555   1.367
 6844SOL     OW21430   5.242   0.617   3.917
 6844SOL    HW121431   5.210   0.617   4.012
 6844SOL    HW221432   5.317   0.681   3.907
 6845SOL     OW21433   6.473   3.869   2.797
 6845SOL    HW121434   6.545   3.801   2.785
 6845SOL    HW221435   6.401   3.854   2.729
 6846SOL     OW21436   3.815   2.996   6.915
 6846SOL    HW121437   3.806   2.900   6.943
 6846SOL    HW221438   3.743   3.050   6.959
 6847SOL     OW21439   0.185   3.156   4.468
 6847SOL    HW121440   0.125   3.119   4.397
 6847SOL    HW221441   0.272   3.105   4.468
 6848SOL     OW21442   4.911   5.418   3.768
 6848SOL    HW121443   4.838   5.393   3.832
 6848SOL    HW221444   4.961   5.497   3.803
 6849SOL     OW21445   4.206   5.148   5.229
 6849SOL    HW121446   4.190   5.050   5.221
 6849SOL    HW221447   4.202   5.190   5.138
 6850SOL     OW21448   5.654   3.567   2.088
 6850SOL    HW121449   5.703   3.645   2.126
 6850SOL    HW221450   5.569   3.553   2.139
 6851SOL     OW21451   0.442   1.774   3.001
 6851SOL    HW121452   0.416   1.717   3.079
 6851SOL    HW221453   0.504   1.724   2.941
 6852SOL     OW21454   2.662   4.158   1.153
 6852SOL    HW121455   2.633   4.064   1.133
 6852SOL    HW221456   2.582   4.217   1.157
 6853SOL     OW21457   5.677   4.981   0.192
 6853SOL    HW121458   5.594   5.036   0.185
 6853SOL    HW221459   5.666   4.896   0.139
 6854SOL     OW21460   4.859   0.952   5.987
 6854SOL    HW121461   4.901   0.959   5.897
 6854SOL    HW221462   4.838   1.043   6.021
 6855SOL     OW21463   4.117   6.694   4.177
 6855SOL    HW121464   4.208   6.678   4.140
 6855SOL    HW221465   4.052   6.630   4.136
 6856SOL     OW21466   6.871   2.757   5.186
 6856SOL    HW121467   6.852   2.757   5.284
 6856SOL    HW221468   6.970   2.758   5.171
 6857SOL     OW21469   2.931   2.115   6.589
 6857SOL    HW121470   2.995   2.163   6.649
 6857SOL    HW221471   2.976   2.091   6.503
 6858SOL     OW21472   4.139   3.584   2.878
 6858SOL    HW121473   4.207   3.511   2.870
 6858SOL    HW221474   4.130   3.610   2.974
 6859SOL     OW21475   1.153   1.542   1.033
 6859SOL    HW121476   1.242   1.581   1.009
 6859SOL    HW221477   1.156   1.443   1.023
 6860SOL     OW21478   6.727   5.170   0.847
 6860SOL    HW121479   6.760   5.219   0.928
 6860SOL    HW221480   6.633   5.141   0.862
 6861SOL     OW21481   4.213   4.741   0.085
 6861SOL    HW121482   4.285   4.686   0.128
 6861SOL    HW221483   4.125   4.696   0.098
 6862SOL     OW21484   1.408   5.420   5.856
 6862SOL    HW121485   1.320   5.445   5.814
 6862SOL    HW221486   1.450   5.347   5.802
 6863SOL     OW21487   5.341   6.798   5.944
 6863SOL    HW121488   5.371   6.879   5.995
 6863SOL    HW221489   5.418   6.757   5.896
 6864SOL     OW21490   2.443   4.543   4.890
 6864SOL    HW121491   2.366   4.503   4.939
 6864SOL    HW221492   2.465   4.486   4.810
 6865SOL     OW21493   1.009   6.306   4.493
 6865SOL    HW121494   1.092   6.320   4.439
 6865SOL    HW221495   0.983   6.391   4.537
 6866SOL     OW21496   5.987   5.401   3.397
 6866SOL    HW121497   6.055   5.450   3.451
 6866SOL    HW221498   5.946   5.329   3.454
 6867SOL     OW21499   2.235   4.016   2.083
 6867SOL    HW121500   2.278   3.969   2.005
 6867SOL    HW221501   2.248   3.960   2.165
 6868SOL     OW21502   1.652   6.051   6.683
 6868SOL    HW121503   1.637   5.962   6.638
 6868SOL    HW221504   1.742   6.052   6.725
 6869SOL     OW21505   5.421   1.143   6.380
 6869SOL    HW121506   5.514   1.106   6.372
 6869SOL    HW221507   5.382   1.116   6.468
 6870SOL     OW21508   0.119   4.470   1.461
 6870SOL    HW121509   0.176   4.547   1.434
 6870SOL    HW221510   0.096   4.477   1.558
 6871SOL     OW21511   6.184   3.989   3.246
 6871SOL    HW121512   6.252   3.969   3.176
 6871SOL    HW221513   6.148   3.903   3.283
 6872SOL     OW21514   0.581   2.223   1.233
 6872SOL    HW121515   0.583   2.172   1.147
 6872SOL    HW221516   0.636   2.306   1.224
 6873SOL     OW21517   6.761   3.825   3.549
 6873SOL    HW121518   6.784   3.729   3.567
 6873SOL    HW221519   6.677   3.829   3.495
 6874SOL     OW21520   6.699   5.426   2.763
 6874SOL    HW121521   6.601   5.432   2.786
 6874SOL    HW221522   6.742   5.514   2.781
 6875SOL     OW21523   2.145   3.196   2.731
 6875SOL    HW121524   2.060   3.150   2.757
 6875SOL    HW221525   2.154   3.196   2.632
 6876SOL     OW21526   4.296   0.422   4.063
 6876SOL    HW121527   4.203   0.386   4.070
 6876SOL    HW221528   4.302   0.508   4.114
 6877SOL     OW21529   2.970   3.735   1.142
 6877SOL    HW121530   2.924   3.653   1.177
 6877SOL    HW221531   2.992   3.723   1.045
 6878SOL     OW21532   3.795   0.766   3.884
 6878SOL    HW121533   3.844   0.821   3.952
 6878SOL    HW221534   3.766   0.825   3.808
 6879SOL     OW21535   1.027   2.676   0.975
 6879SOL    HW121536   1.034   2.666   1.074
 6879SOL    HW221537   1.114   2.649   0.933
 6880SOL     OW21538   2.371   5.495   5.546
 6880SOL    HW121539   2.465   5.487   5.513
 6880SOL    HW221540   2.309   5.498   5.469
 6881SOL     OW21541   1.957   3.972   1.192
 6881SOL    HW121542   1.874   3.937   1.150
 6881SOL    HW221543   2.000   4.038   1.131
 6882SOL     OW21544   2.879   0.959   0.124
 6882SOL    HW121545   2.911   1.025   0.056
 6882SOL    HW221546   2.931   0.971   0.208
 6883SOL     OW21547   5.032   1.705   6.993
 6883SOL    HW121548   5.072   1.795   7.015
 6883SOL    HW221549   5.081   1.634   0.016
 6884SOL     OW21550   0.828   4.347   3.557
 6884SOL    HW121551   0.740   4.369   3.599
 6884SOL    HW221552   0.877   4.431   3.536
 6885SOL     OW21553   4.546   4.467   4.427
 6885SOL    HW121554   4.553   4.506   4.518
 6885SOL    HW221555   4.513   4.372   4.433
 6886SOL     OW21556   6.834   0.959   4.416
 6886SOL    HW121557   6.765   1.017   4.460
 6886SOL    HW221558   6.848   0.877   4.471
 6887SOL     OW21559   5.346   5.627   5.840
 6887SOL    HW121560   5.426   5.594   5.889
 6887SOL    HW221561   5.355   5.725   5.823
 6888SOL     OW21562   5.581   5.517   5.940
 6888SOL    HW121563   5.626   5.531   6.028
 6888SOL    HW221564   5.617   5.435   5.897
 6889SOL     OW21565   1.554   2.814   5.936
 6889SOL    HW121566   1.593   2.727   5.906
 6889SOL    HW221567   1.602   2.889   5.890
 6890SOL     OW21568   3.839   6.389   2.493
 6890SOL    HW121569   3.853   6.395   2.394
 6890SOL    HW221570   3.908   6.443   2.540
 6891SOL     OW21571   2.077   4.119   2.676
 6891SOL    HW121572   2.160   4.162   2.712
 6891SOL    HW221573   2.081   4.020   2.692
 6892SOL     OW21574   3.799   2.011   3.731
 6892SOL    HW121575   3.804   2.092   3.789
 6892SOL    HW221576   3.803   2.039   3.635
 6893SOL     OW21577   4.445   4.753   6.792
 6893SOL    HW121578   4.398   4.712   6.870
 6893SOL    HW221579   4.395   4.733   6.708
 6894SOL     OW21580   5.907   5.370   0.449
 6894SOL    HW121581   5.825   5.357   0.504
 6894SOL    HW221582   5.908   5.304   0.375
 6895SOL     OW21583   2.528   4.698   1.214
 6895SOL    HW121584   2.478   4.730   1.294
 6895SOL    HW221585   2.604   4.639   1.244
 6896SOL     OW21586   2.555   1.052   3.778
 6896SOL    HW121587   2.621   1.090   3.842
 6896SOL    HW221588   2.538   1.118   3.705
 6897SOL     OW21589   4.980   3.851   5.011
 6897SOL    HW121590   4.922   3.771   4.996
 6897SOL    HW221591   5.076   3.827   4.993
 6898SOL     OW21592   4.113   1.459   1.225
 6898SOL    HW121593   4.066   1.429   1.143
 6898SOL    HW221594   4.080   1.550   1.250
 6899SOL     OW21595   4.541   6.404   1.579
 6899SOL    HW121596   4.444   6.392   1.603
 6899SOL    HW221597   4.588   6.452   1.652
 6900SOL     OW21598   6.121   5.843   5.060
 6900SOL    HW121599   6.121   5.834   4.960
 6900SOL    HW221600   6.035   5.807   5.097
 6901SOL     OW21601   6.229   6.072   6.109
 6901SOL    HW121602   6.149   6.127   6.085
 6901SOL    HW221603   6.215   5.978   6.078
 6902SOL     OW21604   6.763   6.240   6.732
 6902SOL    HW121605   6.668   6.250   6.762
 6902SOL    HW221606   6.800   6.329   6.705
 6903SOL     OW21607   3.150   5.241   5.732
 6903SOL    HW121608   3.103   5.161   5.770
 6903SOL    HW221609   3.231   5.261   5.787
 6904SOL     OW21610   6.194   0.473   5.110
 6904SOL    HW121611   6.250   0.428   5.179
 6904SOL    HW221612   6.135   0.540   5.154
 6905SOL     OW21613   5.641   5.896   6.942
 6905SOL    HW121614   5.576   5.838   6.992
 6905SOL    HW221615   5.599   5.926   6.856
 6906SOL     OW21616   3.585   1.294   4.296
 6906SOL    HW121617   3.639   1.210   4.299
 6906SOL    HW221618   3.562   1.315   4.201
 6907SOL     OW21619   5.548   2.397   1.585
 6907SOL    HW121620   5.538   2.354   1.674
 6907SOL    HW221621   5.640   2.379   1.549
 6908SOL     OW21622   1.476   5.584   0.045
 6908SOL    HW121623   1.474   5.489   0.013
 6908SOL    HW221624   1.477   5.645   6.993
 6909SOL     OW21625   4.941   3.810   1.277
 6909SOL    HW121626   4.973   3.732   1.332
 6909SOL    HW221627   4.843   3.822   1.289
 6910SOL     OW21628   1.088   2.973   3.351
 6910SOL    HW121629   1.093   2.887   3.402
 6910SOL    HW221630   1.106   3.049   3.413
 6911SOL     OW21631   4.151   6.829   4.424
 6911SOL    HW121632   4.096   6.912   4.426
 6911SOL    HW221633   4.127   6.776   4.343
 6912SOL     OW21634   3.223   3.588   6.262
 6912SOL    HW121635   3.192   3.673   6.221
 6912SOL    HW221636   3.144   3.540   6.301
 6913SOL     OW21637   5.672   6.126   3.632
 6913SOL    HW121638   5.706   6.216   3.660
 6913SOL    HW221639   5.586   6.136   3.582
 6914SOL     OW21640   6.144   4.546   3.699
 6914SOL    HW121641   6.223   4.583   3.649
 6914SOL    HW221642   6.143   4.446   3.690
 6915SOL     OW21643   6.120   2.419   1.907
 6915SOL    HW121644   6.188   2.448   1.974
 6915SOL    HW221645   6.108   2.320   1.914
 6916SOL     OW21646   5.224   1.986   6.934
 6916SOL    HW121647   5.149   2.010   6.872
 6916SOL    HW221648   5.188   1.964   7.024
 6917SOL     OW21649   3.294   6.747   1.457
 6917SOL    HW121650   3.353   6.784   1.385
 6917SOL    HW221651   3.301   6.805   1.538
 6918SOL     OW21652   0.979   2.534   4.586
 6918SOL    HW121653   0.963   2.523   4.488
 6918SOL    HW221654   0.893   2.524   4.635
 6919SOL     OW21655   5.601   5.978   4.015
 6919SOL    HW121656   5.539   5.943   3.945
 6919SOL    HW221657   5.622   6.074   3.997
 6920SOL     OW21658   4.044   6.619   5.945
 6920SOL    HW121659   4.094   6.679   6.008
 6920SOL    HW221660   4.093   6.614   5.858
 6921SOL     OW21661   4.638   5.772   4.160
 6921SOL    HW121662   4.622   5.858   4.111
 6921SOL    HW221663   4.723   5.731   4.128
 6922SOL     OW21664   1.209   6.874   4.770
 6922SOL    HW121665   1.153   6.791   4.759
 6922SOL    HW221666   1.227   6.913   4.680
 6923SOL     OW21667   5.083   5.670   2.982
 6923SOL    HW121668   5.157   5.604   2.991
 6923SOL    HW221669   5.062   5.683   2.885
 6924SOL     OW21670   1.833   4.326   6.731
 6924SOL    HW121671   1.812   4.324   6.829
 6924SOL    HW221672   1.811   4.237   6.691
 6925SOL     OW21673   4.923   5.795   4.077
 6925SOL    HW121674   5.015   5.764   4.101
 6925SOL    HW221675   4.912   5.892   4.101
 6926SOL     OW21676   2.750   2.658   0.555
 6926SOL    HW121677   2.795   2.582   0.601
 6926SOL    HW221678   2.651   2.651   0.567
 6927SOL     OW21679   3.670   3.012   5.609
 6927SOL    HW121680   3.708   3.054   5.527
 6927SOL    HW221681   3.701   3.063   5.690
 6928SOL     OW21682   5.572   6.142   0.946
 6928SOL    HW121683   5.643   6.105   0.886
 6928SOL    HW221684   5.575   6.242   0.945
 6929SOL     OW21685   5.020   5.782   1.589
 6929SOL    HW121686   4.940   5.804   1.532
 6929SOL    HW221687   5.074   5.710   1.545
 6930SOL     OW21688   0.896   0.689   1.661
 6930SOL    HW121689   0.852   0.778   1.666
 6930SOL    HW221690   0.976   0.688   1.722
 6931SOL     OW21691   1.670   1.396   2.339
 6931SOL    HW121692   1.730   1.320   2.312
 6931SOL    HW221693   1.717   1.483   2.320
 6932SOL     OW21694   4.229   0.072   6.835
 6932SOL    HW121695   4.250   7.010   6.797
 6932SOL    HW221696   4.240   0.070   6.934
 6933SOL     OW21697   3.467   5.836   5.552
 6933SOL    HW121698   3.496   5.740   5.562
 6933SOL    HW221699   3.527   5.882   5.487
 6934SOL     OW21700   4.284   3.527   6.290
 6934SOL    HW121701   4.285   3.506   6.192
 6934SOL    HW221702   4.351   3.598   6.310
 6935SOL     OW21703   4.604   5.805   2.310
 6935SOL    HW121704   4.666   5.741   2.356
 6935SOL    HW221705   4.643   5.897   2.313
 6936SOL     OW21706   6.169   2.410   3.618
 6936SOL    HW121707   6.245   2.429   3.557
 6936SOL    HW221708   6.184   2.455   3.706
 6937SOL     OW21709   5.994   6.592   6.921
 6937SOL    HW121710   5.904   6.586   6.964
 6937SOL    HW221711   5.987   6.562   6.826
 6938SOL     OW21712   6.449   2.695   5.436
 6938SOL    HW121713   6.357   2.676   5.401
 6938SOL    HW221714   6.500   2.744   5.366
 6939SOL     OW21715   0.400   5.234   2.342
 6939SOL    HW121716   0.447   5.218   2.256
 6939SOL    HW221717   0.466   5.248   2.415
 6940SOL     OW21718   3.746   0.388   6.022
 6940SOL    HW121719   3.817   0.455   6.004
 6940SOL    HW221720   3.715   0.396   6.116
 6941SOL     OW21721   3.211   4.120   1.926
 6941SOL    HW121722   3.272   4.114   2.005
 6941SOL    HW221723   3.225   4.041   1.866
 6942SOL     OW21724   5.750   6.725   1.990
 6942SOL    HW121725   5.767   6.799   1.925
 6942SOL    HW221726   5.737   6.763   2.081
 6943SOL     OW21727   3.433   5.402   0.814
 6943SOL    HW121728   3.380   5.410   0.729
 6943SOL    HW221729   3.436   5.306   0.842
 6944SOL     OW21730   0.498   4.724   6.612
 6944SOL    HW121731   0.493   4.746   6.710
 6944SOL    HW221732   0.435   4.784   6.562
 6945SOL     OW21733   6.473   1.436   0.317
 6945SOL    HW121734   6.376   1.422   0.334
 6945SOL    HW221735   6.499   1.393   0.231
 6946SOL     OW21736   3.855   6.717   1.334
 6946SOL    HW121737   3.919   6.648   1.365
 6946SOL    HW221738   3.769   6.708   1.385
 6947SOL     OW21739   3.576   5.644   6.993
 6947SOL    HW121740   3.512   5.714   6.962
 6947SOL    HW221741   3.575   5.640   0.066
 6948SOL     OW21742   0.812   6.606   0.689
 6948SOL    HW121743   0.792   6.677   0.756
 6948SOL    HW221744   0.840   6.648   0.603
 6949SOL     OW21745   3.852   0.432   3.580
 6949SOL    HW121746   3.857   0.332   3.578
 6949SOL    HW221747   3.824   0.466   3.491
 6950SOL     OW21748   1.198   1.790   4.892
 6950SOL    HW121749   1.108   1.753   4.916
 6950SOL    HW221750   1.268   1.722   4.910
 6951SOL     OW21751   6.581   5.301   5.650
 6951SOL    HW121752   6.652   5.337   5.590
 6951SOL    HW221753   6.602   5.325   5.745
 6952SOL     OW21754   0.814   6.179   3.156
 6952SOL    HW121755   0.766   6.251   3.205
 6952SOL    HW221756   0.890   6.144   3.211
 6953SOL     OW21757   4.090   6.303   1.527
 6953SOL    HW121758   4.153   6.361   1.578
 6953SOL    HW221759   4.037   6.247   1.591
 6954SOL     OW21760   6.896   3.696   2.275
 6954SOL    HW121761   6.810   3.736   2.305
 6954SOL    HW221762   6.972   3.757   2.300
 6955SOL     OW21763   5.450   0.315   1.844
 6955SOL    HW121764   5.471   0.248   1.916
 6955SOL    HW221765   5.534   0.357   1.811
 6956SOL     OW21766   5.449   5.946   3.453
 6956SOL    HW121767   5.382   5.969   3.383
 6956SOL    HW221768   5.491   5.858   3.432
 6957SOL     OW21769   6.368   5.810   0.972
 6957SOL    HW121770   6.369   5.908   0.952
 6957SOL    HW221771   6.288   5.789   1.028
 6958SOL     OW21772   3.778   3.354   4.522
 6958SOL    HW121773   3.692   3.312   4.550
 6958SOL    HW221774   3.771   3.382   4.426
 6959SOL     OW21775   2.154   3.417   3.593
 6959SOL    HW121776   2.140   3.364   3.677
 6959SOL    HW221777   2.141   3.357   3.513
 6960SOL     OW21778   1.268   4.253   0.973
 6960SOL    HW121779   1.242   4.164   1.012
 6960SOL    HW221780   1.221   4.267   0.886
 6961SOL     OW21781   5.791   0.983   4.177
 6961SOL    HW121782   5.860   0.923   4.217
 6961SOL    HW221783   5.717   0.929   4.137
 6962SOL     OW21784   4.656   6.102   1.734
 6962SOL    HW121785   4.589   6.054   1.676
 6962SOL    HW221786   4.708   6.165   1.677
 6963SOL     OW21787   5.106   6.045   1.570
 6963SOL    HW121788   5.168   6.057   1.492
 6963SOL    HW221789   5.095   5.948   1.590
 6964SOL     OW21790   3.922   1.327   5.747
 6964SOL    HW121791   4.002   1.349   5.801
 6964SOL    HW221792   3.950   1.308   5.652
 6965SOL     OW21793   1.704   0.772   6.817
 6965SOL    HW121794   1.679   0.833   6.893
 6965SOL    HW221795   1.710   0.825   6.733
 6966SOL     OW21796   1.115   1.944   2.338
 6966SOL    HW121797   1.156   1.889   2.411
 6966SOL    HW221798   1.085   1.885   2.263
 6967SOL     OW21799   2.780   1.218   5.897
 6967SOL    HW121800   2.785   1.209   5.996
 6967SOL    HW221801   2.871   1.201   5.857
 6968SOL     OW21802   3.663   0.380   3.322
 6968SOL    HW121803   3.646   0.418   3.232
 6968SOL    HW221804   3.637   0.447   3.392
 6969SOL     OW21805   3.064   2.389   1.683
 6969SOL    HW121806   3.004   2.414   1.758
 6969SOL    HW221807   3.147   2.445   1.686
 6970SOL     OW21808   3.927   4.080   5.910
 6970SOL    HW121809   3.968   4.119   5.828
 6970SOL    HW221810   3.997   4.067   5.980
 6971SOL     OW21811   6.351   4.841   0.842
 6971SOL    HW121812   6.278   4.786   0.802
 6971SOL    HW221813   6.379   4.801   0.929
 6972SOL     OW21814   5.553   4.291   2.963
 6972SOL    HW121815   5.614   4.349   2.909
 6972SOL    HW221816   5.593   4.274   3.053
 6973SOL     OW21817   1.220   3.317   3.177
 6973SOL    HW121818   1.296   3.284   3.121
 6973SOL    HW221819   1.243   3.306   3.273
 6974SOL     OW21820   2.945   3.768   2.664
 6974SOL    HW121821   2.912   3.751   2.571
 6974SOL    HW221822   3.034   3.724   2.676
 6975SOL     OW21823   1.444   6.415   5.629
 6975SOL    HW121824   1.450   6.316   5.614
 6975SOL    HW221825   1.465   6.435   5.725
 6976SOL     OW21826   6.260   5.196   6.118
 6976SOL    HW121827   6.287   5.119   6.060
 6976SOL    HW221828   6.307   5.279   6.087
 6977SOL     OW21829   3.710   2.741   1.256
 6977SOL    HW121830   3.742   2.647   1.270
 6977SOL    HW221831   3.783   2.797   1.218
 6978SOL     OW21832   5.921   1.764   2.256
 6978SOL    HW121833   5.922   1.756   2.156
 6978SOL    HW221834   6.010   1.739   2.293
 6979SOL     OW21835   0.784   4.616   1.466
 6979SOL    HW121836   0.875   4.656   1.471
 6979SOL    HW221837   0.774   4.546   1.537
 6980SOL     OW21838   1.550   1.178   3.554
 6980SOL    HW121839   1.459   1.179   3.594
 6980SOL    HW221840   1.582   1.084   3.545
 6981SOL     OW21841   3.761   3.369   5.922
 6981SOL    HW121842   3.775   3.453   5.869
 6981SOL    HW221843   3.848   3.319   5.927
 6982SOL     OW21844   1.009   1.259   4.852
 6982SOL    HW121845   1.002   1.178   4.793
 6982SOL    HW221846   1.009   1.230   4.948
 6983SOL     OW21847   3.833   2.166   3.950
 6983SOL    HW121848   3.780   2.160   4.035
 6983SOL    HW221849   3.929   2.182   3.971
 6984SOL     OW21850   1.956   2.059   3.359
 6984SOL    HW121851   1.958   2.044   3.458
 6984SOL    HW221852   2.036   2.113   3.332
 6985SOL     OW21853   5.787   4.918   1.285
 6985SOL    HW121854   5.692   4.947   1.274
 6985SOL    HW221855   5.842   4.995   1.314
 6986SOL     OW21856   2.570   6.870   6.338
 6986SOL    HW121857   2.662   6.902   6.362
 6986SOL    HW221858   2.512   6.949   6.318
 6987SOL     OW21859   5.941   0.981   6.410
 6987SOL    HW121860   5.936   1.081   6.403
 6987SOL    HW221861   5.955   0.956   6.506
 6988SOL     OW21862   1.118   6.572   6.844
 6988SOL    HW121863   1.051   6.597   6.774
 6988SOL    HW221864   1.080   6.592   6.935
 6989SOL     OW21865   1.272   4.196   3.070
 6989SOL    HW121866   1.355   4.156   3.108
 6989SOL    HW221867   1.258   4.163   2.977
 6990SOL     OW21868   4.712   2.985   1.325
 6990SOL    HW121869   4.699   2.897   1.369
 6990SOL    HW221870   4.706   2.974   1.226
 6991SOL     OW21871   4.554   4.383   3.671
 6991SOL    HW121872   4.533   4.422   3.761
 6991SOL    HW221873   4.589   4.290   3.683
 6992SOL     OW21874   5.269   0.130   6.215
 6992SOL    HW121875   5.309   0.039   6.217
 6992SOL    HW221876   5.294   0.179   6.298
 6993SOL     OW21877   6.064   6.984   2.831
 6993SOL    HW121878   6.043   6.932   2.748
 6993SOL    HW221879   6.009   6.948   2.907
 6994SOL     OW21880   0.352   2.477   3.890
 6994SOL    HW121881   0.421   2.485   3.818
 6994SOL    HW221882   0.391   2.508   3.977
 6995SOL     OW21883   0.772   4.711   6.505
 6995SOL    HW121884   0.693   4.688   6.561
 6995SOL    HW221885   0.775   4.651   6.425
 6996SOL     OW21886   1.426   0.350   6.924
 6996SOL    HW121887   1.506   0.300   6.957
 6996SOL    HW221888   1.454   0.414   6.851
 6997SOL     OW21889   0.283   5.200   5.580
 6997SOL    HW121890   0.307   5.104   5.566
 6997SOL    HW221891   0.327   5.255   5.509
 6998SOL     OW21892   1.615   0.852   1.592
 6998SOL    HW121893   1.703   0.879   1.630
 6998SOL    HW221894   1.629   0.803   1.507
 6999SOL     OW21895   2.651   2.628   6.194
 6999SOL    HW121896   2.622   2.600   6.102
 6999SOL    HW221897   2.581   2.600   6.260
 7000SOL     OW21898   5.575   6.581   1.645
 7000SOL    HW121899   5.656   6.571   1.587
 7000SOL    HW221900   5.503   6.628   1.594
 7001SOL     OW21901   1.971   3.314   6.093
 7001SOL    HW121902   1.963   3.237   6.029
 7001SOL    HW221903   1.972   3.399   6.041
 7002SOL     OW21904   1.377   5.764   4.096
 7002SOL    HW121905   1.345   5.737   4.005
 7002SOL    HW221906   1.343   5.699   4.164
 7003SOL     OW21907   4.348   5.263   1.003
 7003SOL    HW121908   4.295   5.342   0.974
 7003SOL    HW221909   4.382   5.214   0.923
 7004SOL     OW21910   0.565   5.506   1.693
 7004SOL    HW121911   0.655   5.539   1.668
 7004SOL    HW221912   0.546   5.420   1.645
 7005SOL     OW21913   0.950   0.048   0.535
 7005SOL    HW121914   1.001   6.989   0.527
 7005SOL    HW221915   1.002   0.112   0.592
 7006SOL     OW21916   5.090   5.206   3.871
 7006SOL    HW121917   5.190   5.211   3.863
 7006SOL    HW221918   5.048   5.286   3.829
 7007SOL     OW21919   4.215   0.729   4.429
 7007SOL    HW121920   4.282   0.779   4.485
 7007SOL    HW221921   4.129   0.720   4.479
 7008SOL     OW21922   0.354   4.307   4.518
 7008SOL    HW121923   0.302   4.360   4.452
 7008SOL    HW221924   0.410   4.239   4.470
 7009SOL     OW21925   4.290   6.310   2.756
 7009SOL    HW121926   4.282   6.406   2.728
 7009SOL    HW221927   4.214   6.286   2.816
 7010SOL     OW21928   5.959   4.249   3.643
 7010SOL    HW121929   5.991   4.155   3.655
 7010SOL    HW221930   5.914   4.280   3.727
 7011SOL     OW21931   3.377   6.551   6.407
 7011SOL    HW121932   3.317   6.478   6.377
 7011SOL    HW221933   3.420   6.594   6.328
 7012SOL     OW21934   0.962   1.891   1.481
 7012SOL    HW121935   1.017   1.899   1.564
 7012SOL    HW221936   0.883   1.952   1.488
 7013SOL     OW21937   0.850   6.710   0.435
 7013SOL    HW121938   0.935   6.732   0.388
 7013SOL    HW221939   0.796   6.793   0.446
 7014SOL     OW21940   4.659   3.222   0.802
 7014SOL    HW121941   4.640   3.320   0.795
 7014SOL    HW221942   4.593   3.180   0.865
 7015SOL     OW21943   6.138   4.138   1.141
 7015SOL    HW121944   6.206   4.065   1.130
 7015SOL    HW221945   6.153   4.207   1.069
 7016SOL     OW21946   3.544   5.213   1.467
 7016SOL    HW121947   3.503   5.244   1.553
 7016SOL    HW221948   3.491   5.248   1.390
 7017SOL     OW21949   2.644   4.980   3.341
 7017SOL    HW121950   2.722   4.931   3.303
 7017SOL    HW221951   2.566   4.917   3.349
 7018SOL     OW21952   5.529   3.225   4.202
 7018SOL    HW121953   5.477   3.306   4.232
 7018SOL    HW221954   5.624   3.233   4.234
 7019SOL     OW21955   3.754   4.635   0.305
 7019SOL    HW121956   3.669   4.688   0.297
 7019SOL    HW221957   3.745   4.569   0.380
 7020SOL     OW21958   6.809   4.133   5.907
 7020SOL    HW121959   6.761   4.057   5.950
 7020SOL    HW221960   6.904   4.107   5.889
 7021SOL     OW21961   1.757   2.120   5.135
 7021SOL    HW121962   1.759   2.209   5.180
 7021SOL    HW221963   1.696   2.059   5.184
 7022SOL     OW21964   4.567   0.347   6.801
 7022SOL    HW121965   4.537   0.361   6.896
 7022SOL    HW221966   4.624   0.265   6.795
 7023SOL     OW21967   1.583   2.799   2.594
 7023SOL    HW121968   1.628   2.874   2.547
 7023SOL    HW221969   1.650   2.746   2.646
 7024SOL     OW21970   3.023   3.890   5.198
 7024SOL    HW121971   2.988   3.797   5.185
 7024SOL    HW221972   2.963   3.940   5.261
 7025SOL     OW21973   3.062   0.684   0.576
 7025SOL    HW121974   3.111   0.654   0.494
 7025SOL    HW221975   3.006   0.763   0.554
 7026SOL     OW21976   3.515   2.057   2.237
 7026SOL    HW121977   3.554   2.093   2.153
 7026SOL    HW221978   3.583   2.062   2.311
 7027SOL     OW21979   1.921   5.456   3.914
 7027SOL    HW121980   1.886   5.391   3.981
 7027SOL    HW221981   1.973   5.528   3.960
 7028SOL     OW21982   3.616   1.469   2.782
 7028SOL    HW121983   3.541   1.499   2.840
 7028SOL    HW221984   3.609   1.370   2.766
 7029SOL     OW21985   4.312   4.266   5.446
 7029SOL    HW121986   4.283   4.255   5.351
 7029SOL    HW221987   4.242   4.317   5.497
 7030SOL     OW21988   0.563   0.902   5.234
 7030SOL    HW121989   0.587   0.872   5.326
 7030SOL    HW221990   0.537   0.823   5.179
 7031SOL     OW21991   3.695   5.996   6.562
 7031SOL    HW121992   3.599   6.026   6.569
 7031SOL    HW221993   3.725   5.961   6.650
 7032SOL     OW21994   4.420   1.775   3.806
 7032SOL    HW121995   4.324   1.780   3.835
 7032SOL    HW221996   4.465   1.863   3.826
 7033SOL     OW21997   1.586   2.445   2.845
 7033SOL    HW121998   1.570   2.402   2.756
 7033SOL    HW221999   1.643   2.526   2.832
 7034SOL     OW22000   6.802   1.501   3.334
 7034SOL    HW122001   6.826   1.508   3.238
 7034SOL    HW222002   6.726   1.438   3.346
 7035SOL     OW22003   1.590   0.099   0.642
 7035SOL    HW122004   1.539   0.046   0.574
 7035SOL    HW222005   1.542   0.097   0.729
 7036SOL     OW22006   6.960   1.077   2.440
 7036SOL    HW122007   0.003   1.007   2.446
 7036SOL    HW222008   7.001   1.162   2.406
 7037SOL     OW22009   1.579   1.614   6.471
 7037SOL    HW122010   1.612   1.636   6.379
 7037SOL    HW222011   1.500   1.671   6.493
 7038SOL     OW22012   2.031   4.025   5.153
 7038SOL    HW122013   2.026   3.928   5.176
 7038SOL    HW222014   2.103   4.040   5.085
 7039SOL     OW22015   0.868   5.760   2.936
 7039SOL    HW122016   0.822   5.699   2.872
 7039SOL    HW222017   0.808   5.777   3.014
 7040SOL     OW22018   5.475   2.662   5.511
 7040SOL    HW122019   5.455   2.581   5.456
 7040SOL    HW222020   5.411   2.735   5.486
 7041SOL     OW22021   6.489   1.211   2.045
 7041SOL    HW122022   6.506   1.301   2.006
 7041SOL    HW222023   6.392   1.202   2.067
 7042SOL     OW22024   4.184   5.757   4.746
 7042SOL    HW122025   4.243   5.836   4.761
 7042SOL    HW222026   4.104   5.763   4.806
 7043SOL     OW22027   2.222   4.651   3.552
 7043SOL    HW122028   2.191   4.714   3.481
 7043SOL    HW222029   2.183   4.561   3.536
 7044SOL     OW22030   5.916   5.308   4.909
 7044SOL    HW122031   5.852   5.329   4.835
 7044SOL    HW222032   5.919   5.209   4.924
 7045SOL     OW22033   4.983   5.060   2.525
 7045SOL    HW122034   5.035   5.045   2.609
 7045SOL    HW222035   4.888   5.030   2.540
 7046SOL     OW22036   3.128   1.761   3.720
 7046SOL    HW122037   3.113   1.859   3.735
 7046SOL    HW222038   3.103   1.711   3.803
 7047SOL     OW22039   6.366   0.469   2.191
 7047SOL    HW122040   6.464   0.458   2.173
 7047SOL    HW222041   6.334   0.395   2.250
 7048SOL     OW22042   6.089   6.903   3.881
 7048SOL    HW122043   6.128   6.983   3.925
 7048SOL    HW222044   6.084   6.918   3.782
 7049SOL     OW22045   3.799   1.706   0.901
 7049SOL    HW122046   3.848   1.793   0.898
 7049SOL    HW222047   3.700   1.724   0.900
 7050SOL     OW22048   4.255   3.404   1.405
 7050SOL    HW122049   4.199   3.385   1.486
 7050SOL    HW222050   4.350   3.379   1.424
 7051SOL     OW22051   6.866   6.566   1.076
 7051SOL    HW122052   6.916   6.483   1.053
 7051SOL    HW222053   6.926   6.645   1.067
 7052SOL     OW22054   6.560   1.304   3.511
 7052SOL    HW122055   6.551   1.285   3.413
 7052SOL    HW222056   6.544   1.220   3.563
 7053SOL     OW22057   1.826   3.660   4.838
 7053SOL    HW122058   1.742   3.662   4.892
 7053SOL    HW222059   1.822   3.731   4.767
 7054SOL     OW22060   6.943   6.723   0.669
 7054SOL    HW122061   6.868   6.658   0.661
 7054SOL    HW222062   7.017   6.698   0.607
 7055SOL     OW22063   2.637   6.993   0.053
 7055SOL    HW122064   2.733   6.977   0.029
 7055SOL    HW222065   2.591   6.906   0.066
 7056SOL     OW22066   6.658   5.260   1.273
 7056SOL    HW122067   6.697   5.213   1.353
 7056SOL    HW222068   6.586   5.203   1.233
 7057SOL     OW22069   2.730   4.770   3.781
 7057SOL    HW122070   2.755   4.745   3.688
 7057SOL    HW222071   2.680   4.695   3.824
 7058SOL     OW22072   5.474   2.711   5.785
 7058SOL    HW122073   5.482   2.808   5.808
 7058SOL    HW222074   5.515   2.695   5.695
 7059SOL     OW22075   0.610   1.348   4.178
 7059SOL    HW122076   0.624   1.361   4.080
 7059SOL    HW222077   0.677   1.400   4.229
 7060SOL     OW22078   3.588   0.106   1.400
 7060SOL    HW122079   3.599   0.154   1.487
 7060SOL    HW222080   3.678   0.092   1.359
 7061SOL     OW22081   0.714   3.600   3.701
 7061SOL    HW122082   0.700   3.579   3.604
 7061SOL    HW222083   0.759   3.688   3.711
 7062SOL     OW22084   3.152   2.044   5.220
 7062SOL    HW122085   3.132   1.958   5.173
 7062SOL    HW222086   3.161   2.117   5.152
 7063SOL     OW22087   1.758   6.532   1.518
 7063SOL    HW122088   1.787   6.624   1.490
 7063SOL    HW222089   1.759   6.526   1.618
 7064SOL     OW22090   3.741   2.242   6.944
 7064SOL    HW122091   3.725   2.164   7.005
 7064SOL    HW222092   3.807   2.304   6.987
 7065SOL     OW22093   3.601   3.579   5.753
 7065SOL    HW122094   3.608   3.639   5.834
 7065SOL    HW222095   3.644   3.625   5.675
 7066SOL     OW22096   3.759   0.111   5.985
 7066SOL    HW122097   3.780   0.093   5.888
 7066SOL    HW222098   3.781   0.206   6.006
 7067SOL     OW22099   1.484   3.284   5.344
 7067SOL    HW122100   1.496   3.253   5.438
 7067SOL    HW222101   1.573   3.311   5.306
 7068SOL     OW22102   6.038   4.266   4.967
 7068SOL    HW122103   6.055   4.282   5.064
 7068SOL    HW222104   6.088   4.334   4.913
 7069SOL     OW22105   5.593   1.760   4.646
 7069SOL    HW122106   5.640   1.830   4.701
 7069SOL    HW222107   5.544   1.698   4.707
 7070SOL     OW22108   0.975   6.785   5.019
 7070SOL    HW122109   0.897   6.844   4.998
 7070SOL    HW222110   1.027   6.824   5.095
 7071SOL     OW22111   3.657   6.249   6.751
 7071SOL    HW122112   3.618   6.291   6.833
 7071SOL    HW222113   3.588   6.247   6.678
 7072SOL     OW22114   2.071   5.611   0.322
 7072SOL    HW122115   2.035   5.690   0.272
 7072SOL    HW222116   2.100   5.541   0.256
 7073SOL     OW22117   4.828   6.708   3.887
 7073SOL    HW122118   4.813   6.800   3.922
 7073SOL    HW222119   4.852   6.713   3.790
 7074SOL     OW22120   6.124   3.060   1.985
 7074SOL    HW122121   6.040   3.072   1.931
 7074SOL    HW222122   6.154   2.965   1.980
 7075SOL     OW22123   1.642   4.237   4.765
 7075SOL    HW122124   1.673   4.332   4.756
 7075SOL    HW222125   1.696   4.192   4.836
 7076SOL     OW22126   5.380   3.114   0.264
 7076SOL    HW122127   5.419   3.051   0.332
 7076SOL    HW222128   5.288   3.083   0.239
 7077SOL     OW22129   2.100   4.408   3.496
 7077SOL    HW122130   2.135   4.430   3.405
 7077SOL    HW222131   2.104   4.309   3.510
 7078SOL     OW22132   6.674   5.964   1.383
 7078SOL    HW122133   6.595   5.976   1.323
 7078SOL    HW222134   6.737   5.897   1.342
 7079SOL     OW22135   0.842   6.837   3.880
 7079SOL    HW122136   0.778   6.802   3.812
 7079SOL    HW222137   0.799   6.911   3.932
 7080SOL     OW22138   2.988   1.480   4.521
 7080SOL    HW122139   3.070   1.536   4.504
 7080SOL    HW222140   2.929   1.527   4.586
 7081SOL     OW22141   1.745   5.664   0.732
 7081SOL    HW122142   1.764   5.706   0.821
 7081SOL    HW222143   1.785   5.573   0.729
 7082SOL     OW22144   6.504   4.701   0.053
 7082SOL    HW122145   6.543   4.741   6.997
 7082SOL    HW222146   6.432   4.636   0.028
 7083SOL     OW22147   0.660   1.104   1.871
 7083SOL    HW122148   0.671   1.027   1.809
 7083SOL    HW222149   0.702   1.185   1.831
 7084SOL     OW22150   1.268   5.543   5.561
 7084SOL    HW122151   1.193   5.601   5.528
 7084SOL    HW222152   1.238   5.495   5.644
 7085SOL     OW22153   0.090   1.623   2.396
 7085SOL    HW122154   0.039   1.552   2.446
 7085SOL    HW222155   0.133   1.582   2.315
 7086SOL     OW22156   5.336   1.055   5.910
 7086SOL    HW122157   5.348   1.062   5.811
 7086SOL    HW222158   5.271   1.125   5.940
 7087SOL     OW22159   6.098   4.538   2.672
 7087SOL    HW122160   6.110   4.532   2.772
 7087SOL    HW222161   6.001   4.531   2.651
 7088SOL     OW22162   5.079   2.368   4.982
 7088SOL    HW122163   5.111   2.460   4.960
 7088SOL    HW222164   5.112   2.303   4.913
 7089SOL     OW22165   2.174   2.959   4.150
 7089SOL    HW122166   2.114   2.882   4.170
 7089SOL    HW222167   2.223   2.986   4.233
 7090SOL     OW22168   2.493   1.303   0.499
 7090SOL    HW122169   2.409   1.348   0.471
 7090SOL    HW222170   2.572   1.358   0.471
 7091SOL     OW22171   0.671   1.087   0.699
 7091SOL    HW122172   0.647   1.062   0.793
 7091SOL    HW222173   0.716   1.009   0.655
 7092SOL     OW22174   4.496   3.171   5.729
 7092SOL    HW122175   4.563   3.148   5.659
 7092SOL    HW222176   4.436   3.245   5.697
 7093SOL     OW22177   3.610   4.086   2.476
 7093SOL    HW122178   3.709   4.086   2.464
 7093SOL    HW222179   3.589   4.114   2.570
 7094SOL     OW22180   0.323   6.301   5.482
 7094SOL    HW122181   0.330   6.263   5.574
 7094SOL    HW222182   0.277   6.235   5.422
 7095SOL     OW22183   2.607   4.679   5.918
 7095SOL    HW122184   2.645   4.753   5.974
 7095SOL    HW222185   2.522   4.709   5.876
 7096SOL     OW22186   6.478   6.875   2.063
 7096SOL    HW122187   6.431   6.841   1.982
 7096SOL    HW222188   6.426   6.851   2.145
 7097SOL     OW22189   4.603   0.499   2.398
 7097SOL    HW122190   4.618   0.549   2.483
 7097SOL    HW222191   4.559   0.411   2.418
 7098SOL     OW22192   1.862   5.798   5.762
 7098SOL    HW122193   1.951   5.787   5.807
 7098SOL    HW222194   1.789   5.778   5.826
 7099SOL     OW22195   3.736   1.876   5.030
 7099SOL    HW122196   3.700   1.849   4.940
 7099SOL    HW222197   3.694   1.962   5.058
 7100SOL     OW22198   6.459   3.759   0.299
 7100SOL    HW122199   6.443   3.666   0.266
 7100SOL    HW222200   6.522   3.756   0.376
 7101SOL     OW22201   2.577   1.456   5.160
 7101SOL    HW122202   2.530   1.474   5.247
 7101SOL    HW222203   2.586   1.541   5.109
 7102SOL     OW22204   5.623   6.885   0.472
 7102SOL    HW122205   5.645   6.857   0.379
 7102SOL    HW222206   5.670   6.825   0.537
 7103SOL     OW22207   5.651   5.583   1.829
 7103SOL    HW122208   5.684   5.588   1.735
 7103SOL    HW222209   5.682   5.498   1.871
 7104SOL     OW22210   6.627   3.471   2.756
 7104SOL    HW122211   6.677   3.547   2.715
 7104SOL    HW222212   6.690   3.394   2.770
 7105SOL     OW22213   3.166   3.210   4.855
 7105SOL    HW122214   3.194   3.117   4.881
 7105SOL    HW222215   3.070   3.223   4.879
 7106SOL     OW22216   3.510   3.034   1.932
 7106SOL    HW122217   3.485   2.967   1.863
 7106SOL    HW222218   3.435   3.100   1.944
 7107SOL     OW22219   4.698   0.254   0.685
 7107SOL    HW122220   4.609   0.234   0.726
 7107SOL    HW222221   4.687   0.272   0.588
 7108SOL     OW22222   3.201   5.654   2.566
 7108SOL    HW122223   3.224   5.729   2.628
 7108SOL    HW222224   3.104   5.631   2.576
 7109SOL     OW22225   2.273   0.342   6.434
 7109SOL    HW122226   2.209   0.307   6.503
 7109SOL    HW222227   2.252   0.437   6.414
 7110SOL     OW22228   3.124   5.935   4.077
 7110SOL    HW122229   3.067   5.855   4.062
 7110SOL    HW222230   3.161   5.967   3.990
 7111SOL     OW22231   1.426   2.977   4.526
 7111SOL    HW122232   1.379   2.998   4.612
 7111SOL    HW222233   1.453   2.880   4.526
 7112SOL     OW22234   2.122   4.842   4.527
 7112SOL    HW122235   2.057   4.806   4.593
 7112SOL    HW222236   2.213   4.807   4.547
 7113SOL     OW22237   3.489   4.191   5.236
 7113SOL    HW122238   3.450   4.233   5.154
 7113SOL    HW222239   3.427   4.121   5.270
 7114SOL     OW22240   5.122   5.697   1.113
 7114SOL    HW122241   5.056   5.624   1.093
 7114SOL    HW222242   5.212   5.670   1.078
 7115SOL     OW22243   4.380   3.187   0.423
 7115SOL    HW122244   4.375   3.112   0.488
 7115SOL    HW222245   4.431   3.159   0.342
 7116SOL     OW22246   5.149   4.476   3.141
 7116SOL    HW122247   5.151   4.412   3.065
 7116SOL    HW222248   5.106   4.432   3.220
 7117SOL     OW22249   7.011   6.761   4.869
 7117SOL    HW122250   0.071   6.752   4.822
 7117SOL    HW222251   6.999   6.855   4.901
 7118SOL     OW22252   3.548   4.770   6.265
 7118SOL    HW122253   3.460   4.811   6.243
 7118SOL    HW222254   3.558   4.684   6.214
 7119SOL     OW22255   5.082   0.786   4.976
 7119SOL    HW122256   5.108   0.719   5.046
 7119SOL    HW222257   5.110   0.877   5.005
 7120SOL     OW22258   3.818   2.082   1.811
 7120SOL    HW122259   3.806   2.109   1.715
 7120SOL    HW222260   3.775   2.150   1.870
 7121SOL     OW22261   0.604   6.733   3.732
 7121SOL    HW122262   0.623   6.640   3.764
 7121SOL    HW222263   0.505   6.750   3.739
 7122SOL     OW22264   1.574   0.731   5.815
 7122SOL    HW122265   1.543   0.776   5.899
 7122SOL    HW222266   1.620   0.798   5.756
 7123SOL     OW22267   0.799   5.440   4.136
 7123SOL    HW122268   0.881   5.487   4.168
 7123SOL    HW222269   0.731   5.506   4.107
 7124SOL     OW22270   0.424   2.637   1.407
 7124SOL    HW122271   0.518   2.670   1.397
 7124SOL    HW222272   0.424   2.551   1.459
 7125SOL     OW22273   0.986   1.010   0.803
 7125SOL    HW122274   0.939   0.939   0.751
 7125SOL    HW222275   0.917   1.072   0.843
 7126SOL     OW22276   3.731   5.059   0.773
 7126SOL    HW122277   3.745   4.997   0.696
 7126SOL    HW222278   3.801   5.041   0.842
 7127SOL     OW22279   2.969   5.688   0.112
 7127SOL    HW122280   2.975   5.692   0.012
 7127SOL    HW222281   2.875   5.667   0.139
 7128SOL     OW22282   3.267   4.031   6.686
 7128SOL    HW122283   3.301   4.050   6.778
 7128SOL    HW222284   3.194   3.962   6.690
 7129SOL     OW22285   2.179   1.301   0.812
 7129SOL    HW122286   2.124   1.310   0.895
 7129SOL    HW222287   2.178   1.388   0.762
 7130SOL     OW22288   3.466   6.169   4.236
 7130SOL    HW122289   3.554   6.123   4.232
 7130SOL    HW222290   3.480   6.266   4.256
 7131SOL     OW22291   3.528   1.134   1.649
 7131SOL    HW122292   3.604   1.096   1.701
 7131SOL    HW222293   3.515   1.080   1.565
 7132SOL     OW22294   4.461   4.033   0.265
 7132SOL    HW122295   4.498   3.964   0.327
 7132SOL    HW222296   4.371   4.003   0.233
 7133SOL     OW22297   3.920   4.961   5.079
 7133SOL    HW122298   3.845   4.907   5.117
 7133SOL    HW222299   3.915   5.054   5.114
 7134SOL     OW22300   4.738   6.991   1.572
 7134SOL    HW122301   4.735   6.955   1.479
 7134SOL    HW222302   4.764   0.061   1.569
 7135SOL     OW22303   2.278   2.666   3.069
 7135SOL    HW122304   2.279   2.723   3.151
 7135SOL    HW222305   2.372   2.640   3.045
 7136SOL     OW22306   3.587   1.469   0.561
 7136SOL    HW122307   3.637   1.440   0.643
 7136SOL    HW222308   3.602   1.567   0.546
 7137SOL     OW22309   3.257   2.142   0.440
 7137SOL    HW122310   3.311   2.122   0.358
 7137SOL    HW222311   3.167   2.176   0.412
 7138SOL     OW22312   2.224   1.670   1.064
 7138SOL    HW122313   2.188   1.591   1.115
 7138SOL    HW222314   2.315   1.692   1.098
 7139SOL     OW22315   4.703   5.006   2.566
 7139SOL    HW122316   4.697   4.906   2.567
 7139SOL    HW222317   4.640   5.042   2.497
 7140SOL     OW22318   6.364   4.183   0.603
 7140SOL    HW122319   6.444   4.154   0.550
 7140SOL    HW222320   6.281   4.161   0.551
 7141SOL     OW22321   3.612   6.839   1.073
 7141SOL    HW122322   3.542   6.881   1.015
 7141SOL    HW222323   3.609   6.881   1.164
 7142SOL     OW22324   4.222   6.822   3.826
 7142SOL    HW122325   4.255   6.915   3.840
 7142SOL    HW222326   4.122   6.820   3.835
 7143SOL     OW22327   2.475   3.512   6.947
 7143SOL    HW122328   2.546   3.583   6.949
 7143SOL    HW222329   2.442   3.495   0.012
 7144SOL     OW22330   0.830   1.068   3.443
 7144SOL    HW122331   0.730   1.060   3.440
 7144SOL    HW222332   0.871   0.995   3.388
 7145SOL     OW22333   4.062   0.814   6.729
 7145SOL    HW122334   4.119   0.734   6.713
 7145SOL    HW222335   3.966   0.791   6.711
 7146SOL     OW22336   1.825   0.535   6.135
 7146SOL    HW122337   1.871   0.511   6.220
 7146SOL    HW222338   1.888   0.521   6.058
 7147SOL     OW22339   6.666   6.248   3.035
 7147SOL    HW122340   6.743   6.311   3.027
 7147SOL    HW222341   6.618   6.244   2.948
 7148SOL     OW22342   6.121   5.721   1.722
 7148SOL    HW122343   6.155   5.804   1.679
 7148SOL    HW222344   6.021   5.723   1.725
 7149SOL     OW22345   0.365   5.421   3.647
 7149SOL    HW122346   0.322   5.390   3.562
 7149SOL    HW222347   0.309   5.493   3.689
 7150SOL     OW22348   3.446   3.224   0.445
 7150SOL    HW122349   3.495   3.136   0.449
 7150SOL    HW222350   3.351   3.208   0.418
 7151SOL     OW22351   2.826   6.659   1.254
 7151SOL    HW122352   2.778   6.589   1.306
 7151SOL    HW222353   2.878   6.616   1.180
 7152SOL     OW22354   6.720   0.497   5.849
 7152SOL    HW122355   6.622   0.490   5.831
 7152SOL    HW222356   6.762   0.558   5.782
 7153SOL     OW22357   3.722   5.157   2.042
 7153SOL    HW122358   3.773   5.236   2.010
 7153SOL    HW222359   3.680   5.110   1.964
 7154SOL     OW22360   4.405   6.473   3.115
 7154SOL    HW122361   4.334   6.405   3.099
 7154SOL    HW222362   4.450   6.495   3.028
 7155SOL     OW22363   3.206   3.550   1.862
 7155SOL    HW122364   3.126   3.594   1.823
 7155SOL    HW222365   3.216   3.579   1.958
 7156SOL     OW22366   5.412   3.595   2.157
 7156SOL    HW122367   5.371   3.555   2.075
 7156SOL    HW222368   5.399   3.533   2.234
 7157SOL     OW22369   6.547   5.033   1.661
 7157SOL    HW122370   6.452   5.037   1.690
 7157SOL    HW222371   6.597   4.967   1.717
 7158SOL     OW22372   1.207   0.011   3.323
 7158SOL    HW122373   1.152   6.956   3.339
 7158SOL    HW222374   1.282   7.016   3.260
 7159SOL     OW22375   1.288   5.367   4.131
 7159SOL    HW122376   1.327   5.376   4.040
 7159SOL    HW222377   1.245   5.277   4.140
 7160SOL     OW22378   6.350   6.487   3.073
 7160SOL    HW122379   6.328   6.555   3.004
 7160SOL    HW222380   6.441   6.504   3.110
 7161SOL     OW22381   3.259   3.786   3.047
 7161SOL    HW122382   3.322   3.716   3.081
 7161SOL    HW222383   3.305   3.840   2.977
 7162SOL     OW22384   1.389   5.247   6.063
 7162SOL    HW122385   1.337   5.304   6.126
 7162SOL    HW222386   1.410   5.300   5.980
 7163SOL     OW22387   2.935   0.617   2.190
 7163SOL    HW122388   2.879   0.674   2.251
 7163SOL    HW222389   3.012   0.579   2.242
 7164SOL     OW22390   2.479   0.116   4.931
 7164SOL    HW122391   2.558   0.056   4.915
 7164SOL    HW222392   2.453   0.161   4.846
 7165SOL     OW22393   5.580   6.508   1.907
 7165SOL    HW122394   5.640   6.577   1.948
 7165SOL    HW222395   5.562   6.531   1.812
 7166SOL     OW22396   5.292   2.075   0.268
 7166SOL    HW122397   5.293   1.997   0.331
 7166SOL    HW222398   5.198   2.089   0.235
 7167SOL     OW22399   4.933   3.473   4.800
 7167SOL    HW122400   4.932   3.379   4.832
 7167SOL    HW222401   4.889   3.532   4.868
 7168SOL     OW22402   2.813   2.052   2.953
 7168SOL    HW122403   2.735   2.094   2.906
 7168SOL    HW222404   2.822   1.957   2.923
 7169SOL     OW22405   6.821   4.367   5.166
 7169SOL    HW122406   6.790   4.409   5.081
 7169SOL    HW222407   6.769   4.405   5.243
 7170SOL     OW22408   5.034   0.049   2.805
 7170SOL    HW122409   5.127   0.021   2.829
 7170SOL    HW222410   4.969   7.011   2.842
 7171SOL     OW22411   6.012   4.007   0.224
 7171SOL    HW122412   6.004   3.950   0.142
 7171SOL    HW222413   5.921   4.030   0.258
 7172SOL     OW22414   2.008   0.452   4.977
 7172SOL    HW122415   2.032   0.415   4.887
 7172SOL    HW222416   2.085   0.441   5.040
 7173SOL     OW22417   5.867   5.067   6.705
 7173SOL    HW122418   5.914   4.980   6.689
 7173SOL    HW222419   5.880   5.096   6.799
 7174SOL     OW22420   0.101   4.609   0.534
 7174SOL    HW122421   0.053   4.575   0.452
 7174SOL    HW222422   0.089   4.708   0.541
 7175SOL     OW22423   6.518   3.334   5.331
 7175SOL    HW122424   6.434   3.312   5.282
 7175SOL    HW222425   6.597   3.300   5.279
 7176SOL     OW22426   0.066   2.096   4.073
 7176SOL    HW122427   0.148   2.151   4.092
 7176SOL    HW222428   0.072   2.010   4.124
 7177SOL     OW22429   1.531   4.893   5.402
 7177SOL    HW122430   1.455   4.868   5.462
 7177SOL    HW222431   1.498   4.955   5.331
 7178SOL     OW22432   0.143   1.845   6.239
 7178SOL    HW122433   0.090   1.793   6.305
 7178SOL    HW222434   0.240   1.819   6.246
 7179SOL     OW22435   1.195   3.780   4.687
 7179SOL    HW122436   1.128   3.718   4.729
 7179SOL    HW222437   1.148   3.861   4.653
 7180SOL     OW22438   2.033   3.943   0.460
 7180SOL    HW122439   2.098   3.868   0.457
 7180SOL    HW222440   2.078   4.027   0.429
 7181SOL     OW22441   2.354   0.344   0.106
 7181SOL    HW122442   2.343   0.246   0.125
 7181SOL    HW222443   2.436   0.378   0.152
 7182SOL     OW22444   0.431   4.057   3.456
 7182SOL    HW122445   0.466   4.058   3.550
 7182SOL    HW222446   0.474   3.982   3.405
 7183SOL     OW22447   1.831   5.254   1.928
 7183SOL    HW122448   1.816   5.156   1.918
 7183SOL    HW222449   1.846   5.276   2.025
 7184SOL     OW22450   6.998   1.335   3.837
 7184SOL    HW122451   6.959   1.306   3.925
 7184SOL    HW222452   6.973   1.430   3.819
 7185SOL     OW22453   5.744   1.463   5.486
 7185SOL    HW122454   5.808   1.421   5.550
 7185SOL    HW222455   5.663   1.406   5.477
 7186SOL     OW22456   6.661   1.700   1.120
 7186SOL    HW122457   6.612   1.784   1.096
 7186SOL    HW222458   6.597   1.634   1.160
 7187SOL     OW22459   2.905   3.996   5.442
 7187SOL    HW122460   2.935   4.082   5.481
 7187SOL    HW222461   2.814   4.007   5.403
 7188SOL     OW22462   4.545   5.770   0.356
 7188SOL    HW122463   4.460   5.820   0.368
 7188SOL    HW222464   4.607   5.791   0.432
 7189SOL     OW22465   6.286   2.768   5.921
 7189SOL    HW122466   6.386   2.771   5.913
 7189SOL    HW222467   6.249   2.717   5.844
 7190SOL     OW22468   6.483   5.816   1.515
 7190SOL    HW122469   6.487   5.835   1.613
 7190SOL    HW222470   6.566   5.849   1.471
 7191SOL     OW22471   1.228   4.489   2.959
 7191SOL    HW122472   1.173   4.545   3.020
 7191SOL    HW222473   1.276   4.419   3.011
 7192SOL     OW22474   1.700   4.199   6.432
 7192SOL    HW122475   1.748   4.200   6.520
 7192SOL    HW222476   1.656   4.110   6.418
 7193SOL     OW22477   2.297   1.775   2.124
 7193SOL    HW122478   2.217   1.728   2.085
 7193SOL    HW222479   2.346   1.823   2.051
 7194SOL     OW22480   1.821   2.953   6.751
 7194SOL    HW122481   1.903   2.974   6.697
 7194SOL    HW222482   1.759   2.895   6.697
 7195SOL     OW22483   6.800   4.337   0.191
 7195SOL    HW122484   6.793   4.379   0.100
 7195SOL    HW222485   6.712   4.345   0.238
 7196SOL     OW22486   2.418   3.856   1.588
 7196SOL    HW122487   2.387   3.835   1.681
 7196SOL    HW222488   2.486   3.929   1.592
 7197SOL     OW22489   1.373   3.571   6.097
 7197SOL    HW122490   1.370   3.481   6.054
 7197SOL    HW222491   1.284   3.615   6.089
 7198SOL     OW22492   0.216   1.137   0.413
 7198SOL    HW122493   0.302   1.097   0.443
 7198SOL    HW222494   0.144   1.067   0.414
 7199SOL     OW22495   0.963   0.231   2.549
 7199SOL    HW122496   1.049   0.282   2.547
 7199SOL    HW222497   0.941   0.205   2.643
 7200SOL     OW22498   2.268   2.825   6.527
 7200SOL    HW122499   2.330   2.759   6.485
 7200SOL    HW222500   2.258   2.804   6.624
 7201SOL     OW22501   0.846   6.178   4.290
 7201SOL    HW122502   0.850   6.089   4.336
 7201SOL    HW222503   0.859   6.251   4.357
 7202SOL     OW22504   4.590   6.480   6.599
 7202SOL    HW122505   4.629   6.399   6.645
 7202SOL    HW222506   4.639   6.562   6.629
 7203SOL     OW22507   6.859   0.953   1.382
 7203SOL    HW122508   6.897   1.023   1.321
 7203SOL    HW222509   6.901   0.963   1.472
 7204SOL     OW22510   0.400   1.180   6.563
 7204SOL    HW122511   0.492   1.155   6.531
 7204SOL    HW222512   0.346   1.097   6.578
 7205SOL     OW22513   1.532   4.501   5.734
 7205SOL    HW122514   1.523   4.518   5.636
 7205SOL    HW222515   1.526   4.587   5.784
 7206SOL     OW22516   1.436   1.237   2.323
 7206SOL    HW122517   1.508   1.300   2.296
 7206SOL    HW222518   1.477   1.149   2.348
 7207SOL     OW22519   3.799   0.521   4.237
 7207SOL    HW122520   3.833   0.606   4.196
 7207SOL    HW222521   3.733   0.478   4.176
 7208SOL     OW22522   4.679   0.233   3.404
 7208SOL    HW122523   4.734   0.150   3.398
 7208SOL    HW222524   4.597   0.216   3.458
 7209SOL     OW22525   2.500   3.047   1.541
 7209SOL    HW122526   2.515   3.102   1.459
 7209SOL    HW222527   2.441   3.097   1.604
 7210SOL     OW22528   4.056   1.792   3.672
 7210SOL    HW122529   4.026   1.715   3.728
 7210SOL    HW222530   4.004   1.793   3.586
 7211SOL     OW22531   1.656   6.265   5.106
 7211SOL    HW122532   1.730   6.229   5.050
 7211SOL    HW222533   1.683   6.266   5.202
 7212SOL     OW22534   0.540   6.206   5.307
 7212SOL    HW122535   0.624   6.235   5.354
 7212SOL    HW222536   0.462   6.253   5.348
 7213SOL     OW22537   3.503   6.727   6.612
 7213SOL    HW122538   3.576   6.678   6.660
 7213SOL    HW222539   3.471   6.673   6.535
 7214SOL     OW22540   6.477   0.423   5.688
 7214SOL    HW122541   6.501   0.342   5.635
 7214SOL    HW222542   6.472   0.502   5.626
 7215SOL     OW22543   6.370   2.986   4.124
 7215SOL    HW122544   6.303   2.946   4.061
 7215SOL    HW222545   6.451   2.928   4.127
 7216SOL     OW22546   3.087   6.975   2.027
 7216SOL    HW122547   3.067   0.003   2.108
 7216SOL    HW222548   3.005   6.925   2.000
 7217SOL     OW22549   1.809   3.512   3.301
 7217SOL    HW122550   1.733   3.459   3.338
 7217SOL    HW222551   1.773   3.583   3.239
 7218SOL     OW22552   6.464   2.839   4.421
 7218SOL    HW122553   6.388   2.889   4.378
 7218SOL    HW222554   6.428   2.757   4.465
 7219SOL     OW22555   3.447   0.937   2.783
 7219SOL    HW122556   3.350   0.916   2.778
 7219SOL    HW222557   3.499   0.852   2.787
 7220SOL     OW22558   6.504   4.250   4.023
 7220SOL    HW122559   6.418   4.298   4.002
 7220SOL    HW222560   6.489   4.190   4.102
 7221SOL     OW22561   3.848   6.116   5.017
 7221SOL    HW122562   3.872   6.172   5.096
 7221SOL    HW222563   3.873   6.165   4.933
 7222SOL     OW22564   6.419   6.557   3.786
 7222SOL    HW122565   6.455   6.464   3.791
 7222SOL    HW222566   6.319   6.554   3.780
 7223SOL     OW22567   3.506   1.496   1.034
 7223SOL    HW122568   3.455   1.435   0.975
 7223SOL    HW222569   3.604   1.482   1.020
 7224SOL     OW22570   5.152   2.580   4.088
 7224SOL    HW122571   5.107   2.655   4.136
 7224SOL    HW222572   5.101   2.495   4.103
 7225SOL     OW22573   1.372   6.496   0.447
 7225SOL    HW122574   1.330   6.426   0.389
 7225SOL    HW222575   1.340   6.485   0.541
 7226SOL     OW22576   5.614   0.018   0.912
 7226SOL    HW122577   5.521   0.019   0.876
 7226SOL    HW222578   5.613   0.041   1.009
 7227SOL     OW22579   2.527   2.025   1.023
 7227SOL    HW122580   2.579   2.063   0.947
 7227SOL    HW222581   2.565   2.058   1.109
 7228SOL     OW22582   1.210   1.619   2.337
 7228SOL    HW122583   1.203   1.525   2.373
 7228SOL    HW222584   1.203   1.617   2.238
 7229SOL     OW22585   1.370   6.069   5.840
 7229SOL    HW122586   1.447   6.127   5.814
 7229SOL    HW222587   1.291   6.127   5.861
 7230SOL     OW22588   3.647   5.777   4.339
 7230SOL    HW122589   3.644   5.718   4.257
 7230SOL    HW222590   3.579   5.746   4.405
 7231SOL     OW22591   3.673   0.454   6.706
 7231SOL    HW122592   3.574   0.468   6.718
 7231SOL    HW222593   3.688   0.385   6.635
 7232SOL     OW22594   4.639   5.924   2.893
 7232SOL    HW122595   4.558   5.872   2.921
 7232SOL    HW222596   4.684   5.879   2.816
 7233SOL     OW22597   1.512   1.581   4.068
 7233SOL    HW122598   1.460   1.536   4.141
 7233SOL    HW222599   1.562   1.659   4.106
 7234SOL     OW22600   6.094   3.036   3.240
 7234SOL    HW122601   6.070   3.117   3.186
 7234SOL    HW222602   6.165   2.985   3.192
 7235SOL     OW22603   0.048   4.482   2.208
 7235SOL    HW122604   6.984   4.446   2.226
 7235SOL    HW222605   0.085   4.524   2.291
 7236SOL     OW22606   2.880   1.834   2.290
 7236SOL    HW122607   2.898   1.827   2.192
 7236SOL    HW222608   2.841   1.924   2.310
 7237SOL     OW22609   4.010   0.130   4.887
 7237SOL    HW122610   3.961   0.210   4.920
 7237SOL    HW222611   4.107   0.153   4.875
 7238SOL     OW22612   4.568   2.303   6.259
 7238SOL    HW122613   4.605   2.368   6.192
 7238SOL    HW222614   4.624   2.220   6.258
 7239SOL     OW22615   0.663   2.072   1.681
 7239SOL    HW122616   0.596   2.146   1.679
 7239SOL    HW222617   0.704   2.061   1.591
 7240SOL     OW22618   0.252   1.217   5.646
 7240SOL    HW122619   0.255   1.305   5.695
 7240SOL    HW222620   0.258   1.142   5.712
 7241SOL     OW22621   2.378   0.348   1.053
 7241SOL    HW122622   2.454   0.379   0.995
 7241SOL    HW222623   2.324   0.279   1.004
 7242SOL     OW22624   6.140   5.852   6.688
 7242SOL    HW122625   6.048   5.890   6.675
 7242SOL    HW222626   6.134   5.752   6.695
 7243SOL     OW22627   6.335   4.234   6.708
 7243SOL    HW122628   6.264   4.171   6.740
 7243SOL    HW222629   6.301   4.284   6.628
 7244SOL     OW22630   0.176   0.814   1.615
 7244SOL    HW122631   0.092   0.868   1.619
 7244SOL    HW222632   0.239   0.854   1.549
 7245SOL     OW22633   1.755   2.894   4.755
 7245SOL    HW122634   1.832   2.883   4.692
 7245SOL    HW222635   1.684   2.828   4.733
 7246SOL     OW22636   1.080   0.499   3.259
 7246SOL    HW122637   0.986   0.510   3.290
 7246SOL    HW222638   1.124   0.425   3.311
 7247SOL     OW22639   2.353   1.823   5.187
 7247SOL    HW122640   2.345   1.754   5.115
 7247SOL    HW222641   2.279   1.890   5.178
 7248SOL     OW22642   3.280   1.576   3.116
 7248SOL    HW122643   3.215   1.642   3.154
 7248SOL    HW222644   3.283   1.495   3.175
 7249SOL     OW22645   4.884   5.101   2.063
 7249SOL    HW122646   4.844   5.185   2.101
 7249SOL    HW222647   4.945   5.125   1.987
 7250SOL     OW22648   5.747   6.190   5.891
 7250SOL    HW122649   5.722   6.100   5.928
 7250SOL    HW222650   5.709   6.200   5.799
 7251SOL     OW22651   0.254   6.818   5.927
 7251SOL    HW122652   0.180   6.830   5.860
 7251SOL    HW222653   0.325   6.886   5.911
 7252SOL     OW22654   3.751   3.172   2.158
 7252SOL    HW122655   3.804   3.111   2.216
 7252SOL    HW222656   3.655   3.144   2.158
 7253SOL     OW22657   2.033   6.081   0.042
 7253SOL    HW122658   2.006   6.145   0.114
 7253SOL    HW222659   2.128   6.052   0.058
 7254SOL     OW22660   5.371   5.157   4.483
 7254SOL    HW122661   5.322   5.108   4.555
 7254SOL    HW222662   5.434   5.095   4.437
 7255SOL     OW22663   3.881   3.880   0.332
 7255SOL    HW122664   3.947   3.806   0.346
 7255SOL    HW222665   3.902   3.956   0.393
 7256SOL     OW22666   3.086   5.939   4.680
 7256SOL    HW122667   2.994   5.976   4.672
 7256SOL    HW222668   3.141   5.999   4.738
 7257SOL     OW22669   6.591   1.958   3.326
 7257SOL    HW122670   6.648   1.877   3.338
 7257SOL    HW222671   6.544   1.979   3.412
 7258SOL     OW22672   4.979   1.715   2.647
 7258SOL    HW122673   4.982   1.667   2.735
 7258SOL    HW222674   5.058   1.777   2.641
 7259SOL     OW22675   1.782   3.462   1.567
 7259SOL    HW122676   1.710   3.395   1.551
 7259SOL    HW222677   1.784   3.527   1.490
 7260SOL     OW22678   4.968   1.541   1.585
 7260SOL    HW122679   5.032   1.505   1.653
 7260SOL    HW222680   4.916   1.617   1.625
 7261SOL     OW22681   1.451   3.816   1.495
 7261SOL    HW122682   1.491   3.742   1.548
 7261SOL    HW222683   1.399   3.876   1.556
 7262SOL     OW22684   5.268   2.793   6.338
 7262SOL    HW122685   5.219   2.837   6.413
 7262SOL    HW222686   5.202   2.752   6.275
 7263SOL     OW22687   0.802   6.509   0.034
 7263SOL    HW122688   0.765   6.521   6.969
 7263SOL    HW222689   0.796   6.412   0.060
 7264SOL     OW22690   4.846   1.758   6.783
 7264SOL    HW122691   4.908   1.768   6.861
 7264SOL    HW222692   4.818   1.848   6.751
 7265SOL     OW22693   5.519   5.253   6.342
 7265SOL    HW122694   5.533   5.345   6.307
 7265SOL    HW222695   5.595   5.194   6.315
 7266SOL     OW22696   5.683   0.330   2.262
 7266SOL    HW122697   5.672   0.239   2.222
 7266SOL    HW222698   5.621   0.395   2.218
 7267SOL     OW22699   6.257   6.632   5.194
 7267SOL    HW122700   6.310   6.561   5.148
 7267SOL    HW222701   6.228   6.700   5.127
 7268SOL     OW22702   0.139   5.471   3.918
 7268SOL    HW122703   0.101   5.492   3.828
 7268SOL    HW222704   0.071   5.489   3.988
 7269SOL     OW22705   0.976   5.995   6.304
 7269SOL    HW122706   0.937   6.076   6.261
 7269SOL    HW222707   1.047   5.957   6.245
 7270SOL     OW22708   0.907   3.429   4.717
 7270SOL    HW122709   0.978   3.365   4.746
 7270SOL    HW222710   0.870   3.401   4.629
 7271SOL     OW22711   1.231   5.634   4.591
 7271SOL    HW122712   1.219   5.544   4.549
 7271SOL    HW222713   1.290   5.627   4.671
 7272SOL     OW22714   6.042   5.257   2.509
 7272SOL    HW122715   6.032   5.196   2.588
 7272SOL    HW222716   6.138   5.284   2.500
 7273SOL     OW22717   6.287   3.898   1.179
 7273SOL    HW122718   6.240   3.897   1.268
 7273SOL    HW222719   6.303   3.804   1.149
 7274SOL     OW22720   0.083   5.528   6.566
 7274SOL    HW122721   0.047   5.452   6.513
 7274SOL    HW222722   0.177   5.547   6.538
 7275SOL     OW22723   0.569   6.552   2.799
 7275SOL    HW122724   0.612   6.506   2.876
 7275SOL    HW222725   0.570   6.492   2.719
 7276SOL     OW22726   4.848   1.002   2.979
 7276SOL    HW122727   4.809   0.933   3.041
 7276SOL    HW222728   4.798   1.087   2.989
 7277SOL     OW22729   5.043   1.030   4.149
 7277SOL    HW122730   5.067   0.959   4.216
 7277SOL    HW222731   4.968   1.085   4.185
 7278SOL     OW22732   4.026   2.318   1.681
 7278SOL    HW122733   4.090   2.326   1.757
 7278SOL    HW222734   3.957   2.389   1.688
 7279SOL     OW22735   4.009   4.914   5.472
 7279SOL    HW122736   3.995   5.005   5.433
 7279SOL    HW222737   3.971   4.912   5.565
 7280SOL     OW22738   0.407   1.702   4.016
 7280SOL    HW122739   0.440   1.789   4.051
 7280SOL    HW222740   0.445   1.686   3.925
 7281SOL     OW22741   2.383   1.462   6.917
 7281SOL    HW122742   2.465   1.469   6.860
 7281SOL    HW222743   2.409   1.474   7.013
 7282SOL     OW22744   6.082   5.079   2.760
 7282SOL    HW122745   6.171   5.112   2.791
 7282SOL    HW222746   6.093   4.990   2.716
 7283SOL     OW22747   5.141   0.616   2.913
 7283SOL    HW122748   5.072   0.641   2.845
 7283SOL    HW222749   5.213   0.685   2.914
 7284SOL     OW22750   0.123   2.548   6.192
 7284SOL    HW122751   0.187   2.591   6.256
 7284SOL    HW222752   0.029   2.573   6.216
 7285SOL     OW22753   5.478   3.041   2.501
 7285SOL    HW122754   5.493   3.081   2.411
 7285SOL    HW222755   5.560   2.992   2.530
 7286SOL     OW22756   2.359   1.032   0.576
 7286SOL    HW122757   2.283   1.053   0.637
 7286SOL    HW222758   2.409   1.116   0.555
 7287SOL     OW22759   0.643   2.640   5.866
 7287SOL    HW122760   0.693   2.617   5.782
 7287SOL    HW222761   0.700   2.698   5.924
 7288SOL     OW22762   1.729   1.079   0.916
 7288SOL    HW122763   1.786   1.039   0.987
 7288SOL    HW222764   1.738   1.026   0.831
 7289SOL     OW22765   5.370   2.269   4.021
 7289SOL    HW122766   5.448   2.305   4.073
 7289SOL    HW222767   5.366   2.170   4.032
 7290SOL     OW22768   3.915   1.152   4.971
 7290SOL    HW122769   3.896   1.054   4.971
 7290SOL    HW222770   3.843   1.201   4.922
 7291SOL     OW22771   1.724   6.287   0.599
 7291SOL    HW122772   1.810   6.272   0.649
 7291SOL    HW222773   1.733   6.254   0.505
 7292SOL     OW22774   3.494   1.300   4.016
 7292SOL    HW122775   3.415   1.360   4.025
 7292SOL    HW222776   3.464   1.204   4.021
 7293SOL     OW22777   1.188   2.174   4.446
 7293SOL    HW122778   1.239   2.238   4.389
 7293SOL    HW222779   1.129   2.225   4.509
 7294SOL     OW22780   2.803   4.910   6.990
 7294SOL    HW122781   2.851   4.950   0.041
 7294SOL    HW222782   2.775   4.983   6.927
 7295SOL     OW22783   6.029   3.017   1.618
 7295SOL    HW122784   5.984   2.939   1.575
 7295SOL    HW222785   5.968   3.057   1.687
 7296SOL     OW22786   2.992   5.890   2.396
 7296SOL    HW122787   2.927   5.855   2.463
 7296SOL    HW222788   2.982   5.841   2.310
 7297SOL     OW22789   4.115   0.250   1.551
 7297SOL    HW122790   4.191   0.314   1.566
 7297SOL    HW222791   4.071   0.230   1.639
 7298SOL     OW22792   5.279   5.394   5.713
 7298SOL    HW122793   5.290   5.338   5.795
 7298SOL    HW222794   5.310   5.487   5.732
 7299SOL     OW22795   1.071   2.315   0.762
 7299SOL    HW122796   0.974   2.338   0.769
 7299SOL    HW222797   1.110   2.309   0.853
 7300SOL     OW22798   0.676   0.033   3.280
 7300SOL    HW122799   0.763   7.017   3.257
 7300SOL    HW222800   0.618   6.995   3.328
 7301SOL     OW22801   5.989   1.505   4.134
 7301SOL    HW122802   5.935   1.453   4.069
 7301SOL    HW222803   6.082   1.469   4.137
 7302SOL     OW22804   0.973   2.237   5.322
 7302SOL    HW122805   0.940   2.235   5.416
 7302SOL    HW222806   0.942   2.321   5.277
 7303SOL     OW22807   3.878   0.599   0.013
 7303SOL    HW122808   3.798   0.628   6.988
 7303SOL    HW222809   3.899   0.503   7.019
 7304SOL     OW22810   3.294   5.633   1.861
 7304SOL    HW122811   3.308   5.724   1.900
 7304SOL    HW222812   3.360   5.569   1.901
 7305SOL     OW22813   4.490   0.757   0.677
 7305SOL    HW122814   4.530   0.848   0.665
 7305SOL    HW222815   4.444   0.729   0.593
 7306SOL     OW22816   5.168   1.423   0.861
 7306SOL    HW122817   5.110   1.437   0.941
 7306SOL    HW222818   5.113   1.434   0.778
 7307SOL     OW22819   2.463   6.607   2.393
 7307SOL    HW122820   2.468   6.562   2.482
 7307SOL    HW222821   2.553   6.607   2.351
 7308SOL     OW22822   6.894   3.029   5.392
 7308SOL    HW122823   6.989   3.062   5.387
 7308SOL    HW222824   6.894   2.932   5.417
 7309SOL     OW22825   4.200   4.960   1.168
 7309SOL    HW122826   4.188   4.872   1.121
 7309SOL    HW222827   4.114   5.011   1.164
 7310SOL     OW22828   2.357   3.859   0.949
 7310SOL    HW122829   2.344   3.760   0.953
 7310SOL    HW222830   2.365   3.888   0.854
 7311SOL     OW22831   2.298   1.915   1.367
 7311SOL    HW122832   2.365   1.976   1.326
 7311SOL    HW222833   2.223   1.898   1.302
 7312SOL     OW22834   0.993   3.821   4.961
 7312SOL    HW122835   0.914   3.799   4.904
 7312SOL    HW222836   1.065   3.753   4.945
 7313SOL     OW22837   2.135   0.867   0.457
 7313SOL    HW122838   2.202   0.932   0.420
 7313SOL    HW222839   2.178   0.813   0.530
 7314SOL     OW22840   0.153   5.050   5.892
 7314SOL    HW122841   0.111   5.048   5.983
 7314SOL    HW222842   0.229   5.115   5.892
 7315SOL     OW22843   6.301   6.899   2.271
 7315SOL    HW122844   6.331   6.920   2.364
 7315SOL    HW222845   6.225   6.958   2.245
 7316SOL     OW22846   3.814   3.680   6.807
 7316SOL    HW122847   3.755   3.665   6.887
 7316SOL    HW222848   3.858   3.769   6.814
 7317SOL     OW22849   5.417   1.275   2.866
 7317SOL    HW122850   5.384   1.347   2.928
 7317SOL    HW222851   5.417   1.309   2.772
 7318SOL     OW22852   1.846   0.503   2.159
 7318SOL    HW122853   1.750   0.489   2.135
 7318SOL    HW222854   1.876   0.593   2.126
 7319SOL     OW22855   0.243   3.116   6.622
 7319SOL    HW122856   0.217   3.059   6.545
 7319SOL    HW222857   0.160   3.149   6.668
 7320SOL     OW22858   0.500   3.686   2.830
 7320SOL    HW122859   0.542   3.775   2.842
 7320SOL    HW222860   0.561   3.614   2.863
 7321SOL     OW22861   2.044   0.790   5.909
 7321SOL    HW122862   2.031   0.762   5.814
 7321SOL    HW222863   2.093   0.877   5.912
 7322SOL     OW22864   6.632   2.978   3.742
 7322SOL    HW122865   6.565   2.927   3.796
 7322SOL    HW222866   6.711   2.920   3.724
 7323SOL     OW22867   1.774   2.385   1.953
 7323SOL    HW122868   1.795   2.334   2.036
 7323SOL    HW222869   1.682   2.423   1.959
 7324SOL     OW22870   4.393   5.763   1.820
 7324SOL    HW122871   4.446   5.823   1.761
 7324SOL    HW222872   4.352   5.817   1.894
 7325SOL     OW22873   3.114   0.214   0.251
 7325SOL    HW122874   3.083   0.266   0.331
 7325SOL    HW222875   3.084   0.119   0.259
 7326SOL     OW22876   2.712   5.908   6.560
 7326SOL    HW122877   2.703   6.007   6.567
 7326SOL    HW222878   2.706   5.880   6.464
 7327SOL     OW22879   6.462   1.853   6.074
 7327SOL    HW122880   6.535   1.894   6.019
 7327SOL    HW222881   6.488   1.855   6.170
 7328SOL     OW22882   3.032   0.678   5.553
 7328SOL    HW122883   3.026   0.607   5.483
 7328SOL    HW222884   3.104   0.655   5.619
 7329SOL     OW22885   6.496   4.380   1.261
 7329SOL    HW122886   6.447   4.432   1.331
 7329SOL    HW222887   6.577   4.430   1.232
 7330SOL     OW22888   2.426   2.623   6.419
 7330SOL    HW122889   2.403   2.539   6.468
 7330SOL    HW222890   2.387   2.619   6.327
 7331SOL     OW22891   5.041   6.609   1.553
 7331SOL    HW122892   5.015   6.541   1.622
 7331SOL    HW222893   5.123   6.577   1.505
 7332SOL     OW22894   2.975   5.840   0.345
 7332SOL    HW122895   3.045   5.905   0.317
 7332SOL    HW222896   2.983   5.757   0.289
 7333SOL     OW22897   6.977   2.872   2.082
 7333SOL    HW122898   6.958   2.965   2.051
 7333SOL    HW222899   0.039   2.843   2.048
 7334SOL     OW22900   2.811   5.826   6.787
 7334SOL    HW122901   2.774   5.851   6.698
 7334SOL    HW222902   2.747   5.856   6.859
 7335SOL     OW22903   2.160   2.430   3.224
 7335SOL    HW122904   2.101   2.482   3.286
 7335SOL    HW222905   2.175   2.483   3.141
 7336SOL     OW22906   1.868   6.665   2.894
 7336SOL    HW122907   1.954   6.618   2.872
 7336SOL    HW222908   1.884   6.763   2.898
 7337SOL     OW22909   0.710   3.025   1.389
 7337SOL    HW122910   0.729   3.119   1.362
 7337SOL    HW222911   0.656   3.025   1.473
 7338SOL     OW22912   5.580   1.991   1.696
 7338SOL    HW122913   5.489   2.004   1.655
 7338SOL    HW222914   5.589   2.051   1.775
 7339SOL     OW22915   6.156   0.262   3.668
 7339SOL    HW122916   6.126   0.260   3.573
 7339SOL    HW222917   6.140   0.172   3.710
 7340SOL     OW22918   3.445   1.512   0.294
 7340SOL    HW122919   3.473   1.491   0.388
 7340SOL    HW222920   3.504   1.462   0.230
 7341SOL     OW22921   1.056   4.084   6.040
 7341SOL    HW122922   1.066   4.034   6.126
 7341SOL    HW222923   1.011   4.172   6.058
 7342SOL     OW22924   0.476   1.716   0.267
 7342SOL    HW122925   0.407   1.702   0.338
 7342SOL    HW222926   0.555   1.763   0.306
 7343SOL     OW22927   6.137   3.870   1.405
 7343SOL    HW122928   6.106   3.915   1.489
 7343SOL    HW222929   6.156   3.774   1.424
 7344SOL     OW22930   1.438   1.325   6.273
 7344SOL    HW122931   1.398   1.344   6.363
 7344SOL    HW222932   1.372   1.348   6.202
 7345SOL     OW22933   4.146   4.832   5.095
 7345SOL    HW122934   4.064   4.888   5.083
 7345SOL    HW222935   4.129   4.762   5.164
 7346SOL     OW22936   4.230   4.608   1.817
 7346SOL    HW122937   4.324   4.575   1.814
 7346SOL    HW222938   4.212   4.665   1.736
 7347SOL     OW22939   0.396   2.321   0.263
 7347SOL    HW122940   0.469   2.390   0.260
 7347SOL    HW222941   0.371   2.296   0.170
 7348SOL     OW22942   1.753   3.831   4.637
 7348SOL    HW122943   1.689   3.908   4.640
 7348SOL    HW222944   1.743   3.784   4.549
 7349SOL     OW22945   4.836   1.360   1.418
 7349SOL    HW122946   4.917   1.307   1.394
 7349SOL    HW222947   4.861   1.432   1.483
 7350SOL     OW22948   2.194   3.074   5.555
 7350SOL    HW122949   2.175   3.161   5.601
 7350SOL    HW222950   2.289   3.048   5.570
 7351SOL     OW22951   5.826   5.958   5.060
 7351SOL    HW122952   5.874   5.899   5.125
 7351SOL    HW222953   5.751   6.005   5.107
 7352SOL     OW22954   2.148   0.974   3.210
 7352SOL    HW122955   2.215   0.902   3.229
 7352SOL    HW222956   2.147   1.039   3.286
 7353SOL     OW22957   0.785   6.537   6.472
 7353SOL    HW122958   0.737   6.608   6.420
 7353SOL    HW222959   0.720   6.467   6.502
 7354SOL     OW22960   0.843   2.290   5.012
 7354SOL    HW122961   0.819   2.298   4.916
 7354SOL    HW222962   0.851   2.381   5.052
 7355SOL     OW22963   1.401   0.299   0.871
 7355SOL    HW122964   1.363   0.274   0.960
 7355SOL    HW222965   1.482   0.356   0.885
 7356SOL     OW22966   3.957   3.838   6.214
 7356SOL    HW122967   3.897   3.867   6.288
 7356SOL    HW222968   3.993   3.747   6.234
 7357SOL     OW22969   3.555   6.984   1.812
 7357SOL    HW122970   3.563   0.022   1.737
 7357SOL    HW222971   3.508   6.902   1.780
 7358SOL     OW22972   6.098   3.463   2.768
 7358SOL    HW122973   6.104   3.437   2.672
 7358SOL    HW222974   6.009   3.507   2.785
 7359SOL     OW22975   3.978   1.990   5.733
 7359SOL    HW122976   3.959   1.893   5.749
 7359SOL    HW222977   3.982   2.038   5.820
 7360SOL     OW22978   2.915   3.484   5.821
 7360SOL    HW122979   3.003   3.440   5.802
 7360SOL    HW222980   2.893   3.548   5.748
 7361SOL     OW22981   4.176   0.391   2.152
 7361SOL    HW122982   4.266   0.355   2.175
 7361SOL    HW222983   4.160   0.476   2.202
 7362SOL     OW22984   1.754   4.988   5.574
 7362SOL    HW122985   1.846   4.987   5.534
 7362SOL    HW222986   1.688   4.953   5.507
 7363SOL     OW22987   4.424   1.728   1.652
 7363SOL    HW122988   4.336   1.715   1.697
 7363SOL    HW222989   4.473   1.641   1.648
 7364SOL     OW22990   4.665   0.409   1.588
 7364SOL    HW122991   4.593   0.455   1.536
 7364SOL    HW222992   4.651   0.425   1.685
 7365SOL     OW22993   0.184   5.815   1.934
 7365SOL    HW122994   0.217   5.747   1.869
 7365SOL    HW222995   0.086   5.830   1.920
 7366SOL     OW22996   2.906   6.069   6.993
 7366SOL    HW122997   2.823   6.013   6.997
 7366SOL    HW222998   2.934   6.081   6.898
 7367SOL     OW22999   5.496   2.770   1.412
 7367SOL    HW123000   5.512   2.686   1.361
 7367SOL    HW223001   5.493   2.749   1.510
 7368SOL     OW23002   3.667   2.901   2.546
 7368SOL    HW123003   3.681   2.999   2.558
 7368SOL    HW223004   3.679   2.855   2.634
 7369SOL     OW23005   3.696   2.139   0.505
 7369SOL    HW123006   3.680   2.234   0.534
 7369SOL    HW223007   3.778   2.136   0.447
 7370SOL     OW23008   2.414   0.855   4.469
 7370SOL    HW123009   2.480   0.790   4.507
 7370SOL    HW223010   2.337   0.865   4.532
 7371SOL     OW23011   2.586   6.370   3.436
 7371SOL    HW123012   2.656   6.363   3.507
 7371SOL    HW223013   2.499   6.338   3.472
 7372SOL     OW23014   4.838   1.143   4.292
 7372SOL    HW123015   4.843   1.096   4.380
 7372SOL    HW223016   4.878   1.235   4.301
 7373SOL     OW23017   6.287   1.701   3.504
 7373SOL    HW123018   6.267   1.769   3.573
 7373SOL    HW223019   6.368   1.648   3.532
 7374SOL     OW23020   2.866   1.643   5.154
 7374SOL    HW123021   2.775   1.667   5.118
 7374SOL    HW223022   2.856   1.604   5.245
 7375SOL     OW23023   2.710   2.367   3.024
 7375SOL    HW123024   2.775   2.379   2.949
 7375SOL    HW223025   2.753   2.313   3.096
 7376SOL     OW23026   2.191   2.275   0.599
 7376SOL    HW123027   2.254   2.229   0.537
 7376SOL    HW223028   2.108   2.302   0.549
 7377SOL     OW23029   5.719   4.793   0.622
 7377SOL    HW123030   5.816   4.798   0.597
 7377SOL    HW223031   5.705   4.841   0.709
 7378SOL     OW23032   0.559   0.760   5.867
 7378SOL    HW123033   0.567   0.853   5.832
 7378SOL    HW223034   0.646   0.713   5.857
 7379SOL     OW23035   3.130   1.710   2.756
 7379SOL    HW123036   3.100   1.719   2.661
 7379SOL    HW223037   3.214   1.656   2.760
 7380SOL     OW23038   7.011   4.648   3.893
 7380SOL    HW123039   0.032   4.579   3.839
 7380SOL    HW223040   6.996   4.613   3.986
 7381SOL     OW23041   3.903   3.045   0.746
 7381SOL    HW123042   3.924   2.953   0.780
 7381SOL    HW223043   3.988   3.092   0.723
 7382SOL     OW23044   0.555   6.920   5.651
 7382SOL    HW123045   0.487   6.958   5.714
 7382SOL    HW223046   0.560   6.821   5.663
 7383SOL     OW23047   2.488   6.472   0.926
 7383SOL    HW123048   2.401   6.517   0.943
 7383SOL    HW223049   2.494   6.389   0.982
 7384SOL     OW23050   6.061   6.472   2.972
 7384SOL    HW123051   6.153   6.483   3.008
 7384SOL    HW223052   6.007   6.416   3.036
 7385SOL     OW23053   3.480   5.880   2.710
 7385SOL    HW123054   3.402   5.822   2.734
 7385SOL    HW223055   3.514   5.925   2.793
 7386SOL     OW23056   0.278   2.519   6.923
 7386SOL    HW123057   0.246   2.521   7.018
 7386SOL    HW223058   0.237   2.441   6.876
 7387SOL     OW23059   6.047   6.368   5.492
 7387SOL    HW123060   5.950   6.345   5.491
 7387SOL    HW223061   6.092   6.323   5.569
 7388SOL     OW23062   0.891   5.599   2.363
 7388SOL    HW123063   0.791   5.598   2.362
 7388SOL    HW223064   0.923   5.624   2.454
 7389SOL     OW23065   6.199   4.022   6.300
 7389SOL    HW123066   6.117   3.992   6.252
 7389SOL    HW223067   6.217   4.118   6.280
 7390SOL     OW23068   1.745   1.934   0.966
 7390SOL    HW123069   1.782   1.930   0.873
 7390SOL    HW223070   1.701   2.023   0.980
 7391SOL     OW23071   4.150   3.407   3.815
 7391SOL    HW123072   4.248   3.387   3.811
 7391SOL    HW223073   4.101   3.329   3.856
 7392SOL     OW23074   2.826   6.375   6.751
 7392SOL    HW123075   2.848   6.428   6.833
 7392SOL    HW223076   2.805   6.437   6.676
 7393SOL     OW23077   6.192   4.848   2.649
 7393SOL    HW123078   6.171   4.789   2.570
 7393SOL    HW223079   6.261   4.804   2.706
 7394SOL     OW23080   2.281   2.888   5.870
 7394SOL    HW123081   2.219   2.858   5.942
 7394SOL    HW223082   2.348   2.815   5.852
 7395SOL     OW23083   1.679   3.172   1.450
 7395SOL    HW123084   1.583   3.166   1.424
 7395SOL    HW223085   1.696   3.114   1.530
 7396SOL     OW23086   1.591   6.393   1.352
 7396SOL    HW123087   1.652   6.456   1.399
 7396SOL    HW223088   1.590   6.414   1.254
 7397SOL     OW23089   4.445   5.419   4.423
 7397SOL    HW123090   4.512   5.370   4.366
 7397SOL    HW223091   4.490   5.452   4.506
 7398SOL     OW23092   1.527   5.137   4.046
 7398SOL    HW123093   1.512   5.174   3.955
 7398SOL    HW223094   1.461   5.064   4.064
 7399SOL     OW23095   0.832   3.142   4.639
 7399SOL    HW123096   0.750   3.199   4.634
 7399SOL    HW223097   0.828   3.071   4.568
 7400SOL     OW23098   4.457   2.961   5.924
 7400SOL    HW123099   4.388   2.981   5.992
 7400SOL    HW223100   4.451   3.027   5.849
 7401SOL     OW23101   1.159   2.617   3.803
 7401SOL    HW123102   1.109   2.686   3.856
 7401SOL    HW223103   1.189   2.658   3.716
 7402SOL     OW23104   2.978   5.467   6.424
 7402SOL    HW123105   3.047   5.497   6.490
 7402SOL    HW223106   2.994   5.370   6.402
 7403SOL     OW23107   1.947   3.707   2.284
 7403SOL    HW123108   1.992   3.708   2.195
 7403SOL    HW223109   1.867   3.648   2.280
 7404SOL     OW23110   2.256   4.796   1.674
 7404SOL    HW123111   2.294   4.705   1.692
 7404SOL    HW223112   2.316   4.865   1.715
 7405SOL     OW23113   3.430   4.966   4.894
 7405SOL    HW123114   3.395   5.024   4.821
 7405SOL    HW223115   3.359   4.949   4.962
 7406SOL     OW23116   0.248   2.831   3.506
 7406SOL    HW123117   0.323   2.825   3.440
 7406SOL    HW223118   0.284   2.862   3.594
 7407SOL     OW23119   1.000   6.805   5.399
 7407SOL    HW123120   0.933   6.828   5.329
 7407SOL    HW223121   1.091   6.799   5.357
 7408SOL     OW23122   3.435   4.066   6.921
 7408SOL    HW123123   3.503   4.070   6.848
 7408SOL    HW223124   3.480   4.078   7.009
 7409SOL     OW23125   5.083   3.046   0.282
 7409SOL    HW123126   5.098   3.066   0.186
 7409SOL    HW223127   4.985   3.031   0.298
 7410SOL     OW23128   0.180   0.371   0.366
 7410SOL    HW123129   0.218   0.428   0.293
 7410SOL    HW223130   0.241   0.293   0.382
 7411SOL     OW23131   1.966   0.682   6.738
 7411SOL    HW123132   1.913   0.729   6.809
 7411SOL    HW223133   2.063   0.702   6.750
 7412SOL     OW23134   4.925   0.450   1.997
 7412SOL    HW123135   4.918   0.433   2.095
 7412SOL    HW223136   5.007   0.504   1.978
 7413SOL     OW23137   4.736   5.289   3.920
 7413SOL    HW123138   4.783   5.228   3.983
 7413SOL    HW223139   4.640   5.299   3.948
 7414SOL     OW23140   0.882   1.315   3.551
 7414SOL    HW123141   0.800   1.370   3.565
 7414SOL    HW223142   0.856   1.228   3.507
 7415SOL     OW23143   1.769   4.853   4.273
 7415SOL    HW123144   1.810   4.888   4.188
 7415SOL    HW223145   1.804   4.762   4.291
 7416SOL     OW23146   1.896   1.392   2.646
 7416SOL    HW123147   1.897   1.487   2.677
 7416SOL    HW223148   1.937   1.333   2.716
 7417SOL     OW23149   2.067   1.910   1.230
 7417SOL    HW123150   2.119   1.948   1.154
 7417SOL    HW223151   1.995   1.974   1.257
 7418SOL     OW23152   2.277   5.849   0.382
 7418SOL    HW123153   2.192   5.896   0.359
 7418SOL    HW223154   2.269   5.810   0.474
 7419SOL     OW23155   6.938   3.251   4.214
 7419SOL    HW123156   6.987   3.330   4.251
 7419SOL    HW223157   7.003   3.177   4.197
 7420SOL     OW23158   0.718   6.353   1.537
 7420SOL    HW123159   0.652   6.428   1.528
 7420SOL    HW223160   0.692   6.295   1.615
 7421SOL     OW23161   4.126   3.898   1.418
 7421SOL    HW123162   4.100   3.933   1.328
 7421SOL    HW223163   4.175   3.812   1.408
 7422SOL     OW23164   0.072   4.081   2.112
 7422SOL    HW123165   0.102   4.175   2.096
 7422SOL    HW223166   7.025   4.059   2.048
 7423SOL     OW23167   6.385   2.868   5.645
 7423SOL    HW123168   6.435   2.954   5.657
 7423SOL    HW223169   6.437   2.806   5.588
 7424SOL     OW23170   6.963   0.407   5.591
 7424SOL    HW123171   0.031   0.376   5.590
 7424SOL    HW223172   6.951   0.475   5.664
 7425SOL     OW23173   4.231   6.537   0.225
 7425SOL    HW123174   4.290   6.601   0.274
 7425SOL    HW223175   4.199   6.580   0.140
 7426SOL     OW23176   3.541   1.971   5.449
 7426SOL    HW123177   3.478   1.974   5.371
 7426SOL    HW223178   3.570   2.064   5.471
 7427SOL     OW23179   5.055   0.749   3.254
 7427SOL    HW123180   5.106   0.823   3.210
 7427SOL    HW223181   4.961   0.780   3.271
 7428SOL     OW23182   5.010   1.844   5.116
 7428SOL    HW123183   4.953   1.810   5.041
 7428SOL    HW223184   4.971   1.929   5.151
 7429SOL     OW23185   0.192   6.367   4.110
 7429SOL    HW123186   0.147   6.405   4.029
 7429SOL    HW223187   0.164   6.271   4.121
 7430SOL     OW23188   1.340   3.544   0.674
 7430SOL    HW123189   1.394   3.518   0.593
 7430SOL    HW223190   1.243   3.538   0.652
 7431SOL     OW23191   1.372   2.567   2.618
 7431SOL    HW123192   1.312   2.500   2.662
 7431SOL    HW223193   1.362   2.655   2.664
 7432SOL     OW23194   0.949   0.741   2.930
 7432SOL    HW123195   1.049   0.745   2.937
 7432SOL    HW223196   0.911   0.832   2.946
 7433SOL     OW23197   4.303   5.587   5.980
 7433SOL    HW123198   4.383   5.533   5.953
 7433SOL    HW223199   4.220   5.537   5.956
 7434SOL     OW23200   4.934   5.123   5.206
 7434SOL    HW123201   4.926   5.029   5.171
 7434SOL    HW223202   4.959   5.184   5.131
 7435SOL     OW23203   4.259   5.761   1.369
 7435SOL    HW123204   4.189   5.727   1.433
 7435SOL    HW223205   4.245   5.859   1.354
 7436SOL     OW23206   4.218   4.170   6.361
 7436SOL    HW123207   4.286   4.097   6.358
 7436SOL    HW223208   4.148   4.148   6.430
 7437SOL     OW23209   2.221   5.701   0.061
 7437SOL    HW123210   2.184   5.647   7.013
 7437SOL    HW223211   2.146   5.738   0.115
 7438SOL     OW23212   1.060   5.976   0.648
 7438SOL    HW123213   1.067   6.074   0.632
 7438SOL    HW223214   1.056   5.927   0.561
 7439SOL     OW23215   1.591   6.769   5.941
 7439SOL    HW123216   1.574   6.809   6.032
 7439SOL    HW223217   1.661   6.822   5.894
 7440SOL     OW23218   0.309   3.234   3.960
 7440SOL    HW123219   0.393   3.277   3.992
 7440SOL    HW223220   0.276   3.170   4.030
 7441SOL     OW23221   5.164   7.011   4.285
 7441SOL    HW123222   5.256   7.019   4.248
 7441SOL    HW223223   5.103   6.973   4.215
 7442SOL     OW23224   6.154   1.612   6.174
 7442SOL    HW123225   6.168   1.679   6.101
 7442SOL    HW223226   6.124   1.659   6.257
 7443SOL     OW23227   6.262   6.467   1.656
 7443SOL    HW123228   6.172   6.439   1.691
 7443SOL    HW223229   6.321   6.492   1.733
 7444SOL     OW23230   5.534   2.342   6.707
 7444SOL    HW123231   5.495   2.281   6.776
 7444SOL    HW223232   5.514   2.306   6.616
 7445SOL     OW23233   3.839   0.381   1.513
 7445SOL    HW123234   3.830   0.469   1.468
 7445SOL    HW223235   3.906   0.325   1.463
 7446SOL     OW23236   5.537   3.014   0.495
 7446SOL    HW123237   5.534   2.914   0.491
 7446SOL    HW223238   5.632   3.045   0.496
 7447SOL     OW23239   6.655   3.747   0.072
 7447SOL    HW123240   6.573   3.736   0.016
 7447SOL    HW223241   6.634   3.801   0.153
 7448SOL     OW23242   6.700   6.938   5.018
 7448SOL    HW123243   6.704   6.897   5.109
 7448SOL    HW223244   6.789   6.979   4.996
 7449SOL     OW23245   0.493   4.036   1.973
 7449SOL    HW123246   0.560   4.011   1.904
 7449SOL    HW223247   0.540   4.061   2.058
 7450SOL     OW23248   5.602   2.736   5.201
 7450SOL    HW123249   5.524   2.673   5.203
 7450SOL    HW223250   5.676   2.697   5.146
 7451SOL     OW23251   6.475   5.689   2.612
 7451SOL    HW123252   6.574   5.700   2.618
 7451SOL    HW223253   6.449   5.660   2.520
 7452SOL     OW23254   6.204   5.966   4.024
 7452SOL    HW123255   6.157   6.020   3.954
 7452SOL    HW223256   6.153   5.882   4.040
 7453SOL     OW23257   5.593   5.373   4.865
 7453SOL    HW123258   5.566   5.300   4.928
 7453SOL    HW223259   5.605   5.458   4.916
 7454SOL     OW23260   1.363   1.958   1.075
 7454SOL    HW123261   1.414   1.943   1.159
 7454SOL    HW223262   1.319   2.048   1.079
 7455SOL     OW23263   6.749   2.544   1.386
 7455SOL    HW123264   6.686   2.616   1.357
 7455SOL    HW223265   6.799   2.509   1.306
 7456SOL     OW23266   1.311   1.017   4.836
 7456SOL    HW123267   1.220   1.051   4.813
 7456SOL    HW223268   1.372   1.029   4.757
 7457SOL     OW23269   3.185   1.038   5.057
 7457SOL    HW123270   3.109   0.973   5.065
 7457SOL    HW223271   3.270   0.993   5.083
 7458SOL     OW23272   1.995   6.618   6.349
 7458SOL    HW123273   2.076   6.656   6.394
 7458SOL    HW223274   1.913   6.661   6.385
 7459SOL     OW23275   5.473   0.149   2.080
 7459SOL    HW123276   5.429   0.190   2.160
 7459SOL    HW223277   5.429   0.061   2.060
 7460SOL     OW23278   0.704   5.108   0.528
 7460SOL    HW123279   0.613   5.133   0.562
 7460SOL    HW223280   0.753   5.058   0.599
 7461SOL     OW23281   5.862   6.884   6.708
 7461SOL    HW123282   5.884   6.795   6.669
 7461SOL    HW223283   5.943   6.922   6.753
 7462SOL     OW23284   1.434   4.235   2.098
 7462SOL    HW123285   1.511   4.185   2.058
 7462SOL    HW223286   1.449   4.334   2.087
 7463SOL     OW23287   2.701   4.735   0.851
 7463SOL    HW123288   2.754   4.726   0.935
 7463SOL    HW223289   2.679   4.831   0.835
 7464SOL     OW23290   5.416   6.993   6.399
 7464SOL    HW123291   5.421   6.982   6.498
 7464SOL    HW223292   5.351   6.927   6.361
 7465SOL     OW23293   2.706   5.479   6.468
 7465SOL    HW123294   2.713   5.520   6.559
 7465SOL    HW223295   2.795   5.483   6.423
 7466SOL     OW23296   0.246   0.171   4.881
 7466SOL    HW123297   0.285   0.246   4.829
 7466SOL    HW223298   0.164   0.137   4.835
 7467SOL     OW23299   0.367   1.248   7.023
 7467SOL    HW123300   0.327   1.306   6.952
 7467SOL    HW223301   0.441   1.298   0.040
 7468SOL     OW23302   5.933   2.690   3.782
 7468SOL    HW123303   5.861   2.675   3.715
 7468SOL    HW223304   5.897   2.744   3.858
 7469SOL     OW23305   6.626   0.637   0.084
 7469SOL    HW123306   6.689   0.591   0.021
 7469SOL    HW223307   6.626   0.736   0.066
 7470SOL     OW23308   6.079   3.675   3.264
 7470SOL    HW123309   6.052   3.653   3.170
 7470SOL    HW223310   6.001   3.664   3.325
 7471SOL     OW23311   5.182   6.763   5.580
 7471SOL    HW123312   5.277   6.742   5.603
 7471SOL    HW223313   5.162   6.729   5.488
 7472SOL     OW23314   6.194   0.980   6.243
 7472SOL    HW123315   6.136   0.985   6.324
 7472SOL    HW223316   6.245   0.894   6.245
 7473SOL     OW23317   5.492   5.368   4.098
 7473SOL    HW123318   5.418   5.336   4.157
 7473SOL    HW223319   5.551   5.431   4.150
 7474SOL     OW23320   0.075   1.949   5.741
 7474SOL    HW123321   0.023   1.932   5.658
 7474SOL    HW223322   0.079   1.866   5.796
 7475SOL     OW23323   5.129   2.458   2.409
 7475SOL    HW123324   5.222   2.485   2.386
 7475SOL    HW223325   5.086   2.414   2.330
 7476SOL     OW23326   3.487   1.093   3.551
 7476SOL    HW123327   3.492   1.133   3.460
 7476SOL    HW223328   3.458   1.162   3.617
 7477SOL     OW23329   0.104   2.191   5.381
 7477SOL    HW123330   0.117   2.093   5.361
 7477SOL    HW223331   0.010   2.208   5.409
 7478SOL     OW23332   6.274   4.074   5.576
 7478SOL    HW123333   6.194   4.017   5.596
 7478SOL    HW223334   6.262   4.164   5.618
 7479SOL     OW23335   4.373   1.980   2.494
 7479SOL    HW123336   4.288   1.960   2.447
 7479SOL    HW223337   4.450   1.956   2.436
 7480SOL     OW23338   1.442   4.715   2.429
 7480SOL    HW123339   1.408   4.626   2.396
 7480SOL    HW223340   1.439   4.781   2.354
 7481SOL     OW23341   5.455   5.716   0.902
 7481SOL    HW123342   5.408   5.804   0.902
 7481SOL    HW223343   5.552   5.731   0.881
 7482SOL     OW23344   4.312   2.354   2.864
 7482SOL    HW123345   4.314   2.360   2.764
 7482SOL    HW223346   4.218   2.342   2.895
 7483SOL     OW23347   5.009   3.486   4.285
 7483SOL    HW123348   5.055   3.414   4.337
 7483SOL    HW223349   4.964   3.447   4.205
 7484SOL     OW23350   1.394   6.303   3.995
 7484SOL    HW123351   1.367   6.317   4.090
 7484SOL    HW223352   1.359   6.378   3.939
 7485SOL     OW23353   3.364   0.351   4.700
 7485SOL    HW123354   3.384   0.256   4.724
 7485SOL    HW223355   3.265   0.363   4.692
 7486SOL     OW23356   1.274   5.787   0.708
 7486SOL    HW123357   1.180   5.818   0.692
 7486SOL    HW223358   1.276   5.724   0.786
 7487SOL     OW23359   2.503   0.556   2.810
 7487SOL    HW123360   2.491   0.610   2.893
 7487SOL    HW223361   2.475   0.462   2.826
 7488SOL     OW23362   2.471   5.587   4.727
 7488SOL    HW123363   2.477   5.623   4.820
 7488SOL    HW223364   2.547   5.623   4.673
 7489SOL     OW23365   6.087   2.555   6.079
 7489SOL    HW123366   6.000   2.561   6.128
 7489SOL    HW223367   6.114   2.647   6.049
 7490SOL     OW23368   1.228   0.415   3.032
 7490SOL    HW123369   1.140   0.433   2.987
 7490SOL    HW223370   1.216   0.425   3.131
 7491SOL     OW23371   4.310   3.103   6.435
 7491SOL    HW123372   4.231   3.119   6.376
 7491SOL    HW223373   4.279   3.071   6.524
 7492SOL     OW23374   1.750   0.578   3.559
 7492SOL    HW123375   1.670   0.635   3.542
 7492SOL    HW223376   1.749   0.548   3.655
 7493SOL     OW23377   0.587   3.125   6.356
 7493SOL    HW123378   0.558   3.041   6.402
 7493SOL    HW223379   0.588   3.110   6.257
 7494SOL     OW23380   5.756   1.814   2.987
 7494SOL    HW123381   5.807   1.819   2.901
 7494SOL    HW223382   5.811   1.769   3.057
 7495SOL     OW23383   1.834   2.356   6.897
 7495SOL    HW123384   1.889   2.276   6.923
 7495SOL    HW223385   1.854   2.380   6.802
 7496SOL     OW23386   6.756   3.196   3.575
 7496SOL    HW123387   6.715   3.121   3.628
 7496SOL    HW223388   6.846   3.169   3.544
 7497SOL     OW23389   2.050   4.458   1.334
 7497SOL    HW123390   2.016   4.365   1.341
 7497SOL    HW223391   2.055   4.486   1.238
 7498SOL     OW23392   2.960   0.883   5.212
 7498SOL    HW123393   2.975   0.817   5.138
 7498SOL    HW223394   2.866   0.875   5.245
 7499SOL     OW23395   4.331   1.994   3.295
 7499SOL    HW123396   4.329   1.927   3.369
 7499SOL    HW223397   4.425   2.025   3.282
 7500SOL     OW23398   3.235   5.717   3.575
 7500SOL    HW123399   3.334   5.727   3.568
 7500SOL    HW223400   3.207   5.729   3.670
 7501SOL     OW23401   5.080   4.267   4.984
 7501SOL    HW123402   5.017   4.214   5.041
 7501SOL    HW223403   5.060   4.250   4.888
 7502SOL     OW23404   2.919   1.135   4.257
 7502SOL    HW123405   2.938   1.038   4.272
 7502SOL    HW223406   3.005   1.186   4.256
 7503SOL     OW23407   2.114   6.746   1.447
 7503SOL    HW123408   2.041   6.721   1.384
 7503SOL    HW223409   2.203   6.725   1.406
 7504SOL     OW23410   0.783   6.261   3.813
 7504SOL    HW123411   0.752   6.195   3.881
 7504SOL    HW223412   0.880   6.280   3.826
 7505SOL     OW23413   1.698   2.965   5.765
 7505SOL    HW123414   1.708   2.957   5.666
 7505SOL    HW223415   1.669   3.059   5.787
 7506SOL     OW23416   5.509   1.964   3.514
 7506SOL    HW123417   5.467   2.035   3.457
 7506SOL    HW223418   5.588   1.925   3.466
 7507SOL     OW23419   6.718   1.757   2.195
 7507SOL    HW123420   6.762   1.668   2.200
 7507SOL    HW223421   6.653   1.758   2.120
 7508SOL     OW23422   1.550   6.115   1.294
 7508SOL    HW123423   1.572   6.200   1.342
 7508SOL    HW223424   1.594   6.039   1.341
 7509SOL     OW23425   6.234   3.865   0.519
 7509SOL    HW123426   6.218   3.781   0.467
 7509SOL    HW223427   6.245   3.942   0.456
 7510SOL     OW23428   2.898   3.624   5.163
 7510SOL    HW123429   2.902   3.527   5.140
 7510SOL    HW223430   2.871   3.635   5.258
 7511SOL     OW23431   2.576   5.884   3.406
 7511SOL    HW123432   2.662   5.912   3.364
 7511SOL    HW223433   2.594   5.811   3.472
 7512SOL     OW23434   2.862   0.510   6.513
 7512SOL    HW123435   2.957   0.543   6.517
 7512SOL    HW223436   2.859   0.415   6.542
 7513SOL     OW23437   1.240   1.149   1.645
 7513SOL    HW123438   1.295   1.230   1.666
 7513SOL    HW223439   1.294   1.084   1.591
 7514SOL     OW23440   2.116   4.904   2.689
 7514SOL    HW123441   2.178   4.980   2.708
 7514SOL    HW223442   2.118   4.882   2.592
 7515SOL     OW23443   6.911   5.125   4.760
 7515SOL    HW123444   6.871   5.211   4.730
 7515SOL    HW223445   6.849   5.080   4.825
 7516SOL     OW23446   6.607   5.519   6.148
 7516SOL    HW123447   6.577   5.560   6.234
 7516SOL    HW223448   6.627   5.422   6.162
 7517SOL     OW23449   6.858   1.765   0.487
 7517SOL    HW123450   6.867   1.754   0.586
 7517SOL    HW223451   6.776   1.716   0.456
 7518SOL     OW23452   4.863   3.937   4.178
 7518SOL    HW123453   4.898   3.914   4.087
 7518SOL    HW223454   4.879   3.860   4.240
 7519SOL     OW23455   0.048   6.373   4.557
 7519SOL    HW123456   0.128   6.380   4.498
 7519SOL    HW223457   6.993   6.375   4.501
 7520SOL     OW23458   2.204   0.556   2.685
 7520SOL    HW123459   2.201   0.457   2.696
 7520SOL    HW223460   2.275   0.580   2.619
 7521SOL     OW23461   4.816   2.625   5.439
 7521SOL    HW123462   4.803   2.558   5.366
 7521SOL    HW223463   4.811   2.578   5.528
 7522SOL     OW23464   1.643   1.198   6.147
 7522SOL    HW123465   1.605   1.250   6.070
 7522SOL    HW223466   1.593   1.223   6.231
 7523SOL     OW23467   4.633   0.298   6.347
 7523SOL    HW123468   4.570   0.265   6.277
 7523SOL    HW223469   4.581   0.346   6.418
 7524SOL     OW23470   1.236   2.737   4.877
 7524SOL    HW123471   1.225   2.711   4.781
 7524SOL    HW223472   1.325   2.781   4.889
 7525SOL     OW23473   3.426   0.827   6.944
 7525SOL    HW123474   3.353   0.832   6.877
 7525SOL    HW223475   3.486   0.906   6.935
 7526SOL     OW23476   2.762   3.006   1.305
 7526SOL    HW123477   2.704   2.958   1.371
 7526SOL    HW223478   2.790   2.943   1.233
 7527SOL     OW23479   3.059   6.349   3.890
 7527SOL    HW123480   3.157   6.338   3.903
 7527SOL    HW223481   3.025   6.419   3.953
 7528SOL     OW23482   6.376   2.206   6.817
 7528SOL    HW123483   6.452   2.215   6.881
 7528SOL    HW223484   6.303   2.268   6.842
 7529SOL     OW23485   6.030   1.580   4.516
 7529SOL    HW123486   6.059   1.534   4.432
 7529SOL    HW223487   5.967   1.521   4.566
 7530SOL     OW23488   0.011   2.592   2.403
 7530SOL    HW123489   0.109   2.578   2.386
 7530SOL    HW223490   6.996   2.504   2.424
 7531SOL     OW23491   5.706   3.123   4.524
 7531SOL    HW123492   5.623   3.149   4.573
 7531SOL    HW223493   5.714   3.024   4.521
 7532SOL     OW23494   4.166   6.176   0.479
 7532SOL    HW123495   4.181   6.148   0.574
 7532SOL    HW223496   4.068   6.185   0.462
 7533SOL     OW23497   3.458   1.851   1.629
 7533SOL    HW123498   3.474   1.760   1.666
 7533SOL    HW223499   3.430   1.912   1.703
 7534SOL     OW23500   4.843   5.967   5.096
 7534SOL    HW123501   4.822   6.016   5.011
 7534SOL    HW223502   4.900   5.887   5.075
 7535SOL     OW23503   1.880   0.084   4.553
 7535SOL    HW123504   1.893   0.057   4.649
 7535SOL    HW223505   1.964   0.127   4.519
 7536SOL     OW23506   5.510   4.301   4.142
 7536SOL    HW123507   5.541   4.211   4.110
 7536SOL    HW223508   5.477   4.293   4.236
 7537SOL     OW23509   1.959   5.040   2.368
 7537SOL    HW123510   1.922   5.108   2.432
 7537SOL    HW223511   1.983   5.086   2.282
 7538SOL     OW23512   2.180   2.281   1.556
 7538SOL    HW123513   2.177   2.192   1.601
 7538SOL    HW223514   2.208   2.350   1.622
 7539SOL     OW23515   1.545   3.561   4.381
 7539SOL    HW123516   1.450   3.563   4.411
 7539SOL    HW223517   1.549   3.551   4.282
 7540SOL     OW23518   4.238   0.911   4.760
 7540SOL    HW123519   4.289   0.866   4.687
 7540SOL    HW223520   4.245   1.010   4.749
 7541SOL     OW23521   0.654   3.987   5.057
 7541SOL    HW123522   0.658   3.887   5.050
 7541SOL    HW223523   0.582   4.022   4.996
 7542SOL     OW23524   0.713   5.634   6.817
 7542SOL    HW123525   0.812   5.634   6.826
 7542SOL    HW223526   0.676   5.547   6.850
 7543SOL     OW23527   3.671   1.148   5.359
 7543SOL    HW123528   3.657   1.241   5.325
 7543SOL    HW223529   3.689   1.087   5.281
 7544SOL     OW23530   6.159   2.313   4.154
 7544SOL    HW123531   6.113   2.391   4.111
 7544SOL    HW223532   6.116   2.228   4.123
 7545SOL     OW23533   0.826   6.063   6.944
 7545SOL    HW123534   0.805   6.071   6.846
 7545SOL    HW223535   0.924   6.080   6.958
 7546SOL     OW23536   4.253   1.863   1.465
 7546SOL    HW123537   4.236   1.956   1.497
 7546SOL    HW223538   4.274   1.804   1.543
 7547SOL     OW23539   5.529   1.410   0.439
 7547SOL    HW123540   5.534   1.489   0.378
 7547SOL    HW223541   5.533   1.442   0.534
 7548SOL     OW23542   4.212   2.418   6.804
 7548SOL    HW123543   4.292   2.475   6.784
 7548SOL    HW223544   4.137   2.445   6.745
 7549SOL     OW23545   3.545   3.578   6.794
 7549SOL    HW123546   3.542   3.512   6.718
 7549SOL    HW223547   3.465   3.637   6.790
 7550SOL     OW23548   2.024   4.686   4.298
 7550SOL    HW123549   2.084   4.730   4.364
 7550SOL    HW223550   2.056   4.706   4.205
 7551SOL     OW23551   6.097   3.068   5.543
 7551SOL    HW123552   6.041   3.040   5.622
 7551SOL    HW223553   6.175   3.122   5.575
 7552SOL     OW23554   1.738   6.257   3.709
 7552SOL    HW123555   1.800   6.237   3.785
 7552SOL    HW223556   1.686   6.175   3.685
 7553SOL     OW23557   3.927   6.921   5.753
 7553SOL    HW123558   3.920   7.021   5.757
 7553SOL    HW223559   3.947   6.885   5.845
 7554SOL     OW23560   5.162   0.852   6.652
 7554SOL    HW123561   5.133   0.756   6.656
 7554SOL    HW223562   5.222   0.873   6.729
 7555SOL     OW23563   3.375   5.396   6.549
 7555SOL    HW123564   3.427   5.415   6.632
 7555SOL    HW223565   3.387   5.300   6.523
 7556SOL     OW23566   2.491   2.755   0.058
 7556SOL    HW123567   2.401   2.715   0.037
 7556SOL    HW223568   2.509   2.746   0.156
 7557SOL     OW23569   5.294   0.766   6.409
 7557SOL    HW123570   5.271   0.804   6.499
 7557SOL    HW223571   5.224   0.793   6.343
 7558SOL     OW23572   1.908   2.641   4.382
 7558SOL    HW123573   1.879   2.732   4.412
 7558SOL    HW223574   1.878   2.573   4.449
 7559SOL     OW23575   4.254   2.706   6.405
 7559SOL    HW123576   4.278   2.789   6.454
 7559SOL    HW223577   4.177   2.724   6.344
 7560SOL     OW23578   4.606   6.796   0.393
 7560SOL    HW123579   4.558   6.872   0.349
 7560SOL    HW223580   4.543   6.720   0.408
 7561SOL     OW23581   0.073   3.293   6.139
 7561SOL    HW123582   0.020   3.270   6.221
 7561SOL    HW223583   0.036   3.244   6.060
 7562SOL     OW23584   0.310   5.506   5.380
 7562SOL    HW123585   0.362   5.591   5.392
 7562SOL    HW223586   0.373   5.428   5.382
 7563SOL     OW23587   2.973   0.101   1.749
 7563SOL    HW123588   3.051   0.039   1.738
 7563SOL    HW223589   2.889   0.047   1.750
 7564SOL     OW23590   4.099   0.784   3.960
 7564SOL    HW123591   4.050   0.853   3.907
 7564SOL    HW223592   4.190   0.818   3.984
 7565SOL     OW23593   6.099   3.667   6.694
 7565SOL    HW123594   6.165   3.729   6.650
 7565SOL    HW223595   6.099   3.579   6.646
 7566SOL     OW23596   5.599   5.494   2.626
 7566SOL    HW123597   5.663   5.521   2.698
 7566SOL    HW223598   5.523   5.444   2.666
 7567SOL     OW23599   1.956   1.401   5.643
 7567SOL    HW123600   1.920   1.486   5.604
 7567SOL    HW223601   1.884   1.355   5.694
 7568SOL     OW23602   5.704   4.558   2.859
 7568SOL    HW123603   5.733   4.625   2.928
 7568SOL    HW223604   5.605   4.563   2.847
 7569SOL     OW23605   3.428   4.383   6.230
 7569SOL    HW123606   3.350   4.429   6.273
 7569SOL    HW223607   3.450   4.299   6.280
 7570SOL     OW23608   5.561   3.965   4.524
 7570SOL    HW123609   5.469   3.951   4.561
 7570SOL    HW223610   5.608   4.035   4.577
 7571SOL     OW23611   4.500   4.482   3.418
 7571SOL    HW123612   4.507   4.449   3.512
 7571SOL    HW223613   4.490   4.404   3.356
 7572SOL     OW23614   4.983   0.661   2.291
 7572SOL    HW123615   4.908   0.628   2.349
 7572SOL    HW223616   4.945   0.707   2.211
 7573SOL     OW23617   0.459   6.965   5.196
 7573SOL    HW123618   0.432   0.032   5.177
 7573SOL    HW223619   0.515   6.962   5.278
 7574SOL     OW23620   5.226   0.865   5.712
 7574SOL    HW123621   5.254   0.844   5.805
 7574SOL    HW223622   5.128   0.884   5.710
 7575SOL     OW23623   5.463   0.400   6.728
 7575SOL    HW123624   5.540   0.347   6.763
 7575SOL    HW223625   5.381   0.343   6.729
 7576SOL     OW23626   5.118   3.091   0.583
 7576SOL    HW123627   5.134   3.073   0.486
 7576SOL    HW223628   5.069   3.014   0.624
 7577SOL     OW23629   0.615   6.727   0.096
 7577SOL    HW123630   0.632   6.822   0.124
 7577SOL    HW223631   0.697   6.672   0.116
 7578SOL     OW23632   3.166   5.203   2.632
 7578SOL    HW123633   3.209   5.117   2.603
 7578SOL    HW223634   3.236   5.273   2.645
 7579SOL     OW23635   0.025   1.230   1.768
 7579SOL    HW123636   0.071   1.284   1.838
 7579SOL    HW223637   6.977   1.283   1.728
 7580SOL     OW23638   0.533   4.171   3.993
 7580SOL    HW123639   0.597   4.237   4.032
 7580SOL    HW223640   0.561   4.148   3.900
 7581SOL     OW23641   0.729   2.027   1.391
 7581SOL    HW123642   0.692   1.935   1.381
 7581SOL    HW223643   0.681   2.089   1.328
 7582SOL     OW23644   3.939   1.759   3.416
 7582SOL    HW123645   4.025   1.768   3.365
 7582SOL    HW223646   3.913   1.662   3.420
 7583SOL     OW23647   5.267   2.796   2.208
 7583SOL    HW123648   5.327   2.775   2.284
 7583SOL    HW223649   5.297   2.747   2.126
 7584SOL     OW23650   2.375   0.891   3.037
 7584SOL    HW123651   2.425   0.956   3.095
 7584SOL    HW223652   2.324   0.828   3.095
 7585SOL     OW23653   2.017   2.583   6.164
 7585SOL    HW123654   2.014   2.646   6.086
 7585SOL    HW223655   1.998   2.490   6.133
 7586SOL     OW23656   2.439   6.588   3.669
 7586SOL    HW123657   2.432   6.613   3.572
 7586SOL    HW223658   2.392   6.658   3.724
 7587SOL     OW23659   1.985   1.192   6.486
 7587SOL    HW123660   1.982   1.254   6.407
 7587SOL    HW223661   2.079   1.180   6.515
 7588SOL     OW23662   2.147   2.472   3.611
 7588SOL    HW123663   2.076   2.403   3.603
 7588SOL    HW223664   2.217   2.457   3.541
 7589SOL     OW23665   0.304   0.531   2.610
 7589SOL    HW123666   0.373   0.530   2.538
 7589SOL    HW223667   0.298   0.441   2.652
 7590SOL     OW23668   4.413   1.770   6.644
 7590SOL    HW123669   4.313   1.777   6.634
 7590SOL    HW223670   4.447   1.853   6.687
 7591SOL     OW23671   5.339   4.579   0.542
 7591SOL    HW123672   5.293   4.513   0.602
 7591SOL    HW223673   5.433   4.550   0.527
 7592SOL     OW23674   6.408   5.861   4.853
 7592SOL    HW123675   6.387   5.843   4.757
 7592SOL    HW223676   6.408   5.960   4.869
 7593SOL     OW23677   6.465   3.499   6.799
 7593SOL    HW123678   6.449   3.400   6.800
 7593SOL    HW223679   6.415   3.542   6.874
 7594SOL     OW23680   1.380   4.583   2.130
 7594SOL    HW123681   1.401   4.678   2.107
 7594SOL    HW223682   1.281   4.567   2.119
 7595SOL     OW23683   5.824   3.329   6.146
 7595SOL    HW123684   5.887   3.306   6.220
 7595SOL    HW223685   5.770   3.249   6.121
 7596SOL     OW23686   3.554   6.455   4.296
 7596SOL    HW123687   3.633   6.509   4.268
 7596SOL    HW223688   3.485   6.516   4.337
 7597SOL     OW23689   1.827   6.513   3.148
 7597SOL    HW123690   1.872   6.432   3.110
 7597SOL    HW223691   1.839   6.590   3.085
 7598SOL     OW23692   0.164   0.807   3.262
 7598SOL    HW123693   0.193   0.756   3.181
 7598SOL    HW223694   0.230   0.793   3.336
 7599SOL     OW23695   5.728   2.271   2.122
 7599SOL    HW123696   5.797   2.310   2.061
 7599SOL    HW223697   5.735   2.314   2.212
 7600SOL     OW23698   0.758   1.627   3.807
 7600SOL    HW123699   0.757   1.727   3.812
 7600SOL    HW223700   0.839   1.597   3.757
 7601SOL     OW23701   2.791   4.768   2.411
 7601SOL    HW123702   2.857   4.701   2.446
 7601SOL    HW223703   2.781   4.842   2.477
 7602SOL     OW23704   1.599   3.622   0.195
 7602SOL    HW123705   1.505   3.624   0.228
 7602SOL    HW223706   1.636   3.530   0.205
 7603SOL     OW23707   2.069   6.095   6.464
 7603SOL    HW123708   2.066   5.995   6.469
 7603SOL    HW223709   1.977   6.132   6.478
 7604SOL     OW23710   1.121   3.303   4.322
 7604SOL    HW123711   1.049   3.297   4.391
 7604SOL    HW223712   1.166   3.392   4.328
 7605SOL     OW23713   1.094   0.279   0.700
 7605SOL    HW123714   1.185   0.296   0.663
 7605SOL    HW223715   1.098   0.202   0.764
 7606SOL     OW23716   5.874   2.784   4.276
 7606SOL    HW123717   5.778   2.756   4.280
 7606SOL    HW223718   5.904   2.812   4.368
 7607SOL     OW23719   3.673   4.809   0.651
 7607SOL    HW123720   3.667   4.784   0.747
 7607SOL    HW223721   3.751   4.762   0.609
 7608SOL     OW23722   4.308   3.531   0.950
 7608SOL    HW123723   4.286   3.444   0.994
 7608SOL    HW223724   4.364   3.514   0.868
 7609SOL     OW23725   1.584   3.068   4.009
 7609SOL    HW123726   1.613   2.974   3.991
 7609SOL    HW223727   1.606   3.092   4.104
 7610SOL     OW23728   4.239   4.807   6.145
 7610SOL    HW123729   4.309   4.736   6.132
 7610SOL    HW223730   4.148   4.767   6.134
 7611SOL     OW23731   5.295   4.182   1.437
 7611SOL    HW123732   5.274   4.260   1.378
 7611SOL    HW223733   5.323   4.105   1.380
 7612SOL     OW23734   4.870   3.088   2.527
 7612SOL    HW123735   4.877   3.088   2.428
 7612SOL    HW223736   4.961   3.083   2.567
 7613SOL     OW23737   0.690   1.643   0.579
 7613SOL    HW123738   0.632   1.597   0.647
 7613SOL    HW223739   0.653   1.628   0.487
 7614SOL     OW23740   5.425   2.968   1.055
 7614SOL    HW123741   5.427   2.872   1.027
 7614SOL    HW223742   5.507   2.989   1.108
 7615SOL     OW23743   4.000   4.769   6.721
 7615SOL    HW123744   4.046   4.683   6.700
 7615SOL    HW223745   4.064   4.845   6.709
 7616SOL     OW23746   6.787   6.058   4.787
 7616SOL    HW123747   6.729   5.994   4.838
 7616SOL    HW223748   6.806   6.138   4.845
 7617SOL     OW23749   3.339   6.301   3.883
 7617SOL    HW123750   3.338   6.333   3.789
 7617SOL    HW223751   3.434   6.292   3.914
 7618SOL     OW23752   0.299   2.713   6.318
 7618SOL    HW123753   0.329   2.771   6.242
 7618SOL    HW223754   0.378   2.667   6.358
 7619SOL     OW23755   6.817   2.833   4.700
 7619SOL    HW123756   6.730   2.879   4.716
 7619SOL    HW223757   6.844   2.784   4.783
 7620SOL     OW23758   4.015   5.916   1.592
 7620SOL    HW123759   4.075   5.975   1.646
 7620SOL    HW223760   4.052   5.823   1.591
 7621SOL     OW23761   6.513   1.073   0.805
 7621SOL    HW123762   6.427   1.023   0.818
 7621SOL    HW223763   6.570   1.063   0.887
 7622SOL     OW23764   4.318   4.433   5.922
 7622SOL    HW123765   4.251   4.478   5.863
 7622SOL    HW223766   4.274   4.402   6.005
 7623SOL     OW23767   4.644   4.340   6.651
 7623SOL    HW123768   4.687   4.283   6.582
 7623SOL    HW223769   4.632   4.288   6.735
 7624SOL     OW23770   6.535   3.893   4.656
 7624SOL    HW123771   6.610   3.960   4.655
 7624SOL    HW223772   6.573   3.801   4.664
 7625SOL     OW23773   5.267   1.356   0.349
 7625SOL    HW123774   5.361   1.374   0.379
 7625SOL    HW223775   5.218   1.306   0.421
 7626SOL     OW23776   6.341   0.644   5.560
 7626SOL    HW123777   6.308   0.726   5.606
 7626SOL    HW223778   6.275   0.570   5.573
 7627SOL     OW23779   3.616   2.741   0.794
 7627SOL    HW123780   3.645   2.830   0.828
 7627SOL    HW223781   3.666   2.669   0.844
 7628SOL     OW23782   3.432   2.861   2.156
 7628SOL    HW123783   3.437   2.890   2.060
 7628SOL    HW223784   3.522   2.831   2.187
 7629SOL     OW23785   0.210   4.568   3.441
 7629SOL    HW123786   0.250   4.477   3.447
 7629SOL    HW223787   0.119   4.562   3.400
 7630SOL     OW23788   0.650   0.966   0.377
 7630SOL    HW123789   0.566   0.979   0.429
 7630SOL    HW223790   0.691   1.055   0.357
 7631SOL     OW23791   1.379   2.277   5.750
 7631SOL    HW123792   1.329   2.216   5.689
 7631SOL    HW223793   1.384   2.236   5.841
 7632SOL     OW23794   5.178   4.436   0.700
 7632SOL    HW123795   5.192   4.438   0.799
 7632SOL    HW223796   5.139   4.348   0.673
 7633SOL     OW23797   5.336   0.666   2.039
 7633SOL    HW123798   5.237   0.682   2.045
 7633SOL    HW223799   5.385   0.739   2.087
 7634SOL     OW23800   2.406   1.010   1.915
 7634SOL    HW123801   2.497   1.025   1.875
 7634SOL    HW223802   2.375   0.917   1.893
 7635SOL     OW23803   3.406   4.955   5.273
 7635SOL    HW123804   3.351   5.002   5.342
 7635SOL    HW223805   3.478   4.902   5.318
 7636SOL     OW23806   1.161   3.621   4.260
 7636SOL    HW123807   1.101   3.581   4.191
 7636SOL    HW223808   1.156   3.721   4.255
 7637SOL     OW23809   2.717   6.158   2.710
 7637SOL    HW123810   2.620   6.163   2.686
 7637SOL    HW223811   2.729   6.188   2.805
 7638SOL     OW23812   1.929   5.382   2.188
 7638SOL    HW123813   2.010   5.322   2.191
 7638SOL    HW223814   1.933   5.446   2.264
 7639SOL     OW23815   0.324   1.331   0.907
 7639SOL    HW123816   0.392   1.304   0.839
 7639SOL    HW223817   0.235   1.341   0.863
 7640SOL     OW23818   2.722   1.841   5.846
 7640SOL    HW123819   2.812   1.798   5.845
 7640SOL    HW223820   2.722   1.917   5.911
 7641SOL     OW23821   1.011   3.369   2.692
 7641SOL    HW123822   1.052   3.278   2.683
 7641SOL    HW223823   0.963   3.392   2.607
 7642SOL     OW23824   3.918   1.799   2.494
 7642SOL    HW123825   3.869   1.712   2.499
 7642SOL    HW223826   3.887   1.860   2.567
 7643SOL     OW23827   5.327   2.226   2.955
 7643SOL    HW123828   5.427   2.219   2.959
 7643SOL    HW223829   5.290   2.216   3.047
 7644SOL     OW23830   4.821   2.807   2.203
 7644SOL    HW123831   4.775   2.882   2.156
 7644SOL    HW223832   4.886   2.844   2.270
 7645SOL     OW23833   4.944   4.038   5.376
 7645SOL    HW123834   4.922   3.941   5.368
 7645SOL    HW223835   4.949   4.063   5.472
 7646SOL     OW23836   0.854   3.244   4.282
 7646SOL    HW123837   0.945   3.268   4.248
 7646SOL    HW223838   0.814   3.174   4.222
 7647SOL     OW23839   6.941   2.679   3.887
 7647SOL    HW123840   6.855   2.637   3.915
 7647SOL    HW223841   7.006   2.608   3.861
 7648SOL     OW23842   2.453   1.803   2.350
 7648SOL    HW123843   2.505   1.721   2.376
 7648SOL    HW223844   2.414   1.790   2.259
 7649SOL     OW23845   1.485   0.396   3.632
 7649SOL    HW123846   1.450   0.370   3.722
 7649SOL    HW223847   1.453   0.488   3.609
 7650SOL     OW23848   5.487   0.761   0.752
 7650SOL    HW123849   5.467   0.760   0.654
 7650SOL    HW223850   5.408   0.729   0.803
 7651SOL     OW23851   2.108   0.216   4.436
 7651SOL    HW123852   2.155   0.264   4.362
 7651SOL    HW223853   2.175   0.168   4.492
 7652SOL     OW23854   5.480   2.024   4.572
 7652SOL    HW123855   5.515   1.930   4.569
 7652SOL    HW223856   5.544   2.085   4.526
 7653SOL     OW23857   0.852   1.500   0.080
 7653SOL    HW123858   0.895   1.449   0.156
 7653SOL    HW223859   0.826   1.591   0.112
 7654SOL     OW23860   4.938   3.333   4.069
 7654SOL    HW123861   4.917   3.370   3.979
 7654SOL    HW223862   4.890   3.246   4.082
 7655SOL     OW23863   4.289   6.394   3.968
 7655SOL    HW123864   4.193   6.418   3.958
 7655SOL    HW223865   4.323   6.355   3.882
 7656SOL     OW23866   4.151   3.935   6.866
 7656SOL    HW123867   4.110   3.899   6.950
 7656SOL    HW223868   4.159   3.862   6.798
 7657SOL     OW23869   1.734   2.235   2.972
 7657SOL    HW123870   1.684   2.301   2.917
 7657SOL    HW223871   1.678   2.154   2.987
 7658SOL     OW23872   2.714   0.336   0.654
 7658SOL    HW123873   2.727   0.428   0.615
 7658SOL    HW223874   2.695   0.272   0.580
 7659SOL     OW23875   5.214   4.750   6.929
 7659SOL    HW123876   5.268   4.666   6.928
 7659SOL    HW223877   5.272   4.827   6.904
 7660SOL     OW23878   6.768   6.099   4.072
 7660SOL    HW123879   6.803   6.030   4.008
 7660SOL    HW223880   6.771   6.189   4.029
 7661SOL     OW23881   5.677   2.377   5.403
 7661SOL    HW123882   5.616   2.407   5.330
 7661SOL    HW223883   5.623   2.360   5.486
 7662SOL     OW23884   0.973   2.472   4.316
 7662SOL    HW123885   0.883   2.512   4.297
 7662SOL    HW223886   1.040   2.508   4.252
 7663SOL     OW23887   5.742   4.661   6.551
 7663SOL    HW123888   5.732   4.609   6.636
 7663SOL    HW223889   5.666   4.726   6.543
 7664SOL     OW23890   4.270   1.167   2.297
 7664SOL    HW123891   4.322   1.143   2.215
 7664SOL    HW223892   4.271   1.091   2.361
 7665SOL     OW23893   6.170   0.960   5.071
 7665SOL    HW123894   6.258   0.932   5.034
 7665SOL    HW223895   6.181   1.046   5.122
 7666SOL     OW23896   0.505   4.342   2.960
 7666SOL    HW123897   0.435   4.358   3.029
 7666SOL    HW223898   0.489   4.401   2.881
 7667SOL     OW23899   4.198   0.339   2.476
 7667SOL    HW123900   4.132   0.383   2.415
 7667SOL    HW223901   4.155   0.321   2.564
 7668SOL     OW23902   2.633   5.002   0.883
 7668SOL    HW123903   2.644   5.101   0.869
 7668SOL    HW223904   2.641   4.981   0.981
 7669SOL     OW23905   4.976   1.407   5.393
 7669SOL    HW123906   5.025   1.329   5.432
 7669SOL    HW223907   4.879   1.386   5.386
 7670SOL     OW23908   0.896   5.166   0.931
 7670SOL    HW123909   0.861   5.231   0.864
 7670SOL    HW223910   0.828   5.095   0.949
 7671SOL     OW23911   3.670   0.875   2.436
 7671SOL    HW123912   3.709   0.966   2.422
 7671SOL    HW223913   3.606   0.854   2.362
 7672SOL     OW23914   0.469   5.720   2.851
 7672SOL    HW123915   0.503   5.805   2.890
 7672SOL    HW223916   0.546   5.663   2.821
 7673SOL     OW23917   1.951   5.544   1.993
 7673SOL    HW123918   1.894   5.506   1.920
 7673SOL    HW223919   1.956   5.479   2.069
 7674SOL     OW23920   4.891   0.948   3.901
 7674SOL    HW123921   4.947   0.891   3.841
 7674SOL    HW223922   4.942   0.969   3.984
 7675SOL     OW23923   5.933   6.270   3.136
 7675SOL    HW123924   5.890   6.225   3.058
 7675SOL    HW223925   5.872   6.342   3.171
 7676SOL     OW23926   3.012   2.341   6.803
 7676SOL    HW123927   2.971   2.409   6.742
 7676SOL    HW223928   3.104   2.318   6.771
 7677SOL     OW23929   0.252   3.895   1.844
 7677SOL    HW123930   0.222   3.824   1.908
 7677SOL    HW223931   0.348   3.915   1.859
 7678SOL     OW23932   2.478   2.674   5.058
 7678SOL    HW123933   2.473   2.774   5.058
 7678SOL    HW223934   2.390   2.636   5.031
 7679SOL     OW23935   2.567   6.287   5.514
 7679SOL    HW123936   2.536   6.209   5.568
 7679SOL    HW223937   2.564   6.263   5.416
 7680SOL     OW23938   1.621   0.481   0.882
 7680SOL    HW123939   1.583   0.570   0.858
 7680SOL    HW223940   1.719   0.490   0.898
 7681SOL     OW23941   2.670   0.966   1.458
 7681SOL    HW123942   2.692   1.061   1.482
 7681SOL    HW223943   2.751   0.922   1.419
 7682SOL     OW23944   4.118   6.910   2.184
 7682SOL    HW123945   4.037   6.923   2.126
 7682SOL    HW223946   4.139   6.994   2.232
 7683SOL     OW23947   0.090   1.671   5.090
 7683SOL    HW123948   0.002   1.638   5.124
 7683SOL    HW223949   0.080   1.765   5.057
 7684SOL     OW23950   4.321   1.314   0.975
 7684SOL    HW123951   4.369   1.399   0.950
 7684SOL    HW223952   4.386   1.249   1.014
 7685SOL     OW23953   2.478   1.463   5.434
 7685SOL    HW123954   2.386   1.499   5.448
 7685SOL    HW223955   2.527   1.462   5.521
 7686SOL     OW23956   6.640   6.751   3.449
 7686SOL    HW123957   6.709   6.722   3.383
 7686SOL    HW223958   6.654   6.703   3.535
 7687SOL     OW23959   6.006   5.544   4.694
 7687SOL    HW123960   6.079   5.517   4.755
 7687SOL    HW223961   5.929   5.480   4.703
 7688SOL     OW23962   0.262   5.834   5.576
 7688SOL    HW123963   0.325   5.796   5.508
 7688SOL    HW223964   0.169   5.802   5.557
 7689SOL     OW23965   5.456   6.269   2.824
 7689SOL    HW123966   5.397   6.195   2.856
 7689SOL    HW223967   5.510   6.304   2.901
 7690SOL     OW23968   5.473   5.346   0.425
 7690SOL    HW123969   5.401   5.326   0.492
 7690SOL    HW223970   5.471   5.277   0.353
 7691SOL     OW23971   5.507   4.113   2.766
 7691SOL    HW123972   5.499   4.022   2.806
 7691SOL    HW223973   5.528   4.179   2.839
 7692SOL     OW23974   0.646   6.247   1.807
 7692SOL    HW123975   0.674   6.333   1.850
 7692SOL    HW223976   0.558   6.218   1.843
 7693SOL     OW23977   3.068   0.628   1.632
 7693SOL    HW123978   3.032   0.595   1.720
 7693SOL    HW223979   3.125   0.557   1.591
 7694SOL     OW23980   5.571   3.305   3.400
 7694SOL    HW123981   5.502   3.355   3.452
 7694SOL    HW223982   5.658   3.354   3.405
 7695SOL     OW23983   5.093   0.621   1.451
 7695SOL    HW123984   5.178   0.595   1.498
 7695SOL    HW223985   5.113   0.690   1.382
 7696SOL     OW23986   6.710   1.664   6.129
 7696SOL    HW123987   6.617   1.640   6.101
 7696SOL    HW223988   6.749   1.589   6.183
 7697SOL     OW23989   2.503   0.299   3.477
 7697SOL    HW123990   2.568   0.306   3.552
 7697SOL    HW223991   2.537   0.351   3.399
 7698SOL     OW23992   5.685   1.199   4.042
 7698SOL    HW123993   5.720   1.124   4.099
 7698SOL    HW223994   5.630   1.260   4.099
 7699SOL     OW23995   2.626   5.565   6.196
 7699SOL    HW123996   2.631   5.531   6.290
 7699SOL    HW223997   2.537   5.540   6.157
 7700SOL     OW23998   4.165   5.717   3.709
 7700SOL    HW123999   4.129   5.630   3.743
 7700SOL    HW224000   4.119   5.741   3.624
 7701SOL     OW24001   6.879   2.813   6.691
 7701SOL    HW124002   6.961   2.778   6.735
 7701SOL    HW224003   6.863   2.907   6.719
 7702SOL     OW24004   4.692   5.925   5.338
 7702SOL    HW124005   4.720   5.912   5.243
 7702SOL    HW224006   4.610   5.870   5.356
 7703SOL     OW24007   5.911   6.161   6.373
 7703SOL    HW124008   5.888   6.152   6.276
 7703SOL    HW224009   5.933   6.257   6.393
 7704SOL     OW24010   5.776   0.587   3.327
 7704SOL    HW124011   5.858   0.609   3.273
 7704SOL    HW224012   5.788   0.619   3.421
 7705SOL     OW24013   2.073   6.022   0.967
 7705SOL    HW124014   2.164   6.042   0.932
 7705SOL    HW224015   2.049   6.088   1.038
 7706SOL     OW24016   3.603   3.207   3.777
 7706SOL    HW124017   3.554   3.247   3.854
 7706SOL    HW224018   3.588   3.263   3.696
 7707SOL     OW24019   0.078   4.325   6.164
 7707SOL    HW124020   0.041   4.269   6.238
 7707SOL    HW224021   0.004   4.371   6.116
 7708SOL     OW24022   1.339   6.507   5.015
 7708SOL    HW124023   1.309   6.517   4.920
 7708SOL    HW224024   1.274   6.553   5.075
 7709SOL     OW24025   6.696   4.819   1.770
 7709SOL    HW124026   6.743   4.767   1.699
 7709SOL    HW224027   6.694   4.765   1.854
 7710SOL     OW24028   2.319   2.317   0.265
 7710SOL    HW124029   2.396   2.369   0.303
 7710SOL    HW224030   2.237   2.336   0.319
 7711SOL     OW24031   5.666   5.932   5.767
 7711SOL    HW124032   5.764   5.932   5.749
 7711SOL    HW224033   5.617   5.963   5.686
 7712SOL     OW24034   6.019   5.614   0.461
 7712SOL    HW124035   5.996   5.517   0.471
 7712SOL    HW224036   5.957   5.669   0.517
 7713SOL     OW24037   1.535   3.946   0.562
 7713SOL    HW124038   1.568   3.852   0.552
 7713SOL    HW224039   1.499   3.958   0.655
 7714SOL     OW24040   0.018   4.926   5.400
 7714SOL    HW124041   0.103   4.924   5.349
 7714SOL    HW224042   0.038   4.917   5.498
 7715SOL     OW24043   2.946   2.516   6.633
 7715SOL    HW124044   2.849   2.539   6.642
 7715SOL    HW224045   2.975   2.530   6.538
 7716SOL     OW24046   6.454   4.333   0.193
 7716SOL    HW124047   6.472   4.274   0.272
 7716SOL    HW224048   6.440   4.427   0.224
 7717SOL     OW24049   1.185   1.298   5.627
 7717SOL    HW124050   1.199   1.211   5.676
 7717SOL    HW224051   1.271   1.348   5.623
 7718SOL     OW24052   6.764   3.551   3.009
 7718SOL    HW124053   6.726   3.570   2.919
 7718SOL    HW224054   6.861   3.573   3.010
 7719SOL     OW24055   0.534   4.092   4.834
 7719SOL    HW124056   0.558   4.097   4.738
 7719SOL    HW224057   0.477   4.171   4.859
 7720SOL     OW24058   6.542   2.556   6.512
 7720SOL    HW124059   6.469   2.585   6.450
 7720SOL    HW224060   6.542   2.456   6.518
 7721SOL     OW24061   0.557   5.817   2.202
 7721SOL    HW124062   0.601   5.799   2.290
 7721SOL    HW224063   0.622   5.860   2.140
 7722SOL     OW24064   1.813   4.227   3.792
 7722SOL    HW124065   1.764   4.314   3.788
 7722SOL    HW224066   1.815   4.185   3.701
 7723SOL     OW24067   3.810   3.335   0.072
 7723SOL    HW124068   3.800   3.318   7.002
 7723SOL    HW224069   3.721   3.326   0.117
 7724SOL     OW24070   3.440   4.382   0.787
 7724SOL    HW124071   3.383   4.413   0.711
 7724SOL    HW224072   3.530   4.354   0.752
 7725SOL     OW24073   6.591   1.991   3.057
 7725SOL    HW124074   6.617   1.896   3.044
 7725SOL    HW224075   6.591   2.013   3.155
 7726SOL     OW24076   1.694   4.489   6.329
 7726SOL    HW124077   1.710   4.392   6.345
 7726SOL    HW224078   1.763   4.524   6.265
 7727SOL     OW24079   6.643   2.356   2.371
 7727SOL    HW124080   6.668   2.440   2.324
 7727SOL    HW224081   6.725   2.312   2.408
 7728SOL     OW24082   2.224   2.805   5.233
 7728SOL    HW124083   2.152   2.866   5.264
 7728SOL    HW224084   2.295   2.857   5.186
 7729SOL     OW24085   5.800   0.990   1.656
 7729SOL    HW124086   5.842   0.918   1.601
 7729SOL    HW224087   5.826   0.979   1.752
 7730SOL     OW24088   6.895   4.896   6.171
 7730SOL    HW124089   6.816   4.940   6.214
 7730SOL    HW224090   6.873   4.874   6.076
 7731SOL     OW24091   5.905   0.028   0.340
 7731SOL    HW124092   5.981   7.027   0.281
 7731SOL    HW224093   5.838   6.982   0.345
 7732SOL     OW24094   3.721   0.001   0.250
 7732SOL    HW124095   3.627   7.021   0.217
 7732SOL    HW224096   3.754   0.094   0.237
 7733SOL     OW24097   5.306   6.131   2.372
 7733SOL    HW124098   5.310   6.071   2.452
 7733SOL    HW224099   5.298   6.075   2.289
 7734SOL     OW24100   1.766   5.040   5.146
 7734SOL    HW124101   1.853   5.090   5.143
 7734SOL    HW224102   1.767   4.975   5.222
 7735SOL     OW24103   5.684   5.770   6.266
 7735SOL    HW124104   5.768   5.742   6.220
 7735SOL    HW224105   5.670   5.868   6.256
 7736SOL     OW24106   2.833   2.938   6.569
 7736SOL    HW124107   2.859   2.893   6.484
 7736SOL    HW224108   2.902   2.919   6.639
 7737SOL     OW24109   3.531   0.617   2.337
 7737SOL    HW124110   3.543   0.639   2.433
 7737SOL    HW224111   3.596   0.546   2.310
 7738SOL     OW24112   3.068   5.254   0.395
 7738SOL    HW124113   2.986   5.199   0.414
 7738SOL    HW224114   3.068   5.334   0.454
 7739SOL     OW24115   1.407   2.114   2.303
 7739SOL    HW124116   1.373   2.024   2.331
 7739SOL    HW224117   1.337   2.183   2.323
 7740SOL     OW24118   2.604   1.220   3.553
 7740SOL    HW124119   2.678   1.275   3.590
 7740SOL    HW224120   2.640   1.134   3.517
 7741SOL     OW24121   0.287   4.136   5.230
 7741SOL    HW124122   0.313   4.187   5.313
 7741SOL    HW224123   0.291   4.197   5.151
 7742SOL     OW24124   4.387   2.404   3.657
 7742SOL    HW124125   4.310   2.340   3.649
 7742SOL    HW224126   4.392   2.461   3.575
 7743SOL     OW24127   4.624   1.548   0.244
 7743SOL    HW124128   4.714   1.506   0.235
 7743SOL    HW224129   4.598   1.591   0.158
 7744SOL     OW24130   1.002   0.043   3.801
 7744SOL    HW124131   0.916   0.091   3.822
 7744SOL    HW224132   0.991   6.973   3.821
 7745SOL     OW24133   3.150   0.390   0.490
 7745SOL    HW124134   3.145   0.413   0.587
 7745SOL    HW224135   3.235   0.426   0.452
 7746SOL     OW24136   0.616   0.262   0.500
 7746SOL    HW124137   0.596   0.235   0.594
 7746SOL    HW224138   0.691   0.329   0.500
 7747SOL     OW24139   6.680   6.174   1.142
 7747SOL    HW124140   6.732   6.192   1.225
 7747SOL    HW224141   6.742   6.170   1.063
 7748SOL     OW24142   3.552   4.177   4.415
 7748SOL    HW124143   3.462   4.147   4.447
 7748SOL    HW224144   3.557   4.169   4.315
 7749SOL     OW24145   3.227   3.461   4.731
 7749SOL    HW124146   3.211   3.368   4.765
 7749SOL    HW224147   3.144   3.516   4.744
 7750SOL     OW24148   6.551   5.742   6.945
 7750SOL    HW124149   6.535   5.736   6.847
 7750SOL    HW224150   6.549   5.838   6.973
 7751SOL     OW24151   1.019   3.090   2.622
 7751SOL    HW124152   0.991   3.102   2.526
 7751SOL    HW224153   0.943   3.115   2.682
 7752SOL     OW24154   5.640   6.041   5.250
 7752SOL    HW124155   5.559   6.099   5.248
 7752SOL    HW224156   5.710   6.083   5.309
 7753SOL     OW24157   2.325   0.563   4.079
 7753SOL    HW124158   2.407   0.553   4.023
 7753SOL    HW224159   2.244   0.568   4.020
 7754SOL     OW24160   5.375   6.382   2.023
 7754SOL    HW124161   5.459   6.418   1.984
 7754SOL    HW224162   5.308   6.456   2.032
 7755SOL     OW24163   1.253   1.863   5.871
 7755SOL    HW124164   1.214   1.839   5.783
 7755SOL    HW224165   1.319   1.937   5.859
 7756SOL     OW24166   3.832   5.065   2.981
 7756SOL    HW124167   3.825   5.085   3.079
 7756SOL    HW224168   3.797   5.142   2.929
 7757SOL     OW24169   5.386   5.636   4.823
 7757SOL    HW124170   5.425   5.553   4.783
 7757SOL    HW224171   5.327   5.612   4.899
 7758SOL     OW24172   1.424   2.030   0.569
 7758SOL    HW124173   1.471   1.992   0.489
 7758SOL    HW224174   1.325   2.032   0.552
 7759SOL     OW24175   0.855   1.982   4.968
 7759SOL    HW124176   0.827   2.063   4.916
 7759SOL    HW224177   0.921   2.008   5.038
 7760SOL     OW24178   5.768   3.527   2.919
 7760SOL    HW124179   5.740   3.614   2.879
 7760SOL    HW224180   5.696   3.459   2.904
 7761SOL     OW24181   1.218   0.102   6.266
 7761SOL    HW124182   1.296   0.164   6.256
 7761SOL    HW224183   1.243   0.011   6.232
 7762SOL     OW24184   4.586   0.721   4.041
 7762SOL    HW124185   4.673   0.677   4.059
 7762SOL    HW224186   4.526   0.710   4.120
 7763SOL     OW24187   0.957   1.534   0.501
 7763SOL    HW124188   0.979   1.446   0.545
 7763SOL    HW224189   0.871   1.569   0.538
 7764SOL     OW24190   3.647   2.927   3.157
 7764SOL    HW124191   3.640   2.950   3.060
 7764SOL    HW224192   3.559   2.896   3.190
 7765SOL     OW24193   5.984   2.135   4.060
 7765SOL    HW124194   5.952   2.066   4.125
 7765SOL    HW224195   5.916   2.147   3.987
 7766SOL     OW24196   5.539   2.350   0.100
 7766SOL    HW124197   5.441   2.365   0.092
 7766SOL    HW224198   5.556   2.261   0.144
 7767SOL     OW24199   4.604   6.245   3.957
 7767SOL    HW124200   4.581   6.338   3.928
 7767SOL    HW224201   4.663   6.203   3.889
 7768SOL     OW24202   4.139   4.687   2.575
 7768SOL    HW124203   4.075   4.616   2.547
 7768SOL    HW224204   4.170   4.669   2.669
 7769SOL     OW24205   5.045   2.651   2.569
 7769SOL    HW124206   4.951   2.638   2.599
 7769SOL    HW224207   5.072   2.576   2.508
 7770SOL     OW24208   1.147   3.964   2.100
 7770SOL    HW124209   1.176   4.047   2.149
 7770SOL    HW224210   1.155   3.886   2.161
 7771SOL     OW24211   2.995   1.898   4.854
 7771SOL    HW124212   2.985   1.998   4.858
 7771SOL    HW224213   3.036   1.865   4.939
 7772SOL     OW24214   5.606   0.687   2.572
 7772SOL    HW124215   5.656   0.719   2.652
 7772SOL    HW224216   5.535   0.622   2.602
 7773SOL     OW24217   3.167   5.689   4.742
 7773SOL    HW124218   3.147   5.778   4.700
 7773SOL    HW224219   3.232   5.702   4.817
 7774SOL     OW24220   5.834   2.277   6.002
 7774SOL    HW124221   5.891   2.297   6.081
 7774SOL    HW224222   5.832   2.356   5.941
 7775SOL     OW24223   4.077   6.532   2.550
 7775SOL    HW124224   4.149   6.553   2.616
 7775SOL    HW224225   4.088   6.590   2.469
 7776SOL     OW24226   2.389   4.641   6.865
 7776SOL    HW124227   2.329   4.721   6.861
 7776SOL    HW224228   2.473   4.660   6.815
 7777SOL     OW24229   0.563   0.641   4.946
 7777SOL    HW124230   0.466   0.662   4.951
 7777SOL    HW224231   0.608   0.706   4.885
 7778SOL     OW24232   4.954   5.313   0.403
 7778SOL    HW124233   4.964   5.412   0.407
 7778SOL    HW224234   5.016   5.276   0.333
 7779SOL     OW24235   2.771   2.471   1.161
 7779SOL    HW124236   2.803   2.397   1.102
 7779SOL    HW224237   2.673   2.459   1.177
 7780SOL     OW24238   0.935   5.230   5.700
 7780SOL    HW124239   0.897   5.270   5.617
 7780SOL    HW224240   0.950   5.132   5.685
 7781SOL     OW24241   1.081   4.710   0.099
 7781SOL    HW124242   1.135   4.760   0.031
 7781SOL    HW224243   1.136   4.636   0.138
 7782SOL     OW24244   1.119   4.908   4.703
 7782SOL    HW124245   1.051   4.862   4.646
 7782SOL    HW224246   1.105   4.885   4.799
 7783SOL     OW24247   1.293   6.238   4.693
 7783SOL    HW124248   1.245   6.150   4.693
 7783SOL    HW224249   1.311   6.265   4.598
 7784SOL     OW24250   3.105   2.729   0.763
 7784SOL    HW124251   3.037   2.679   0.817
 7784SOL    HW224252   3.189   2.676   0.757
 7785SOL     OW24253   1.547   6.574   4.092
 7785SOL    HW124254   1.541   6.673   4.083
 7785SOL    HW224255   1.566   6.533   4.003
 7786SOL     OW24256   3.272   6.149   6.933
 7786SOL    HW124257   3.358   6.169   6.979
 7786SOL    HW224258   3.229   6.069   6.974
 7787SOL     OW24259   2.851   3.117   6.261
 7787SOL    HW124260   2.916   3.193   6.260
 7787SOL    HW224261   2.818   3.101   6.167
 7788SOL     OW24262   1.358   5.697   1.977
 7788SOL    HW124263   1.265   5.732   1.992
 7788SOL    HW224264   1.413   5.714   2.058
 7789SOL     OW24265   2.884   6.749   6.740
 7789SOL    HW124266   2.907   6.837   6.781
 7789SOL    HW224267   2.896   6.676   6.807
 7790SOL     OW24268   5.165   5.321   2.903
 7790SOL    HW124269   5.089   5.386   2.909
 7790SOL    HW224270   5.163   5.260   2.982
 7791SOL     OW24271   2.335   5.900   3.300
 7791SOL    HW124272   2.427   5.882   3.333
 7791SOL    HW224273   2.292   5.970   3.357
 7792SOL     OW24274   1.849   5.554   5.327
 7792SOL    HW124275   1.825   5.616   5.402
 7792SOL    HW224276   1.826   5.460   5.352
 7793SOL     OW24277   3.039   1.123   6.972
 7793SOL    HW124278   3.136   1.105   6.984
 7793SOL    HW224279   3.012   1.103   6.877
 7794SOL     OW24280   5.935   4.890   3.275
 7794SOL    HW124281   5.867   4.956   3.241
 7794SOL    HW224282   5.943   4.815   3.209
 7795SOL     OW24283   2.172   4.001   5.494
 7795SOL    HW124284   2.176   3.938   5.571
 7795SOL    HW224285   2.208   3.955   5.412
 7796SOL     OW24286   3.247   3.983   3.482
 7796SOL    HW124287   3.295   3.897   3.467
 7796SOL    HW224288   3.314   4.054   3.507
 7797SOL     OW24289   1.428   0.209   2.587
 7797SOL    HW124290   1.415   0.255   2.674
 7797SOL    HW224291   1.517   0.234   2.549
 7798SOL     OW24292   1.826   4.420   5.729
 7798SOL    HW124293   1.767   4.437   5.809
 7798SOL    HW224294   1.843   4.506   5.682
 7799SOL     OW24295   1.161   6.020   2.163
 7799SOL    HW124296   1.230   6.033   2.234
 7799SOL    HW224297   1.162   6.099   2.101
 7800SOL     OW24298   1.055   5.516   0.844
 7800SOL    HW124299   1.039   5.529   0.746
 7800SOL    HW224300   0.988   5.452   0.881
 7801SOL     OW24301   2.422   1.673   1.804
 7801SOL    HW124302   2.389   1.767   1.811
 7801SOL    HW224303   2.362   1.621   1.743
 7802SOL     OW24304   5.718   2.525   1.055
 7802SOL    HW124305   5.717   2.533   0.956
 7802SOL    HW224306   5.807   2.490   1.085
 7803SOL     OW24307   4.333   2.097   6.142
 7803SOL    HW124308   4.319   2.172   6.077
 7803SOL    HW224309   4.428   2.097   6.173
 7804SOL     OW24310   4.708   2.101   4.231
 7804SOL    HW124311   4.796   2.071   4.267
 7804SOL    HW224312   4.723   2.161   4.153
 7805SOL     OW24313   5.276   1.965   0.714
 7805SOL    HW124314   5.198   2.002   0.764
 7805SOL    HW224315   5.295   1.872   0.745
 7806SOL     OW24316   5.863   2.022   6.494
 7806SOL    HW124317   5.832   1.928   6.506
 7806SOL    HW224318   5.877   2.064   6.583
 7807SOL     OW24319   0.605   4.497   5.555
 7807SOL    HW124320   0.611   4.411   5.504
 7807SOL    HW224321   0.677   4.559   5.523
 7808SOL     OW24322   6.528   3.198   4.102
 7808SOL    HW124323   6.492   3.266   4.167
 7808SOL    HW224324   6.466   3.120   4.099
 7809SOL     OW24325   1.971   5.716   4.031
 7809SOL    HW124326   1.873   5.717   4.049
 7809SOL    HW224327   1.993   5.787   3.964
 7810SOL     OW24328   3.508   0.710   4.895
 7810SOL    HW124329   3.530   0.704   4.797
 7810SOL    HW224330   3.550   0.633   4.943
 7811SOL     OW24331   1.051   5.429   2.927
 7811SOL    HW124332   1.019   5.409   2.834
 7811SOL    HW224333   1.049   5.345   2.982
 7812SOL     OW24334   1.070   2.087   3.545
 7812SOL    HW124335   0.974   2.061   3.546
 7812SOL    HW224336   1.113   2.052   3.462
 7813SOL     OW24337   4.368   2.258   6.620
 7813SOL    HW124338   4.312   2.295   6.694
 7813SOL    HW224339   4.368   2.323   6.544
 7814SOL     OW24340   0.143   2.752   3.294
 7814SOL    HW124341   0.169   2.660   3.264
 7814SOL    HW224342   0.180   2.770   3.385
 7815SOL     OW24343   5.118   0.474   5.746
 7815SOL    HW124344   5.200   0.530   5.760
 7815SOL    HW224345   5.135   0.382   5.782
 7816SOL     OW24346   1.591   2.146   6.754
 7816SOL    HW124347   1.594   2.087   6.834
 7816SOL    HW224348   1.684   2.161   6.720
 7817SOL     OW24349   5.483   4.388   3.341
 7817SOL    HW124350   5.391   4.348   3.347
 7817SOL    HW224351   5.551   4.315   3.348
 7818SOL     OW24352   4.529   0.737   3.086
 7818SOL    HW124353   4.580   0.657   3.053
 7818SOL    HW224354   4.497   0.790   3.008
 7819SOL     OW24355   6.968   3.333   1.697
 7819SOL    HW124356   6.878   3.370   1.721
 7819SOL    HW224357   7.027   3.408   1.665
 7820SOL     OW24358   1.390   2.469   4.668
 7820SOL    HW124359   1.436   2.489   4.754
 7820SOL    HW224360   1.330   2.546   4.644
 7821SOL     OW24361   5.349   6.550   1.005
 7821SOL    HW124362   5.322   6.626   0.946
 7821SOL    HW224363   5.394   6.585   1.087
 7822SOL     OW24364   0.956   1.796   5.643
 7822SOL    HW124365   1.012   1.731   5.591
 7822SOL    HW224366   0.866   1.805   5.600
 7823SOL     OW24367   2.615   4.014   5.390
 7823SOL    HW124368   2.598   3.919   5.416
 7823SOL    HW224369   2.549   4.041   5.320
 7824SOL     OW24370   5.643   1.073   3.786
 7824SOL    HW124371   5.716   1.007   3.802
 7824SOL    HW224372   5.626   1.124   3.871
 7825SOL     OW24373   1.569   2.833   1.495
 7825SOL    HW124374   1.604   2.852   1.404
 7825SOL    HW224375   1.469   2.831   1.493
 7826SOL     OW24376   6.096   1.588   1.327
 7826SOL    HW124377   6.165   1.614   1.395
 7826SOL    HW224378   6.142   1.558   1.244
 7827SOL     OW24379   1.913   5.241   0.987
 7827SOL    HW124380   1.968   5.302   1.044
 7827SOL    HW224381   1.912   5.150   1.027
 7828SOL     OW24382   0.686   4.354   6.690
 7828SOL    HW124383   0.632   4.270   6.682
 7828SOL    HW224384   0.779   4.332   6.718
 7829SOL     OW24385   2.239   3.901   1.371
 7829SOL    HW124386   2.159   3.844   1.391
 7829SOL    HW224387   2.307   3.890   1.443
 7830SOL     OW24388   2.654   4.795   5.163
 7830SOL    HW124389   2.696   4.723   5.107
 7830SOL    HW224390   2.668   4.774   5.260
 7831SOL     OW24391   2.216   6.677   2.045
 7831SOL    HW124392   2.128   6.696   2.088
 7831SOL    HW224393   2.249   6.759   1.999
 7832SOL     OW24394   5.839   0.880   3.270
 7832SOL    HW124395   5.836   0.839   3.361
 7832SOL    HW224396   5.746   0.884   3.232
 7833SOL     OW24397   0.566   1.202   6.099
 7833SOL    HW124398   0.573   1.246   6.010
 7833SOL    HW224399   0.550   1.104   6.086
 7834SOL     OW24400   6.952   1.807   3.664
 7834SOL    HW124401   6.960   1.898   3.704
 7834SOL    HW224402   7.015   1.799   3.587
 7835SOL     OW24403   3.378   2.179   5.263
 7835SOL    HW124404   3.298   2.120   5.272
 7835SOL    HW224405   3.351   2.264   5.218
 7836SOL     OW24406   3.147   2.939   5.159
 7836SOL    HW124407   3.179   2.947   5.064
 7836SOL    HW224408   3.222   2.960   5.221
 7837SOL     OW24409   5.107   5.377   6.805
 7837SOL    HW124410   5.036   5.407   6.869
 7837SOL    HW224411   5.086   5.410   6.713
 7838SOL     OW24412   4.153   6.968   0.992
 7838SOL    HW124413   4.148   6.924   1.081
 7838SOL    HW224414   4.068   7.018   0.975
 7839SOL     OW24415   5.848   4.240   5.180
 7839SOL    HW124416   5.915   4.305   5.215
 7839SOL    HW224417   5.874   4.213   5.087
 7840SOL     OW24418   5.990   3.094   3.900
 7840SOL    HW124419   5.949   3.085   3.809
 7840SOL    HW224420   5.942   3.165   3.952
 7841SOL     OW24421   3.197   1.906   6.129
 7841SOL    HW124422   3.117   1.882   6.183
 7841SOL    HW224423   3.279   1.867   6.171
 7842SOL     OW24424   2.882   2.280   2.784
 7842SOL    HW124425   2.952   2.254   2.717
 7842SOL    HW224426   2.879   2.212   2.857
 7843SOL     OW24427   0.394   6.142   3.599
 7843SOL    HW124428   0.330   6.120   3.673
 7843SOL    HW224429   0.486   6.110   3.623
 7844SOL     OW24430   3.724   0.404   2.955
 7844SOL    HW124431   3.694   0.477   3.016
 7844SOL    HW224432   3.667   0.323   2.968
 7845SOL     OW24433   5.627   2.119   2.887
 7845SOL    HW124434   5.651   2.198   2.832
 7845SOL    HW224435   5.702   2.052   2.884
 7846SOL     OW24436   0.469   1.583   1.937
 7846SOL    HW124437   0.420   1.670   1.932
 7846SOL    HW224438   0.433   1.520   1.867
 7847SOL     OW24439   6.847   1.300   3.506
 7847SOL    HW124440   6.750   1.313   3.526
 7847SOL    HW224441   6.889   1.388   3.487
 7848SOL     OW24442   2.874   4.439   0.584
 7848SOL    HW124443   2.887   4.344   0.554
 7848SOL    HW224444   2.822   4.440   0.669
 7849SOL     OW24445   6.679   4.381   4.447
 7849SOL    HW124446   6.685   4.450   4.520
 7849SOL    HW224447   6.606   4.406   4.384
 7850SOL     OW24448   0.263   1.544   4.378
 7850SOL    HW124449   0.362   1.558   4.375
 7850SOL    HW224450   0.231   1.508   4.291
 7851SOL     OW24451   6.398   1.239   1.640
 7851SOL    HW124452   6.471   1.183   1.681
 7851SOL    HW224453   6.424   1.336   1.644
 7852SOL     OW24454   3.115   1.649   6.301
 7852SOL    HW124455   3.203   1.695   6.309
 7852SOL    HW224456   3.095   1.600   6.386
 7853SOL     OW24457   5.307   2.668   1.974
 7853SOL    HW124458   5.242   2.687   1.901
 7853SOL    HW224459   5.328   2.570   1.976
 7854SOL     OW24460   3.425   3.334   6.638
 7854SOL    HW124461   3.345   3.360   6.584
 7854SOL    HW224462   3.445   3.237   6.623
 7855SOL     OW24463   4.639   6.766   4.474
 7855SOL    HW124464   4.729   6.812   4.472
 7855SOL    HW224465   4.608   6.752   4.380
 7856SOL     OW24466   6.630   5.366   5.268
 7856SOL    HW124467   6.618   5.447   5.211
 7856SOL    HW224468   6.689   5.389   5.346
 7857SOL     OW24469   4.911   2.380   6.878
 7857SOL    HW124470   4.831   2.428   6.842
 7857SOL    HW224471   4.881   2.301   6.932
 7858SOL     OW24472   6.136   6.677   4.024
 7858SOL    HW124473   6.155   6.595   3.969
 7858SOL    HW224474   6.121   6.754   3.963
 7859SOL     OW24475   4.322   2.959   6.148
 7859SOL    HW124476   4.399   2.916   6.196
 7859SOL    HW224477   4.269   3.013   6.213
 7860SOL     OW24478   3.645   0.880   3.425
 7860SOL    HW124479   3.729   0.885   3.372
 7860SOL    HW224480   3.638   0.961   3.483
 7861SOL     OW24481   3.659   4.669   1.588
 7861SOL    HW124482   3.616   4.653   1.677
 7861SOL    HW224483   3.652   4.766   1.564
 7862SOL     OW24484   2.004   4.757   1.907
 7862SOL    HW124485   1.974   4.782   1.815
 7862SOL    HW224486   2.048   4.667   1.904
 7863SOL     OW24487   0.353   4.326   4.792
 7863SOL    HW124488   0.373   4.424   4.795
 7863SOL    HW224489   0.327   4.299   4.699
 7864SOL     OW24490   0.442   5.758   5.383
 7864SOL    HW124491   0.532   5.793   5.410
 7864SOL    HW224492   0.407   5.810   5.305
 7865SOL     OW24493   6.520   6.322   3.844
 7865SOL    HW124494   6.614   6.297   3.820
 7865SOL    HW224495   6.511   6.325   3.944
 7866SOL     OW24496   0.905   1.759   5.909
 7866SOL    HW124497   0.964   1.750   5.828
 7866SOL    HW224498   0.855   1.846   5.904
 7867SOL     OW24499   6.043   6.108   3.344
 7867SOL    HW124500   6.137   6.076   3.330
 7867SOL    HW224501   6.020   6.176   3.275
 7868SOL     OW24502   4.968   6.427   1.752
 7868SOL    HW124503   4.968   6.469   1.843
 7868SOL    HW224504   5.040   6.358   1.748
 7869SOL     OW24505   5.322   3.712   7.013
 7869SOL    HW124506   5.311   3.810   6.997
 7869SOL    HW224507   5.387   3.675   6.946
 7870SOL     OW24508   4.516   5.211   4.171
 7870SOL    HW124509   4.606   5.167   4.167
 7870SOL    HW224510   4.447   5.150   4.133
 7871SOL     OW24511   4.783   1.685   1.979
 7871SOL    HW124512   4.719   1.632   1.923
 7871SOL    HW224513   4.740   1.710   2.065
 7872SOL     OW24514   1.793   3.695   3.041
 7872SOL    HW124515   1.762   3.756   2.969
 7872SOL    HW224516   1.778   3.600   3.014
 7873SOL     OW24517   5.623   6.731   6.091
 7873SOL    HW124518   5.637   6.714   6.188
 7873SOL    HW224519   5.594   6.825   6.076
 7874SOL     OW24520   4.802   2.596   0.233
 7874SOL    HW124521   4.713   2.568   0.270
 7874SOL    HW224522   4.854   2.643   0.303
 7875SOL     OW24523   4.460   3.060   6.829
 7875SOL    HW124524   4.368   3.099   6.832
 7875SOL    HW224525   4.525   3.131   6.801
 7876SOL     OW24526   1.664   6.709   3.455
 7876SOL    HW124527   1.651   6.715   3.554
 7876SOL    HW224528   1.580   6.676   3.412
 7877SOL     OW24529   1.232   1.907   2.693
 7877SOL    HW124530   1.284   1.882   2.774
 7877SOL    HW224531   1.287   1.888   2.611
 7878SOL     OW24532   4.788   4.355   4.704
 7878SOL    HW124533   4.737   4.427   4.751
 7878SOL    HW224534   4.795   4.275   4.763
 7879SOL     OW24535   4.099   5.430   3.349
 7879SOL    HW124536   4.132   5.432   3.255
 7879SOL    HW224537   4.024   5.496   3.359
 7880SOL     OW24538   2.016   4.200   1.386
 7880SOL    HW124539   2.013   4.131   1.314
 7880SOL    HW224540   1.947   4.178   1.456
 7881SOL     OW24541   5.946   5.033   4.893
 7881SOL    HW124542   5.940   5.068   4.799
 7881SOL    HW224543   6.042   5.023   4.918
 7882SOL     OW24544   1.499   3.358   2.153
 7882SOL    HW124545   1.566   3.343   2.225
 7882SOL    HW224546   1.450   3.443   2.170
 7883SOL     OW24547   1.295   0.586   0.435
 7883SOL    HW124548   1.289   0.570   0.337
 7883SOL    HW224549   1.314   0.500   0.482
 7884SOL     OW24550   2.121   3.668   4.659
 7884SOL    HW124551   2.210   3.667   4.705
 7884SOL    HW224552   2.048   3.664   4.727
 7885SOL     OW24553   5.928   5.735   1.034
 7885SOL    HW124554   5.986   5.800   0.986
 7885SOL    HW224555   5.985   5.677   1.093
 7886SOL     OW24556   3.908   4.932   0.170
 7886SOL    HW124557   3.943   4.839   0.156
 7886SOL    HW224558   3.812   4.935   0.141
 7887SOL     OW24559   3.240   2.385   5.470
 7887SOL    HW124560   3.171   2.450   5.503
 7887SOL    HW224561   3.243   2.389   5.370
 7888SOL     OW24562   6.649   0.375   5.237
 7888SOL    HW124563   6.697   0.372   5.325
 7888SOL    HW224564   6.554   0.347   5.250
 7889SOL     OW24565   1.288   4.488   1.413
 7889SOL    HW124566   1.363   4.552   1.397
 7889SOL    HW224567   1.232   4.481   1.331
 7890SOL     OW24568   1.918   3.071   2.775
 7890SOL    HW124569   1.898   3.068   2.873
 7890SOL    HW224570   1.919   2.978   2.738
 7891SOL     OW24571   1.600   3.489   3.676
 7891SOL    HW124572   1.594   3.410   3.615
 7891SOL    HW224573   1.606   3.573   3.621
 7892SOL     OW24574   2.352   1.202   4.193
 7892SOL    HW124575   2.397   1.193   4.282
 7892SOL    HW224576   2.421   1.208   4.121
 7893SOL     OW24577   0.020   6.323   2.601
 7893SOL    HW124578   0.087   6.257   2.634
 7893SOL    HW224579   0.055   6.416   2.614
 7894SOL     OW24580   3.503   0.121   0.947
 7894SOL    HW124581   3.454   0.035   0.931
 7894SOL    HW224582   3.468   0.164   1.030
 7895SOL     OW24583   6.249   0.906   5.643
 7895SOL    HW124584   6.157   0.944   5.636
 7895SOL    HW224585   6.312   0.976   5.676
 7896SOL     OW24586   4.734   3.937   7.027
 7896SOL    HW124587   4.729   4.034   0.022
 7896SOL    HW224588   4.659   3.913   6.965
 7897SOL     OW24589   2.311   3.932   0.281
 7897SOL    HW124590   2.275   3.865   0.345
 7897SOL    HW224591   2.284   3.907   0.188
 7898SOL     OW24592   4.933   2.109   3.937
 7898SOL    HW124593   4.987   2.156   3.866
 7898SOL    HW224594   4.929   2.012   3.917
 7899SOL     OW24595   5.715   0.730   0.939
 7899SOL    HW124596   5.729   0.657   1.006
 7899SOL    HW224597   5.623   0.722   0.900
 7900SOL     OW24598   1.341   5.230   1.088
 7900SOL    HW124599   1.296   5.170   1.021
 7900SOL    HW224600   1.340   5.324   1.054
 7901SOL     OW24601   5.125   1.362   6.830
 7901SOL    HW124602   5.050   1.417   6.794
 7901SOL    HW224603   5.192   1.345   6.759
 7902SOL     OW24604   5.286   6.102   1.368
 7902SOL    HW124605   5.309   6.143   1.279
 7902SOL    HW224606   5.352   6.030   1.390
 7903SOL     OW24607   5.715   0.989   0.987
 7903SOL    HW124608   5.700   0.892   0.969
 7903SOL    HW224609   5.811   1.012   0.970
 7904SOL     OW24610   5.943   6.364   3.498
 7904SOL    HW124611   5.950   6.384   3.595
 7904SOL    HW224612   5.985   6.275   3.479
 7905SOL     OW24613   4.552   2.540   0.308
 7905SOL    HW124614   4.564   2.638   0.327
 7905SOL    HW224615   4.477   2.504   0.364
 7906SOL     OW24616   0.296   5.599   0.651
 7906SOL    HW124617   0.216   5.610   0.711
 7906SOL    HW224618   0.347   5.685   0.648
 7907SOL     OW24619   5.451   2.513   3.458
 7907SOL    HW124620   5.455   2.613   3.458
 7907SOL    HW224621   5.402   2.483   3.540
 7908SOL     OW24622   0.634   1.941   5.644
 7908SOL    HW124623   0.556   1.963   5.586
 7908SOL    HW224624   0.636   1.842   5.660
 7909SOL     OW24625   5.501   3.839   4.895
 7909SOL    HW124626   5.553   3.921   4.921
 7909SOL    HW224627   5.537   3.760   4.946
 7910SOL     OW24628   2.886   3.554   6.092
 7910SOL    HW124629   2.937   3.640   6.102
 7910SOL    HW224630   2.872   3.535   5.995
 7911SOL     OW24631   1.538   3.103   0.007
 7911SOL    HW124632   1.531   3.167   0.083
 7911SOL    HW224633   1.585   3.146   6.958
 7912SOL     OW24634   6.732   5.142   0.383
 7912SOL    HW124635   6.720   5.190   0.470
 7912SOL    HW224636   6.804   5.187   0.330
 7913SOL     OW24637   1.147   5.055   0.981
 7913SOL    HW124638   1.150   4.990   1.058
 7913SOL    HW224639   1.052   5.081   0.964
 7914SOL     OW24640   6.761   4.355   6.677
 7914SOL    HW124641   6.836   4.399   6.727
 7914SOL    HW224642   6.793   4.269   6.638
 7915SOL     OW24643   4.880   3.187   2.260
 7915SOL    HW124644   4.957   3.245   2.233
 7915SOL    HW224645   4.843   3.141   2.179
 7916SOL     OW24646   0.354   3.874   5.337
 7916SOL    HW124647   0.278   3.872   5.403
 7916SOL    HW224648   0.354   3.962   5.289
 7917SOL     OW24649   3.587   3.775   3.558
 7917SOL    HW124650   3.513   3.751   3.495
 7917SOL    HW224651   3.642   3.694   3.578
 7918SOL     OW24652   0.589   1.427   0.101
 7918SOL    HW124653   0.678   1.459   0.069
 7918SOL    HW224654   0.517   1.480   0.057
 7919SOL     OW24655   1.581   4.302   2.794
 7919SOL    HW124656   1.512   4.233   2.772
 7919SOL    HW224657   1.657   4.258   2.842
 7920SOL     OW24658   0.357   5.399   0.851
 7920SOL    HW124659   0.451   5.429   0.869
 7920SOL    HW224660   0.300   5.478   0.829
 7921SOL     OW24661   4.360   6.560   0.583
 7921SOL    HW124662   4.390   6.577   0.677
 7921SOL    HW224663   4.282   6.619   0.562
 7922SOL     OW24664   6.839   6.497   6.667
 7922SOL    HW124665   6.798   6.524   6.755
 7922SOL    HW224666   6.935   6.521   6.666
 7923SOL     OW24667   3.314   0.558   2.150
 7923SOL    HW124668   3.244   0.490   2.173
 7923SOL    HW224669   3.375   0.571   2.228
 7924SOL     OW24670   4.106   6.648   2.284
 7924SOL    HW124671   4.202   6.625   2.266
 7924SOL    HW224672   4.092   6.745   2.268
 7925SOL     OW24673   0.445   1.830   6.166
 7925SOL    HW124674   0.455   1.731   6.174
 7925SOL    HW224675   0.536   1.872   6.168
 7926SOL     OW24676   5.302   1.575   5.443
 7926SOL    HW124677   5.354   1.560   5.527
 7926SOL    HW224678   5.236   1.648   5.457
 7927SOL     OW24679   3.810   5.243   4.139
 7927SOL    HW124680   3.889   5.190   4.109
 7927SOL    HW224681   3.748   5.184   4.192
 7928SOL     OW24682   1.235   2.607   4.229
 7928SOL    HW124683   1.259   2.545   4.303
 7928SOL    HW224684   1.282   2.577   4.145
 7929SOL     OW24685   3.839   3.811   5.986
 7929SOL    HW124686   3.868   3.827   6.080
 7929SOL    HW224687   3.874   3.885   5.928
 7930SOL     OW24688   4.573   5.469   4.104
 7930SOL    HW124689   4.627   5.516   4.175
 7930SOL    HW224690   4.555   5.375   4.133
 7931SOL     OW24691   1.420   1.819   6.081
 7931SOL    HW124692   1.347   1.824   6.012
 7931SOL    HW224693   1.496   1.766   6.044
 7932SOL     OW24694   2.521   6.414   6.759
 7932SOL    HW124695   2.455   6.458   6.699
 7932SOL    HW224696   2.614   6.430   6.725
 7933SOL     OW24697   0.366   6.151   6.911
 7933SOL    HW124698   0.432   6.096   6.860
 7933SOL    HW224699   0.293   6.182   6.849
 7934SOL     OW24700   2.423   4.675   0.302
 7934SOL    HW124701   2.468   4.733   0.235
 7934SOL    HW224702   2.478   4.670   0.385
 7935SOL     OW24703   5.144   6.495   0.548
 7935SOL    HW124704   5.180   6.431   0.617
 7935SOL    HW224705   5.172   6.465   0.457
 7936SOL     OW24706   3.708   5.292   2.526
 7936SOL    HW124707   3.704   5.235   2.444
 7936SOL    HW224708   3.637   5.363   2.520
 7937SOL     OW24709   6.426   0.337   3.730
 7937SOL    HW124710   6.477   0.264   3.775
 7937SOL    HW224711   6.333   0.307   3.710
 7938SOL     OW24712   6.212   5.246   5.216
 7938SOL    HW124713   6.296   5.236   5.269
 7938SOL    HW224714   6.180   5.341   5.222
 7939SOL     OW24715   1.256   2.763   5.633
 7939SOL    HW124716   1.254   2.676   5.683
 7939SOL    HW224717   1.220   2.749   5.541
 7940SOL     OW24718   1.914   4.072   2.451
 7940SOL    HW124719   1.823   4.067   2.494
 7940SOL    HW224720   1.978   4.114   2.515
 7941SOL     OW24721   6.514   6.265   0.685
 7941SOL    HW124722   6.592   6.266   0.622
 7941SOL    HW224723   6.514   6.349   0.739
 7942SOL     OW24724   6.431   5.457   2.807
 7942SOL    HW124725   6.414   5.511   2.890
 7942SOL    HW224726   6.433   5.517   2.728
 7943SOL     OW24727   5.767   3.367   0.374
 7943SOL    HW124728   5.848   3.366   0.433
 7943SOL    HW224729   5.712   3.448   0.392
 7944SOL     OW24730   0.468   3.139   1.605
 7944SOL    HW124731   0.382   3.189   1.616
 7944SOL    HW224732   0.545   3.197   1.634
 7945SOL     OW24733   5.201   6.316   1.816
 7945SOL    HW124734   5.272   6.338   1.883
 7945SOL    HW224735   5.244   6.303   1.726
 7946SOL     OW24736   2.218   1.538   5.443
 7946SOL    HW124737   2.203   1.510   5.538
 7946SOL    HW224738   2.257   1.630   5.442
 7947SOL     OW24739   3.528   2.129   6.008
 7947SOL    HW124740   3.497   2.219   6.041
 7947SOL    HW224741   3.467   2.098   5.936
 7948SOL     OW24742   0.515   6.100   0.875
 7948SOL    HW124743   0.445   6.028   0.874
 7948SOL    HW224744   0.590   6.074   0.815
 7949SOL     OW24745   4.860   4.316   4.385
 7949SOL    HW124746   4.835   4.284   4.476
 7949SOL    HW224747   4.892   4.411   4.391
 7950SOL     OW24748   5.747   4.920   4.317
 7950SOL    HW124749   5.658   4.925   4.363
 7950SOL    HW224750   5.787   5.011   4.312
 7951SOL     OW24751   1.714   3.865   1.048
 7951SOL    HW124752   1.621   3.864   1.087
 7951SOL    HW224753   1.744   3.771   1.034
 7952SOL     OW24754   0.909   3.373   6.524
 7952SOL    HW124755   0.857   3.291   6.548
 7952SOL    HW224756   0.848   3.452   6.519
 7953SOL     OW24757   1.892   2.981   3.023
 7953SOL    HW124758   1.903   2.895   3.074
 7953SOL    HW224759   1.876   3.056   3.088
 7954SOL     OW24760   4.602   4.220   5.266
 7954SOL    HW124761   4.682   4.257   5.312
 7954SOL    HW224762   4.583   4.128   5.299
 7955SOL     OW24763   1.498   6.679   6.536
 7955SOL    HW124764   1.438   6.633   6.601
 7955SOL    HW224765   1.471   6.775   6.527
 7956SOL     OW24766   3.227   5.804   2.790
 7956SOL    HW124767   3.165   5.881   2.782
 7956SOL    HW224768   3.193   5.741   2.861
 7957SOL     OW24769   1.633   1.344   0.879
 7957SOL    HW124770   1.675   1.368   0.966
 7957SOL    HW224771   1.654   1.249   0.856
 7958SOL     OW24772   3.441   5.426   4.428
 7958SOL    HW124773   3.348   5.399   4.453
 7958SOL    HW224774   3.493   5.345   4.401
 7959SOL     OW24775   4.170   5.844   0.896
 7959SOL    HW124776   4.148   5.754   0.933
 7959SOL    HW224777   4.136   5.915   0.957
 7960SOL     OW24778   4.252   2.064   0.458
 7960SOL    HW124779   4.189   1.987   0.468
 7960SOL    HW224780   4.239   2.108   0.369
 7961SOL     OW24781   0.811   6.356   0.805
 7961SOL    HW124782   0.713   6.341   0.822
 7961SOL    HW224783   0.825   6.449   0.770
 7962SOL     OW24784   1.998   0.261   0.329
 7962SOL    HW124785   2.082   0.316   0.333
 7962SOL    HW224786   2.022   0.166   0.313
 7963SOL     OW24787   0.111   0.865   3.723
 7963SOL    HW124788   0.042   0.797   3.698
 7963SOL    HW224789   0.107   0.941   3.657
 7964SOL     OW24790   0.246   4.943   3.429
 7964SOL    HW124791   0.210   5.020   3.481
 7964SOL    HW224792   0.171   4.897   3.381
 7965SOL     OW24793   3.775   3.098   0.305
 7965SOL    HW124794   3.863   3.097   0.352
 7965SOL    HW224795   3.764   3.185   0.257
 7966SOL     OW24796   0.821   3.237   5.676
 7966SOL    HW124797   0.736   3.273   5.640
 7966SOL    HW224798   0.883   3.215   5.601
 7967SOL     OW24799   2.811   5.879   4.109
 7967SOL    HW124800   2.823   5.882   4.209
 7967SOL    HW224801   2.794   5.971   4.075
 7968SOL     OW24802   2.463   2.298   3.256
 7968SOL    HW124803   2.464   2.362   3.179
 7968SOL    HW224804   2.371   2.258   3.265
 7969SOL     OW24805   4.364   6.930   2.053
 7969SOL    HW124806   4.394   6.849   2.002
 7969SOL    HW224807   4.267   6.919   2.077
 7970SOL     OW24808   0.676   3.304   3.207
 7970SOL    HW124809   0.639   3.217   3.240
 7970SOL    HW224810   0.762   3.288   3.160
 7971SOL     OW24811   4.865   1.344   0.887
 7971SOL    HW124812   4.931   1.299   0.947
 7971SOL    HW224813   4.906   1.360   0.798
 7972SOL     OW24814   1.487   3.502   1.525
 7972SOL    HW124815   1.564   3.472   1.582
 7972SOL    HW224816   1.405   3.453   1.554
 7973SOL     OW24817   4.615   4.310   3.189
 7973SOL    HW124818   4.629   4.244   3.115
 7973SOL    HW224819   4.656   4.274   3.273
 7974SOL     OW24820   5.746   1.025   5.049
 7974SOL    HW124821   5.800   0.977   4.979
 7974SOL    HW224822   5.781   1.118   5.061
 7975SOL     OW24823   6.062   0.085   2.556
 7975SOL    HW124824   6.008   0.148   2.500
 7975SOL    HW224825   6.074   0.124   2.647
 7976SOL     OW24826   0.734   0.720   6.415
 7976SOL    HW124827   0.657   0.692   6.357
 7976SOL    HW224828   0.718   0.687   6.508
 7977SOL     OW24829   5.091   5.532   1.440
 7977SOL    HW124830   5.074   5.496   1.532
 7977SOL    HW224831   5.019   5.500   1.378
 7978SOL     OW24832   5.509   3.689   6.385
 7978SOL    HW124833   5.432   3.745   6.355
 7978SOL    HW224834   5.544   3.636   6.307
 7979SOL     OW24835   3.381   0.243   4.966
 7979SOL    HW124836   3.385   0.144   4.954
 7979SOL    HW224837   3.411   0.266   5.059
 7980SOL     OW24838   2.815   5.439   0.252
 7980SOL    HW124839   2.770   5.525   0.227
 7980SOL    HW224840   2.753   5.363   0.233
 7981SOL     OW24841   0.363   5.647   2.128
 7981SOL    HW124842   0.432   5.711   2.162
 7981SOL    HW224843   0.297   5.696   2.071
 7982SOL     OW24844   0.429   1.332   0.424
 7982SOL    HW124845   0.372   1.347   0.342
 7982SOL    HW224846   0.525   1.345   0.400
 7983SOL     OW24847   5.918   1.849   2.762
 7983SOL    HW124848   5.892   1.872   2.669
 7983SOL    HW224849   6.016   1.866   2.775
 7984SOL     OW24850   1.749   1.788   1.918
 7984SOL    HW124851   1.675   1.775   1.984
 7984SOL    HW224852   1.835   1.757   1.958
 7985SOL     OW24853   2.311   6.103   4.223
 7985SOL    HW124854   2.353   6.015   4.199
 7985SOL    HW224855   2.240   6.089   4.292
 7986SOL     OW24856   2.905   0.638   6.912
 7986SOL    HW124857   2.824   0.697   6.909
 7986SOL    HW224858   2.882   0.552   6.959
 7987SOL     OW24859   1.370   3.164   6.675
 7987SOL    HW124860   1.309   3.231   6.632
 7987SOL    HW224861   1.334   3.139   6.765
 7988SOL     OW24862   1.646   1.830   4.048
 7988SOL    HW124863   1.611   1.923   4.052
 7988SOL    HW224864   1.729   1.828   3.992
 7989SOL     OW24865   3.390   2.630   5.306
 7989SOL    HW124866   3.348   2.701   5.250
 7989SOL    HW224867   3.354   2.541   5.280
 7990SOL     OW24868   6.400   4.332   3.515
 7990SOL    HW124869   6.341   4.270   3.567
 7990SOL    HW224870   6.476   4.361   3.573
 7991SOL     OW24871   6.829   0.714   4.544
 7991SOL    HW124872   6.909   0.654   4.541
 7991SOL    HW224873   6.781   0.702   4.631
 7992SOL     OW24874   1.413   6.448   1.052
 7992SOL    HW124875   1.327   6.400   1.039
 7992SOL    HW224876   1.484   6.406   0.995
 7993SOL     OW24877   1.379   5.969   6.536
 7993SOL    HW124878   1.390   6.002   6.630
 7993SOL    HW224879   1.386   6.046   6.472
 7994SOL     OW24880   5.247   6.898   3.101
 7994SOL    HW124881   5.274   6.805   3.073
 7994SOL    HW224882   5.283   6.917   3.192
 7995SOL     OW24883   4.667   5.086   3.702
 7995SOL    HW124884   4.689   5.076   3.799
 7995SOL    HW224885   4.666   5.183   3.677
 7996SOL     OW24886   2.679   0.189   4.575
 7996SOL    HW124887   2.670   0.160   4.479
 7996SOL    HW224888   2.767   0.156   4.611
 7997SOL     OW24889   6.935   1.172   0.950
 7997SOL    HW124890   7.007   1.102   0.956
 7997SOL    HW224891   6.845   1.127   0.955
 7998SOL     OW24892   3.529   5.538   1.303
 7998SOL    HW124893   3.626   5.564   1.307
 7998SOL    HW224894   3.494   5.527   1.395
 7999SOL     OW24895   1.462   0.042   5.879
 7999SOL    HW124896   1.421   0.013   5.966
 7999SOL    HW224897   1.389   0.053   5.811
 8000SOL     OW24898   5.113   0.357   0.604
 8000SOL    HW124899   5.206   0.323   0.591
 8000SOL    HW224900   5.068   0.368   0.516
 8001SOL     OW24901   3.395   5.738   1.160
 8001SOL    HW124902   3.425   5.666   1.222
 8001SOL    HW224903   3.401   5.706   1.065
 8002SOL     OW24904   0.666   2.381   6.019
 8002SOL    HW124905   0.720   2.330   5.951
 8002SOL    HW224906   0.569   2.369   5.999
 8003SOL     OW24907   2.601   4.558   2.714
 8003SOL    HW124908   2.595   4.460   2.732
 8003SOL    HW224909   2.658   4.601   2.783
 8004SOL     OW24910   1.814   3.845   3.601
 8004SOL    HW124911   1.913   3.857   3.615
 8004SOL    HW224912   1.796   3.749   3.578
 8005SOL     OW24913   3.256   1.388   2.654
 8005SOL    HW124914   3.169   1.357   2.615
 8005SOL    HW224915   3.316   1.420   2.580
 8006SOL     OW24916   2.531   6.782   6.829
 8006SOL    HW124917   2.585   6.717   6.775
 8006SOL    HW224918   2.492   6.852   6.769
 8007SOL     OW24919   0.416   0.460   4.314
 8007SOL    HW124920   0.493   0.402   4.288
 8007SOL    HW224921   0.435   0.554   4.288
 8008SOL     OW24922   4.167   6.600   5.681
 8008SOL    HW124923   4.252   6.653   5.686
 8008SOL    HW224924   4.184   6.514   5.634
 8009SOL     OW24925   5.991   0.366   2.731
 8009SOL    HW124926   5.926   0.355   2.807
 8009SOL    HW224927   5.951   0.427   2.662
 8010SOL     OW24928   1.334   1.200   0.821
 8010SOL    HW124929   1.372   1.285   0.858
 8010SOL    HW224930   1.311   1.212   0.725
 8011SOL     OW24931   3.314   2.419   1.259
 8011SOL    HW124932   3.334   2.481   1.335
 8011SOL    HW224933   3.235   2.362   1.282
 8012SOL     OW24934   2.011   5.785   1.643
 8012SOL    HW124935   2.023   5.795   1.544
 8012SOL    HW224936   2.096   5.812   1.689
 8013SOL     OW24937   1.256   4.704   4.032
 8013SOL    HW124938   1.170   4.676   3.989
 8013SOL    HW224939   1.325   4.634   4.015
 8014SOL     OW24940   1.014   5.963   5.564
 8014SOL    HW124941   1.096   5.994   5.515
 8014SOL    HW224942   0.964   6.043   5.598
 8015SOL     OW24943   3.185   1.525   0.211
 8015SOL    HW124944   3.130   1.461   0.265
 8015SOL    HW224945   3.277   1.488   0.198
 8016SOL     OW24946   4.656   0.081   6.940
 8016SOL    HW124947   4.601   7.026   6.952
 8016SOL    HW224948   4.663   0.130   7.027
 8017SOL     OW24949   6.372   6.289   0.132
 8017SOL    HW124950   6.332   6.373   0.097
 8017SOL    HW224951   6.461   6.274   0.089
 8018SOL     OW24952   3.403   2.407   6.038
 8018SOL    HW124953   3.313   2.364   6.048
 8018SOL    HW224954   3.399   2.476   5.966
 8019SOL     OW24955   2.289   3.802   6.819
 8019SOL    HW124956   2.372   3.748   6.830
 8019SOL    HW224957   2.312   3.891   6.779
 8020SOL     OW24958   6.726   5.817   0.711
 8020SOL    HW124959   6.649   5.879   0.699
 8020SOL    HW224960   6.754   5.780   0.623
 8021SOL     OW24961   1.284   1.769   1.519
 8021SOL    HW124962   1.381   1.771   1.493
 8021SOL    HW224963   1.233   1.714   1.452
 8022SOL     OW24964   4.224   0.135   2.782
 8022SOL    HW124965   4.311   0.111   2.825
 8022SOL    HW224966   4.207   0.233   2.792
 8023SOL     OW24967   5.665   5.002   3.178
 8023SOL    HW124968   5.584   4.945   3.181
 8023SOL    HW224969   5.652   5.081   3.239
 8024SOL     OW24970   3.132   4.911   0.373
 8024SOL    HW124971   3.100   4.822   0.339
 8024SOL    HW224972   3.110   4.919   0.470
 8025SOL     OW24973   2.513   6.098   6.857
 8025SOL    HW124974   2.481   6.084   6.763
 8025SOL    HW224975   2.470   6.179   6.895
 8026SOL     OW24976   1.003   4.654   6.641
 8026SOL    HW124977   0.995   4.562   6.679
 8026SOL    HW224978   0.930   4.669   6.574
 8027SOL     OW24979   4.328   2.049   5.278
 8027SOL    HW124980   4.261   1.980   5.307
 8027SOL    HW224981   4.346   2.038   5.181
 8028SOL     OW24982   2.545   5.115   5.144
 8028SOL    HW124983   2.582   5.108   5.052
 8028SOL    HW224984   2.459   5.166   5.141
 8029SOL     OW24985   4.933   3.347   0.377
 8029SOL    HW124986   5.020   3.388   0.404
 8029SOL    HW224987   4.885   3.408   0.314
 8030SOL     OW24988   4.707   4.207   0.059
 8030SOL    HW124989   4.801   4.236   0.073
 8030SOL    HW224990   4.651   4.240   0.135
 8031SOL     OW24991   4.558   6.270   2.881
 8031SOL    HW124992   4.474   6.294   2.832
 8031SOL    HW224993   4.607   6.199   2.830
 8032SOL     OW24994   5.679   4.271   6.100
 8032SOL    HW124995   5.735   4.218   6.163
 8032SOL    HW224996   5.727   4.281   6.013
 8033SOL     OW24997   5.058   3.735   6.465
 8033SOL    HW124998   4.990   3.799   6.430
 8033SOL    HW224999   5.015   3.676   6.534
 8034SOL     OW25000   6.767   0.976   5.345
 8034SOL    HW125001   6.699   0.998   5.415
 8034SOL    HW225002   6.798   0.881   5.357
 8035SOL     OW25003   5.054   0.898   5.450
 8035SOL    HW125004   5.144   0.940   5.461
 8035SOL    HW225005   4.992   0.963   5.406
 8036SOL     OW25006   0.466   4.249   2.453
 8036SOL    HW125007   0.493   4.174   2.513
 8036SOL    HW225008   0.366   4.258   2.453
 8037SOL     OW25009   1.963   3.054   1.618
 8037SOL    HW125010   1.996   3.148   1.605
 8037SOL    HW225011   1.913   3.048   1.705
 8038SOL     OW25012   4.437   1.161   3.108
 8038SOL    HW125013   4.450   1.131   3.203
 8038SOL    HW225014   4.406   1.256   3.107
 8039SOL     OW25015   1.185   0.742   4.107
 8039SOL    HW125016   1.256   0.686   4.064
 8039SOL    HW225017   1.180   0.831   4.061
 8040SOL     OW25018   1.227   6.232   0.961
 8040SOL    HW125019   1.127   6.237   0.964
 8040SOL    HW225020   1.260   6.271   0.876
 8041SOL     OW25021   2.999   1.549   2.074
 8041SOL    HW125022   2.938   1.523   2.149
 8041SOL    HW225023   3.004   1.648   2.066
 8042SOL     OW25024   3.533   2.932   3.868
 8042SOL    HW125025   3.509   2.869   3.795
 8042SOL    HW225026   3.585   3.009   3.830
 8043SOL     OW25027   3.609   0.131   2.263
 8043SOL    HW125028   3.701   0.092   2.267
 8043SOL    HW225029   3.569   0.111   2.174
 8044SOL     OW25030   3.738   3.408   0.472
 8044SOL    HW125031   3.780   3.328   0.515
 8044SOL    HW225032   3.799   3.442   0.400
 8045SOL     OW25033   5.418   0.250   1.437
 8045SOL    HW125034   5.378   0.254   1.528
 8045SOL    HW225035   5.349   0.218   1.371
 8046SOL     OW25036   6.502   5.323   0.065
 8046SOL    HW125037   6.566   5.268   0.012
 8046SOL    HW225038   6.546   5.410   0.089
 8047SOL     OW25039   4.027   5.130   4.568
 8047SOL    HW125040   4.072   5.220   4.564
 8047SOL    HW225041   4.089   5.061   4.530
 8048SOL     OW25042   5.624   0.990   5.944
 8048SOL    HW125043   5.543   1.048   5.938
 8048SOL    HW225044   5.702   1.045   5.974
 8049SOL     OW25045   1.780   0.250   0.765
 8049SOL    HW125046   1.749   0.300   0.845
 8049SOL    HW225047   1.703   0.203   0.722
 8050SOL     OW25048   1.447   3.725   1.758
 8050SOL    HW125049   1.511   3.753   1.829
 8050SOL    HW225050   1.361   3.776   1.768
 8051SOL     OW25051   4.494   5.875   3.216
 8051SOL    HW125052   4.502   5.953   3.153
 8051SOL    HW225053   4.435   5.901   3.292
 8052SOL     OW25054   4.347   1.677   2.031
 8052SOL    HW125055   4.382   1.771   2.030
 8052SOL    HW225056   4.369   1.634   2.118
 8053SOL     OW25057   3.675   3.525   3.624
 8053SOL    HW125058   3.738   3.456   3.589
 8053SOL    HW225059   3.685   3.532   3.724
 8054SOL     OW25060   5.106   0.175   4.521
 8054SOL    HW125061   5.152   0.116   4.455
 8054SOL    HW225062   5.011   0.146   4.532
 8055SOL     OW25063   6.994   0.220   6.181
 8055SOL    HW125064   6.953   0.131   6.162
 8055SOL    HW225065   6.933   0.292   6.147
 8056SOL     OW25066   4.459   2.174   4.261
 8056SOL    HW125067   4.549   2.148   4.227
 8056SOL    HW225068   4.400   2.093   4.263
 8057SOL     OW25069   2.958   2.228   3.157
 8057SOL    HW125070   2.888   2.259   3.221
 8057SOL    HW225071   2.935   2.136   3.124
 8058SOL     OW25072   4.734   0.533   2.998
 8058SOL    HW125073   4.825   0.501   2.971
 8058SOL    HW225074   4.687   0.461   3.049
 8059SOL     OW25075   4.565   2.623   4.603
 8059SOL    HW125076   4.521   2.561   4.668
 8059SOL    HW225077   4.496   2.673   4.551
 8060SOL     OW25078   0.453   2.466   4.377
 8060SOL    HW125079   0.371   2.423   4.417
 8060SOL    HW225080   0.516   2.395   4.345
 8061SOL     OW25081   6.741   6.961   1.677
 8061SOL    HW125082   6.766   0.030   1.677
 8061SOL    HW225083   6.712   6.934   1.769
 8062SOL     OW25084   2.797   4.776   4.369
 8062SOL    HW125085   2.758   4.790   4.460
 8062SOL    HW225086   2.724   4.758   4.304
 8063SOL     OW25087   0.813   2.825   0.680
 8063SOL    HW125088   0.774   2.740   0.646
 8063SOL    HW225089   0.769   2.850   0.766
 8064SOL     OW25090   0.072   5.294   0.723
 8064SOL    HW125091   0.055   5.238   0.804
 8064SOL    HW225092   0.127   5.373   0.749
 8065SOL     OW25093   4.202   6.275   4.221
 8065SOL    HW125094   4.127   6.331   4.254
 8065SOL    HW225095   4.227   6.302   4.129
 8066SOL     OW25096   0.884   2.041   6.197
 8066SOL    HW125097   0.957   2.082   6.141
 8066SOL    HW225098   0.920   1.960   6.243
 8067SOL     OW25099   4.734   3.243   1.721
 8067SOL    HW125100   4.707   3.158   1.766
 8067SOL    HW225101   4.671   3.316   1.748
 8068SOL     OW25102   5.862   4.613   0.379
 8068SOL    HW125103   5.912   4.663   0.308
 8068SOL    HW225104   5.913   4.530   0.403
 8069SOL     OW25105   2.030   5.783   1.347
 8069SOL    HW125106   2.098   5.710   1.335
 8069SOL    HW225107   1.962   5.777   1.274
 8070SOL     OW25108   2.931   2.868   0.129
 8070SOL    HW125109   2.930   2.782   0.180
 8070SOL    HW225110   2.875   2.859   0.047
 8071SOL     OW25111   2.754   6.309   4.915
 8071SOL    HW125112   2.792   6.323   5.006
 8071SOL    HW225113   2.670   6.362   4.906
 8072SOL     OW25114   3.258   0.707   6.734
 8072SOL    HW125115   3.222   0.647   6.806
 8072SOL    HW225116   3.227   0.674   6.645
 8073SOL     OW25117   4.267   5.863   5.893
 8073SOL    HW125118   4.252   5.768   5.918
 8073SOL    HW225119   4.199   5.920   5.939
 8074SOL     OW25120   3.289   2.572   0.171
 8074SOL    HW125121   3.210   2.520   0.138
 8074SOL    HW225122   3.267   2.612   0.261
 8075SOL     OW25123   6.412   1.145   1.181
 8075SOL    HW125124   6.348   1.077   1.143
 8075SOL    HW225125   6.471   1.101   1.248
 8076SOL     OW25126   5.254   2.523   5.666
 8076SOL    HW125127   5.247   2.602   5.727
 8076SOL    HW225128   5.349   2.490   5.665
 8077SOL     OW25129   1.139   5.483   2.003
 8077SOL    HW125130   1.238   5.493   2.015
 8077SOL    HW225131   1.114   5.386   2.006
 8078SOL     OW25132   5.926   1.102   0.609
 8078SOL    HW125133   5.866   1.148   0.544
 8078SOL    HW225134   5.936   1.006   0.582
 8079SOL     OW25135   5.258   1.776   3.238
 8079SOL    HW125136   5.238   1.695   3.292
 8079SOL    HW225137   5.355   1.775   3.211
 8080SOL     OW25138   0.195   3.597   0.272
 8080SOL    HW125139   0.246   3.609   0.357
 8080SOL    HW225140   0.254   3.616   0.194
 8081SOL     OW25141   4.851   0.120   4.600
 8081SOL    HW125142   4.834   0.083   4.691
 8081SOL    HW225143   4.775   0.095   4.539
 8082SOL     OW25144   6.141   0.619   1.710
 8082SOL    HW125145   6.171   0.619   1.806
 8082SOL    HW225146   6.214   0.583   1.652
 8083SOL     OW25147   5.358   3.753   2.702
 8083SOL    HW125148   5.369   3.778   2.606
 8083SOL    HW225149   5.405   3.667   2.720
 8084SOL     OW25150   5.302   0.026   0.399
 8084SOL    HW125151   5.300   6.958   0.430
 8084SOL    HW225152   5.335   0.084   0.473
 8085SOL     OW25153   6.343   0.071   2.619
 8085SOL    HW125154   6.251   0.048   2.588
 8085SOL    HW225155   6.350   0.056   2.717
 8086SOL     OW25156   4.670   1.077   4.092
 8086SOL    HW125157   4.726   1.120   4.163
 8086SOL    HW225158   4.721   1.003   4.049
 8087SOL     OW25159   2.779   1.987   0.805
 8087SOL    HW125160   2.838   1.925   0.754
 8087SOL    HW225161   2.830   2.026   0.882
 8088SOL     OW25162   5.751   2.069   1.333
 8088SOL    HW125163   5.743   2.092   1.430
 8088SOL    HW225164   5.794   2.146   1.285
 8089SOL     OW25165   4.938   2.885   0.689
 8089SOL    HW125166   4.965   2.803   0.739
 8089SOL    HW225167   4.859   2.927   0.733
 8090SOL     OW25168   3.943   2.560   6.833
 8090SOL    HW125169   3.935   2.527   6.927
 8090SOL    HW225170   3.999   2.643   6.831
 8091SOL     OW25171   2.618   3.960   0.015
 8091SOL    HW125172   2.546   4.024   0.041
 8091SOL    HW225173   2.655   3.987   6.953
 8092SOL     OW25174   1.187   2.241   4.923
 8092SOL    HW125175   1.166   2.266   4.829
 8092SOL    HW225176   1.154   2.312   4.985
 8093SOL     OW25177   4.821   5.636   1.786
 8093SOL    HW125178   4.795   5.571   1.715
 8093SOL    HW225179   4.741   5.656   1.844
 8094SOL     OW25180   1.402   4.031   4.359
 8094SOL    HW125181   1.411   3.952   4.298
 8094SOL    HW225182   1.457   4.016   4.441
 8095SOL     OW25183   6.035   4.174   4.253
 8095SOL    HW125184   6.088   4.257   4.271
 8095SOL    HW225185   5.938   4.195   4.255
 8096SOL     OW25186   3.096   5.683   3.855
 8096SOL    HW125187   3.161   5.609   3.835
 8096SOL    HW225188   3.026   5.650   3.917
 8097SOL     OW25189   5.036   6.643   3.250
 8097SOL    HW125190   5.002   6.707   3.320
 8097SOL    HW225191   4.970   6.638   3.175
 8098SOL     OW25192   2.360   6.795   3.845
 8098SOL    HW125193   2.393   6.887   3.824
 8098SOL    HW225194   2.264   6.800   3.874
 8099SOL     OW25195   5.467   6.937   3.845
 8099SOL    HW125196   5.537   6.865   3.842
 8099SOL    HW225197   5.377   6.895   3.852
 8100SOL     OW25198   6.758   6.791   6.779
 8100SOL    HW125199   6.811   6.786   6.694
 8100SOL    HW225200   6.726   6.699   6.803
 8101SOL     OW25201   2.049   0.143   3.842
 8101SOL    HW125202   1.966   0.198   3.852
 8101SOL    HW225203   2.113   0.166   3.915
 8102SOL     OW25204   1.372   4.861   4.609
 8102SOL    HW125205   1.281   4.896   4.633
 8102SOL    HW225206   1.393   4.887   4.515
 8103SOL     OW25207   4.357   0.695   0.940
 8103SOL    HW125208   4.321   0.678   0.849
 8103SOL    HW225209   4.424   0.625   0.964
 8104SOL     OW25210   2.434   6.512   6.115
 8104SOL    HW125211   2.364   6.516   6.044
 8104SOL    HW225212   2.524   6.527   6.073
 8105SOL     OW25213   1.991   2.233   2.917
 8105SOL    HW125214   2.039   2.161   2.967
 8105SOL    HW225215   1.898   2.241   2.952
 8106SOL     OW25216   2.847   5.746   3.438
 8106SOL    HW125217   2.853   5.769   3.535
 8106SOL    HW225218   2.939   5.730   3.402
 8107SOL     OW25219   1.358   5.903   4.988
 8107SOL    HW125220   1.447   5.859   4.981
 8107SOL    HW225221   1.368   6.001   4.969
 8108SOL     OW25222   5.630   3.228   4.919
 8108SOL    HW125223   5.707   3.286   4.890
 8108SOL    HW225224   5.660   3.169   4.994
 8109SOL     OW25225   0.903   3.996   4.037
 8109SOL    HW125226   0.898   4.022   3.940
 8109SOL    HW225227   0.818   3.949   4.063
 8110SOL     OW25228   3.608   6.288   1.116
 8110SOL    HW125229   3.678   6.274   1.186
 8110SOL    HW225230   3.644   6.350   1.045
 8111SOL     OW25231   4.208   1.002   5.243
 8111SOL    HW125232   4.274   0.927   5.242
 8111SOL    HW225233   4.115   0.964   5.239
 8112SOL     OW25234   1.501   1.749   4.344
 8112SOL    HW125235   1.519   1.846   4.363
 8112SOL    HW225236   1.496   1.698   4.430
 8113SOL     OW25237   2.894   3.481   0.398
 8113SOL    HW125238   2.905   3.563   0.455
 8113SOL    HW225239   2.856   3.408   0.454
 8114SOL     OW25240   2.037   3.312   1.583
 8114SOL    HW125241   1.943   3.346   1.581
 8114SOL    HW225242   2.087   3.347   1.504
 8115SOL     OW25243   4.096   1.286   1.691
 8115SOL    HW125244   4.144   1.327   1.768
 8115SOL    HW225245   4.002   1.320   1.689
 8116SOL     OW25246   4.824   0.468   4.998
 8116SOL    HW125247   4.733   0.428   4.988
 8116SOL    HW225248   4.887   0.400   5.034
 8117SOL     OW25249   2.167   1.164   4.460
 8117SOL    HW125250   2.148   1.259   4.436
 8117SOL    HW225251   2.225   1.122   4.391
 8118SOL     OW25252   6.481   3.203   5.773
 8118SOL    HW125253   6.511   3.168   5.862
 8118SOL    HW225254   6.560   3.239   5.723
 8119SOL     OW25255   6.285   5.714   5.238
 8119SOL    HW125256   6.252   5.777   5.169
 8119SOL    HW225257   6.236   5.627   5.231
 8120SOL     OW25258   3.411   4.555   6.803
 8120SOL    HW125259   3.505   4.569   6.833
 8120SOL    HW225260   3.408   4.552   6.703
 8121SOL     OW25261   6.996   5.426   2.799
 8121SOL    HW125262   6.933   5.411   2.875
 8121SOL    HW225263   6.974   5.362   2.725
 8122SOL     OW25264   1.078   5.624   2.588
 8122SOL    HW125265   1.145   5.605   2.660
 8122SOL    HW225266   1.034   5.712   2.606
 8123SOL     OW25267   0.144   0.093   6.789
 8123SOL    HW125268   0.170   0.187   6.767
 8123SOL    HW225269   0.211   0.053   6.851
 8124SOL     OW25270   0.110   6.546   1.216
 8124SOL    HW125271   0.092   6.637   1.253
 8124SOL    HW225272   0.187   6.505   1.265
 8125SOL     OW25273   0.844   6.762   3.248
 8125SOL    HW125274   0.801   6.697   3.185
 8125SOL    HW225275   0.896   6.829   3.195
 8126SOL     OW25276   6.212   3.837   2.263
 8126SOL    HW125277   6.230   3.776   2.186
 8126SOL    HW225278   6.148   3.909   2.235
 8127SOL     OW25279   2.212   6.196   0.551
 8127SOL    HW125280   2.302   6.229   0.524
 8127SOL    HW225281   2.184   6.122   0.489
 8128SOL     OW25282   2.673   3.240   0.900
 8128SOL    HW125283   2.751   3.179   0.884
 8128SOL    HW225284   2.657   3.250   0.998
 8129SOL     OW25285   4.112   1.385   5.923
 8129SOL    HW125286   4.136   1.482   5.936
 8129SOL    HW225287   4.187   1.328   5.954
 8130SOL     OW25288   0.568   4.922   6.117
 8130SOL    HW125289   0.558   4.908   6.019
 8130SOL    HW225290   0.517   4.851   6.166
 8131SOL     OW25291   2.793   0.968   0.903
 8131SOL    HW125292   2.790   0.917   0.989
 8131SOL    HW225293   2.876   0.942   0.852
 8132SOL     OW25294   5.888   6.638   6.110
 8132SOL    HW125295   5.837   6.658   6.026
 8132SOL    HW225296   5.978   6.682   6.105
 8133SOL     OW25297   3.594   4.998   1.840
 8133SOL    HW125298   3.622   4.907   1.870
 8133SOL    HW225299   3.609   5.007   1.742
 8134SOL     OW25300   0.804   1.511   4.289
 8134SOL    HW125301   0.798   1.487   4.385
 8134SOL    HW225302   0.876   1.580   4.276
 8135SOL     OW25303   2.430   5.492   1.323
 8135SOL    HW125304   2.503   5.430   1.298
 8135SOL    HW225305   2.385   5.459   1.406
 8136SOL     OW25306   4.656   4.330   2.841
 8136SOL    HW125307   4.715   4.411   2.848
 8136SOL    HW225308   4.564   4.353   2.871
 8137SOL     OW25309   2.150   1.408   4.270
 8137SOL    HW125310   2.209   1.343   4.223
 8137SOL    HW225311   2.182   1.502   4.254
 8138SOL     OW25312   5.367   2.267   0.550
 8138SOL    HW125313   5.336   2.252   0.644
 8138SOL    HW225314   5.393   2.179   0.509
 8139SOL     OW25315   1.990   2.594   3.416
 8139SOL    HW125316   2.040   2.567   3.499
 8139SOL    HW225317   1.892   2.575   3.429
 8140SOL     OW25318   3.631   0.039   0.643
 8140SOL    HW125319   3.653   0.115   0.704
 8140SOL    HW225320   3.599   0.075   0.555
 8141SOL     OW25321   4.431   7.017   5.587
 8141SOL    HW125322   4.381   6.931   5.595
 8141SOL    HW225323   4.519   7.009   5.634
 8142SOL     OW25324   1.786   4.998   0.398
 8142SOL    HW125325   1.838   4.913   0.406
 8142SOL    HW225326   1.780   5.024   0.301
 8143SOL     OW25327   5.668   5.081   0.604
 8143SOL    HW125328   5.609   5.007   0.574
 8143SOL    HW225329   5.618   5.141   0.666
 8144SOL     OW25330   0.837   5.692   5.813
 8144SOL    HW125331   0.841   5.597   5.843
 8144SOL    HW225332   0.766   5.741   5.864
 8145SOL     OW25333   5.329   5.522   1.037
 8145SOL    HW125334   5.381   5.441   1.065
 8145SOL    HW225335   5.392   5.588   0.995
 8146SOL     OW25336   5.752   0.496   5.745
 8146SOL    HW125337   5.736   0.511   5.647
 8146SOL    HW225338   5.849   0.482   5.761
 8147SOL     OW25339   6.552   0.680   0.831
 8147SOL    HW125340   6.579   0.747   0.761
 8147SOL    HW225341   6.587   0.590   0.807
 8148SOL     OW25342   4.194   5.001   6.688
 8148SOL    HW125343   4.286   5.001   6.649
 8148SOL    HW225344   4.199   4.977   6.785
 8149SOL     OW25345   1.611   6.771   3.133
 8149SOL    HW125346   1.661   6.751   3.049
 8149SOL    HW225347   1.675   6.796   3.205
 8150SOL     OW25348   0.730   4.173   0.781
 8150SOL    HW125349   0.737   4.089   0.728
 8150SOL    HW225350   0.667   4.159   0.858
 8151SOL     OW25351   5.664   5.363   3.609
 8151SOL    HW125352   5.673   5.282   3.667
 8151SOL    HW225353   5.728   5.434   3.641
 8152SOL     OW25354   6.580   3.414   3.146
 8152SOL    HW125355   6.509   3.382   3.085
 8152SOL    HW225356   6.650   3.462   3.094
 8153SOL     OW25357   0.962   1.365   3.235
 8153SOL    HW125358   1.061   1.357   3.242
 8153SOL    HW225359   0.922   1.363   3.327
 8154SOL     OW25360   3.707   6.499   2.806
 8154SOL    HW125361   3.740   6.590   2.832
 8154SOL    HW225362   3.702   6.440   2.886
 8155SOL     OW25363   1.638   3.790   1.989
 8155SOL    HW125364   1.638   3.725   2.065
 8155SOL    HW225365   1.731   3.800   1.953
 8156SOL     OW25366   4.512   6.298   0.711
 8156SOL    HW125367   4.413   6.284   0.712
 8156SOL    HW225368   4.557   6.214   0.681
 8157SOL     OW25369   6.227   4.831   6.523
 8157SOL    HW125370   6.204   4.922   6.557
 8157SOL    HW225371   6.217   4.830   6.423
 8158SOL     OW25372   5.019   4.138   0.210
 8158SOL    HW125373   5.017   4.160   0.113
 8158SOL    HW225374   5.110   4.103   0.234
 8159SOL     OW25375   3.000   5.575   4.545
 8159SOL    HW125376   3.046   5.639   4.607
 8159SOL    HW225377   3.066   5.507   4.512
 8160SOL     OW25378   4.628   0.279   3.723
 8160SOL    HW125379   4.720   0.268   3.686
 8160SOL    HW225380   4.629   0.351   3.793
 8161SOL     OW25381   5.688   3.850   6.504
 8161SOL    HW125382   5.732   3.832   6.592
 8161SOL    HW225383   5.628   3.774   6.480
 8162SOL     OW25384   6.554   5.728   6.648
 8162SOL    HW125385   6.573   5.786   6.569
 8162SOL    HW225386   6.526   5.637   6.617
 8163SOL     OW25387   2.199   4.312   5.578
 8163SOL    HW125388   2.146   4.281   5.499
 8163SOL    HW225389   2.167   4.402   5.606
 8164SOL     OW25390   4.228   1.518   0.592
 8164SOL    HW125391   4.221   1.419   0.575
 8164SOL    HW225392   4.321   1.548   0.571
 8165SOL     OW25393   6.613   4.006   6.086
 8165SOL    HW125394   6.663   3.938   6.139
 8165SOL    HW225395   6.516   3.982   6.083
 8166SOL     OW25396   1.218   0.726   3.175
 8166SOL    HW125397   1.142   0.671   3.207
 8166SOL    HW225398   1.197   0.765   3.086
 8167SOL     OW25399   0.370   0.651   3.336
 8167SOL    HW125400   0.435   0.677   3.407
 8167SOL    HW225401   0.418   0.638   3.249
 8168SOL     OW25402   2.626   0.556   1.663
 8168SOL    HW125403   2.682   0.550   1.580
 8168SOL    HW225404   2.624   0.467   1.708
 8169SOL     OW25405   4.355   2.313   0.264
 8169SOL    HW125406   4.449   2.304   0.232
 8169SOL    HW225407   4.293   2.273   0.196
 8170SOL     OW25408   6.820   4.720   1.571
 8170SOL    HW125409   6.836   4.638   1.516
 8170SOL    HW225410   6.841   4.801   1.516
 8171SOL     OW25411   2.240   1.348   6.330
 8171SOL    HW125412   2.257   1.353   6.428
 8171SOL    HW225413   2.162   1.406   6.306
 8172SOL     OW25414   6.883   2.130   2.030
 8172SOL    HW125415   6.966   2.185   2.040
 8172SOL    HW225416   6.905   2.034   2.046
 8173SOL     OW25417   5.490   1.821   2.162
 8173SOL    HW125418   5.544   1.765   2.100
 8173SOL    HW225419   5.446   1.762   2.230
 8174SOL     OW25420   0.873   6.887   2.655
 8174SOL    HW125421   0.934   6.900   2.577
 8174SOL    HW225422   0.804   6.819   2.633
 8175SOL     OW25423   0.229   2.901   4.724
 8175SOL    HW125424   0.140   2.936   4.694
 8175SOL    HW225425   0.243   2.926   4.820
 8176SOL     OW25426   2.373   4.788   1.433
 8176SOL    HW125427   2.394   4.692   1.452
 8176SOL    HW225428   2.325   4.828   1.511
 8177SOL     OW25429   5.072   0.830   3.755
 8177SOL    HW125430   5.132   0.784   3.821
 8177SOL    HW225431   5.105   0.814   3.662
 8178SOL     OW25432   2.974   6.671   0.925
 8178SOL    HW125433   2.891   6.618   0.907
 8178SOL    HW225434   3.054   6.620   0.896
 8179SOL     OW25435   5.479   1.212   5.216
 8179SOL    HW125436   5.524   1.160   5.143
 8179SOL    HW225437   5.440   1.296   5.178
 8180SOL     OW25438   6.519   0.609   6.448
 8180SOL    HW125439   6.531   0.618   6.546
 8180SOL    HW225440   6.512   0.512   6.424
 8181SOL     OW25441   1.552   1.481   0.629
 8181SOL    HW125442   1.575   1.579   0.627
 8181SOL    HW225443   1.606   1.436   0.700
 8182SOL     OW25444   2.846   3.386   5.523
 8182SOL    HW125445   2.786   3.310   5.546
 8182SOL    HW225446   2.936   3.351   5.496
 8183SOL     OW25447   6.697   2.216   4.826
 8183SOL    HW125448   6.684   2.302   4.874
 8183SOL    HW225449   6.669   2.227   4.730
 8184SOL     OW25450   0.315   6.980   0.426
 8184SOL    HW125451   0.217   6.981   0.406
 8184SOL    HW225452   0.335   6.904   0.487
 8185SOL     OW25453   1.681   0.366   0.201
 8185SOL    HW125454   1.635   0.292   0.152
 8185SOL    HW225455   1.737   0.328   0.275
 8186SOL     OW25456   2.843   4.518   5.775
 8186SOL    HW125457   2.835   4.485   5.869
 8186SOL    HW225458   2.784   4.598   5.762
 8187SOL     OW25459   1.991   1.006   4.856
 8187SOL    HW125460   2.013   0.914   4.888
 8187SOL    HW225461   2.050   1.072   4.901
 8188SOL     OW25462   4.893   3.484   3.839
 8188SOL    HW125463   4.811   3.541   3.833
 8188SOL    HW225464   4.890   3.414   3.768
 8189SOL     OW25465   5.252   4.969   3.059
 8189SOL    HW125466   5.335   4.972   3.004
 8189SOL    HW225467   5.202   4.884   3.040
 8190SOL     OW25468   4.986   3.892   3.929
 8190SOL    HW125469   5.003   3.812   3.870
 8190SOL    HW225470   5.072   3.940   3.945
 8191SOL     OW25471   3.452   5.409   2.502
 8191SOL    HW125472   3.444   5.485   2.437
 8191SOL    HW225473   3.405   5.433   2.587
 8192SOL     OW25474   2.123   5.499   1.767
 8192SOL    HW125475   2.081   5.584   1.736
 8192SOL    HW225476   2.163   5.511   1.857
 8193SOL     OW25477   6.377   5.559   5.742
 8193SOL    HW125478   6.296   5.604   5.704
 8193SOL    HW225479   6.372   5.461   5.725
 8194SOL     OW25480   4.903   0.529   1.271
 8194SOL    HW125481   4.978   0.510   1.335
 8194SOL    HW225482   4.936   0.591   1.199
 8195SOL     OW25483   0.029   7.022   2.979
 8195SOL    HW125484   6.965   6.981   2.983
 8195SOL    HW225485   0.048   0.025   2.885
 8196SOL     OW25486   3.894   6.197   6.909
 8196SOL    HW125487   3.810   6.197   6.854
 8196SOL    HW225488   3.902   6.284   6.957
 8197SOL     OW25489   3.102   0.966   0.310
 8197SOL    HW125490   3.184   0.918   0.277
 8197SOL    HW225491   3.128   1.027   0.384
 8198SOL     OW25492   3.346   6.383   2.635
 8198SOL    HW125493   3.368   6.345   2.725
 8198SOL    HW225494   3.426   6.428   2.597
 8199SOL     OW25495   5.776   3.182   5.772
 8199SOL    HW125496   5.749   3.119   5.699
 8199SOL    HW225497   5.824   3.131   5.844
 8200SOL     OW25498   5.636   4.659   1.847
 8200SOL    HW125499   5.573   4.604   1.902
 8200SOL    HW225500   5.584   4.730   1.799
 8201SOL     OW25501   5.949   0.882   4.907
 8201SOL    HW125502   6.012   0.908   4.980
 8201SOL    HW225503   5.929   0.784   4.913
 8202SOL     OW25504   0.578   5.621   3.778
 8202SOL    HW125505   0.591   5.632   3.680
 8202SOL    HW225506   0.525   5.538   3.796
 8203SOL     OW25507   3.127   2.700   6.701
 8203SOL    HW125508   3.190   2.651   6.763
 8203SOL    HW225509   3.052   2.639   6.676
 8204SOL     OW25510   3.955   4.663   0.095
 8204SOL    HW125511   3.884   4.657   0.165
 8204SOL    HW225512   3.913   4.662   0.004
 8205SOL     OW25513   0.310   4.510   6.786
 8205SOL    HW125514   0.298   4.558   6.698
 8205SOL    HW225515   0.248   4.431   6.789
 8206SOL     OW25516   4.919   2.107   6.959
 8206SOL    HW125517   4.837   2.070   7.003
 8206SOL    HW225518   4.929   2.068   6.868
 8207SOL     OW25519   2.968   3.212   4.520
 8207SOL    HW125520   2.967   3.178   4.614
 8207SOL    HW225521   2.991   3.137   4.458
 8208SOL     OW25522   1.036   0.705   0.995
 8208SOL    HW125523   1.057   0.689   1.091
 8208SOL    HW225524   1.116   0.683   0.939
 8209SOL     OW25525   0.421   1.547   5.076
 8209SOL    HW125526   0.380   1.607   5.144
 8209SOL    HW225527   0.365   1.546   4.993
 8210SOL     OW25528   2.536   1.798   0.378
 8210SOL    HW125529   2.577   1.889   0.383
 8210SOL    HW225530   2.442   1.805   0.343
 8211SOL     OW25531   3.792   4.468   1.456
 8211SOL    HW125532   3.730   4.393   1.429
 8211SOL    HW225533   3.758   4.510   1.540
 8212SOL     OW25534   2.370   2.461   2.349
 8212SOL    HW125535   2.349   2.478   2.253
 8212SOL    HW225536   2.466   2.436   2.358
 8213SOL     OW25537   6.561   4.359   1.732
 8213SOL    HW125538   6.506   4.433   1.692
 8213SOL    HW225539   6.618   4.396   1.805
 8214SOL     OW25540   6.042   5.657   3.787
 8214SOL    HW125541   5.945   5.644   3.768
 8214SOL    HW225542   6.085   5.568   3.802
 8215SOL     OW25543   2.991   5.399   5.994
 8215SOL    HW125544   3.086   5.430   5.997
 8215SOL    HW225545   2.930   5.478   6.009
 8216SOL     OW25546   5.378   5.226   3.873
 8216SOL    HW125547   5.400   5.129   3.887
 8216SOL    HW225548   5.410   5.278   3.952
 8217SOL     OW25549   1.443   4.647   0.469
 8217SOL    HW125550   1.473   4.573   0.530
 8217SOL    HW225551   1.492   4.731   0.493
 8218SOL     OW25552   0.151   6.872   6.677
 8218SOL    HW125553   0.141   6.965   6.712
 8218SOL    HW225554   0.077   6.852   6.613
 8219SOL     OW25555   4.440   2.621   0.849
 8219SOL    HW125556   4.348   2.582   0.844
 8219SOL    HW225557   4.503   2.564   0.796
 8220SOL     OW25558   3.873   2.955   3.350
 8220SOL    HW125559   3.954   2.897   3.353
 8220SOL    HW225560   3.831   2.949   3.259
 8221SOL     OW25561   5.424   6.624   3.870
 8221SOL    HW125562   5.384   6.560   3.805
 8221SOL    HW225563   5.518   6.646   3.843
 8222SOL     OW25564   5.546   1.024   1.529
 8222SOL    HW125565   5.623   1.028   1.592
 8222SOL    HW225566   5.569   1.073   1.445
 8223SOL     OW25567   1.115   4.776   5.487
 8223SOL    HW125568   1.199   4.794   5.538
 8223SOL    HW225569   1.127   4.694   5.431
 8224SOL     OW25570   6.097   0.993   2.590
 8224SOL    HW125571   6.173   1.041   2.547
 8224SOL    HW225572   6.114   0.895   2.588
 8225SOL     OW25573   3.116   1.532   0.633
 8225SOL    HW125574   3.193   1.471   0.613
 8225SOL    HW225575   3.135   1.585   0.715
 8226SOL     OW25576   4.105   6.856   1.247
 8226SOL    HW125577   4.059   6.769   1.229
 8226SOL    HW225578   4.066   6.898   1.329
 8227SOL     OW25579   6.779   1.766   3.034
 8227SOL    HW125580   6.766   1.787   2.937
 8227SOL    HW225581   6.778   1.667   3.048
 8228SOL     OW25582   6.519   2.172   5.664
 8228SOL    HW125583   6.508   2.254   5.722
 8228SOL    HW225584   6.566   2.198   5.579
 8229SOL     OW25585   4.173   3.167   0.699
 8229SOL    HW125586   4.242   3.098   0.677
 8229SOL    HW225587   4.203   3.256   0.666
 8230SOL     OW25588   4.249   0.175   5.632
 8230SOL    HW125589   4.322   0.107   5.620
 8230SOL    HW225590   4.285   0.254   5.681
 8231SOL     OW25591   3.490   4.704   0.974
 8231SOL    HW125592   3.441   4.619   0.988
 8231SOL    HW225593   3.442   4.779   1.019
 8232SOL     OW25594   5.156   1.232   2.179
 8232SOL    HW125595   5.076   1.173   2.171
 8232SOL    HW225596   5.229   1.199   2.119
 8233SOL     OW25597   1.367   6.179   6.376
 8233SOL    HW125598   1.273   6.207   6.393
 8233SOL    HW225599   1.375   6.146   6.282
 8234SOL     OW25600   2.857   4.409   6.655
 8234SOL    HW125601   2.858   4.347   6.733
 8234SOL    HW225602   2.820   4.363   6.575
 8235SOL     OW25603   0.728   3.346   0.235
 8235SOL    HW125604   0.820   3.328   0.199
 8235SOL    HW225605   0.713   3.445   0.240
 8236SOL     OW25606   0.557   4.759   0.742
 8236SOL    HW125607   0.499   4.746   0.661
 8236SOL    HW225608   0.584   4.670   0.778
 8237SOL     OW25609   4.259   6.806   4.673
 8237SOL    HW125610   4.210   6.835   4.591
 8237SOL    HW225611   4.259   6.880   4.740
 8238SOL     OW25612   0.748   5.234   6.297
 8238SOL    HW125613   0.809   5.289   6.240
 8238SOL    HW225614   0.798   5.156   6.336
 8239SOL     OW25615   6.440   1.587   6.087
 8239SOL    HW125616   6.366   1.557   6.148
 8239SOL    HW225617   6.430   1.685   6.068
 8240SOL     OW25618   3.559   4.130   2.741
 8240SOL    HW125619   3.534   4.197   2.812
 8240SOL    HW225620   3.619   4.061   2.781
 8241SOL     OW25621   4.105   0.199   6.129
 8241SOL    HW125622   4.101   0.237   6.036
 8241SOL    HW225623   4.059   0.262   6.192
 8242SOL     OW25624   0.520   4.831   5.877
 8242SOL    HW125625   0.545   4.747   5.829
 8242SOL    HW225626   0.490   4.900   5.810
 8243SOL     OW25627   0.619   2.344   0.673
 8243SOL    HW125628   0.632   2.443   0.666
 8243SOL    HW225629   0.542   2.316   0.615
 8244SOL     OW25630   0.161   0.818   4.780
 8244SOL    HW125631   0.075   0.840   4.825
 8244SOL    HW225632   0.151   0.827   4.681
 8245SOL     OW25633   4.211   2.067   3.003
 8245SOL    HW125634   4.291   2.040   3.058
 8245SOL    HW225635   4.223   2.034   2.910
 8246SOL     OW25636   1.287   2.846   5.899
 8246SOL    HW125637   1.292   2.813   5.804
 8246SOL    HW225638   1.378   2.844   5.940
 8247SOL     OW25639   1.371   0.283   2.272
 8247SOL    HW125640   1.337   0.191   2.251
 8247SOL    HW225641   1.407   0.284   2.365
 8248SOL     OW25642   6.164   5.382   4.869
 8248SOL    HW125643   6.072   5.346   4.876
 8248SOL    HW225644   6.214   5.332   4.798
 8249SOL     OW25645   1.948   2.751   5.487
 8249SOL    HW125646   2.029   2.735   5.542
 8249SOL    HW225647   1.887   2.814   5.535
 8250SOL     OW25648   3.358   4.100   2.151
 8250SOL    HW125649   3.457   4.084   2.146
 8250SOL    HW225650   3.325   4.076   2.242
 8251SOL     OW25651   5.494   3.720   4.417
 8251SOL    HW125652   5.511   3.818   4.416
 8251SOL    HW225653   5.395   3.703   4.422
 8252SOL     OW25654   2.902   1.520   5.417
 8252SOL    HW125655   2.868   1.447   5.358
 8252SOL    HW225656   2.992   1.495   5.452
 8253SOL     OW25657   4.311   4.857   5.452
 8253SOL    HW125658   4.227   4.831   5.500
 8253SOL    HW225659   4.308   4.955   5.432
 8254SOL     OW25660   4.691   4.525   5.113
 8254SOL    HW125661   4.672   4.623   5.122
 8254SOL    HW225662   4.785   4.507   5.142
 8255SOL     OW25663   2.040   0.142   5.248
 8255SOL    HW125664   2.014   0.091   5.166
 8255SOL    HW225665   2.140   0.150   5.252
 8256SOL     OW25666   0.226   6.828   2.208
 8256SOL    HW125667   0.299   6.794   2.148
 8256SOL    HW225668   0.180   6.750   2.250
 8257SOL     OW25669   5.533   3.749   2.999
 8257SOL    HW125670   5.471   3.675   3.025
 8257SOL    HW225671   5.496   3.837   3.029
 8258SOL     OW25672   5.732   1.850   0.380
 8258SOL    HW125673   5.755   1.897   0.295
 8258SOL    HW225674   5.799   1.873   0.451
 8259SOL     OW25675   3.627   1.534   3.895
 8259SOL    HW125676   3.612   1.597   3.818
 8259SOL    HW225677   3.543   1.484   3.914
 8260SOL     OW25678   2.553   6.720   1.758
 8260SOL    HW125679   2.461   6.716   1.720
 8260SOL    HW225680   2.609   6.784   1.705
 8261SOL     OW25681   6.050   0.069   1.854
 8261SOL    HW125682   5.953   0.091   1.860
 8261SOL    HW225683   6.062   7.010   1.804
 8262SOL     OW25684   0.518   3.389   0.658
 8262SOL    HW125685   0.530   3.319   0.587
 8262SOL    HW225686   0.537   3.349   0.748
 8263SOL     OW25687   0.701   2.562   6.564
 8263SOL    HW125688   0.612   2.533   6.599
 8263SOL    HW225689   0.737   2.637   6.619
 8264SOL     OW25690   2.801   6.602   2.432
 8264SOL    HW125691   2.789   6.612   2.333
 8264SOL    HW225692   2.854   6.520   2.451
 8265SOL     OW25693   6.937   0.483   1.132
 8265SOL    HW125694   6.918   0.565   1.187
 8265SOL    HW225695   7.020   0.438   1.166
 8266SOL     OW25696   2.282   1.112   3.488
 8266SOL    HW125697   2.328   1.193   3.453
 8266SOL    HW225698   2.188   1.135   3.512
 8267SOL     OW25699   1.939   2.610   1.667
 8267SOL    HW125700   2.026   2.592   1.621
 8267SOL    HW225701   1.945   2.583   1.763
 8268SOL     OW25702   1.625   6.385   6.165
 8268SOL    HW125703   1.713   6.426   6.193
 8268SOL    HW225704   1.552   6.422   6.222
 8269SOL     OW25705   4.509   1.509   2.205
 8269SOL    HW125706   4.590   1.567   2.208
 8269SOL    HW225707   4.536   1.415   2.182
 8270SOL     OW25708   2.578   6.939   5.247
 8270SOL    HW125709   2.502   6.891   5.203
 8270SOL    HW225710   2.658   6.936   5.187
 8271SOL     OW25711   0.556   0.277   3.155
 8271SOL    HW125712   0.606   0.210   3.210
 8271SOL    HW225713   0.459   0.253   3.154
 8272SOL     OW25714   6.048   2.135   2.573
 8272SOL    HW125715   5.998   2.056   2.537
 8272SOL    HW225716   6.122   2.159   2.511
 8273SOL     OW25717   2.508   0.714   6.725
 8273SOL    HW125718   2.526   0.615   6.720
 8273SOL    HW225719   2.593   0.764   6.708
 8274SOL     OW25720   5.300   4.731   4.268
 8274SOL    HW125721   5.222   4.793   4.259
 8274SOL    HW225722   5.267   4.638   4.284
 8275SOL     OW25723   5.621   1.432   5.784
 8275SOL    HW125724   5.587   1.375   5.859
 8275SOL    HW225725   5.705   1.392   5.747
 8276SOL     OW25726   0.726   2.708   3.567
 8276SOL    HW125727   0.700   2.779   3.502
 8276SOL    HW225728   0.796   2.649   3.527
 8277SOL     OW25729   0.116   5.910   6.007
 8277SOL    HW125730   0.188   5.968   6.044
 8277SOL    HW225731   0.043   5.900   6.074
 8278SOL     OW25732   2.865   1.984   6.052
 8278SOL    HW125733   2.927   1.982   5.974
 8278SOL    HW225734   2.897   1.920   6.122
 8279SOL     OW25735   1.148   6.984   4.266
 8279SOL    HW125736   1.169   6.891   4.238
 8279SOL    HW225737   1.049   6.997   4.270
 8280SOL     OW25738   2.512   3.421   0.748
 8280SOL    HW125739   2.562   3.361   0.811
 8280SOL    HW225740   2.549   3.513   0.752
 8281SOL     OW25741   3.011   4.242   1.795
 8281SOL    HW125742   3.074   4.192   1.855
 8281SOL    HW225743   2.964   4.312   1.847
 8282SOL     OW25744   4.850   3.382   6.789
 8282SOL    HW125745   4.912   3.445   6.741
 8282SOL    HW225746   4.901   3.301   6.818
 8283SOL     OW25747   1.842   5.196   5.878
 8283SOL    HW125748   1.758   5.251   5.877
 8283SOL    HW225749   1.921   5.256   5.892
 8284SOL     OW25750   1.270   3.626   0.980
 8284SOL    HW125751   1.338   3.700   0.982
 8284SOL    HW225752   1.283   3.572   0.897
 8285SOL     OW25753   3.302   4.065   4.928
 8285SOL    HW125754   3.284   3.976   4.886
 8285SOL    HW225755   3.217   4.100   4.967
 8286SOL     OW25756   5.601   2.258   6.382
 8286SOL    HW125757   5.692   2.279   6.417
 8286SOL    HW225758   5.548   2.342   6.373
 8287SOL     OW25759   1.627   5.779   4.294
 8287SOL    HW125760   1.560   5.710   4.263
 8287SOL    HW225761   1.587   5.832   4.369
 8288SOL     OW25762   3.319   1.972   1.950
 8288SOL    HW125763   3.388   2.031   1.908
 8288SOL    HW225764   3.248   2.028   1.992
 8289SOL     OW25765   0.586   5.783   0.517
 8289SOL    HW125766   0.608   5.861   0.576
 8289SOL    HW225767   0.559   5.816   0.427
 8290SOL     OW25768   5.491   1.368   1.321
 8290SOL    HW125769   5.556   1.428   1.274
 8290SOL    HW225770   5.487   1.392   1.418
 8291SOL     OW25771   5.326   6.311   4.700
 8291SOL    HW125772   5.247   6.370   4.689
 8291SOL    HW225773   5.383   6.345   4.776
 8292SOL     OW25774   2.879   6.561   6.944
 8292SOL    HW125775   2.822   6.501   7.000
 8292SOL    HW225776   2.932   6.621   7.003
 8293SOL     OW25777   2.999   5.418   0.757
 8293SOL    HW125778   2.980   5.506   0.714
 8293SOL    HW225779   2.940   5.406   0.837
 8294SOL     OW25780   6.003   3.645   5.296
 8294SOL    HW125781   5.936   3.634   5.370
 8294SOL    HW225782   6.069   3.716   5.320
 8295SOL     OW25783   5.210   5.920   2.147
 8295SOL    HW125784   5.258   5.859   2.210
 8295SOL    HW225785   5.238   5.900   2.054
 8296SOL     OW25786   1.314   4.174   6.649
 8296SOL    HW125787   1.344   4.079   6.647
 8296SOL    HW225788   1.389   4.233   6.618
 8297SOL     OW25789   6.983   2.851   2.716
 8297SOL    HW125790   7.026   2.917   2.654
 8297SOL    HW225791   6.930   2.785   2.662
 8298SOL     OW25792   6.178   1.257   1.841
 8298SOL    HW125793   6.191   1.313   1.923
 8298SOL    HW225794   6.261   1.261   1.785
 8299SOL     OW25795   6.815   2.307   1.829
 8299SOL    HW125796   6.825   2.210   1.852
 8299SOL    HW225797   6.787   2.316   1.733
 8300SOL     OW25798   0.379   5.945   4.702
 8300SOL    HW125799   0.338   5.856   4.683
 8300SOL    HW225800   0.445   5.967   4.630
 8301SOL     OW25801   3.704   1.927   1.082
 8301SOL    HW125802   3.617   1.950   1.125
 8301SOL    HW225803   3.769   1.895   1.151
 8302SOL     OW25804   5.647   0.230   6.823
 8302SOL    HW125805   5.653   0.168   6.901
 8302SOL    HW225806   5.702   0.195   6.747
 8303SOL     OW25807   6.730   0.988   3.475
 8303SOL    HW125808   6.646   0.972   3.424
 8303SOL    HW225809   6.805   1.007   3.412
 8304SOL     OW25810   0.021   3.293   0.682
 8304SOL    HW125811   0.113   3.264   0.655
 8304SOL    HW225812   0.026   3.350   0.763
 8305SOL     OW25813   5.046   5.125   4.125
 8305SOL    HW125814   5.104   5.159   4.198
 8305SOL    HW225815   5.047   5.189   4.048
 8306SOL     OW25816   6.089   2.173   5.740
 8306SOL    HW125817   6.007   2.138   5.785
 8306SOL    HW225818   6.111   2.263   5.777
 8307SOL     OW25819   3.550   5.614   1.575
 8307SOL    HW125820   3.564   5.711   1.553
 8307SOL    HW225821   3.585   5.596   1.667
 8308SOL     OW25822   3.254   5.526   1.615
 8308SOL    HW125823   3.266   5.555   1.710
 8308SOL    HW225824   3.335   5.551   1.562
 8309SOL     OW25825   6.672   5.106   3.743
 8309SOL    HW125826   6.716   5.085   3.831
 8309SOL    HW225827   6.593   5.045   3.730
 8310SOL     OW25828   6.954   5.437   0.512
 8310SOL    HW125829   7.015   5.406   0.585
 8310SOL    HW225830   6.868   5.386   0.517
 8311SOL     OW25831   0.840   1.749   4.582
 8311SOL    HW125832   0.939   1.746   4.597
 8311SOL    HW225833   0.807   1.657   4.559
 8312SOL     OW25834   4.830   0.437   0.187
 8312SOL    HW125835   4.822   0.534   0.210
 8312SOL    HW225836   4.909   0.398   0.234
 8313SOL     OW25837   5.308   0.022   0.855
 8313SOL    HW125838   5.305   0.099   0.791
 8313SOL    HW225839   5.239   0.035   0.926
 8314SOL     OW25840   4.817   0.846   0.472
 8314SOL    HW125841   4.771   0.757   0.473
 8314SOL    HW225842   4.783   0.903   0.547
 8315SOL     OW25843   4.257   2.812   1.670
 8315SOL    HW125844   4.297   2.736   1.720
 8315SOL    HW225845   4.323   2.887   1.664
 8316SOL     OW25846   1.522   2.155   1.583
 8316SOL    HW125847   1.560   2.083   1.525
 8316SOL    HW225848   1.596   2.215   1.614
 8317SOL     OW25849   1.937   2.830   2.577
 8317SOL    HW125850   1.886   2.901   2.529
 8317SOL    HW225851   1.996   2.782   2.513
 8318SOL     OW25852   4.548   1.562   5.059
 8318SOL    HW125853   4.535   1.463   5.061
 8318SOL    HW225854   4.636   1.585   5.102
 8319SOL     OW25855   2.061   1.920   0.510
 8319SOL    HW125856   2.100   1.941   0.600
 8319SOL    HW225857   2.126   1.865   0.458
 8320SOL     OW25858   3.251   3.511   2.480
 8320SOL    HW125859   3.199   3.593   2.503
 8320SOL    HW225860   3.342   3.538   2.449
 8321SOL     OW25861   6.342   0.110   6.444
 8321SOL    HW125862   6.415   0.102   6.512
 8321SOL    HW225863   6.359   0.190   6.386
 8322SOL     OW25864   6.684   6.997   1.042
 8322SOL    HW125865   6.676   6.897   1.051
 8322SOL    HW225866   6.592   0.010   1.040
 8323SOL     OW25867   4.957   5.511   2.559
 8323SOL    HW125868   4.926   5.506   2.654
 8323SOL    HW225869   4.944   5.422   2.515
 8324SOL     OW25870   5.722   6.719   1.394
 8324SOL    HW125871   5.733   6.688   1.300
 8324SOL    HW225872   5.629   6.754   1.407
 8325SOL     OW25873   2.406   3.828   5.637
 8325SOL    HW125874   2.492   3.787   5.668
 8325SOL    HW225875   2.400   3.922   5.672
 8326SOL     OW25876   5.382   3.749   5.522
 8326SOL    HW125877   5.288   3.753   5.557
 8326SOL    HW225878   5.419   3.658   5.538
 8327SOL     OW25879   6.143   1.379   6.303
 8327SOL    HW125880   6.235   1.340   6.291
 8327SOL    HW225881   6.129   1.453   6.238
 8328SOL     OW25882   2.688   6.028   6.030
 8328SOL    HW125883   2.721   6.073   6.114
 8328SOL    HW225884   2.722   6.078   5.950
 8329SOL     OW25885   1.222   3.190   5.656
 8329SOL    HW125886   1.171   3.275   5.670
 8329SOL    HW225887   1.313   3.210   5.621
 8330SOL     OW25888   2.616   1.117   6.848
 8330SOL    HW125889   2.635   1.034   6.795
 8330SOL    HW225890   2.636   1.100   6.945
 8331SOL     OW25891   3.392   1.208   1.207
 8331SOL    HW125892   3.313   1.154   1.179
 8331SOL    HW225893   3.363   1.303   1.222
 8332SOL     OW25894   4.565   5.202   2.386
 8332SOL    HW125895   4.552   5.265   2.463
 8332SOL    HW225896   4.510   5.120   2.401
 8333SOL     OW25897   0.241   6.169   6.092
 8333SOL    HW125898   0.271   6.241   6.029
 8333SOL    HW225899   0.198   6.210   6.172
 8334SOL     OW25900   3.970   1.027   3.810
 8334SOL    HW125901   3.907   1.103   3.794
 8334SOL    HW225902   4.062   1.063   3.826
 8335SOL     OW25903   5.288   6.563   6.961
 8335SOL    HW125904   5.374   6.518   6.986
 8335SOL    HW225905   5.213   6.519   7.010
 8336SOL     OW25906   6.812   4.933   3.138
 8336SOL    HW125907   6.827   4.856   3.076
 8336SOL    HW225908   6.780   5.012   3.086
 8337SOL     OW25909   2.455   6.150   2.663
 8337SOL    HW125910   2.381   6.213   2.686
 8337SOL    HW225911   2.456   6.135   2.564
 8338SOL     OW25912   3.456   5.439   1.978
 8338SOL    HW125913   3.374   5.382   1.970
 8338SOL    HW225914   3.486   5.440   2.073
 8339SOL     OW25915   5.875   0.322   1.202
 8339SOL    HW125916   5.909   0.323   1.108
 8339SOL    HW225917   5.906   0.239   1.248
 8340SOL     OW25918   4.984   3.039   1.397
 8340SOL    HW125919   4.996   3.046   1.496
 8340SOL    HW225920   4.887   3.037   1.375
 8341SOL     OW25921   2.934   6.346   0.336
 8341SOL    HW125922   2.845   6.305   0.314
 8341SOL    HW225923   2.949   6.425   0.276
 8342SOL     OW25924   4.259   6.034   1.395
 8342SOL    HW125925   4.335   6.094   1.370
 8342SOL    HW225926   4.198   6.082   1.459
 8343SOL     OW25927   1.723   6.034   5.657
 8343SOL    HW125928   1.749   5.942   5.629
 8343SOL    HW225929   1.773   6.059   5.740
 8344SOL     OW25930   4.412   6.402   4.557
 8344SOL    HW125931   4.403   6.474   4.489
 8344SOL    HW225932   4.509   6.378   4.567
 8345SOL     OW25933   4.557   1.632   2.676
 8345SOL    HW125934   4.506   1.617   2.591
 8345SOL    HW225935   4.614   1.714   2.665
 8346SOL     OW25936   3.130   4.649   0.993
 8346SOL    HW125937   3.208   4.587   0.994
 8346SOL    HW225938   3.084   4.643   0.904
 8347SOL     OW25939   3.160   5.391   4.422
 8347SOL    HW125940   3.120   5.406   4.331
 8347SOL    HW225941   3.122   5.307   4.461
 8348SOL     OW25942   2.403   0.336   2.403
 8348SOL    HW125943   2.426   0.263   2.338
 8348SOL    HW225944   2.472   0.341   2.475
 8349SOL     OW25945   5.956   6.448   1.793
 8349SOL    HW125946   5.889   6.436   1.720
 8349SOL    HW225947   5.928   6.393   1.872
 8350SOL     OW25948   3.899   6.675   5.613
 8350SOL    HW125949   3.901   6.769   5.644
 8350SOL    HW225950   3.983   6.628   5.641
 8351SOL     OW25951   4.997   5.042   4.443
 8351SOL    HW125952   5.027   5.061   4.536
 8351SOL    HW225953   5.028   4.951   4.416
 8352SOL     OW25954   0.969   0.160   3.215
 8352SOL    HW125955   1.028   0.139   3.293
 8352SOL    HW225956   0.921   0.246   3.232
 8353SOL     OW25957   6.786   3.114   1.675
 8353SOL    HW125958   6.876   3.153   1.695
 8353SOL    HW225959   6.793   3.052   1.597
 8354SOL     OW25960   4.258   0.002   6.344
 8354SOL    HW125961   4.204   6.948   6.325
 8354SOL    HW225962   4.197   0.076   6.374
 8355SOL     OW25963   2.614   1.025   6.131
 8355SOL    HW125964   2.573   1.066   6.049
 8355SOL    HW225965   2.546   0.969   6.178
 8356SOL     OW25966   0.969   6.308   1.026
 8356SOL    HW125967   0.977   6.396   1.073
 8356SOL    HW225968   0.911   6.319   0.945
 8357SOL     OW25969   4.301   0.186   4.897
 8357SOL    HW125970   4.313   0.147   4.806
 8357SOL    HW225971   4.374   0.153   4.957
 8358SOL     OW25972   1.362   4.408   5.299
 8358SOL    HW125973   1.416   4.343   5.244
 8358SOL    HW225974   1.416   4.491   5.314
 8359SOL     OW25975   2.990   0.496   5.345
 8359SOL    HW125976   3.024   0.404   5.323
 8359SOL    HW225977   2.908   0.489   5.401
 8360SOL     OW25978   3.495   6.151   1.385
 8360SOL    HW125979   3.441   6.108   1.312
 8360SOL    HW225980   3.441   6.152   1.469
 8361SOL     OW25981   3.659   0.662   2.614
 8361SOL    HW125982   3.629   0.695   2.703
 8361SOL    HW225983   3.683   0.740   2.556
 8362SOL     OW25984   3.947   2.248   0.412
 8362SOL    HW125985   3.899   2.294   0.486
 8362SOL    HW225986   3.960   2.151   0.436
 8363SOL     OW25987   6.833   2.600   6.532
 8363SOL    HW125988   6.736   2.577   6.529
 8363SOL    HW225989   6.846   2.684   6.585
 8364SOL     OW25990   1.331   3.141   2.980
 8364SOL    HW125991   1.241   3.124   3.022
 8364SOL    HW225992   1.323   3.215   2.914
 8365SOL     OW25993   2.258   3.864   1.875
 8365SOL    HW125994   2.214   3.937   1.823
 8365SOL    HW225995   2.234   3.775   1.836
 8366SOL     OW25996   1.852   5.949   2.034
 8366SOL    HW125997   1.933   5.972   2.088
 8366SOL    HW225998   1.796   5.883   2.084
 8367SOL     OW25999   4.031   6.209   3.734
 8367SOL    HW126000   4.106   6.275   3.734
 8367SOL    HW226001   4.067   6.118   3.756
 8368SOL     OW26002   2.345   6.066   6.606
 8368SOL    HW126003   2.393   5.999   6.548
 8368SOL    HW226004   2.268   6.104   6.555
 8369SOL     OW26005   1.905   6.643   6.690
 8369SOL    HW126006   1.989   6.626   6.640
 8369SOL    HW226007   1.923   6.643   6.788
 8370SOL     OW26008   3.024   1.766   5.575
 8370SOL    HW126009   2.972   1.800   5.496
 8370SOL    HW226010   2.960   1.744   5.649
 8371SOL     OW26011   1.965   3.872   0.791
 8371SOL    HW126012   1.891   3.910   0.847
 8371SOL    HW226013   2.005   3.944   0.735
 8372SOL     OW26014   0.574   5.188   2.106
 8372SOL    HW126015   0.532   5.275   2.080
 8372SOL    HW226016   0.674   5.196   2.100
 8373SOL     OW26017   1.681   0.032   3.753
 8373SOL    HW126018   1.676   0.065   3.658
 8373SOL    HW226019   1.756   6.994   3.762
 8374SOL     OW26020   0.042   0.719   5.806
 8374SOL    HW126021   0.109   0.769   5.751
 8374SOL    HW226022   0.003   0.781   5.874
 8375SOL     OW26023   3.322   6.790   4.825
 8375SOL    HW126024   3.408   6.785   4.774
 8375SOL    HW226025   3.245   6.771   4.763
 8376SOL     OW26026   1.397   0.592   3.976
 8376SOL    HW126027   1.448   0.672   4.007
 8376SOL    HW226028   1.436   0.510   4.018
 8377SOL     OW26029   4.825   5.939   1.472
 8377SOL    HW126030   4.855   5.935   1.376
 8377SOL    HW226031   4.849   6.028   1.510
 8378SOL     OW26032   4.495   4.948   2.814
 8378SOL    HW126033   4.541   5.008   2.879
 8378SOL    HW226034   4.397   4.970   2.812
 8379SOL     OW26035   6.032   2.491   1.296
 8379SOL    HW126036   6.079   2.482   1.383
 8379SOL    HW226037   6.011   2.588   1.279
 8380SOL     OW26038   0.015   0.602   2.611
 8380SOL    HW126039   6.981   0.681   2.611
 8380SOL    HW226040   0.105   0.630   2.576
 8381SOL     OW26041   0.109   2.813   5.194
 8381SOL    HW126042   0.103   2.892   5.133
 8381SOL    HW226043   0.194   2.764   5.176
 8382SOL     OW26044   2.589   0.894   2.870
 8382SOL    HW126045   2.504   0.892   2.922
 8382SOL    HW226046   2.570   0.866   2.776
 8383SOL     OW26047   2.271   6.899   5.754
 8383SOL    HW126048   2.222   6.863   5.834
 8383SOL    HW226049   2.368   6.876   5.761
 8384SOL     OW26050   6.685   1.063   1.015
 8384SOL    HW126051   6.637   1.119   1.082
 8384SOL    HW226052   6.683   0.967   1.045
 8385SOL     OW26053   6.218   1.512   1.077
 8385SOL    HW126054   6.276   1.593   1.062
 8385SOL    HW226055   6.272   1.429   1.064
 8386SOL     OW26056   1.199   5.015   2.018
 8386SOL    HW126057   1.129   4.972   2.075
 8386SOL    HW226058   1.174   5.007   1.922
 8387SOL     OW26059   1.499   1.536   2.500
 8387SOL    HW126060   1.449   1.504   2.581
 8387SOL    HW226061   1.555   1.462   2.464
 8388SOL     OW26062   2.426   6.352   0.490
 8388SOL    HW126063   2.502   6.311   0.439
 8388SOL    HW226064   2.395   6.435   0.443
 8389SOL     OW26065   7.022   3.067   2.909
 8389SOL    HW126066   7.016   2.998   2.837
 8389SOL    HW226067   0.083   3.113   2.905
 8390SOL     OW26068   4.456   1.085   6.313
 8390SOL    HW126069   4.552   1.061   6.329
 8390SOL    HW226070   4.438   1.177   6.348
 8391SOL     OW26071   6.408   5.106   0.921
 8391SOL    HW126072   6.316   5.129   0.889
 8391SOL    HW226073   6.426   5.009   0.906
 8392SOL     OW26074   6.351   3.639   4.652
 8392SOL    HW126075   6.271   3.698   4.661
 8392SOL    HW226076   6.361   3.583   4.734
 8393SOL     OW26077   0.342   6.980   3.061
 8393SOL    HW126078   0.293   6.944   2.982
 8393SOL    HW226079   0.316   0.048   3.077
 8394SOL     OW26080   6.352   2.190   1.269
 8394SOL    HW126081   6.432   2.131   1.272
 8394SOL    HW226082   6.322   2.202   1.174
 8395SOL     OW26083   2.990   6.911   5.348
 8395SOL    HW126084   2.928   6.891   5.272
 8395SOL    HW226085   3.010   7.009   5.350
 8396SOL     OW26086   4.699   5.592   2.949
 8396SOL    HW126087   4.620   5.654   2.956
 8396SOL    HW226088   4.747   5.591   3.037
 8397SOL     OW26089   1.571   1.018   2.457
 8397SOL    HW126090   1.565   1.077   2.538
 8397SOL    HW226091   1.506   0.943   2.466
 8398SOL     OW26092   4.540   1.711   6.077
 8398SOL    HW126093   4.625   1.756   6.107
 8398SOL    HW226094   4.465   1.740   6.137
 8399SOL     OW26095   5.434   0.011   6.680
 8399SOL    HW126096   5.379   0.095   6.681
 8399SOL    HW226097   5.531   0.035   6.685
 8400SOL     OW26098   1.795   0.964   4.340
 8400SOL    HW126099   1.719   0.912   4.302
 8400SOL    HW226100   1.801   1.053   4.295
 8401SOL     OW26101   2.123   1.100   5.128
 8401SOL    HW126102   2.088   1.187   5.095
 8401SOL    HW226103   2.220   1.092   5.105
 8402SOL     OW26104   4.902   1.738   6.137
 8402SOL    HW126105   4.922   1.808   6.205
 8402SOL    HW226106   4.878   1.653   6.183
 8403SOL     OW26107   6.894   3.370   4.605
 8403SOL    HW126108   6.957   3.438   4.568
 8403SOL    HW226109   6.943   3.308   4.665
 8404SOL     OW26110   3.532   6.786   5.964
 8404SOL    HW126111   3.482   6.786   5.877
 8404SOL    HW226112   3.620   6.740   5.952
 8405SOL     OW26113   2.069   1.571   5.199
 8405SOL    HW126114   2.128   1.566   5.280
 8405SOL    HW226115   1.995   1.636   5.216
 8406SOL     OW26116   4.110   0.942   0.638
 8406SOL    HW126117   4.179   0.968   0.571
 8406SOL    HW226118   4.042   0.883   0.594
 8407SOL     OW26119   3.228   6.559   3.314
 8407SOL    HW126120   3.160   6.616   3.270
 8407SOL    HW226121   3.184   6.499   3.381
 8408SOL     OW26122   5.736   3.822   1.204
 8408SOL    HW126123   5.679   3.825   1.122
 8408SOL    HW226124   5.803   3.896   1.201
 8409SOL     OW26125   5.185   1.883   2.712
 8409SOL    HW126126   5.266   1.887   2.653
 8409SOL    HW226127   5.207   1.838   2.798
 8410SOL     OW26128   5.664   0.408   1.712
 8410SOL    HW126129   5.750   0.445   1.747
 8410SOL    HW226130   5.678   0.373   1.619
 8411SOL     OW26131   0.929   5.116   0.078
 8411SOL    HW126132   0.834   5.112   0.109
 8411SOL    HW226133   0.977   5.188   0.129
 8412SOL     OW26134   3.730   2.181   1.582
 8412SOL    HW126135   3.633   2.179   1.560
 8412SOL    HW226136   3.757   2.275   1.607
 8413SOL     OW26137   4.453   5.904   0.093
 8413SOL    HW126138   4.497   5.867   0.011
 8413SOL    HW226139   4.478   5.848   0.173
 8414SOL     OW26140   4.040   6.451   3.946
 8414SOL    HW126141   3.957   6.421   3.994
 8414SOL    HW226142   4.015   6.488   3.857
 8415SOL     OW26143   0.821   6.056   4.015
 8415SOL    HW126144   0.732   6.015   4.038
 8415SOL    HW226145   0.846   6.122   4.085
 8416SOL     OW26146   6.069   2.941   2.765
 8416SOL    HW126147   6.033   3.010   2.828
 8416SOL    HW226148   6.157   2.970   2.730
 8417SOL     OW26149   1.485   3.295   5.640
 8417SOL    HW126150   1.465   3.393   5.646
 8417SOL    HW226151   1.496   3.258   5.732
 8418SOL     OW26152   5.736   5.206   1.078
 8418SOL    HW126153   5.813   5.148   1.052
 8418SOL    HW226154   5.770   5.298   1.101
 8419SOL     OW26155   5.595   0.053   1.540
 8419SOL    HW126156   5.694   0.044   1.530
 8419SOL    HW226157   5.563   0.133   1.489
 8420SOL     OW26158   4.104   6.718   0.525
 8420SOL    HW126159   4.026   6.667   0.562
 8420SOL    HW226160   4.133   6.787   0.591
 8421SOL     OW26161   3.349   5.780   6.899
 8421SOL    HW126162   3.272   5.745   6.952
 8421SOL    HW226163   3.324   5.783   6.803
 8422SOL     OW26164   4.199   1.349   1.951
 8422SOL    HW126165   4.150   1.421   2.000
 8422SOL    HW226166   4.282   1.324   2.002
 8423SOL     OW26167   3.098   4.968   6.179
 8423SOL    HW126168   3.125   5.049   6.230
 8423SOL    HW226169   3.007   4.939   6.210
 8424SOL     OW26170   2.083   2.149   2.294
 8424SOL    HW126171   2.169   2.129   2.248
 8424SOL    HW226172   2.100   2.211   2.371
 8425SOL     OW26173   4.439   4.594   6.187
 8425SOL    HW126174   4.404   4.500   6.182
 8425SOL    HW226175   4.520   4.602   6.130
 8426SOL     OW26176   3.776   3.240   3.285
 8426SOL    HW126177   3.844   3.192   3.342
 8426SOL    HW226178   3.684   3.211   3.312
 8427SOL     OW26179   3.761   3.915   3.839
 8427SOL    HW126180   3.698   3.839   3.820
 8427SOL    HW226181   3.709   3.998   3.858
 8428SOL     OW26182   0.461   6.285   1.392
 8428SOL    HW126183   0.456   6.222   1.470
 8428SOL    HW226184   0.556   6.313   1.378
 8429SOL     OW26185   1.677   6.431   4.695
 8429SOL    HW126186   1.749   6.390   4.639
 8429SOL    HW226187   1.634   6.361   4.751
 8430SOL     OW26188   3.660   5.115   3.744
 8430SOL    HW126189   3.681   5.204   3.785
 8430SOL    HW226190   3.669   5.043   3.813
 8431SOL     OW26191   3.733   3.577   1.109
 8431SOL    HW126192   3.693   3.647   1.050
 8431SOL    HW226193   3.750   3.494   1.055
 8432SOL     OW26194   5.738   6.402   5.467
 8432SOL    HW126195   5.776   6.409   5.559
 8432SOL    HW226196   5.759   6.311   5.430
 8433SOL     OW26197   4.687   2.901   0.881
 8433SOL    HW126198   4.608   2.868   0.932
 8433SOL    HW226199   4.750   2.948   0.944
 8434SOL     OW26200   3.045   0.089   4.803
 8434SOL    HW126201   3.071   0.185   4.788
 8434SOL    HW226202   3.103   0.049   4.873
 8435SOL     OW26203   6.152   0.481   1.449
 8435SOL    HW126204   6.058   0.513   1.440
 8435SOL    HW226205   6.156   0.402   1.510
 8436SOL     OW26206   3.110   6.320   3.457
 8436SOL    HW126207   3.119   6.238   3.401
 8436SOL    HW226208   3.063   6.298   3.542
 8437SOL     OW26209   2.098   1.194   3.880
 8437SOL    HW126210   2.154   1.146   3.948
 8437SOL    HW226211   2.024   1.134   3.849
 8438SOL     OW26212   2.282   4.140   2.845
 8438SOL    HW126213   2.242   4.081   2.915
 8438SOL    HW226214   2.268   4.236   2.871
 8439SOL     OW26215   5.567   5.174   2.732
 8439SOL    HW126216   5.502   5.247   2.755
 8439SOL    HW226217   5.660   5.206   2.746
 8440SOL     OW26218   2.160   1.651   3.921
 8440SOL    HW126219   2.081   1.677   3.864
 8440SOL    HW226220   2.231   1.720   3.912
 8441SOL     OW26221   5.297   0.254   0.255
 8441SOL    HW126222   5.303   0.175   0.315
 8441SOL    HW226223   5.388   0.294   0.242
 8442SOL     OW26224   3.635   2.612   5.429
 8442SOL    HW126225   3.542   2.611   5.391
 8442SOL    HW226226   3.672   2.519   5.429
 8443SOL     OW26227   2.534   4.485   3.601
 8443SOL    HW126228   2.543   4.402   3.656
 8443SOL    HW226229   2.472   4.549   3.647
 8444SOL     OW26230   3.142   6.441   4.507
 8444SOL    HW126231   3.230   6.406   4.539
 8444SOL    HW226232   3.076   6.440   4.582
 8445SOL     OW26233   3.069   0.303   1.499
 8445SOL    HW126234   3.154   0.344   1.531
 8445SOL    HW226235   3.014   0.275   1.578
 8446SOL     OW26236   5.822   5.825   5.996
 8446SOL    HW126237   5.803   5.845   5.900
 8446SOL    HW226238   5.830   5.726   6.008
 8447SOL     OW26239   5.077   1.694   2.067
 8447SOL    HW126240   4.987   1.682   2.025
 8447SOL    HW226241   5.090   1.626   2.138
 8448SOL     OW26242   4.280   6.036   4.331
 8448SOL    HW126243   4.242   6.124   4.301
 8448SOL    HW226244   4.223   5.997   4.402
 8449SOL     OW26245   0.121   3.419   3.585
 8449SOL    HW126246   0.073   3.359   3.520
 8449SOL    HW226247   0.072   3.421   3.672
 8450SOL     OW26248   0.832   0.171   1.163
 8450SOL    HW126249   0.901   0.224   1.213
 8450SOL    HW226250   0.828   0.203   1.069
 8451SOL     OW26251   3.682   1.862   0.319
 8451SOL    HW126252   3.713   1.767   0.311
 8451SOL    HW226253   3.618   1.870   0.395
 8452SOL     OW26254   6.130   2.145   3.519
 8452SOL    HW126255   6.153   2.110   3.429
 8452SOL    HW226256   6.145   2.244   3.521
 8453SOL     OW26257   0.236   4.679   6.982
 8453SOL    HW126258   0.269   4.620   6.908
 8453SOL    HW226259   0.138   4.667   6.993
 8454SOL     OW26260   6.872   5.997   1.785
 8454SOL    HW126261   6.861   5.915   1.728
 8454SOL    HW226262   6.808   6.068   1.754
 8455SOL     OW26263   6.539   1.483   1.650
 8455SOL    HW126264   6.637   1.472   1.669
 8455SOL    HW226265   6.527   1.548   1.575
 8456SOL     OW26266   3.763   5.906   3.565
 8456SOL    HW126267   3.705   5.880   3.488
 8456SOL    HW226268   3.823   5.981   3.537
 8457SOL     OW26269   0.231   6.925   4.487
 8457SOL    HW126270   0.237   6.984   4.406
 8457SOL    HW226271   0.173   6.968   4.556
 8458SOL     OW26272   2.906   0.919   0.522
 8458SOL    HW126273   2.826   0.972   0.550
 8458SOL    HW226274   2.961   0.972   0.458
 8459SOL     OW26275   2.876   5.683   1.915
 8459SOL    HW126276   2.803   5.697   1.849
 8459SOL    HW226277   2.873   5.755   1.984
 8460SOL     OW26278   4.044   4.220   5.257
 8460SOL    HW126279   4.126   4.271   5.230
 8460SOL    HW226280   4.069   4.126   5.279
 8461SOL     OW26281   0.999   3.895   5.243
 8461SOL    HW126282   1.077   3.955   5.262
 8461SOL    HW226283   0.998   3.873   5.145
 8462SOL     OW26284   2.305   2.401   6.524
 8462SOL    HW126285   2.381   2.345   6.558
 8462SOL    HW226286   2.234   2.408   6.594
 8463SOL     OW26287   0.165   0.243   1.248
 8463SOL    HW126288   0.099   0.265   1.320
 8463SOL    HW226289   0.120   0.190   1.177
 8464SOL     OW26290   5.980   4.388   4.054
 8464SOL    HW126291   6.010   4.460   3.992
 8464SOL    HW226292   6.034   4.306   4.038
 8465SOL     OW26293   0.806   3.181   0.470
 8465SOL    HW126294   0.828   3.104   0.410
 8465SOL    HW226295   0.733   3.235   0.430
 8466SOL     OW26296   0.454   7.009   4.068
 8466SOL    HW126297   0.411   0.011   3.982
 8466SOL    HW226298   0.552   6.999   4.054
 8467SOL     OW26299   3.301   6.479   0.142
 8467SOL    HW126300   3.243   6.433   0.074
 8467SOL    HW226301   3.339   6.411   0.205
 8468SOL     OW26302   4.093   1.925   7.021
 8468SOL    HW126303   4.012   1.876   6.989
 8468SOL    HW226304   4.119   1.994   6.954
 8469SOL     OW26305   3.614   1.841   6.640
 8469SOL    HW126306   3.564   1.928   6.636
 8469SOL    HW226307   3.708   1.858   6.670
 8470SOL     OW26308   0.899   3.288   6.868
 8470SOL    HW126309   0.904   3.200   6.917
 8470SOL    HW226310   0.933   3.275   6.775
 8471SOL     OW26311   3.198   1.177   3.498
 8471SOL    HW126312   3.292   1.162   3.528
 8471SOL    HW226313   3.139   1.106   3.536
 8472SOL     OW26314   0.342   0.401   4.761
 8472SOL    HW126315   0.251   0.444   4.766
 8472SOL    HW226316   0.382   0.419   4.671
 8473SOL     OW26317   5.846   5.142   6.438
 8473SOL    HW126318   5.878   5.116   6.529
 8473SOL    HW226319   5.921   5.186   6.388
 8474SOL     OW26320   3.164   3.069   2.489
 8474SOL    HW126321   3.104   3.110   2.557
 8474SOL    HW226322   3.256   3.061   2.526
 8475SOL     OW26323   0.467   2.140   3.225
 8475SOL    HW126324   0.490   2.201   3.300
 8475SOL    HW226325   0.549   2.091   3.195
 8476SOL     OW26326   6.582   1.441   1.169
 8476SOL    HW126327   6.673   1.426   1.131
 8476SOL    HW226328   6.513   1.410   1.104
 8477SOL     OW26329   4.377   6.541   2.228
 8477SOL    HW126330   4.344   6.454   2.190
 8477SOL    HW226331   4.448   6.578   2.168
 8478SOL     OW26332   1.297   0.593   6.194
 8478SOL    HW126333   1.265   0.540   6.115
 8478SOL    HW226334   1.349   0.533   6.255
 8479SOL     OW26335   6.358   2.482   1.310
 8479SOL    HW126336   6.344   2.384   1.307
 8479SOL    HW226337   6.337   2.517   1.401
 8480SOL     OW26338   4.207   1.364   0.121
 8480SOL    HW126339   4.175   1.405   0.036
 8480SOL    HW226340   4.270   1.428   0.167
 8481SOL     OW26341   4.906   2.483   3.710
 8481SOL    HW126342   4.892   2.494   3.808
 8481SOL    HW226343   4.913   2.385   3.688
 8482SOL     OW26344   4.115   6.750   2.884
 8482SOL    HW126345   4.169   6.697   2.819
 8482SOL    HW226346   4.173   6.818   2.928
 8483SOL     OW26347   3.889   5.878   2.542
 8483SOL    HW126348   3.926   5.799   2.494
 8483SOL    HW226349   3.965   5.936   2.574
 8484SOL     OW26350   0.692   5.554   2.775
 8484SOL    HW126351   0.643   5.525   2.693
 8484SOL    HW226352   0.779   5.505   2.781
 8485SOL     OW26353   3.399   3.356   6.915
 8485SOL    HW126354   3.460   3.426   6.952
 8485SOL    HW226355   3.400   3.361   6.815
 8486SOL     OW26356   4.778   0.900   2.693
 8486SOL    HW126357   4.843   0.924   2.621
 8486SOL    HW226358   4.796   0.955   2.774
 8487SOL     OW26359   5.657   1.266   6.559
 8487SOL    HW126360   5.657   1.204   6.481
 8487SOL    HW226361   5.607   1.224   6.635
 8488SOL     OW26362   5.534   4.743   5.126
 8488SOL    HW126363   5.583   4.815   5.077
 8488SOL    HW226364   5.515   4.667   5.063
 8489SOL     OW26365   6.291   0.706   0.887
 8489SOL    HW126366   6.221   0.671   0.825
 8489SOL    HW226367   6.381   0.694   0.845
 8490SOL     OW26368   3.938   6.623   4.478
 8490SOL    HW126369   4.005   6.690   4.510
 8490SOL    HW226370   3.924   6.554   4.549
 8491SOL     OW26371   2.016   6.875   0.797
 8491SOL    HW126372   2.056   6.952   0.747
 8491SOL    HW226373   1.935   6.906   0.848
 8492SOL     OW26374   4.364   4.244   6.662
 8492SOL    HW126375   4.453   4.232   6.708
 8492SOL    HW226376   4.374   4.310   6.587
 8493SOL     OW26377   2.538   1.898   6.407
 8493SOL    HW126378   2.446   1.917   6.440
 8493SOL    HW226379   2.603   1.960   6.451
 8494SOL     OW26380   2.871   4.723   1.075
 8494SOL    HW126381   2.842   4.696   1.167
 8494SOL    HW226382   2.970   4.707   1.065
 8495SOL     OW26383   6.477   4.302   0.974
 8495SOL    HW126384   6.506   4.217   0.928
 8495SOL    HW226385   6.436   4.280   1.062
 8496SOL     OW26386   0.580   1.818   1.786
 8496SOL    HW126387   0.675   1.826   1.757
 8496SOL    HW226388   0.533   1.905   1.770
 8497SOL     OW26389   6.672   1.108   3.816
 8497SOL    HW126390   6.759   1.097   3.863
 8497SOL    HW226391   6.664   1.041   3.743
 8498SOL     OW26392   0.269   6.157   2.773
 8498SOL    HW126393   0.363   6.132   2.794
 8498SOL    HW226394   0.230   6.207   2.851
 8499SOL     OW26395   2.607   5.281   6.901
 8499SOL    HW126396   2.592   5.244   6.992
 8499SOL    HW226397   2.678   5.228   6.855
 8500SOL     OW26398   2.170   7.027   5.550
 8500SOL    HW126399   2.232   0.059   5.499
 8500SOL    HW226400   2.216   6.992   5.631
 8501SOL     OW26401   0.563   2.438   6.922
 8501SOL    HW126402   0.633   2.508   6.934
 8501SOL    HW226403   0.472   2.481   6.926
 8502SOL     OW26404   1.309   4.812   1.537
 8502SOL    HW126405   1.284   4.904   1.505
 8502SOL    HW226406   1.379   4.774   1.477
 8503SOL     OW26407   1.465   6.388   3.513
 8503SOL    HW126408   1.400   6.339   3.571
 8503SOL    HW226409   1.515   6.455   3.568
 8504SOL     OW26410   2.469   5.615   3.178
 8504SOL    HW126411   2.404   5.669   3.124
 8504SOL    HW226412   2.425   5.584   3.262
 8505SOL     OW26413   4.854   3.875   3.651
 8505SOL    HW126414   4.805   3.880   3.738
 8505SOL    HW226415   4.919   3.800   3.654
 8506SOL     OW26416   6.330   0.860   6.918
 8506SOL    HW126417   6.280   0.905   6.992
 8506SOL    HW226418   6.396   0.924   6.878
 8507SOL     OW26419   3.624   0.951   5.561
 8507SOL    HW126420   3.533   0.945   5.601
 8507SOL    HW226421   3.620   1.000   5.474
 8508SOL     OW26422   6.879   2.660   4.899
 8508SOL    HW126423   6.864   2.716   4.981
 8508SOL    HW226424   6.814   2.584   4.899
 8509SOL     OW26425   4.860   2.208   3.614
 8509SOL    HW126426   4.761   2.211   3.631
 8509SOL    HW226427   4.886   2.117   3.580
 8510SOL     OW26428   5.283   4.253   3.540
 8510SOL    HW126429   5.255   4.166   3.499
 8510SOL    HW226430   5.223   4.326   3.507
 8511SOL     OW26431   5.838   4.060   1.915
 8511SOL    HW126432   5.751   4.023   1.884
 8511SOL    HW226433   5.865   4.136   1.855
 8512SOL     OW26434   3.341   2.143   0.842
 8512SOL    HW126435   3.280   2.106   0.772
 8512SOL    HW226436   3.421   2.084   0.852
 8513SOL     OW26437   4.905   3.865   1.689
 8513SOL    HW126438   4.856   3.948   1.716
 8513SOL    HW226439   4.985   3.890   1.634
 8514SOL     OW26440   3.020   2.178   3.897
 8514SOL    HW126441   2.971   2.259   3.927
 8514SOL    HW226442   3.030   2.114   3.974
 8515SOL     OW26443   6.210   1.574   0.002
 8515SOL    HW126444   6.167   1.624   6.954
 8515SOL    HW226445   6.160   1.488   0.017
 8516SOL     OW26446   6.589   1.299   1.408
 8516SOL    HW126447   6.502   1.303   1.458
 8516SOL    HW226448   6.585   1.360   1.329
 8517SOL     OW26449   1.698   3.225   6.813
 8517SOL    HW126450   1.786   3.222   6.860
 8517SOL    HW226451   1.697   3.154   6.742
 8518SOL     OW26452   4.805   4.477   6.362
 8518SOL    HW126453   4.721   4.424   6.351
 8518SOL    HW226454   4.801   4.527   6.449
 8519SOL     OW26455   1.277   4.225   1.498
 8519SOL    HW126456   1.307   4.307   1.449
 8519SOL    HW226457   1.353   4.185   1.549
 8520SOL     OW26458   3.568   3.324   0.204
 8520SOL    HW126459   3.543   3.411   0.161
 8520SOL    HW226460   3.522   3.317   0.293
 8521SOL     OW26461   2.329   4.891   5.761
 8521SOL    HW126462   2.414   4.868   5.714
 8521SOL    HW226463   2.284   4.808   5.791
 8522SOL     OW26464   1.403   6.040   1.061
 8522SOL    HW126465   1.436   6.073   1.150
 8522SOL    HW226466   1.330   6.099   1.028
 8523SOL     OW26467   2.159   6.403   6.972
 8523SOL    HW126468   2.178   6.372   6.879
 8523SOL    HW226469   2.144   6.502   6.972
 8524SOL     OW26470   0.529   2.798   5.427
 8524SOL    HW126471   0.431   2.788   5.414
 8524SOL    HW226472   0.546   2.860   5.504
 8525SOL     OW26473   6.174   4.247   1.811
 8525SOL    HW126474   6.170   4.149   1.832
 8525SOL    HW226475   6.107   4.269   1.740
 8526SOL     OW26476   4.301   6.467   6.794
 8526SOL    HW126477   4.346   6.470   6.705
 8526SOL    HW226478   4.268   6.374   6.812
 8527SOL     OW26479   2.597   1.034   6.446
 8527SOL    HW126480   2.678   1.085   6.474
 8527SOL    HW226481   2.561   1.072   6.361
 8528SOL     OW26482   4.066   0.965   0.182
 8528SOL    HW126483   4.054   1.039   0.116
 8528SOL    HW226484   4.100   0.884   0.136
 8529SOL     OW26485   1.207   6.830   0.591
 8529SOL    HW126486   1.148   6.776   0.531
 8529SOL    HW226487   1.297   6.787   0.596
 8530SOL     OW26488   3.679   4.374   5.449
 8530SOL    HW126489   3.710   4.291   5.402
 8530SOL    HW226490   3.710   4.372   5.544
 8531SOL     OW26491   6.431   4.997   2.445
 8531SOL    HW126492   6.352   5.007   2.505
 8531SOL    HW226493   6.419   5.056   2.365
 8532SOL     OW26494   4.201   4.860   4.755
 8532SOL    HW126495   4.241   4.811   4.833
 8532SOL    HW226496   4.135   4.927   4.789
 8533SOL     OW26497   1.666   6.560   0.247
 8533SOL    HW126498   1.667   6.575   0.345
 8533SOL    HW226499   1.628   6.640   0.201
 8534SOL     OW26500   6.284   2.657   4.304
 8534SOL    HW126501   6.361   2.657   4.240
 8534SOL    HW226502   6.318   2.648   4.398
 8535SOL     OW26503   6.067   0.931   3.687
 8535SOL    HW126504   6.062   0.894   3.594
 8535SOL    HW226505   6.135   0.879   3.739
 8536SOL     OW26506   6.838   2.437   4.493
 8536SOL    HW126507   6.878   2.346   4.481
 8536SOL    HW226508   6.822   2.479   4.403
 8537SOL     OW26509   5.611   0.687   3.069
 8537SOL    HW126510   5.669   0.653   3.143
 8537SOL    HW226511   5.518   0.700   3.103
 8538SOL     OW26512   1.014   0.943   0.126
 8538SOL    HW126513   0.980   0.931   0.219
 8538SOL    HW226514   0.940   0.922   0.061
 8539SOL     OW26515   5.928   1.017   2.814
 8539SOL    HW126516   5.998   0.997   2.746
 8539SOL    HW226517   5.952   0.974   2.901
 8540SOL     OW26518   5.401   0.245   6.455
 8540SOL    HW126519   5.337   0.219   6.528
 8540SOL    HW226520   5.393   0.343   6.438
 8541SOL     OW26521   2.526   1.517   4.246
 8541SOL    HW126522   2.533   1.427   4.288
 8541SOL    HW226523   2.600   1.575   4.278
 8542SOL     OW26524   3.904   4.969   6.897
 8542SOL    HW126525   3.950   4.885   6.868
 8542SOL    HW226526   3.973   5.039   6.915
 8543SOL     OW26527   2.526   1.689   1.069
 8543SOL    HW126528   2.529   1.641   0.982
 8543SOL    HW226529   2.597   1.759   1.071
 8544SOL     OW26530   5.798   2.951   4.055
 8544SOL    HW126531   5.825   2.940   4.151
 8544SOL    HW226532   5.878   2.978   4.001
 8545SOL     OW26533   4.796   0.060   5.260
 8545SOL    HW126534   4.803   0.152   5.299
 8545SOL    HW226535   4.727   0.059   5.188
 8546SOL     OW26536   6.597   2.025   3.916
 8546SOL    HW126537   6.573   1.928   3.921
 8546SOL    HW226538   6.588   2.067   4.007
 8547SOL     OW26539   1.814   6.810   6.485
 8547SOL    HW126540   1.829   6.770   6.576
 8547SOL    HW226541   1.741   6.878   6.491
 8548SOL     OW26542   5.840   2.406   5.646
 8548SOL    HW126543   5.892   2.373   5.567
 8548SOL    HW226544   5.762   2.345   5.661
 8549SOL     OW26545   1.253   3.026   3.705
 8549SOL    HW126546   1.280   2.975   3.787
 8549SOL    HW226547   1.159   3.058   3.715
 8550SOL     OW26548   1.613   4.391   0.205
 8550SOL    HW126549   1.658   4.474   0.238
 8550SOL    HW226550   1.655   4.311   0.249
 8551SOL     OW26551   3.548   3.946   6.505
 8551SOL    HW126552   3.456   3.925   6.538
 8551SOL    HW226553   3.545   3.964   6.407
 8552SOL     OW26554   2.484   0.177   3.873
 8552SOL    HW126555   2.519   0.097   3.824
 8552SOL    HW226556   2.398   0.154   3.918
 8553SOL     OW26557   4.283   4.677   6.558
 8553SOL    HW126558   4.232   4.612   6.614
 8553SOL    HW226559   4.220   4.732   6.504
 8554SOL     OW26560   0.680   5.168   0.220
 8554SOL    HW126561   0.597   5.142   0.270
 8554SOL    HW226562   0.717   5.252   0.260
 8555SOL     OW26563   1.400   0.928   2.011
 8555SOL    HW126564   1.392   0.910   1.913
 8555SOL    HW226565   1.312   0.913   2.055
 8556SOL     OW26566   1.022   6.467   5.131
 8556SOL    HW126567   1.103   6.487   5.187
 8556SOL    HW226568   0.940   6.480   5.186
 8557SOL     OW26569   5.804   0.335   2.936
 8557SOL    HW126570   5.723   0.394   2.933
 8557SOL    HW226571   5.776   0.240   2.944
 8558SOL     OW26572   3.016   5.212   3.511
 8558SOL    HW126573   2.916   5.218   3.517
 8558SOL    HW226574   3.042   5.158   3.431
 8559SOL     OW26575   6.767   0.574   2.436
 8559SOL    HW126576   6.732   0.556   2.528
 8559SOL    HW226577   6.804   0.666   2.432
 8560SOL     OW26578   6.837   6.087   2.325
 8560SOL    HW126579   6.809   6.081   2.421
 8560SOL    HW226580   6.874   6.178   2.307
 8561SOL     OW26581   3.368   0.534   1.814
 8561SOL    HW126582   3.374   0.529   1.914
 8561SOL    HW226583   3.411   0.618   1.782
 8562SOL     OW26584   3.603   5.971   5.345
 8562SOL    HW126585   3.693   6.012   5.361
 8562SOL    HW226586   3.602   5.931   5.253
 8563SOL     OW26587   2.616   4.302   7.018
 8563SOL    HW126588   2.618   4.341   0.082
 8563SOL    HW226589   2.543   4.233   7.013
 8564SOL     OW26590   3.387   1.030   4.267
 8564SOL    HW126591   3.306   1.089   4.273
 8564SOL    HW226592   3.406   1.008   4.172
 8565SOL     OW26593   4.127   5.621   1.020
 8565SOL    HW126594   4.075   5.546   1.061
 8565SOL    HW226595   4.224   5.610   1.042
 8566SOL     OW26596   1.256   0.454   1.248
 8566SOL    HW126597   1.205   0.537   1.223
 8566SOL    HW226598   1.354   0.470   1.236
 8567SOL     OW26599   0.110   2.057   2.599
 8567SOL    HW126600   0.145   1.965   2.612
 8567SOL    HW226601   0.038   2.057   2.530
 8568SOL     OW26602   5.562   1.290   6.008
 8568SOL    HW126603   5.633   1.338   6.060
 8568SOL    HW226604   5.476   1.293   6.058
 8569SOL     OW26605   5.309   1.728   5.868
 8569SOL    HW126606   5.223   1.688   5.898
 8569SOL    HW226607   5.293   1.819   5.831
 8570SOL     OW26608   1.133   2.641   5.412
 8570SOL    HW126609   1.038   2.610   5.413
 8570SOL    HW226610   1.194   2.563   5.428
 8571SOL     OW26611   1.791   5.315   5.466
 8571SOL    HW126612   1.697   5.294   5.438
 8571SOL    HW226613   1.841   5.229   5.481
 8572SOL     OW26614   3.298   5.093   6.905
 8572SOL    HW126615   3.363   5.128   6.973
 8572SOL    HW226616   3.249   5.170   6.863
 8573SOL     OW26617   3.400   6.280   5.786
 8573SOL    HW126618   3.371   6.297   5.880
 8573SOL    HW226619   3.352   6.342   5.724
 8574SOL     OW26620   6.775   5.433   5.490
 8574SOL    HW126621   6.873   5.442   5.470
 8574SOL    HW226622   6.738   5.521   5.520
 8575SOL     OW26623   2.854   2.507   5.404
 8575SOL    HW126624   2.761   2.519   5.440
 8575SOL    HW226625   2.903   2.593   5.408
 8576SOL     OW26626   1.956   5.796   0.141
 8576SOL    HW126627   1.971   5.889   0.106
 8576SOL    HW226628   1.892   5.748   0.082
 8577SOL     OW26629   0.287   6.095   4.263
 8577SOL    HW126630   0.342   6.033   4.207
 8577SOL    HW226631   0.267   6.052   4.351
 8578SOL     OW26632   5.450   0.785   4.794
 8578SOL    HW126633   5.471   0.697   4.751
 8578SOL    HW226634   5.360   0.816   4.765
 8579SOL     OW26635   1.384   0.408   2.781
 8579SOL    HW126636   1.456   0.475   2.764
 8579SOL    HW226637   1.354   0.415   2.877
 8580SOL     OW26638   2.720   6.345   2.945
 8580SOL    HW126639   2.804   6.396   2.966
 8580SOL    HW226640   2.661   6.343   3.025
 8581SOL     OW26641   3.299   3.269   1.945
 8581SOL    HW126642   3.272   3.254   2.040
 8581SOL    HW226643   3.288   3.366   1.922
 8582SOL     OW26644   4.475   4.545   2.648
 8582SOL    HW126645   4.392   4.559   2.595
 8582SOL    HW226646   4.456   4.560   2.745
 8583SOL     OW26647   5.657   0.177   4.850
 8583SOL    HW126648   5.657   0.228   4.936
 8583SOL    HW226649   5.703   0.231   4.780
 8584SOL     OW26650   0.682   3.715   5.883
 8584SOL    HW126651   0.695   3.655   5.804
 8584SOL    HW226652   0.738   3.797   5.871
 8585SOL     OW26653   0.617   5.890   5.808
 8585SOL    HW126654   0.536   5.856   5.856
 8585SOL    HW226655   0.623   5.848   5.718
 8586SOL     OW26656   3.278   0.382   3.288
 8586SOL    HW126657   3.207   0.333   3.237
 8586SOL    HW226658   3.303   0.330   3.369
 8587SOL     OW26659   1.967   0.335   2.822
 8587SOL    HW126660   1.964   0.416   2.763
 8587SOL    HW226661   2.032   0.269   2.785
 8588SOL     OW26662   2.512   0.674   0.057
 8588SOL    HW126663   2.440   0.737   0.086
 8588SOL    HW226664   2.491   0.640   6.993
 8589SOL     OW26665   5.426   2.379   4.451
 8589SOL    HW126666   5.513   2.394   4.498
 8589SOL    HW226667   5.419   2.282   4.424
 8590SOL     OW26668   7.012   6.444   3.897
 8590SOL    HW126669   7.026   6.360   3.845
 8590SOL    HW226670   6.944   6.428   3.969
 8591SOL     OW26671   0.221   4.874   6.469
 8591SOL    HW126672   0.267   4.928   6.398
 8591SOL    HW226673   0.164   4.934   6.525
 8592SOL     OW26674   0.162   2.854   6.507
 8592SOL    HW126675   0.225   2.794   6.458
 8592SOL    HW226676   0.159   2.827   6.603
 8593SOL     OW26677   2.388   0.194   1.749
 8593SOL    HW126678   2.469   0.212   1.805
 8593SOL    HW226679   2.328   0.274   1.751
 8594SOL     OW26680   3.356   2.952   5.318
 8594SOL    HW126681   3.332   2.896   5.397
 8594SOL    HW226682   3.406   3.033   5.349
 8595SOL     OW26683   1.786   2.664   2.752
 8595SOL    HW126684   1.852   2.698   2.685
 8595SOL    HW226685   1.830   2.656   2.841
 8596SOL     OW26686   6.388   5.262   3.829
 8596SOL    HW126687   6.448   5.331   3.869
 8596SOL    HW226688   6.308   5.306   3.789
 8597SOL     OW26689   4.550   0.894   1.050
 8597SOL    HW126690   4.608   0.844   1.114
 8597SOL    HW226691   4.473   0.837   1.022
 8598SOL     OW26692   6.972   6.184   0.639
 8598SOL    HW126693   6.967   6.110   0.572
 8598SOL    HW226694   6.933   6.154   0.726
 8599SOL     OW26695   1.117   2.372   3.925
 8599SOL    HW126696   1.137   2.459   3.879
 8599SOL    HW226697   1.018   2.364   3.939
 8600SOL     OW26698   5.450   4.904   5.692
 8600SOL    HW126699   5.438   4.988   5.744
 8600SOL    HW226700   5.401   4.829   5.737
 8601SOL     OW26701   0.559   0.328   4.938
 8601SOL    HW126702   0.594   0.412   4.978
 8601SOL    HW226703   0.478   0.348   4.883
 8602SOL     OW26704   3.402   5.490   3.279
 8602SOL    HW126705   3.373   5.477   3.374
 8602SOL    HW226706   3.323   5.478   3.218
 8603SOL     OW26707   4.021   5.183   0.514
 8603SOL    HW126708   3.933   5.147   0.482
 8603SOL    HW226709   4.095   5.144   0.459
 8604SOL     OW26710   1.047   3.517   3.734
 8604SOL    HW126711   1.094   3.463   3.804
 8604SOL    HW226712   0.984   3.581   3.777
 8605SOL     OW26713   3.366   5.248   4.765
 8605SOL    HW126714   3.291   5.315   4.764
 8605SOL    HW226715   3.450   5.294   4.794
 8606SOL     OW26716   1.580   3.770   6.150
 8606SOL    HW126717   1.631   3.775   6.064
 8606SOL    HW226718   1.509   3.700   6.143
 8607SOL     OW26719   3.450   5.859   0.793
 8607SOL    HW126720   3.493   5.769   0.805
 8607SOL    HW226721   3.477   5.918   0.869
 8608SOL     OW26722   4.517   4.734   3.069
 8608SOL    HW126723   4.554   4.781   2.989
 8608SOL    HW226724   4.442   4.788   3.108
 8609SOL     OW26725   5.417   1.212   3.252
 8609SOL    HW126726   5.496   1.198   3.312
 8609SOL    HW226727   5.444   1.268   3.174
 8610SOL     OW26728   1.895   1.944   2.517
 8610SOL    HW126729   1.946   1.975   2.597
 8610SOL    HW226730   1.958   1.923   2.442
 8611SOL     OW26731   1.991   2.305   4.245
 8611SOL    HW126732   2.064   2.367   4.213
 8611SOL    HW226733   1.917   2.305   4.178
 8612SOL     OW26734   3.685   3.175   0.644
 8612SOL    HW126735   3.631   3.112   0.587
 8612SOL    HW226736   3.763   3.126   0.683
 8613SOL     OW26737   2.228   2.014   1.041
 8613SOL    HW126738   2.184   2.036   0.954
 8613SOL    HW226739   2.326   2.002   1.027
 8614SOL     OW26740   1.027   3.485   2.330
 8614SOL    HW126741   0.954   3.553   2.336
 8614SOL    HW226742   0.996   3.408   2.274
 8615SOL     OW26743   5.299   2.133   5.410
 8615SOL    HW126744   5.202   2.111   5.416
 8615SOL    HW226745   5.337   2.142   5.502
 8616SOL     OW26746   2.904   4.697   1.463
 8616SOL    HW126747   2.943   4.777   1.417
 8616SOL    HW226748   2.949   4.684   1.551
 8617SOL     OW26749   6.786   0.996   6.221
 8617SOL    HW126750   6.725   1.074   6.203
 8617SOL    HW226751   6.733   0.922   6.262
 8618SOL     OW26752   5.855   6.224   1.156
 8618SOL    HW126753   5.901   6.150   1.108
 8618SOL    HW226754   5.766   6.192   1.189
 8619SOL     OW26755   3.865   4.891   2.063
 8619SOL    HW126756   3.785   4.833   2.049
 8619SOL    HW226757   3.835   4.984   2.085
 8620SOL     OW26758   0.790   0.205   3.586
 8620SOL    HW126759   0.728   0.130   3.610
 8620SOL    HW226760   0.752   0.255   3.508
 8621SOL     OW26761   6.371   1.330   2.965
 8621SOL    HW126762   6.296   1.394   2.950
 8621SOL    HW226763   6.451   1.381   2.998
 8622SOL     OW26764   4.807   3.158   6.985
 8622SOL    HW126765   4.815   3.078   6.925
 8622SOL    HW226766   4.730   3.214   6.955
 8623SOL     OW26767   0.844   3.905   3.325
 8623SOL    HW126768   0.819   4.001   3.316
 8623SOL    HW226769   0.856   3.865   3.234
 8624SOL     OW26770   1.047   4.067   4.833
 8624SOL    HW126771   1.070   4.042   4.739
 8624SOL    HW226772   1.033   3.985   4.887
 8625SOL     OW26773   4.490   0.084   5.049
 8625SOL    HW126774   4.457   0.014   4.986
 8625SOL    HW226775   4.483   0.049   5.143
 8626SOL     OW26776   3.860   2.905   5.167
 8626SOL    HW126777   3.776   2.853   5.178
 8626SOL    HW226778   3.905   2.915   5.256
 8627SOL     OW26779   0.602   1.260   3.338
 8627SOL    HW126780   0.618   1.339   3.279
 8627SOL    HW226781   0.561   1.291   3.424
 8628SOL     OW26782   6.204   6.588   1.403
 8628SOL    HW126783   6.254   6.583   1.490
 8628SOL    HW226784   6.123   6.646   1.414
 8629SOL     OW26785   1.506   5.362   5.434
 8629SOL    HW126786   1.528   5.449   5.479
 8629SOL    HW226787   1.428   5.319   5.480
 8630SOL     OW26788   5.577   4.399   3.672
 8630SOL    HW126789   5.618   4.463   3.608
 8630SOL    HW226790   5.633   4.393   3.755
 8631SOL     OW26791   2.646   5.830   6.253
 8631SOL    HW126792   2.656   5.861   6.158
 8631SOL    HW226793   2.605   5.739   6.254
 8632SOL     OW26794   3.319   6.730   3.859
 8632SOL    HW126795   3.376   6.656   3.823
 8632SOL    HW226796   3.284   6.704   3.949
 8633SOL     OW26797   6.029   1.873   4.380
 8633SOL    HW126798   6.048   1.828   4.468
 8633SOL    HW226799   6.094   1.840   4.312
 8634SOL     OW26800   5.510   3.340   0.255
 8634SOL    HW126801   5.449   3.263   0.275
 8634SOL    HW226802   5.598   3.326   0.301
 8635SOL     OW26803   6.094   4.549   6.261
 8635SOL    HW126804   5.994   4.558   6.262
 8635SOL    HW226805   6.124   4.517   6.171
 8636SOL     OW26806   5.011   6.240   0.768
 8636SOL    HW126807   4.942   6.290   0.820
 8636SOL    HW226808   4.999   6.142   0.782
 8637SOL     OW26809   1.979   1.004   6.977
 8637SOL    HW126810   1.968   1.005   6.877
 8637SOL    HW226811   1.903   0.955   7.019
 8638SOL     OW26812   3.456   3.079   6.725
 8638SOL    HW126813   3.414   3.062   6.815
 8638SOL    HW226814   3.515   3.003   6.701
 8639SOL     OW26815   5.443   2.018   1.943
 8639SOL    HW126816   5.474   2.110   1.919
 8639SOL    HW226817   5.497   1.984   2.020
 8640SOL     OW26818   4.679   3.733   0.888
 8640SOL    HW126819   4.675   3.761   0.792
 8640SOL    HW226820   4.774   3.729   0.918
 8641SOL     OW26821   6.076   5.060   4.002
 8641SOL    HW126822   5.994   5.005   3.984
 8641SOL    HW226823   6.078   5.137   3.938
 8642SOL     OW26824   3.231   1.052   3.254
 8642SOL    HW126825   3.232   1.094   3.345
 8642SOL    HW226826   3.137   1.034   3.225
 8643SOL     OW26827   3.373   0.919   6.621
 8643SOL    HW126828   3.312   0.964   6.556
 8643SOL    HW226829   3.321   0.852   6.674
 8644SOL     OW26830   4.841   2.231   5.586
 8644SOL    HW126831   4.750   2.226   5.546
 8644SOL    HW226832   4.862   2.326   5.610
 8645SOL     OW26833   4.578   4.294   0.967
 8645SOL    HW126834   4.648   4.300   0.896
 8645SOL    HW226835   4.606   4.350   1.046
 8646SOL     OW26836   6.314   0.932   2.343
 8646SOL    HW126837   6.363   0.908   2.259
 8646SOL    HW226838   6.354   1.016   2.381
 8647SOL     OW26839   2.586   5.302   5.921
 8647SOL    HW126840   2.659   5.287   5.988
 8647SOL    HW226841   2.523   5.225   5.922
 8648SOL     OW26842   6.280   0.555   3.468
 8648SOL    HW126843   6.351   0.579   3.533
 8648SOL    HW226844   6.321   0.510   3.388
 8649SOL     OW26845   5.379   4.586   6.490
 8649SOL    HW126846   5.295   4.586   6.545
 8649SOL    HW226847   5.436   4.508   6.516
 8650SOL     OW26848   1.897   4.538   6.144
 8650SOL    HW126849   1.943   4.451   6.163
 8650SOL    HW226850   1.887   4.549   6.045
 8651SOL     OW26851   3.245   1.044   0.532
 8651SOL    HW126852   3.271   0.950   0.557
 8651SOL    HW226853   3.197   1.086   0.609
 8652SOL     OW26854   1.778   3.980   3.891
 8652SOL    HW126855   1.777   4.078   3.873
 8652SOL    HW226856   1.871   3.951   3.915
 8653SOL     OW26857   5.998   1.106   6.855
 8653SOL    HW126858   6.021   1.037   6.786
 8653SOL    HW226859   5.935   1.172   6.816
 8654SOL     OW26860   1.237   4.854   1.193
 8654SOL    HW126861   1.263   4.923   1.261
 8654SOL    HW226862   1.306   4.852   1.121
 8655SOL     OW26863   6.693   1.424   3.787
 8655SOL    HW126864   6.706   1.330   3.754
 8655SOL    HW226865   6.675   1.422   3.885
 8656SOL     OW26866   6.150   0.642   0.424
 8656SOL    HW126867   6.220   0.665   0.356
 8656SOL    HW226868   6.116   0.550   0.407
 8657SOL     OW26869   5.042   4.892   0.387
 8657SOL    HW126870   5.101   4.904   0.307
 8657SOL    HW226871   5.070   4.956   0.459
 8658SOL     OW26872   4.223   6.658   7.001
 8658SOL    HW126873   4.142   6.712   6.978
 8658SOL    HW226874   4.252   6.606   6.921
 8659SOL     OW26875   4.643   1.932   3.004
 8659SOL    HW126876   4.640   1.983   2.918
 8659SOL    HW226877   4.727   1.955   3.053
 8660SOL     OW26878   5.910   3.663   0.517
 8660SOL    HW126879   5.992   3.687   0.465
 8660SOL    HW226880   5.937   3.633   0.609
 8661SOL     OW26881   5.641   3.897   0.969
 8661SOL    HW126882   5.561   3.847   0.934
 8661SOL    HW226883   5.712   3.898   0.899
 8662SOL     OW26884   4.446   5.963   0.830
 8662SOL    HW126885   4.481   5.884   0.779
 8662SOL    HW226886   4.368   5.935   0.887
 8663SOL     OW26887   2.878   5.476   1.575
 8663SOL    HW126888   2.866   5.427   1.661
 8663SOL    HW226889   2.959   5.442   1.527
 8664SOL     OW26890   3.053   6.250   1.383
 8664SOL    HW126891   3.043   6.163   1.336
 8664SOL    HW226892   3.135   6.247   1.441
 8665SOL     OW26893   5.625   6.180   4.751
 8665SOL    HW126894   5.655   6.161   4.658
 8665SOL    HW226895   5.589   6.097   4.792
 8666SOL     OW26896   4.818   1.268   3.872
 8666SOL    HW126897   4.809   1.178   3.914
 8666SOL    HW226898   4.729   1.313   3.869
 8667SOL     OW26899   4.998   2.790   3.105
 8667SOL    HW126900   4.918   2.834   3.063
 8667SOL    HW226901   4.992   2.798   3.204
 8668SOL     OW26902   6.030   3.620   2.997
 8668SOL    HW126903   5.941   3.579   2.977
 8668SOL    HW226904   6.096   3.590   2.928
 8669SOL     OW26905   2.040   6.431   0.374
 8669SOL    HW126906   2.127   6.407   0.329
 8669SOL    HW226907   1.974   6.357   0.358
 8670SOL     OW26908   3.480   4.555   5.493
 8670SOL    HW126909   3.546   4.480   5.478
 8670SOL    HW226910   3.391   4.528   5.458
 8671SOL     OW26911   5.347   2.139   3.394
 8671SOL    HW126912   5.382   2.209   3.332
 8671SOL    HW226913   5.262   2.100   3.357
 8672SOL     OW26914   1.943   4.943   4.057
 8672SOL    HW126915   1.927   4.881   3.979
 8672SOL    HW226916   2.041   4.955   4.071
 8673SOL     OW26917   6.695   2.740   0.119
 8673SOL    HW126918   6.597   2.726   0.106
 8673SOL    HW226919   6.745   2.710   0.038
 8674SOL     OW26920   5.409   5.375   3.254
 8674SOL    HW126921   5.332   5.314   3.237
 8674SOL    HW226922   5.492   5.322   3.267
 8675SOL     OW26923   2.992   2.125   4.330
 8675SOL    HW126924   2.926   2.174   4.273
 8675SOL    HW226925   2.953   2.110   4.420
 8676SOL     OW26926   4.123   0.408   2.796
 8676SOL    HW126927   4.172   0.465   2.861
 8676SOL    HW226928   4.026   0.432   2.796
 8677SOL     OW26929   2.431   6.086   5.653
 8677SOL    HW126930   2.442   6.044   5.743
 8677SOL    HW226931   2.417   6.015   5.584
 8678SOL     OW26932   6.673   0.372   1.115
 8678SOL    HW126933   6.668   0.274   1.096
 8678SOL    HW226934   6.769   0.398   1.129
 8679SOL     OW26935   6.617   2.307   3.569
 8679SOL    HW126936   6.702   2.305   3.516
 8679SOL    HW226937   6.540   2.327   3.509
 8680SOL     OW26938   1.283   3.983   1.634
 8680SOL    HW126939   1.221   4.062   1.633
 8680SOL    HW226940   1.269   3.931   1.718
 8681SOL     OW26941   4.699   5.366   6.897
 8681SOL    HW126942   4.733   5.413   6.978
 8681SOL    HW226943   4.735   5.411   6.815
 8682SOL     OW26944   5.065   6.827   1.150
 8682SOL    HW126945   5.078   6.913   1.101
 8682SOL    HW226946   5.026   6.845   1.240
 8683SOL     OW26947   1.893   2.506   2.331
 8683SOL    HW126948   1.923   2.411   2.341
 8683SOL    HW226949   1.799   2.507   2.298
 8684SOL     OW26950   0.774   2.472   4.747
 8684SOL    HW126951   0.784   2.552   4.806
 8684SOL    HW226952   0.683   2.432   4.760
 8685SOL     OW26953   0.433   2.278   5.925
 8685SOL    HW126954   0.393   2.186   5.924
 8685SOL    HW226955   0.429   2.317   5.833
 8686SOL     OW26956   6.981   0.966   1.635
 8686SOL    HW126957   6.909   0.919   1.687
 8686SOL    HW226958   7.004   1.053   1.679
 8687SOL     OW26959   4.184   5.630   2.261
 8687SOL    HW126960   4.096   5.645   2.306
 8687SOL    HW226961   4.254   5.687   2.305
 8688SOL     OW26962   3.129   6.024   0.108
 8688SOL    HW126963   3.108   6.042   0.204
 8688SOL    HW226964   3.046   6.033   0.053
 8689SOL     OW26965   3.515   4.181   1.875
 8689SOL    HW126966   3.480   4.185   1.969
 8689SOL    HW226967   3.493   4.091   1.836
 8690SOL     OW26968   1.643   3.147   3.119
 8690SOL    HW126969   1.564   3.110   3.168
 8690SOL    HW226970   1.646   3.109   3.027
 8691SOL     OW26971   3.125   1.994   6.419
 8691SOL    HW126972   3.205   2.051   6.406
 8691SOL    HW226973   3.144   1.926   6.490
 8692SOL     OW26974   1.684   1.396   3.943
 8692SOL    HW126975   1.747   1.438   4.008
 8692SOL    HW226976   1.590   1.419   3.968
 8693SOL     OW26977   6.936   0.941   6.878
 8693SOL    HW126978   6.873   0.967   6.951
 8693SOL    HW226979   7.026   0.924   6.917
 8694SOL     OW26980   4.188   1.201   5.049
 8694SOL    HW126981   4.096   1.194   5.012
 8694SOL    HW226982   4.194   1.151   5.135
 8695SOL     OW26983   3.797   2.427   6.057
 8695SOL    HW126984   3.765   2.505   6.111
 8695SOL    HW226985   3.718   2.382   6.014
 8696SOL     OW26986   2.200   5.612   0.556
 8696SOL    HW126987   2.295   5.584   0.542
 8696SOL    HW226988   2.153   5.617   0.468
 8697SOL     OW26989   6.722   2.692   0.409
 8697SOL    HW126990   6.734   2.602   0.450
 8697SOL    HW226991   6.714   2.682   0.309
 8698SOL     OW26992   5.717   5.814   4.568
 8698SOL    HW126993   5.621   5.786   4.565
 8698SOL    HW226994   5.773   5.747   4.519
 8699SOL     OW26995   2.234   2.420   5.496
 8699SOL    HW126996   2.254   2.513   5.462
 8699SOL    HW226997   2.178   2.372   5.429
 8700SOL     OW26998   0.832   0.350   4.287
 8700SOL    HW126999   0.793   0.297   4.361
 8700SOL    HW227000   0.930   0.329   4.279
 8701SOL     OW27001   1.248   0.937   0.576
 8701SOL    HW127002   1.186   0.939   0.655
 8701SOL    HW227003   1.319   0.869   0.592
 8702SOL     OW27004   5.427   4.771   0.867
 8702SOL    HW127005   5.412   4.677   0.898
 8702SOL    HW227006   5.525   4.788   0.857
 8703SOL     OW27007   3.382   5.186   0.485
 8703SOL    HW127008   3.387   5.086   0.487
 8703SOL    HW227009   3.338   5.216   0.401
 8704SOL     OW27010   6.913   3.395   2.552
 8704SOL    HW127011   6.826   3.398   2.503
 8704SOL    HW227012   6.979   3.455   2.507
 8705SOL     OW27013   5.285   0.946   6.878
 8705SOL    HW127014   5.289   1.032   6.828
 8705SOL    HW227015   5.230   0.957   6.960
 8706SOL     OW27016   4.893   2.284   6.080
 8706SOL    HW127017   4.835   2.362   6.057
 8706SOL    HW227018   4.906   2.226   5.999
 8707SOL     OW27019   6.988   2.844   0.027
 8707SOL    HW127020   6.931   2.898   0.088
 8707SOL    HW227021   6.930   2.784   6.999
 8708SOL     OW27022   4.685   2.215   2.184
 8708SOL    HW127023   4.695   2.302   2.136
 8708SOL    HW227024   4.755   2.209   2.256
 8709SOL     OW27025   6.723   5.984   0.138
 8709SOL    HW127026   6.654   6.038   0.089
 8709SOL    HW227027   6.795   6.044   0.171
 8710SOL     OW27028   2.190   3.234   4.068
 8710SOL    HW127029   2.189   3.134   4.073
 8710SOL    HW227030   2.169   3.272   4.158
 8711SOL     OW27031   1.182   6.438   3.397
 8711SOL    HW127032   1.125   6.383   3.457
 8711SOL    HW227033   1.271   6.394   3.384
 8712SOL     OW27034   4.004   2.194   5.133
 8712SOL    HW127035   3.983   2.185   5.230
 8712SOL    HW227036   4.086   2.249   5.121
 8713SOL     OW27037   0.677   3.881   4.076
 8713SOL    HW127038   0.637   3.835   3.996
 8713SOL    HW227039   0.613   3.874   4.153
 8714SOL     OW27040   1.168   1.077   5.799
 8714SOL    HW127041   1.071   1.097   5.813
 8714SOL    HW227042   1.209   1.049   5.886
 8715SOL     OW27043   4.039   0.354   1.139
 8715SOL    HW127044   4.138   0.366   1.135
 8715SOL    HW227045   4.017   0.282   1.205
 8716SOL     OW27046   0.379   0.061   0.798
 8716SOL    HW127047   0.290   0.073   0.753
 8716SOL    HW227048   0.365   0.021   0.889
 8717SOL     OW27049   3.225   3.488   3.545
 8717SOL    HW127050   3.212   3.453   3.452
 8717SOL    HW227051   3.141   3.532   3.576
 8718SOL     OW27052   0.789   4.247   4.478
 8718SOL    HW127053   0.847   4.303   4.537
 8718SOL    HW227054   0.844   4.208   4.404
 8719SOL     OW27055   2.974   0.806   6.409
 8719SOL    HW127056   2.993   0.904   6.408
 8719SOL    HW227057   2.905   0.784   6.340
 8720SOL     OW27058   6.303   5.287   5.689
 8720SOL    HW127059   6.226   5.231   5.720
 8720SOL    HW227060   6.388   5.235   5.697
 8721SOL     OW27061   0.568   2.536   2.661
 8721SOL    HW127062   0.498   2.517   2.730
 8721SOL    HW227063   0.524   2.546   2.571
 8722SOL     OW27064   4.222   1.537   6.911
 8722SOL    HW127065   4.186   1.514   6.821
 8722SOL    HW227066   4.196   1.631   6.934
 8723SOL     OW27067   4.775   5.784   0.908
 8723SOL    HW127068   4.772   5.883   0.901
 8723SOL    HW227069   4.718   5.744   0.835
 8724SOL     OW27070   5.654   0.257   5.906
 8724SOL    HW127071   5.611   0.298   5.986
 8724SOL    HW227072   5.659   0.324   5.833
 8725SOL     OW27073   2.190   6.897   6.782
 8725SOL    HW127074   2.109   6.945   6.818
 8725SOL    HW227075   2.241   6.959   6.722
 8726SOL     OW27076   6.435   0.134   2.089
 8726SOL    HW127077   6.378   0.161   2.167
 8726SOL    HW227078   6.471   0.043   2.105
 8727SOL     OW27079   0.281   6.267   2.303
 8727SOL    HW127080   0.299   6.174   2.272
 8727SOL    HW227081   0.295   6.272   2.402
 8728SOL     OW27082   4.713   0.355   4.000
 8728SOL    HW127083   4.729   0.453   4.005
 8728SOL    HW227084   4.797   0.309   3.972
 8729SOL     OW27085   4.860   6.055   4.098
 8729SOL    HW127086   4.762   6.076   4.087
 8729SOL    HW227087   4.886   6.073   4.193
 8730SOL     OW27088   6.491   4.045   2.395
 8730SOL    HW127089   6.487   4.051   2.295
 8730SOL    HW227090   6.446   3.961   2.425
 8731SOL     OW27091   2.282   2.679   2.704
 8731SOL    HW127092   2.227   2.611   2.754
 8731SOL    HW227093   2.279   2.766   2.753
 8732SOL     OW27094   5.208   4.692   1.739
 8732SOL    HW127095   5.224   4.594   1.731
 8732SOL    HW227096   5.151   4.724   1.663
 8733SOL     OW27097   1.655   5.655   1.325
 8733SOL    HW127098   1.663   5.681   1.422
 8733SOL    HW227099   1.592   5.578   1.316
 8734SOL     OW27100   1.662   4.977   2.198
 8734SOL    HW127101   1.702   4.902   2.146
 8734SOL    HW227102   1.681   4.965   2.295
 8735SOL     OW27103   1.139   2.088   0.627
 8735SOL    HW127104   1.134   2.097   0.528
 8735SOL    HW227105   1.115   2.175   0.670
 8736SOL     OW27106   0.732   6.017   6.055
 8736SOL    HW127107   0.812   6.011   5.996
 8736SOL    HW227108   0.649   6.013   5.999
 8737SOL     OW27109   2.274   6.850   6.206
 8737SOL    HW127110   2.365   6.814   6.230
 8737SOL    HW227111   2.284   6.923   6.139
 8738SOL     OW27112   2.205   5.343   4.510
 8738SOL    HW127113   2.150   5.260   4.516
 8738SOL    HW227114   2.302   5.319   4.510
 8739SOL     OW27115   5.920   5.561   6.078
 8739SOL    HW127116   5.988   5.615   6.028
 8739SOL    HW227117   5.955   5.468   6.091
 8740SOL     OW27118   5.309   1.014   5.447
 8740SOL    HW127119   5.317   1.110   5.475
 8740SOL    HW227120   5.376   0.959   5.497
 8741SOL     OW27121   2.761   1.218   1.511
 8741SOL    HW127122   2.737   1.282   1.437
 8741SOL    HW227123   2.815   1.266   1.580
 8742SOL     OW27124   5.998   6.419   1.328
 8742SOL    HW127125   5.999   6.351   1.254
 8742SOL    HW227126   6.081   6.474   1.324
 8743SOL     OW27127   1.551   0.778   2.287
 8743SOL    HW127128   1.571   0.765   2.190
 8743SOL    HW227129   1.454   0.799   2.298
 8744SOL     OW27130   3.360   2.732   6.554
 8744SOL    HW127131   3.362   2.700   6.459
 8744SOL    HW227132   3.266   2.729   6.587
 8745SOL     OW27133   5.806   3.035   6.178
 8745SOL    HW127134   5.787   2.960   6.241
 8745SOL    HW227135   5.899   3.068   6.192
 8746SOL     OW27136   5.241   3.783   4.977
 8746SOL    HW127137   5.324   3.796   4.924
 8746SOL    HW227138   5.264   3.740   5.065
 8747SOL     OW27139   0.878   2.720   2.488
 8747SOL    HW127140   0.963   2.772   2.499
 8747SOL    HW227141   0.892   2.648   2.419
 8748SOL     OW27142   6.892   1.639   5.232
 8748SOL    HW127143   6.844   1.718   5.192
 8748SOL    HW227144   6.825   1.569   5.256
 8749SOL     OW27145   2.714   0.700   6.323
 8749SOL    HW127146   2.751   0.698   6.416
 8749SOL    HW227147   2.706   0.607   6.288
 8750SOL     OW27148   3.366   3.459   5.727
 8750SOL    HW127149   3.450   3.514   5.723
 8750SOL    HW227150   3.287   3.520   5.723
 8751SOL     OW27151   6.453   0.902   3.045
 8751SOL    HW127152   6.453   0.909   3.145
 8751SOL    HW227153   6.371   0.852   3.015
 8752SOL     OW27154   2.297   4.070   0.686
 8752SOL    HW127155   2.356   4.138   0.728
 8752SOL    HW227156   2.203   4.105   0.681
 8753SOL     OW27157   4.533   2.042   5.030
 8753SOL    HW127158   4.469   2.100   4.979
 8753SOL    HW227159   4.546   1.955   4.982
 8754SOL     OW27160   1.392   3.070   5.246
 8754SOL    HW127161   1.421   3.157   5.286
 8754SOL    HW227162   1.453   3.045   5.171
 8755SOL     OW27163   2.560   0.466   0.894
 8755SOL    HW127164   2.622   0.441   0.820
 8755SOL    HW227165   2.597   0.544   0.944
 8756SOL     OW27166   1.576   2.983   3.458
 8756SOL    HW127167   1.546   3.062   3.404
 8756SOL    HW227168   1.668   2.957   3.429
 8757SOL     OW27169   4.137   6.205   5.916
 8757SOL    HW127170   4.192   6.251   5.985
 8757SOL    HW227171   4.117   6.112   5.945
 8758SOL     OW27172   4.907   6.480   2.643
 8758SOL    HW127173   4.869   6.572   2.646
 8758SOL    HW227174   4.949   6.464   2.553
 8759SOL     OW27175   4.217   2.246   0.660
 8759SOL    HW127176   4.191   2.196   0.743
 8759SOL    HW227177   4.219   2.183   0.582
 8760SOL     OW27178   1.229   1.420   4.969
 8760SOL    HW127179   1.184   1.359   4.905
 8760SOL    HW227180   1.285   1.486   4.919
 8761SOL     OW27181   5.469   2.294   2.497
 8761SOL    HW127182   5.453   2.334   2.587
 8761SOL    HW227183   5.394   2.231   2.476
 8762SOL     OW27184   0.581   4.188   2.201
 8762SOL    HW127185   0.543   4.217   2.289
 8762SOL    HW227186   0.669   4.233   2.186
 8763SOL     OW27187   6.637   6.394   5.988
 8763SOL    HW127188   6.635   6.448   6.072
 8763SOL    HW227189   6.557   6.334   5.985
 8764SOL     OW27190   4.953   1.093   4.725
 8764SOL    HW127191   5.037   1.142   4.748
 8764SOL    HW227192   4.973   1.018   4.662
 8765SOL     OW27193   5.680   6.846   5.559
 8765SOL    HW127194   5.676   6.771   5.494
 8765SOL    HW227195   5.643   6.929   5.517
 8766SOL     OW27196   4.515   4.573   3.911
 8766SOL    HW127197   4.446   4.632   3.869
 8766SOL    HW227198   4.505   4.577   4.011
 8767SOL     OW27199   4.300   6.945   3.037
 8767SOL    HW127200   4.369   6.979   2.973
 8767SOL    HW227201   4.344   6.923   3.124
 8768SOL     OW27202   1.095   3.214   0.566
 8768SOL    HW127203   1.002   3.184   0.589
 8768SOL    HW227204   1.101   3.313   0.572
 8769SOL     OW27205   0.826   0.231   3.928
 8769SOL    HW127206   0.916   0.274   3.936
 8769SOL    HW227207   0.769   0.285   3.866
 8770SOL     OW27208   5.243   4.290   2.376
 8770SOL    HW127209   5.274   4.270   2.469
 8770SOL    HW227210   5.212   4.205   2.333
 8771SOL     OW27211   1.235   0.342   6.518
 8771SOL    HW127212   1.196   0.394   6.594
 8771SOL    HW227213   1.163   0.289   6.474
 8772SOL     OW27214   5.001   6.863   6.948
 8772SOL    HW127215   4.972   6.936   7.010
 8772SOL    HW227216   5.051   6.902   6.871
 8773SOL     OW27217   4.679   2.726   3.744
 8773SOL    HW127218   4.736   2.645   3.759
 8773SOL    HW227219   4.641   2.756   3.832
 8774SOL     OW27220   1.768   1.423   6.530
 8774SOL    HW127221   1.726   1.378   6.609
 8774SOL    HW227222   1.706   1.493   6.495
 8775SOL     OW27223   6.325   7.014   5.441
 8775SOL    HW127224   6.357   6.919   5.436
 8775SOL    HW227225   6.234   7.021   5.399
 8776SOL     OW27226   3.928   3.597   5.812
 8776SOL    HW127227   4.020   3.558   5.821
 8776SOL    HW227228   3.912   3.663   5.886
 8777SOL     OW27229   6.695   3.952   1.698
 8777SOL    HW127230   6.634   4.020   1.658
 8777SOL    HW227231   6.721   3.885   1.627
 8778SOL     OW27232   6.659   2.451   4.973
 8778SOL    HW127233   6.617   2.507   4.901
 8778SOL    HW227234   6.617   2.474   5.061
 8779SOL     OW27235   2.934   5.090   2.129
 8779SOL    HW127236   2.981   5.158   2.186
 8779SOL    HW227237   2.995   5.013   2.111
 8780SOL     OW27238   1.052   5.989   2.902
 8780SOL    HW127239   1.034   6.039   2.817
 8780SOL    HW227240   1.009   5.899   2.897
 8781SOL     OW27241   6.320   1.889   3.309
 8781SOL    HW127242   6.417   1.899   3.289
 8781SOL    HW227243   6.305   1.807   3.365
 8782SOL     OW27244   5.034   6.758   1.898
 8782SOL    HW127245   5.040   6.856   1.917
 8782SOL    HW227246   4.944   6.736   1.861
 8783SOL     OW27247   6.939   4.020   3.648
 8783SOL    HW127248   6.883   3.947   3.610
 8783SOL    HW227249   6.890   4.107   3.639
 8784SOL     OW27250   5.671   4.289   6.494
 8784SOL    HW127251   5.673   4.315   6.397
 8784SOL    HW227252   5.765   4.278   6.526
 8785SOL     OW27253   6.774   3.831   6.553
 8785SOL    HW127254   6.855   3.779   6.527
 8785SOL    HW227255   6.703   3.767   6.584
 8786SOL     OW27256   1.758   0.023   0.213
 8786SOL    HW127257   1.831   0.051   0.151
 8786SOL    HW227258   1.792   0.023   0.307
 8787SOL     OW27259   2.688   2.431   1.749
 8787SOL    HW127260   2.603   2.380   1.763
 8787SOL    HW227261   2.748   2.419   1.828
 8788SOL     OW27262   0.194   2.314   6.095
 8788SOL    HW127263   0.283   2.315   6.048
 8788SOL    HW227264   0.176   2.404   6.135
 8789SOL     OW27265   6.028   6.957   5.389
 8789SOL    HW127266   5.974   6.972   5.471
 8789SOL    HW227267   6.044   6.858   5.377
 8790SOL     OW27268   0.286   0.519   6.619
 8790SOL    HW127269   0.239   0.588   6.674
 8790SOL    HW227270   0.351   0.469   6.677
 8791SOL     OW27271   6.148   6.814   5.018
 8791SOL    HW127272   6.073   6.776   4.964
 8791SOL    HW227273   6.203   6.875   4.961
 8792SOL     OW27274   3.459   6.750   3.336
 8792SOL    HW127275   3.381   6.688   3.343
 8792SOL    HW227276   3.505   6.757   3.425
 8793SOL     OW27277   1.679   5.040   3.237
 8793SOL    HW127278   1.581   5.033   3.257
 8793SOL    HW227279   1.696   5.012   3.142
 8794SOL     OW27280   4.302   6.428   1.707
 8794SOL    HW127281   4.231   6.487   1.746
 8794SOL    HW227282   4.380   6.425   1.769
 8795SOL     OW27283   1.485   6.159   5.585
 8795SOL    HW127284   1.409   6.095   5.587
 8795SOL    HW227285   1.569   6.113   5.615
 8796SOL     OW27286   4.537   1.865   4.318
 8796SOL    HW127287   4.601   1.841   4.391
 8796SOL    HW227288   4.574   1.941   4.265
 8797SOL     OW27289   0.858   6.781   5.626
 8797SOL    HW127290   0.881   6.694   5.670
 8797SOL    HW227291   0.903   6.785   5.536
 8798SOL     OW27292   5.156   5.750   5.672
 8798SOL    HW127293   5.201   5.682   5.730
 8798SOL    HW227294   5.187   5.842   5.698
 8799SOL     OW27295   2.155   4.547   3.929
 8799SOL    HW127296   2.170   4.641   3.959
 8799SOL    HW227297   2.229   4.489   3.964
 8800SOL     OW27298   5.916   4.359   5.446
 8800SOL    HW127299   5.827   4.392   5.413
 8800SOL    HW227300   5.970   4.436   5.479
 8801SOL     OW27301   0.739   1.763   4.836
 8801SOL    HW127302   0.769   1.837   4.895
 8801SOL    HW227303   0.788   1.769   4.748
 8802SOL     OW27304   1.867   6.939   0.995
 8802SOL    HW127305   1.917   6.950   1.081
 8802SOL    HW227306   1.787   6.880   1.011
 8803SOL     OW27307   6.930   5.512   6.302
 8803SOL    HW127308   7.017   5.555   6.277
 8803SOL    HW227309   6.929   5.418   6.267
 8804SOL     OW27310   3.116   0.479   2.340
 8804SOL    HW127311   3.103   0.476   2.439
 8804SOL    HW227312   3.097   0.389   2.301
 8805SOL     OW27313   2.857   0.043   3.920
 8805SOL    HW127314   2.933   0.031   3.983
 8805SOL    HW227315   2.874   0.120   3.859
 8806SOL     OW27316   2.479   5.102   2.162
 8806SOL    HW127317   2.447   5.024   2.216
 8806SOL    HW227318   2.567   5.133   2.199
 8807SOL     OW27319   5.237   0.220   6.718
 8807SOL    HW127320   5.144   0.254   6.708
 8807SOL    HW227321   5.239   0.149   6.788
 8808SOL     OW27322   5.724   2.299   6.918
 8808SOL    HW127323   5.700   2.329   6.826
 8808SOL    HW227324   5.659   2.336   6.984
 8809SOL     OW27325   4.430   5.448   3.713
 8809SOL    HW127326   4.354   5.414   3.768
 8809SOL    HW227327   4.484   5.512   3.767
 8810SOL     OW27328   5.308   0.550   6.009
 8810SOL    HW127329   5.212   0.529   6.030
 8810SOL    HW227330   5.324   0.648   6.026
 8811SOL     OW27331   2.738   1.617   3.835
 8811SOL    HW127332   2.707   1.588   3.745
 8811SOL    HW227333   2.663   1.611   3.901
 8812SOL     OW27334   2.228   0.033   1.298
 8812SOL    HW127335   2.254   6.981   1.352
 8812SOL    HW227336   2.262   0.116   1.341
 8813SOL     OW27337   1.007   4.656   1.818
 8813SOL    HW127338   0.908   4.674   1.821
 8813SOL    HW227339   1.032   4.629   1.725
 8814SOL     OW27340   5.760   6.816   0.937
 8814SOL    HW127341   5.705   6.891   0.901
 8814SOL    HW227342   5.854   6.847   0.949
 8815SOL     OW27343   6.761   6.330   0.541
 8815SOL    HW127344   6.844   6.293   0.581
 8815SOL    HW227345   6.754   6.301   0.445
 8816SOL     OW27346   1.295   0.636   6.995
 8816SOL    HW127347   1.264   0.664   0.059
 8816SOL    HW227348   1.380   0.585   7.003
 8817SOL     OW27349   1.236   5.942   4.698
 8817SOL    HW127350   1.242   5.879   4.776
 8817SOL    HW227351   1.147   5.931   4.654
 8818SOL     OW27352   0.429   3.629   4.649
 8818SOL    HW127353   0.529   3.630   4.651
 8818SOL    HW227354   0.395   3.721   4.632
 8819SOL     OW27355   5.484   4.996   4.872
 8819SOL    HW127356   5.486   5.090   4.906
 8819SOL    HW227357   5.560   4.944   4.912
 8820SOL     OW27358   1.836   0.697   5.219
 8820SOL    HW127359   1.919   0.641   5.221
 8820SOL    HW227360   1.860   0.791   5.193
 8821SOL     OW27361   3.092   6.106   0.358
 8821SOL    HW127362   3.070   6.078   0.451
 8821SOL    HW227363   3.058   6.199   0.342
 8822SOL     OW27364   0.744   6.899   4.945
 8822SOL    HW127365   0.647   6.887   4.920
 8822SOL    HW227366   0.752   6.970   5.015
 8823SOL     OW27367   2.485   0.697   1.294
 8823SOL    HW127368   2.447   0.737   1.377
 8823SOL    HW227369   2.512   0.770   1.231
 8824SOL     OW27370   0.887   3.171   0.781
 8824SOL    HW127371   0.825   3.230   0.832
 8824SOL    HW227372   0.906   3.088   0.834
 8825SOL     OW27373   1.553   0.634   2.736
 8825SOL    HW127374   1.585   0.704   2.800
 8825SOL    HW227375   1.605   0.641   2.651
 8826SOL     OW27376   6.630   3.063   0.893
 8826SOL    HW127377   6.568   3.121   0.945
 8826SOL    HW227378   6.701   3.027   0.953
 8827SOL     OW27379   3.726   1.379   3.244
 8827SOL    HW127380   3.678   1.462   3.218
 8827SOL    HW227381   3.788   1.399   3.321
 8828SOL     OW27382   4.549   5.219   5.661
 8828SOL    HW127383   4.505   5.201   5.573
 8828SOL    HW227384   4.553   5.318   5.677
 8829SOL     OW27385   6.394   2.333   0.620
 8829SOL    HW127386   6.298   2.361   0.625
 8829SOL    HW227387   6.401   2.246   0.571
 8830SOL     OW27388   1.006   1.764   2.153
 8830SOL    HW127389   1.076   1.725   2.092
 8830SOL    HW227390   0.924   1.785   2.100
 8831SOL     OW27391   4.960   1.614   3.937
 8831SOL    HW127392   4.875   1.571   3.907
 8831SOL    HW227393   4.939   1.685   4.005
 8832SOL     OW27394   6.856   5.685   2.937
 8832SOL    HW127395   6.943   5.703   2.891
 8832SOL    HW227396   6.873   5.642   3.026
 8833SOL     OW27397   2.204   6.223   5.625
 8833SOL    HW127398   2.155   6.154   5.571
 8833SOL    HW227399   2.300   6.196   5.633
 8834SOL     OW27400   5.213   3.568   4.792
 8834SOL    HW127401   5.217   3.641   4.860
 8834SOL    HW227402   5.147   3.499   4.821
 8835SOL     OW27403   5.604   0.805   6.148
 8835SOL    HW127404   5.614   0.871   6.074
 8835SOL    HW227405   5.506   0.788   6.164
 8836SOL     OW27406   4.496   2.417   6.899
 8836SOL    HW127407   4.561   2.492   6.909
 8836SOL    HW227408   4.425   2.424   6.970
 8837SOL     OW27409   7.014   5.734   3.231
 8837SOL    HW127410   7.022   5.792   3.149
 8837SOL    HW227411   6.995   5.640   3.203
 8838SOL     OW27412   2.182   4.642   2.840
 8838SOL    HW127413   2.177   4.722   2.781
 8838SOL    HW227414   2.154   4.667   2.933
 8839SOL     OW27415   4.841   4.876   3.302
 8839SOL    HW127416   4.796   4.787   3.296
 8839SOL    HW227417   4.876   4.902   3.212
 8840SOL     OW27418   6.432   2.016   2.038
 8840SOL    HW127419   6.344   2.034   1.995
 8840SOL    HW227420   6.479   2.103   2.057
 8841SOL     OW27421   0.281   0.867   5.398
 8841SOL    HW127422   0.225   0.949   5.400
 8841SOL    HW227423   0.374   0.889   5.430
 8842SOL     OW27424   3.465   3.168   2.258
 8842SOL    HW127425   3.403   3.245   2.245
 8842SOL    HW227426   3.414   3.082   2.250
 8843SOL     OW27427   2.152   3.346   5.600
 8843SOL    HW127428   2.205   3.381   5.523
 8843SOL    HW227429   2.056   3.373   5.589
 8844SOL     OW27430   6.815   2.646   6.921
 8844SOL    HW127431   6.829   2.548   6.926
 8844SOL    HW227432   6.772   2.670   6.834
 8845SOL     OW27433   3.746   3.714   0.098
 8845SOL    HW127434   3.755   3.741   0.194
 8845SOL    HW227435   3.669   3.650   0.089
 8846SOL     OW27436   3.024   5.962   3.748
 8846SOL    HW127437   3.085   5.990   3.673
 8846SOL    HW227438   3.031   5.863   3.761
 8847SOL     OW27439   2.751   1.438   3.598
 8847SOL    HW127440   2.833   1.415   3.545
 8847SOL    HW227441   2.690   1.494   3.542
 8848SOL     OW27442   2.304   1.043   1.492
 8848SOL    HW127443   2.373   1.099   1.538
 8848SOL    HW227444   2.330   0.947   1.499
 8849SOL     OW27445   3.478   6.522   3.720
 8849SOL    HW127446   3.396   6.512   3.664
 8849SOL    HW227447   3.547   6.456   3.690
 8850SOL     OW27448   1.086   2.423   0.089
 8850SOL    HW127449   1.109   2.353   0.021
 8850SOL    HW227450   1.144   2.410   0.170
 8851SOL     OW27451   1.053   4.177   3.625
 8851SOL    HW127452   1.125   4.135   3.569
 8851SOL    HW227453   0.977   4.203   3.566
 8852SOL     OW27454   0.353   2.630   5.240
 8852SOL    HW127455   0.451   2.629   5.220
 8852SOL    HW227456   0.332   2.560   5.308
 8853SOL     OW27457   2.869   0.736   1.482
 8853SOL    HW127458   2.840   0.797   1.556
 8853SOL    HW227459   2.950   0.685   1.511
 8854SOL     OW27460   2.349   2.384   5.757
 8854SOL    HW127461   2.292   2.359   5.679
 8854SOL    HW227462   2.443   2.351   5.742
 8855SOL     OW27463   6.320   5.203   1.355
 8855SOL    HW127464   6.251   5.159   1.412
 8855SOL    HW227465   6.387   5.135   1.324
 8856SOL     OW27466   1.191   6.445   6.349
 8856SOL    HW127467   1.196   6.402   6.439
 8856SOL    HW227468   1.096   6.441   6.316
 8857SOL     OW27469   6.707   1.936   4.626
 8857SOL    HW127470   6.725   1.838   4.618
 8857SOL    HW227471   6.768   1.976   4.696
 8858SOL     OW27472   0.031   4.015   4.559
 8858SOL    HW127473   0.007   4.102   4.517
 8858SOL    HW227474   0.087   4.031   4.641
 8859SOL     OW27475   1.567   1.735   3.720
 8859SOL    HW127476   1.621   1.786   3.653
 8859SOL    HW227477   1.588   1.768   3.812
 8860SOL     OW27478   7.000   2.263   1.567
 8860SOL    HW127479   0.009   2.356   1.575
 8860SOL    HW227480   0.003   2.209   1.646
 8861SOL     OW27481   4.275   1.176   6.028
 8861SOL    HW127482   4.341   1.141   6.095
 8861SOL    HW227483   4.184   1.140   6.049
 8862SOL     OW27484   5.695   0.087   3.808
 8862SOL    HW127485   5.651   0.004   3.772
 8862SOL    HW227486   5.709   0.152   3.733
 8863SOL     OW27487   2.765   4.730   3.273
 8863SOL    HW127488   2.676   4.685   3.267
 8863SOL    HW227489   2.806   4.736   3.181
 8864SOL     OW27490   3.325   5.084   6.601
 8864SOL    HW127491   3.420   5.091   6.572
 8864SOL    HW227492   3.321   5.028   6.685
 8865SOL     OW27493   3.147   0.689   4.454
 8865SOL    HW127494   3.228   0.746   4.464
 8865SOL    HW227495   3.167   0.612   4.394
 8866SOL     OW27496   5.526   6.889   2.904
 8866SOL    HW127497   5.441   6.938   2.883
 8866SOL    HW227498   5.600   6.924   2.847
 8867SOL     OW27499   5.935   4.461   3.456
 8867SOL    HW127500   5.960   4.388   3.521
 8867SOL    HW227501   5.847   4.500   3.482
 8868SOL     OW27502   0.168   3.000   1.797
 8868SOL    HW127503   0.132   3.093   1.788
 8868SOL    HW227504   0.108   2.937   1.748
 8869SOL     OW27505   3.889   5.978   5.351
 8869SOL    HW127506   3.949   5.967   5.431
 8869SOL    HW227507   3.913   6.062   5.303
 8870SOL     OW27508   2.536   6.650   2.027
 8870SOL    HW127509   2.563   6.663   1.932
 8870SOL    HW227510   2.438   6.628   2.030
 8871SOL     OW27511   1.970   0.013   3.498
 8871SOL    HW127512   1.944   6.994   3.583
 8871SOL    HW227513   1.898   0.002   3.430
 8872SOL     OW27514   1.576   5.117   5.767
 8872SOL    HW127515   1.555   5.087   5.861
 8872SOL    HW227516   1.643   5.055   5.727
 8873SOL     OW27517   1.672   6.996   2.181
 8873SOL    HW127518   1.676   7.003   2.082
 8873SOL    HW227519   1.682   0.060   2.221
 8874SOL     OW27520   1.943   5.532   2.430
 8874SOL    HW127521   2.019   5.546   2.494
 8874SOL    HW227522   1.862   5.502   2.481
 8875SOL     OW27523   6.662   3.659   4.633
 8875SOL    HW127524   6.700   3.732   4.576
 8875SOL    HW227525   6.642   3.580   4.575
 8876SOL     OW27526   2.419   0.157   5.669
 8876SOL    HW127527   2.340   0.216   5.690
 8876SOL    HW227528   2.457   0.120   5.753
 8877SOL     OW27529   2.250   2.422   4.204
 8877SOL    HW127530   2.275   2.344   4.263
 8877SOL    HW227531   2.294   2.411   4.115
 8878SOL     OW27532   4.564   4.876   0.864
 8878SOL    HW127533   4.627   4.892   0.939
 8878SOL    HW227534   4.516   4.790   0.877
 8879SOL     OW27535   4.355   4.710   2.426
 8879SOL    HW127536   4.365   4.690   2.329
 8879SOL    HW227537   4.259   4.704   2.452
 8880SOL     OW27538   4.509   6.403   5.038
 8880SOL    HW127539   4.509   6.318   5.091
 8880SOL    HW227540   4.429   6.406   4.979
 8881SOL     OW27541   5.351   6.150   3.952
 8881SOL    HW127542   5.306   6.111   3.872
 8881SOL    HW227543   5.440   6.187   3.926
 8882SOL     OW27544   4.800   1.205   1.102
 8882SOL    HW127545   4.764   1.246   1.186
 8882SOL    HW227546   4.743   1.233   1.024
 8883SOL     OW27547   2.194   6.363   6.382
 8883SOL    HW127548   2.126   6.300   6.420
 8883SOL    HW227549   2.148   6.439   6.335
 8884SOL     OW27550   6.005   3.356   5.698
 8884SOL    HW127551   6.100   3.347   5.667
 8884SOL    HW227552   5.949   3.286   5.654
 8885SOL     OW27553   5.230   4.813   0.695
 8885SOL    HW127554   5.304   4.841   0.756
 8885SOL    HW227555   5.253   4.726   0.651
 8886SOL     OW27556   2.867   5.965   5.283
 8886SOL    HW127557   2.817   5.968   5.196
 8886SOL    HW227558   2.853   5.875   5.325
 8887SOL     OW27559   3.728   0.980   0.919
 8887SOL    HW127560   3.791   0.924   0.972
 8887SOL    HW227561   3.692   1.053   0.977
 8888SOL     OW27562   2.077   1.925   5.181
 8888SOL    HW127563   2.084   2.024   5.173
 8888SOL    HW227564   2.084   1.883   5.091
 8889SOL     OW27565   6.122   6.824   7.019
 8889SOL    HW127566   6.204   6.849   6.966
 8889SOL    HW227567   6.090   6.734   6.990
 8890SOL     OW27568   0.133   5.598   5.838
 8890SOL    HW127569   0.142   5.511   5.888
 8890SOL    HW227570   0.049   5.597   5.785
 8891SOL     OW27571   4.011   4.090   0.447
 8891SOL    HW127572   3.972   4.162   0.390
 8891SOL    HW227573   4.033   4.127   0.538
 8892SOL     OW27574   3.601   4.931   3.304
 8892SOL    HW127575   3.502   4.924   3.313
 8892SOL    HW227576   3.636   4.999   3.368
 8893SOL     OW27577   1.386   5.089   4.358
 8893SOL    HW127578   1.404   4.992   4.370
 8893SOL    HW227579   1.438   5.142   4.425
 8894SOL     OW27580   2.956   1.862   6.264
 8894SOL    HW127581   3.005   1.776   6.276
 8894SOL    HW227582   2.990   1.930   6.328
 8895SOL     OW27583   0.054   2.067   1.758
 8895SOL    HW127584   0.088   2.129   1.829
 8895SOL    HW227585   0.125   2.052   1.689
 8896SOL     OW27586   2.234   2.951   4.884
 8896SOL    HW127587   2.320   2.959   4.934
 8896SOL    HW227588   2.162   2.998   4.935
 8897SOL     OW27589   2.400   2.480   3.457
 8897SOL    HW127590   2.452   2.416   3.400
 8897SOL    HW227591   2.388   2.566   3.408
 8898SOL     OW27592   4.898   3.579   2.742
 8898SOL    HW127593   4.897   3.656   2.678
 8898SOL    HW227594   4.930   3.496   2.695
 8899SOL     OW27595   1.431   4.562   0.746
 8899SOL    HW127596   1.477   4.650   0.752
 8899SOL    HW227597   1.452   4.507   0.827
 8900SOL     OW27598   5.185   3.073   3.349
 8900SOL    HW127599   5.241   3.121   3.416
 8900SOL    HW227600   5.230   3.074   3.260
 8901SOL     OW27601   0.790   1.299   5.065
 8901SOL    HW127602   0.773   1.375   5.002
 8901SOL    HW227603   0.741   1.218   5.034
 8902SOL     OW27604   0.979   5.569   0.310
 8902SOL    HW127605   1.062   5.600   0.263
 8902SOL    HW227606   0.944   5.643   0.368
 8903SOL     OW27607   0.610   2.085   4.439
 8903SOL    HW127608   0.705   2.056   4.422
 8903SOL    HW227609   0.583   2.151   4.369
 8904SOL     OW27610   0.705   0.820   4.843
 8904SOL    HW127611   0.790   0.799   4.794
 8904SOL    HW227612   0.652   0.885   4.789
 8905SOL     OW27613   1.934   3.296   3.185
 8905SOL    HW127614   1.912   3.389   3.214
 8905SOL    HW227615   1.993   3.298   3.105
 8906SOL     OW27616   0.557   6.371   0.900
 8906SOL    HW127617   0.483   6.438   0.912
 8906SOL    HW227618   0.520   6.279   0.910
 8907SOL     OW27619   3.386   2.577   5.832
 8907SOL    HW127620   3.344   2.559   5.742
 8907SOL    HW227621   3.475   2.619   5.819
 8908SOL     OW27622   1.383   5.975   0.376
 8908SOL    HW127623   1.435   6.006   0.297
 8908SOL    HW227624   1.420   6.016   0.459
 8909SOL     OW27625   2.618   1.503   5.729
 8909SOL    HW127626   2.611   1.411   5.769
 8909SOL    HW227627   2.677   1.560   5.786
 8910SOL     OW27628   0.972   2.935   5.425
 8910SOL    HW127629   1.053   2.911   5.372
 8910SOL    HW227630   0.967   3.034   5.436
 8911SOL     OW27631   4.854   3.209   4.488
 8911SOL    HW127632   4.951   3.201   4.466
 8911SOL    HW227633   4.832   3.305   4.506
 8912SOL     OW27634   2.918   3.723   6.920
 8912SOL    HW127635   2.929   3.633   6.877
 8912SOL    HW227636   3.006   3.771   6.920
 8913SOL     OW27637   4.139   5.447   6.281
 8913SOL    HW127638   4.128   5.545   6.261
 8913SOL    HW227639   4.137   5.395   6.196
 8914SOL     OW27640   4.647   0.369   4.648
 8914SOL    HW127641   4.660   0.330   4.739
 8914SOL    HW227642   4.714   0.329   4.585
 8915SOL     OW27643   1.934   2.318   3.587
 8915SOL    HW127644   1.865   2.374   3.632
 8915SOL    HW227645   1.894   2.274   3.506
 8916SOL     OW27646   6.529   3.393   0.338
 8916SOL    HW127647   6.577   3.467   0.387
 8916SOL    HW227648   6.590   3.315   0.327
 8917SOL     OW27649   5.470   2.757   0.410
 8917SOL    HW127650   5.536   2.714   0.349
 8917SOL    HW227651   5.381   2.762   0.364
 8918SOL     OW27652   0.718   4.985   1.015
 8918SOL    HW127653   0.628   4.973   0.972
 8918SOL    HW227654   0.726   4.921   1.092
 8919SOL     OW27655   4.905   3.737   0.114
 8919SOL    HW127656   4.853   3.810   0.071
 8919SOL    HW227657   4.978   3.776   0.170
 8920SOL     OW27658   0.069   1.566   6.964
 8920SOL    HW127659   0.124   1.617   6.897
 8920SOL    HW227660   0.036   1.482   6.923
 8921SOL     OW27661   1.854   3.135   1.880
 8921SOL    HW127662   1.916   3.074   1.930
 8921SOL    HW227663   1.904   3.217   1.852
 8922SOL     OW27664   4.163   5.056   2.479
 8922SOL    HW127665   4.082   5.000   2.499
 8922SOL    HW227666   4.246   5.001   2.491
 8923SOL     OW27667   1.882   1.755   6.543
 8923SOL    HW127668   1.906   1.802   6.628
 8923SOL    HW227669   1.799   1.700   6.558
 8924SOL     OW27670   4.479   5.573   5.430
 8924SOL    HW127671   4.550   5.508   5.400
 8924SOL    HW227672   4.407   5.578   5.360
 8925SOL     OW27673   0.947   0.884   3.307
 8925SOL    HW127674   0.891   0.812   3.266
 8925SOL    HW227675   1.004   0.926   3.236
 8926SOL     OW27676   6.430   3.154   6.062
 8926SOL    HW127677   6.488   3.091   6.112
 8926SOL    HW227678   6.457   3.248   6.082
 8927SOL     OW27679   6.724   1.164   4.564
 8927SOL    HW127680   6.755   1.229   4.494
 8927SOL    HW227681   6.751   1.196   4.654
 8928SOL     OW27682   1.430   0.250   6.146
 8928SOL    HW127683   1.484   0.276   6.226
 8928SOL    HW227684   1.484   0.187   6.089
 8929SOL     OW27685   5.802   1.919   4.740
 8929SOL    HW127686   5.846   1.964   4.663
 8929SOL    HW227687   5.859   1.929   4.822
 8930SOL     OW27688   1.110   2.743   3.461
 8930SOL    HW127689   1.191   2.760   3.517
 8930SOL    HW227690   1.125   2.662   3.404
 8931SOL     OW27691   3.268   3.841   1.094
 8931SOL    HW127692   3.271   3.800   1.185
 8931SOL    HW227693   3.214   3.782   1.033
 8932SOL     OW27694   6.148   2.145   1.917
 8932SOL    HW127695   6.185   2.154   1.825
 8932SOL    HW227696   6.071   2.081   1.916
 8933SOL     OW27697   2.846   2.798   6.263
 8933SOL    HW127698   2.859   2.897   6.255
 8933SOL    HW227699   2.751   2.775   6.242
 8934SOL     OW27700   2.508   5.363   4.500
 8934SOL    HW127701   2.524   5.431   4.571
 8934SOL    HW227702   2.507   5.272   4.541
 8935SOL     OW27703   0.354   4.543   0.176
 8935SOL    HW127704   0.299   4.590   0.107
 8935SOL    HW227705   0.368   4.448   0.149
 8936SOL     OW27706   1.151   4.323   1.860
 8936SOL    HW127707   1.098   4.283   1.934
 8936SOL    HW227708   1.226   4.262   1.836
 8937SOL     OW27709   0.411   0.044   5.876
 8937SOL    HW127710   0.468   0.036   5.958
 8937SOL    HW227711   0.432   0.129   5.829
 8938SOL     OW27712   0.662   6.017   0.663
 8938SOL    HW127713   0.743   5.993   0.716
 8938SOL    HW227714   0.674   6.108   0.622
 8939SOL     OW27715   5.197   3.029   4.096
 8939SOL    HW127716   5.250   2.967   4.038
 8939SOL    HW227717   5.218   3.011   4.192
 8940SOL     OW27718   0.527   1.391   2.149
 8940SOL    HW127719   0.575   1.361   2.231
 8940SOL    HW227720   0.589   1.446   2.093
 8941SOL     OW27721   6.431   2.377   5.834
 8941SOL    HW127722   6.489   2.439   5.781
 8941SOL    HW227723   6.340   2.417   5.844
 8942SOL     OW27724   6.524   4.728   4.877
 8942SOL    HW127725   6.505   4.826   4.865
 8942SOL    HW227726   6.517   4.682   4.789
 8943SOL     OW27727   3.541   5.055   5.969
 8943SOL    HW127728   3.472   4.995   5.927
 8943SOL    HW227729   3.600   5.092   5.897
 8944SOL     OW27730   5.321   4.599   5.234
 8944SOL    HW127731   5.390   4.652   5.283
 8944SOL    HW227732   5.366   4.541   5.166
 8945SOL     OW27733   0.823   0.960   2.975
 8945SOL    HW127734   0.791   0.985   3.067
 8945SOL    HW227735   0.782   1.022   2.908
 8946SOL     OW27736   3.422   1.435   5.279
 8946SOL    HW127737   3.515   1.399   5.277
 8946SOL    HW227738   3.379   1.413   5.367
 8947SOL     OW27739   2.279   3.480   5.374
 8947SOL    HW127740   2.217   3.427   5.316
 8947SOL    HW227741   2.269   3.577   5.354
 8948SOL     OW27742   6.515   6.438   4.525
 8948SOL    HW127743   6.497   6.376   4.601
 8948SOL    HW227744   6.608   6.473   4.531
 8949SOL     OW27745   2.428   6.905   0.864
 8949SOL    HW127746   2.399   6.920   0.769
 8949SOL    HW227747   2.528   6.904   0.868
 8950SOL     OW27748   4.526   4.255   6.134
 8950SOL    HW127749   4.531   4.222   6.040
 8950SOL    HW227750   4.431   4.252   6.165
 8951SOL     OW27751   1.379   2.039   5.320
 8951SOL    HW127752   1.332   2.124   5.342
 8951SOL    HW227753   1.358   2.012   5.226
 8952SOL     OW27754   1.527   6.898   2.537
 8952SOL    HW127755   1.598   6.830   2.525
 8952SOL    HW227756   1.569   6.989   2.543
 8953SOL     OW27757   1.444   4.227   0.074
 8953SOL    HW127758   1.352   4.216   0.113
 8953SOL    HW227759   1.504   4.268   0.143
 8954SOL     OW27760   0.683   0.217   5.516
 8954SOL    HW127761   0.641   0.138   5.473
 8954SOL    HW227762   0.782   0.213   5.505
 8955SOL     OW27763   0.034   5.171   2.350
 8955SOL    HW127764   0.098   5.192   2.275
 8955SOL    HW227765   6.998   5.100   2.320
 8956SOL     OW27766   0.927   1.516   6.642
 8956SOL    HW127767   1.002   1.552   6.697
 8956SOL    HW227768   0.873   1.452   6.697
 8957SOL     OW27769   2.731   4.418   1.646
 8957SOL    HW127770   2.684   4.337   1.681
 8957SOL    HW227771   2.793   4.453   1.717
 8958SOL     OW27772   0.407   1.090   4.891
 8958SOL    HW127773   0.474   1.111   4.963
 8958SOL    HW227774   0.455   1.069   4.806
 8959SOL     OW27775   1.428   4.504   1.652
 8959SOL    HW127776   1.355   4.501   1.583
 8959SOL    HW227777   1.425   4.420   1.707
 8960SOL     OW27778   4.277   4.691   2.821
 8960SOL    HW127779   4.300   4.786   2.839
 8960SOL    HW227780   4.227   4.654   2.899
 8961SOL     OW27781   2.463   1.169   4.450
 8961SOL    HW127782   2.415   1.230   4.513
 8961SOL    HW227783   2.503   1.093   4.501
 8962SOL     OW27784   6.289   6.332   2.001
 8962SOL    HW127785   6.305   6.331   2.100
 8962SOL    HW227786   6.192   6.316   1.983
 8963SOL     OW27787   4.532   6.384   4.168
 8963SOL    HW127788   4.442   6.417   4.138
 8963SOL    HW227789   4.571   6.325   4.097
 8964SOL     OW27790   4.903   3.162   3.311
 8964SOL    HW127791   4.819   3.107   3.311
 8964SOL    HW227792   4.980   3.105   3.340
 8965SOL     OW27793   2.251   4.779   0.797
 8965SOL    HW127794   2.314   4.843   0.751
 8965SOL    HW227795   2.209   4.825   0.876
 8966SOL     OW27796   6.775   4.091   6.605
 8966SOL    HW127797   6.777   3.992   6.595
 8966SOL    HW227798   6.732   4.133   6.525
 8967SOL     OW27799   4.059   0.021   1.813
 8967SOL    HW127800   4.146   7.022   1.772
 8967SOL    HW227801   4.074   0.096   1.877
 8968SOL     OW27802   4.913   4.954   3.061
 8968SOL    HW127803   4.942   5.049   3.051
 8968SOL    HW227804   4.992   4.893   3.047
 8969SOL     OW27805   6.958   1.520   4.647
 8969SOL    HW127806   6.948   1.495   4.743
 8969SOL    HW227807   0.024   1.549   4.629
 8970SOL     OW27808   2.582   3.635   0.240
 8970SOL    HW127809   2.611   3.646   0.145
 8970SOL    HW227810   2.517   3.559   0.246
 8971SOL     OW27811   5.026   5.648   2.065
 8971SOL    HW127812   5.087   5.605   2.132
 8971SOL    HW227813   4.932   5.643   2.098
 8972SOL     OW27814   5.134   4.658   6.619
 8972SOL    HW127815   5.069   4.707   6.562
 8972SOL    HW227816   5.146   4.707   6.705
 8973SOL     OW27817   1.325   3.495   2.526
 8973SOL    HW127818   1.233   3.500   2.564
 8973SOL    HW227819   1.352   3.399   2.515
 8974SOL     OW27820   1.474   4.738   5.911
 8974SOL    HW127821   1.383   4.758   5.875
 8974SOL    HW227822   1.506   4.813   5.968
 8975SOL     OW27823   1.976   6.972   6.049
 8975SOL    HW127824   1.976   6.957   6.148
 8975SOL    HW227825   1.964   0.042   6.030
 8976SOL     OW27826   0.602   4.763   4.953
 8976SOL    HW127827   0.634   4.851   4.916
 8976SOL    HW227828   0.647   4.746   5.041
 8977SOL     OW27829   5.929   2.787   0.213
 8977SOL    HW127830   5.974   2.707   0.253
 8977SOL    HW227831   5.943   2.866   0.272
 8978SOL     OW27832   5.857   0.493   5.399
 8978SOL    HW127833   5.776   0.549   5.418
 8978SOL    HW227834   5.828   0.403   5.368
 8979SOL     OW27835   1.261   3.579   4.516
 8979SOL    HW127836   1.240   3.651   4.583
 8979SOL    HW227837   1.219   3.603   4.428
 8980SOL     OW27838   2.570   2.982   5.791
 8980SOL    HW127839   2.486   2.982   5.846
 8980SOL    HW227840   2.571   2.902   5.731
 8981SOL     OW27841   4.616   2.042   5.347
 8981SOL    HW127842   4.580   1.961   5.392
 8981SOL    HW227843   4.585   2.044   5.252
 8982SOL     OW27844   1.172   2.350   1.012
 8982SOL    HW127845   1.130   2.288   1.077
 8982SOL    HW227846   1.206   2.431   1.060
 8983SOL     OW27847   1.924   6.352   0.070
 8983SOL    HW127848   2.018   6.383   0.057
 8983SOL    HW227849   1.876   6.352   7.010
 8984SOL     OW27850   0.001   0.560   4.384
 8984SOL    HW127851   0.036   0.472   4.351
 8984SOL    HW227852   7.014   0.621   4.306
 8985SOL     OW27853   2.467   3.078   0.803
 8985SOL    HW127854   2.501   3.158   0.852
 8985SOL    HW227855   2.542   3.012   0.791
 8986SOL     OW27856   4.988   5.298   2.388
 8986SOL    HW127857   4.984   5.209   2.434
 8986SOL    HW227858   4.918   5.302   2.317
 8987SOL     OW27859   4.349   6.570   1.404
 8987SOL    HW127860   4.389   6.643   1.460
 8987SOL    HW227861   4.405   6.488   1.412
 8988SOL     OW27862   1.722   3.213   5.507
 8988SOL    HW127863   1.803   3.266   5.481
 8988SOL    HW227864   1.688   3.246   5.595
 8989SOL     OW27865   5.310   3.964   1.300
 8989SOL    HW127866   5.324   4.005   1.210
 8989SOL    HW227867   5.298   3.865   1.289
 8990SOL     OW27868   1.842   6.203   3.403
 8990SOL    HW127869   1.897   6.176   3.482
 8990SOL    HW227870   1.842   6.129   3.335
 8991SOL     OW27871   1.491   2.354   6.582
 8991SOL    HW127872   1.477   2.411   6.663
 8991SOL    HW227873   1.520   2.263   6.610
 8992SOL     OW27874   5.525   1.655   0.316
 8992SOL    HW127875   5.456   1.671   0.245
 8992SOL    HW227876   5.586   1.734   0.320
 8993SOL     OW27877   5.437   2.430   2.038
 8993SOL    HW127878   5.478   2.466   2.122
 8993SOL    HW227879   5.377   2.354   2.060
 8994SOL     OW27880   1.299   4.524   4.583
 8994SOL    HW127881   1.287   4.429   4.611
 8994SOL    HW227882   1.387   4.535   4.538
 8995SOL     OW27883   0.939   3.021   6.950
 8995SOL    HW127884   0.867   2.952   6.952
 8995SOL    HW227885   0.969   3.035   6.855
 8996SOL     OW27886   5.533   5.237   0.781
 8996SOL    HW127887   5.448   5.266   0.737
 8996SOL    HW227888   5.529   5.260   0.878
 8997SOL     OW27889   5.043   1.500   5.648
 8997SOL    HW127890   4.954   1.512   5.693
 8997SOL    HW227891   5.031   1.500   5.549
 8998SOL     OW27892   6.298   4.031   4.567
 8998SOL    HW127893   6.375   3.969   4.572
 8998SOL    HW227894   6.227   3.992   4.508
 8999SOL     OW27895   5.129   6.625   6.491
 8999SOL    HW127896   5.040   6.648   6.530
 8999SOL    HW227897   5.163   6.540   6.531
 9000SOL     OW27898   1.605   4.109   0.918
 9000SOL    HW127899   1.656   4.042   0.972
 9000SOL    HW227900   1.516   4.070   0.892
 9001SOL     OW27901   1.324   5.578   2.428
 9001SOL    HW127902   1.245   5.595   2.487
 9001SOL    HW227903   1.361   5.486   2.447
 9002SOL     OW27904   0.730   4.973   4.786
 9002SOL    HW127905   0.684   5.056   4.754
 9002SOL    HW227906   0.781   4.932   4.710
 9003SOL     OW27907   5.791   3.323   1.790
 9003SOL    HW127908   5.785   3.392   1.717
 9003SOL    HW227909   5.823   3.366   1.874
 9004SOL     OW27910   3.848   6.494   1.612
 9004SOL    HW127911   3.925   6.515   1.551
 9004SOL    HW227912   3.820   6.577   1.660
 9005SOL     OW27913   5.633   2.662   4.275
 9005SOL    HW127914   5.536   2.647   4.295
 9005SOL    HW227915   5.671   2.582   4.230
 9006SOL     OW27916   2.576   5.728   1.355
 9006SOL    HW127917   2.521   5.645   1.364
 9006SOL    HW227918   2.589   5.748   1.258
 9007SOL     OW27919   3.091   1.286   3.834
 9007SOL    HW127920   3.154   1.215   3.804
 9007SOL    HW227921   2.997   1.251   3.833
 9008SOL     OW27922   1.247   5.669   3.628
 9008SOL    HW127923   1.305   5.750   3.637
 9008SOL    HW227924   1.296   5.597   3.579
 9009SOL     OW27925   3.112   6.901   0.953
 9009SOL    HW127926   3.054   6.974   0.989
 9009SOL    HW227927   3.056   6.819   0.937
 9010SOL     OW27928   1.536   6.732   3.732
 9010SOL    HW127929   1.480   6.808   3.698
 9010SOL    HW227930   1.584   6.761   3.815
 9011SOL     OW27931   5.846   1.963   2.437
 9011SOL    HW127932   5.863   1.881   2.383
 9011SOL    HW227933   5.748   1.986   2.434
 9012SOL     OW27934   2.186   3.724   0.408
 9012SOL    HW127935   2.186   3.668   0.490
 9012SOL    HW227936   2.147   3.672   0.332
 9013SOL     OW27937   0.035   6.714   5.162
 9013SOL    HW127938   0.005   6.735   5.069
 9013SOL    HW227939   0.133   6.733   5.171
 9014SOL     OW27940   6.136   1.892   0.098
 9014SOL    HW127941   6.218   1.858   0.145
 9014SOL    HW227942   6.147   1.880   7.027
 9015SOL     OW27943   4.558   1.231   1.885
 9015SOL    HW127944   4.616   1.211   1.806
 9015SOL    HW227945   4.569   1.327   1.911
 9016SOL     OW27946   0.488   6.591   6.649
 9016SOL    HW127947   0.517   6.684   6.627
 9016SOL    HW227948   0.396   6.593   6.688
 9017SOL     OW27949   4.588   2.111   3.526
 9017SOL    HW127950   4.602   2.072   3.435
 9017SOL    HW227951   4.591   2.211   3.520
 9018SOL     OW27952   3.873   2.346   6.502
 9018SOL    HW127953   3.794   2.407   6.497
 9018SOL    HW227954   3.953   2.397   6.532
 9019SOL     OW27955   1.422   6.246   1.551
 9019SOL    HW127956   1.444   6.295   1.466
 9019SOL    HW227957   1.401   6.312   1.623
 9020SOL     OW27958   7.014   3.929   1.000
 9020SOL    HW127959   6.939   3.888   0.949
 9020SOL    HW227960   7.013   4.028   0.988
 9021SOL     OW27961   6.572   7.007   3.172
 9021SOL    HW127962   6.651   6.950   3.195
 9021SOL    HW227963   6.591   0.030   3.088
 9022SOL     OW27964   3.143   1.796   6.607
 9022SOL    HW127965   3.161   1.706   6.568
 9022SOL    HW227966   3.192   1.806   6.694
 9023SOL     OW27967   3.567   3.179   2.524
 9023SOL    HW127968   3.569   3.278   2.516
 9023SOL    HW227969   3.509   3.140   2.453
 9024SOL     OW27970   0.793   4.443   4.988
 9024SOL    HW127971   0.806   4.457   4.890
 9024SOL    HW227972   0.806   4.347   5.010
 9025SOL     OW27973   0.748   5.407   0.311
 9025SOL    HW127974   0.683   5.464   0.361
 9025SOL    HW227975   0.834   5.457   0.299
 9026SOL     OW27976   4.239   3.247   0.970
 9026SOL    HW127977   4.170   3.259   1.041
 9026SOL    HW227978   4.196   3.217   0.886
 9027SOL     OW27979   1.827   2.383   3.179
 9027SOL    HW127980   1.802   2.343   3.091
 9027SOL    HW227981   1.800   2.321   3.253
 9028SOL     OW27982   2.952   3.798   5.635
 9028SOL    HW127983   2.970   3.856   5.555
 9028SOL    HW227984   2.902   3.850   5.704
 9029SOL     OW27985   3.917   6.494   5.153
 9029SOL    HW127986   3.991   6.429   5.162
 9029SOL    HW227987   3.937   6.575   5.208
 9030SOL     OW27988   2.591   1.647   3.504
 9030SOL    HW127989   2.673   1.662   3.449
 9030SOL    HW227990   2.510   1.649   3.444
 9031SOL     OW27991   4.122   5.867   4.500
 9031SOL    HW127992   4.174   5.837   4.580
 9031SOL    HW227993   4.103   5.789   4.441
 9032SOL     OW27994   3.795   3.856   0.732
 9032SOL    HW127995   3.870   3.804   0.690
 9032SOL    HW227996   3.751   3.913   0.662
 9033SOL     OW27997   0.461   4.101   2.859
 9033SOL    HW127998   0.474   4.193   2.895
 9033SOL    HW227999   0.381   4.058   2.901
 9034SOL     OW28000   3.327   0.121   5.450
 9034SOL    HW128001   3.276   0.096   5.533
 9034SOL    HW228002   3.288   0.073   5.372
 9035SOL     OW28003   2.036   5.292   6.803
 9035SOL    HW128004   2.022   5.207   6.752
 9035SOL    HW228005   2.062   5.365   6.740
 9036SOL     OW28006   1.612   1.612   5.406
 9036SOL    HW128007   1.607   1.516   5.379
 9036SOL    HW228008   1.542   1.664   5.358
 9037SOL     OW28009   1.365   4.037   4.990
 9037SOL    HW128010   1.323   3.981   5.061
 9037SOL    HW228011   1.389   3.979   4.912
 9038SOL     OW28012   4.141   0.719   6.063
 9038SOL    HW128013   4.215   0.679   6.118
 9038SOL    HW228014   4.169   0.722   5.967
 9039SOL     OW28015   2.607   5.457   5.479
 9039SOL    HW128016   2.662   5.438   5.397
 9039SOL    HW228017   2.668   5.490   5.551
 9040SOL     OW28018   3.426   2.078   2.579
 9040SOL    HW128019   3.371   2.068   2.496
 9040SOL    HW228020   3.387   2.023   2.652
 9041SOL     OW28021   1.227   2.185   1.219
 9041SOL    HW128022   1.155   2.233   1.271
 9041SOL    HW228023   1.203   2.089   1.210
 9042SOL     OW28024   3.399   0.356   4.413
 9042SOL    HW128025   3.464   0.281   4.428
 9042SOL    HW228026   3.381   0.402   4.500
 9043SOL     OW28027   1.537   1.198   0.002
 9043SOL    HW128028   1.478   1.241   6.961
 9043SOL    HW228029   1.503   1.222   0.093
 9044SOL     OW28030   6.318   0.488   0.159
 9044SOL    HW128031   6.284   0.555   0.094
 9044SOL    HW228032   6.411   0.461   0.135
 9045SOL     OW28033   2.591   1.515   2.496
 9045SOL    HW128034   2.526   1.480   2.564
 9045SOL    HW228035   2.672   1.552   2.542
 9046SOL     OW28036   3.404   3.607   3.206
 9046SOL    HW128037   3.358   3.521   3.228
 9046SOL    HW228038   3.502   3.596   3.222
 9047SOL     OW28039   1.897   3.857   5.638
 9047SOL    HW128040   1.923   3.952   5.621
 9047SOL    HW228041   1.809   3.855   5.687
 9048SOL     OW28042   5.305   3.282   6.475
 9048SOL    HW128043   5.261   3.208   6.527
 9048SOL    HW228044   5.259   3.293   6.387
 9049SOL     OW28045   3.574   7.002   5.558
 9049SOL    HW128046   3.484   0.017   5.550
 9049SOL    HW228047   3.563   6.906   5.583
 9050SOL     OW28048   0.272   3.173   0.685
 9050SOL    HW128049   0.293   3.111   0.761
 9050SOL    HW228050   0.273   3.267   0.718
 9051SOL     OW28051   3.836   0.024   0.962
 9051SOL    HW128052   3.737   0.021   0.948
 9051SOL    HW228053   3.874   0.105   0.917
 9052SOL     OW28054   2.604   2.509   4.199
 9052SOL    HW128055   2.595   2.490   4.297
 9052SOL    HW228056   2.542   2.583   4.173
 9053SOL     OW28057   1.911   0.562   2.612
 9053SOL    HW128058   1.991   0.528   2.562
 9053SOL    HW228059   1.832   0.565   2.550
 9054SOL     OW28060   2.784   5.815   3.831
 9054SOL    HW128061   2.866   5.869   3.812
 9054SOL    HW228062   2.790   5.778   3.923
 9055SOL     OW28063   6.310   2.645   4.580
 9055SOL    HW128064   6.219   2.671   4.614
 9055SOL    HW228065   6.333   2.554   4.613
 9056SOL     OW28066   0.743   1.514   2.004
 9056SOL    HW128067   0.672   1.579   1.977
 9056SOL    HW228068   0.831   1.544   1.970
 9057SOL     OW28069   4.980   4.008   6.251
 9057SOL    HW128070   4.932   4.054   6.176
 9057SOL    HW228071   4.978   4.065   6.333
 9058SOL     OW28072   2.046   1.459   1.549
 9058SOL    HW128073   1.959   1.439   1.595
 9058SOL    HW228074   2.118   1.402   1.588
 9059SOL     OW28075   1.361   2.033   3.914
 9059SOL    HW128076   1.404   2.104   3.969
 9059SOL    HW228077   1.328   2.073   3.828
 9060SOL     OW28078   6.326   2.644   3.629
 9060SOL    HW128079   6.373   2.680   3.549
 9060SOL    HW228080   6.240   2.694   3.643
 9061SOL     OW28081   2.192   4.941   2.000
 9061SOL    HW128082   2.143   4.862   1.964
 9061SOL    HW228083   2.275   4.911   2.047
 9062SOL     OW28084   1.900   6.411   2.023
 9062SOL    HW128085   1.981   6.367   1.983
 9062SOL    HW228086   1.871   6.359   2.103
 9063SOL     OW28087   3.252   0.051   3.221
 9063SOL    HW128088   3.210   0.097   3.143
 9063SOL    HW228089   3.349   0.037   3.204
 9064SOL     OW28090   6.396   2.387   5.421
 9064SOL    HW128091   6.321   2.322   5.415
 9064SOL    HW228092   6.359   2.480   5.418
 9065SOL     OW28093   3.418   0.489   5.316
 9065SOL    HW128094   3.449   0.413   5.260
 9065SOL    HW228095   3.356   0.547   5.264
 9066SOL     OW28096   4.248   6.126   0.755
 9066SOL    HW128097   4.314   6.051   0.760
 9066SOL    HW228098   4.242   6.172   0.843
 9067SOL     OW28099   0.600   0.535   4.664
 9067SOL    HW128100   0.597   0.531   4.764
 9067SOL    HW228101   0.622   0.444   4.627
 9068SOL     OW28102   2.614   6.784   4.499
 9068SOL    HW128103   2.666   6.699   4.497
 9068SOL    HW228104   2.528   6.771   4.450
 9069SOL     OW28105   1.228   3.281   1.327
 9069SOL    HW128106   1.185   3.366   1.297
 9069SOL    HW228107   1.224   3.276   1.427
 9070SOL     OW28108   1.290   3.345   4.690
 9070SOL    HW128109   1.203   3.302   4.713
 9070SOL    HW228110   1.273   3.437   4.656
 9071SOL     OW28111   6.058   6.694   1.838
 9071SOL    HW128112   6.019   6.603   1.829
 9071SOL    HW228113   5.993   6.762   1.803
 9072SOL     OW28114   0.114   1.876   1.461
 9072SOL    HW128115   0.047   1.949   1.472
 9072SOL    HW228116   0.075   1.789   1.491
 9073SOL     OW28117   3.066   0.119   2.702
 9073SOL    HW128118   3.155   0.136   2.744
 9073SOL    HW228119   3.003   0.084   2.772
 9074SOL     OW28120   1.354   1.776   2.034
 9074SOL    HW128121   1.299   1.857   2.054
 9074SOL    HW228122   1.444   1.786   2.076
 9075SOL     OW28123   0.283   1.118   1.710
 9075SOL    HW128124   0.331   1.174   1.777
 9075SOL    HW228125   0.185   1.132   1.718
 9076SOL     OW28126   0.054   2.806   5.737
 9076SOL    HW128127   0.095   2.752   5.811
 9076SOL    HW228128   0.097   2.782   5.650
 9077SOL     OW28129   4.312   0.537   0.060
 9077SOL    HW128130   4.356   0.615   0.103
 9077SOL    HW228131   4.236   0.569   0.004
 9078SOL     OW28132   3.993   3.196   5.948
 9078SOL    HW128133   4.028   3.209   6.040
 9078SOL    HW228134   4.032   3.112   5.909
 9079SOL     OW28135   3.433   0.052   4.187
 9079SOL    HW128136   3.370   0.121   4.154
 9079SOL    HW228137   3.479   0.009   4.109
 9080SOL     OW28138   4.399   2.436   6.442
 9080SOL    HW128139   4.449   2.393   6.367
 9080SOL    HW228140   4.373   2.529   6.417
 9081SOL     OW28141   4.147   0.102   2.369
 9081SOL    HW128142   4.187   0.192   2.387
 9081SOL    HW228143   4.127   0.057   2.456
 9082SOL     OW28144   2.266   0.403   5.130
 9082SOL    HW128145   2.242   0.307   5.112
 9082SOL    HW228146   2.304   0.411   5.222
 9083SOL     OW28147   3.189   5.138   6.362
 9083SOL    HW128148   3.280   5.166   6.330
 9083SOL    HW228149   3.198   5.094   6.451
 9084SOL     OW28150   3.653   4.040   3.500
 9084SOL    HW128151   3.752   4.048   3.487
 9084SOL    HW228152   3.629   3.944   3.512
 9085SOL     OW28153   2.218   0.393   1.785
 9085SOL    HW128154   2.176   0.441   1.709
 9085SOL    HW228155   2.151   0.379   1.858
 9086SOL     OW28156   0.572   4.662   0.021
 9086SOL    HW128157   0.503   4.689   0.088
 9086SOL    HW228158   0.543   4.579   7.002
 9087SOL     OW28159   4.294   2.338   1.324
 9087SOL    HW128160   4.310   2.412   1.389
 9087SOL    HW228161   4.358   2.345   1.248
 9088SOL     OW28162   6.839   6.605   1.376
 9088SOL    HW128163   6.786   6.686   1.397
 9088SOL    HW228164   6.852   6.599   1.277
 9089SOL     OW28165   5.834   5.764   5.522
 9089SOL    HW128166   5.810   5.703   5.597
 9089SOL    HW228167   5.801   5.857   5.543
 9090SOL     OW28168   6.805   1.229   4.834
 9090SOL    HW128169   6.871   1.297   4.866
 9090SOL    HW228170   6.830   1.139   4.871
 9091SOL     OW28171   2.484   4.151   0.390
 9091SOL    HW128172   2.571   4.103   0.399
 9091SOL    HW228173   2.410   4.085   0.377
 9092SOL     OW28174   6.596   0.900   6.584
 9092SOL    HW128175   6.624   0.993   6.557
 9092SOL    HW228176   6.513   0.875   6.535
 9093SOL     OW28177   0.754   5.700   5.550
 9093SOL    HW128178   0.788   5.692   5.644
 9093SOL    HW228179   0.721   5.793   5.535
 9094SOL     OW28180   6.612   4.812   2.708
 9094SOL    HW128181   6.685   4.868   2.667
 9094SOL    HW228182   6.563   4.763   2.636
 9095SOL     OW28183   5.067   4.825   5.878
 9095SOL    HW128184   5.100   4.899   5.819
 9095SOL    HW228185   5.019   4.863   5.956
 9096SOL     OW28186   6.756   5.009   2.544
 9096SOL    HW128187   6.769   5.075   2.618
 9096SOL    HW228188   6.664   5.019   2.506
 9097SOL     OW28189   1.865   1.652   0.658
 9097SOL    HW128190   1.920   1.735   0.645
 9097SOL    HW228191   1.783   1.674   0.711
 9098SOL     OW28192   2.934   2.261   4.836
 9098SOL    HW128193   2.896   2.225   4.921
 9098SOL    HW228194   2.975   2.351   4.854
 9099SOL     OW28195   3.214   3.140   6.169
 9099SOL    HW128196   3.159   3.205   6.116
 9099SOL    HW228197   3.236   3.179   6.258
 9100SOL     OW28198   0.367   3.698   3.432
 9100SOL    HW128199   0.289   3.702   3.494
 9100SOL    HW228200   0.434   3.768   3.457
 9101SOL     OW28201   2.847   2.096   1.876
 9101SOL    HW128202   2.892   2.092   1.787
 9101SOL    HW228203   2.894   2.163   1.934
 9102SOL     OW28204   3.465   6.897   2.295
 9102SOL    HW128205   3.512   6.942   2.371
 9102SOL    HW228206   3.477   6.953   2.212
 9103SOL     OW28207   5.429   1.809   6.816
 9103SOL    HW128208   5.518   1.853   6.805
 9103SOL    HW228209   5.376   1.857   6.885
 9104SOL     OW28210   6.996   6.491   1.556
 9104SOL    HW128211   0.061   6.519   1.584
 9104SOL    HW228212   6.963   6.552   1.485
 9105SOL     OW28213   0.628   0.515   5.661
 9105SOL    HW128214   0.582   0.537   5.575
 9105SOL    HW228215   0.657   0.419   5.660
 9106SOL     OW28216   6.008   3.055   1.164
 9106SOL    HW128217   6.106   3.045   1.181
 9106SOL    HW228218   5.966   3.109   1.237
 9107SOL     OW28219   2.323   0.600   6.401
 9107SOL    HW128220   2.385   0.673   6.371
 9107SOL    HW228221   2.232   0.638   6.418
 9108SOL     OW28222   5.055   4.615   5.292
 9108SOL    HW128223   5.008   4.542   5.243
 9108SOL    HW228224   5.153   4.610   5.272
 9109SOL     OW28225   5.384   3.513   2.867
 9109SOL    HW128226   5.397   3.500   2.965
 9109SOL    HW228227   5.287   3.501   2.844
 9110SOL     OW28228   1.779   5.546   4.414
 9110SOL    HW128229   1.809   5.632   4.372
 9110SOL    HW228230   1.693   5.561   4.463
 9111SOL     OW28231   4.572   2.911   0.011
 9111SOL    HW128232   4.634   2.973   0.060
 9111SOL    HW228233   4.531   2.960   6.961
 9112SOL     OW28234   1.585   5.212   2.527
 9112SOL    HW128235   1.580   5.267   2.443
 9112SOL    HW228236   1.497   5.167   2.542
 9113SOL     OW28237   5.469   2.796   2.787
 9113SOL    HW128238   5.387   2.748   2.757
 9113SOL    HW228239   5.508   2.749   2.866
 9114SOL     OW28240   0.179   5.384   3.433
 9114SOL    HW128241   0.084   5.356   3.437
 9114SOL    HW228242   0.188   5.464   3.374
 9115SOL     OW28243   6.128   5.490   5.211
 9115SOL    HW128244   6.130   5.479   5.111
 9115SOL    HW228245   6.046   5.542   5.237
 9116SOL     OW28246   0.619   0.012   3.009
 9116SOL    HW128247   0.641   0.035   3.104
 9116SOL    HW228248   0.534   6.985   3.007
 9117SOL     OW28249   3.615   2.456   6.553
 9117SOL    HW128250   3.611   2.356   6.557
 9117SOL    HW228251   3.563   2.488   6.474
 9118SOL     OW28252   6.374   3.318   0.123
 9118SOL    HW128253   6.427   3.356   0.199
 9118SOL    HW228254   6.434   3.260   0.068
 9119SOL     OW28255   3.807   1.335   1.671
 9119SOL    HW128256   3.751   1.274   1.727
 9119SOL    HW228257   3.788   1.319   1.574
 9120SOL     OW28258   6.882   2.384   5.702
 9120SOL    HW128259   6.900   2.301   5.755
 9120SOL    HW228260   6.896   2.464   5.760
 9121SOL     OW28261   3.372   6.130   5.304
 9121SOL    HW128262   3.418   6.214   5.275
 9121SOL    HW228263   3.438   6.071   5.351
 9122SOL     OW28264   2.366   4.463   2.134
 9122SOL    HW128265   2.463   4.486   2.144
 9122SOL    HW228266   2.312   4.546   2.144
 9123SOL     OW28267   1.457   0.319   4.342
 9123SOL    HW128268   1.377   0.280   4.388
 9123SOL    HW228269   1.540   0.290   4.389
 9124SOL     OW28270   3.846   5.395   1.933
 9124SOL    HW128271   3.919   5.378   1.867
 9124SOL    HW228272   3.795   5.477   1.905
 9125SOL     OW28273   4.328   4.441   1.042
 9125SOL    HW128274   4.380   4.491   1.112
 9125SOL    HW228275   4.371   4.353   1.025
 9126SOL     OW28276   4.678   3.902   1.306
 9126SOL    HW128277   4.642   3.877   1.396
 9126SOL    HW228278   4.686   4.001   1.300
 9127SOL     OW28279   0.030   2.571   5.430
 9127SOL    HW128280   0.118   2.552   5.386
 9127SOL    HW228281   7.009   2.485   5.446
 9128SOL     OW28282   5.793   2.256   5.082
 9128SOL    HW128283   5.738   2.198   5.022
 9128SOL    HW228284   5.889   2.229   5.076
 9129SOL     OW28285   6.627   1.677   0.399
 9129SOL    HW128286   6.552   1.740   0.418
 9129SOL    HW228287   6.591   1.586   0.379
 9130SOL     OW28288   1.197   4.784   5.817
 9130SOL    HW128289   1.201   4.785   5.917
 9130SOL    HW228290   1.129   4.717   5.787
 9131SOL     OW28291   5.164   3.289   6.856
 9131SOL    HW128292   5.143   3.372   6.907
 9131SOL    HW228293   5.144   3.209   6.912
 9132SOL     OW28294   1.098   4.684   4.472
 9132SOL    HW128295   1.155   4.618   4.521
 9132SOL    HW228296   1.157   4.747   4.421
 9133SOL     OW28297   3.548   0.496   0.756
 9133SOL    HW128298   3.488   0.454   0.824
 9133SOL    HW228299   3.626   0.538   0.802
 9134SOL     OW28300   4.684   5.537   1.571
 9134SOL    HW128301   4.598   5.585   1.554
 9134SOL    HW228302   4.736   5.530   1.485
 9135SOL     OW28303   1.206   6.450   1.600
 9135SOL    HW128304   1.279   6.478   1.662
 9135SOL    HW228305   1.119   6.448   1.651
 9136SOL     OW28306   4.450   5.846   5.437
 9136SOL    HW128307   4.479   5.751   5.446
 9136SOL    HW228308   4.370   5.863   5.494
 9137SOL     OW28309   3.969   0.124   6.750
 9137SOL    HW128310   3.970   0.124   6.650
 9137SOL    HW228311   4.062   0.135   6.784
 9138SOL     OW28312   1.317   3.688   7.001
 9138SOL    HW128313   1.235   3.745   6.991
 9138SOL    HW228314   1.397   3.740   6.974
 9139SOL     OW28315   1.114   1.270   1.871
 9139SOL    HW128316   1.020   1.268   1.837
 9139SOL    HW228317   1.177   1.247   1.796
 9140SOL     OW28318   0.351   4.958   2.397
 9140SOL    HW128319   0.275   4.959   2.462
 9140SOL    HW228320   0.384   5.052   2.383
 9141SOL     OW28321   0.073   6.087   6.498
 9141SOL    HW128322   7.024   6.120   6.443
 9141SOL    HW228323   0.107   6.001   6.460
 9142SOL     OW28324   0.565   3.156   2.413
 9142SOL    HW128325   0.477   3.122   2.448
 9142SOL    HW228326   0.639   3.101   2.451
 9143SOL     OW28327   0.367   3.881   1.417
 9143SOL    HW128328   0.268   3.889   1.406
 9143SOL    HW228329   0.400   3.952   1.478
 9144SOL     OW28330   3.012   4.818   4.729
 9144SOL    HW128331   2.914   4.818   4.714
 9144SOL    HW228332   3.060   4.830   4.642
 9145SOL     OW28333   1.753   6.317   6.875
 9145SOL    HW128334   1.802   6.230   6.873
 9145SOL    HW228335   1.726   6.342   6.782
 9146SOL     OW28336   4.852   3.133   2.939
 9146SOL    HW128337   4.948   3.142   2.964
 9146SOL    HW228338   4.809   3.223   2.943
 9147SOL     OW28339   6.788   0.703   4.853
 9147SOL    HW128340   6.700   0.715   4.899
 9147SOL    HW228341   6.790   0.613   4.808
 9148SOL     OW28342   5.807   0.154   1.831
 9148SOL    HW128343   5.784   0.251   1.826
 9148SOL    HW228344   5.724   0.100   1.824
 9149SOL     OW28345   5.880   3.431   2.014
 9149SOL    HW128346   5.791   3.471   2.033
 9149SOL    HW228347   5.930   3.418   2.099
 9150SOL     OW28348   3.460   4.220   0.416
 9150SOL    HW128349   3.448   4.215   0.317
 9150SOL    HW228350   3.405   4.295   0.453
 9151SOL     OW28351   2.199   3.990   3.874
 9151SOL    HW128352   2.238   4.070   3.920
 9151SOL    HW228353   2.190   3.915   3.940
 9152SOL     OW28354   1.511   4.320   4.329
 9152SOL    HW128355   1.525   4.264   4.248
 9152SOL    HW228356   1.548   4.273   4.409
 9153SOL     OW28357   0.512   3.260   6.662
 9153SOL    HW128358   0.455   3.230   6.585
 9153SOL    HW228359   0.475   3.222   6.747
 9154SOL     OW28360   4.964   4.675   3.649
 9154SOL    HW128361   4.879   4.661   3.598
 9154SOL    HW228362   5.039   4.628   3.601
 9155SOL     OW28363   1.814   4.532   3.083
 9155SOL    HW128364   1.781   4.541   3.177
 9155SOL    HW228365   1.842   4.437   3.067
 9156SOL     OW28366   6.691   2.788   1.211
 9156SOL    HW128367   6.682   2.841   1.295
 9156SOL    HW228368   6.751   2.837   1.147
 9157SOL     OW28369   3.164   4.401   6.698
 9157SOL    HW128370   3.188   4.475   6.636
 9157SOL    HW228371   3.065   4.388   6.698
 9158SOL     OW28372   6.916   4.524   4.127
 9158SOL    HW128373   6.932   4.538   4.225
 9158SOL    HW228374   6.852   4.448   4.115
 9159SOL     OW28375   2.179   0.050   3.312
 9159SOL    HW128376   2.126   0.043   3.396
 9159SOL    HW228377   2.163   6.996   3.255
 9160SOL     OW28378   0.395   4.951   5.517
 9160SOL    HW128379   0.458   4.946   5.439
 9160SOL    HW228380   0.366   4.858   5.541
 9161SOL     OW28381   5.931   5.114   3.056
 9161SOL    HW128382   5.832   5.104   3.066
 9161SOL    HW228383   5.962   5.064   2.975
 9162SOL     OW28384   3.717   0.679   3.170
 9162SOL    HW128385   3.741   0.766   3.127
 9162SOL    HW228386   3.633   0.690   3.223
 9163SOL     OW28387   0.082   3.365   1.961
 9163SOL    HW128388   0.037   3.444   2.002
 9163SOL    HW228389   0.036   3.281   1.989
 9164SOL     OW28390   1.688   0.912   6.578
 9164SOL    HW128391   1.608   0.972   6.581
 9164SOL    HW228392   1.683   0.855   6.496
 9165SOL     OW28393   5.282   1.996   5.693
 9165SOL    HW128394   5.234   2.076   5.728
 9165SOL    HW228395   5.217   1.934   5.650
 9166SOL     OW28396   3.965   5.421   1.096
 9166SOL    HW128397   3.901   5.462   1.162
 9166SOL    HW228398   3.914   5.390   1.016
 9167SOL     OW28399   1.192   2.342   6.047
 9167SOL    HW128400   1.272   2.398   6.069
 9167SOL    HW228401   1.109   2.392   6.070
 9168SOL     OW28402   6.420   5.626   6.321
 9168SOL    HW128403   6.336   5.655   6.274
 9168SOL    HW228404   6.397   5.560   6.393
 9169SOL     OW28405   6.768   6.002   6.115
 9169SOL    HW128406   6.839   5.941   6.149
 9169SOL    HW228407   6.682   5.985   6.164
 9170SOL     OW28408   1.929   1.375   6.296
 9170SOL    HW128409   1.863   1.382   6.370
 9170SOL    HW228410   1.913   1.449   6.230
 9171SOL     OW28411   2.624   5.536   0.797
 9171SOL    HW128412   2.681   5.576   0.870
 9171SOL    HW228413   2.535   5.582   0.796
 9172SOL     OW28414   4.296   1.848   4.453
 9172SOL    HW128415   4.389   1.844   4.417
 9172SOL    HW228416   4.235   1.886   4.384
 9173SOL     OW28417   6.376   2.879   4.728
 9173SOL    HW128418   6.335   2.798   4.686
 9173SOL    HW228419   6.310   2.954   4.728
 9174SOL     OW28420   0.486   5.924   0.042
 9174SOL    HW128421   0.400   5.874   0.033
 9174SOL    HW228422   0.497   5.986   6.992
 9175SOL     OW28423   1.545   6.227   0.351
 9175SOL    HW128424   1.507   6.301   0.405
 9175SOL    HW228425   1.520   6.240   0.255
 9176SOL     OW28426   2.554   7.015   1.967
 9176SOL    HW128427   2.558   0.088   1.961
 9176SOL    HW228428   2.608   6.984   2.045
 9177SOL     OW28429   1.802   2.516   3.750
 9177SOL    HW128430   1.752   2.531   3.664
 9177SOL    HW228431   1.862   2.594   3.768
 9178SOL     OW28432   2.388   5.522   6.576
 9178SOL    HW128433   2.468   5.556   6.626
 9178SOL    HW228434   2.395   5.550   6.480
 9179SOL     OW28435   2.502   5.730   4.964
 9179SOL    HW128436   2.419   5.785   4.971
 9179SOL    HW228437   2.545   5.725   5.054
 9180SOL     OW28438   6.864   2.297   4.001
 9180SOL    HW128439   6.941   2.247   4.041
 9180SOL    HW228440   6.841   2.257   3.912
 9181SOL     OW28441   5.015   2.849   3.365
 9181SOL    HW128442   5.086   2.920   3.373
 9181SOL    HW228443   5.029   2.779   3.435
 9182SOL     OW28444   3.198   1.260   2.889
 9182SOL    HW128445   3.139   1.320   2.944
 9182SOL    HW228446   3.225   1.308   2.806
 9183SOL     OW28447   4.697   3.730   5.997
 9183SOL    HW128448   4.782   3.678   6.010
 9183SOL    HW228449   4.631   3.673   5.947
 9184SOL     OW28450   3.589   2.024   0.829
 9184SOL    HW128451   3.664   1.993   0.770
 9184SOL    HW228452   3.587   1.968   0.912
 9185SOL     OW28453   0.793   6.896   6.753
 9185SOL    HW128454   0.821   6.803   6.728
 9185SOL    HW228455   0.694   6.896   6.772
 9186SOL     OW28456   4.635   0.642   5.430
 9186SOL    HW128457   4.647   0.561   5.487
 9186SOL    HW228458   4.674   0.722   5.477
 9187SOL     OW28459   4.491   2.025   6.720
 9187SOL    HW128460   4.445   2.102   6.675
 9187SOL    HW228461   4.502   2.045   6.818
 9188SOL     OW28462   1.686   0.724   1.371
 9188SOL    HW128463   1.661   0.691   1.280
 9188SOL    HW228464   1.768   0.781   1.365
 9189SOL     OW28465   3.204   1.038   3.780
 9189SOL    HW128466   3.224   0.959   3.722
 9189SOL    HW228467   3.109   1.034   3.810
 9190SOL     OW28468   6.318   4.133   5.248
 9190SOL    HW128469   6.338   4.154   5.344
 9190SOL    HW228470   6.394   4.081   5.209
 9191SOL     OW28471   5.038   7.016   6.711
 9191SOL    HW128472   4.946   0.026   6.725
 9191SOL    HW228473   5.059   7.016   6.613
 9192SOL     OW28474   6.378   3.848   6.104
 9192SOL    HW128475   6.371   3.768   6.045
 9192SOL    HW228476   6.287   3.874   6.137
 9193SOL     OW28477   3.399   3.665   3.828
 9193SOL    HW128478   3.482   3.677   3.775
 9193SOL    HW228479   3.363   3.573   3.815
 9194SOL     OW28480   3.641   5.916   2.076
 9194SOL    HW128481   3.620   5.875   1.987
 9194SOL    HW228482   3.559   5.918   2.132
 9195SOL     OW28483   1.836   2.620   3.039
 9195SOL    HW128484   1.926   2.629   2.998
 9195SOL    HW228485   1.832   2.536   3.093
 9196SOL     OW28486   4.973   0.255   3.920
 9196SOL    HW128487   4.976   0.241   3.821
 9196SOL    HW228488   5.065   0.247   3.957
 9197SOL     OW28489   3.387   3.953   0.887
 9197SOL    HW128490   3.334   3.910   0.960
 9197SOL    HW228491   3.331   4.023   0.842
 9198SOL     OW28492   5.680   4.031   6.301
 9198SOL    HW128493   5.763   4.085   6.294
 9198SOL    HW228494   5.686   3.971   6.382
 9199SOL     OW28495   1.008   3.136   6.111
 9199SOL    HW128496   1.074   3.119   6.037
 9199SOL    HW228497   0.951   3.215   6.087
 9200SOL     OW28498   1.509   6.114   6.912
 9200SOL    HW128499   1.566   6.093   6.832
 9200SOL    HW228500   1.555   6.082   6.995
 9201SOL     OW28501   0.694   3.868   1.118
 9201SOL    HW128502   0.637   3.925   1.060
 9201SOL    HW228503   0.780   3.848   1.071
 9202SOL     OW28504   2.146   5.607   4.488
 9202SOL    HW128505   2.210   5.674   4.525
 9202SOL    HW228506   2.186   5.515   4.495
 9203SOL     OW28507   4.909   2.215   6.539
 9203SOL    HW128508   4.976   2.287   6.557
 9203SOL    HW228509   4.819   2.257   6.524
 9204SOL     OW28510   5.767   3.728   3.210
 9204SOL    HW128511   5.802   3.810   3.256
 9204SOL    HW228512   5.729   3.753   3.121
 9205SOL     OW28513   5.053   3.358   2.133
 9205SOL    HW128514   5.024   3.320   2.045
 9205SOL    HW228515   5.050   3.458   2.128
 9206SOL     OW28516   3.070   0.365   4.701
 9206SOL    HW128517   3.076   0.463   4.721
 9206SOL    HW228518   2.985   0.347   4.652
 9207SOL     OW28519   3.665   6.408   5.850
 9207SOL    HW128520   3.574   6.366   5.842
 9207SOL    HW228521   3.733   6.338   5.871
 9208SOL     OW28522   5.084   3.645   2.158
 9208SOL    HW128523   5.051   3.734   2.126
 9208SOL    HW228524   5.162   3.616   2.102
 9209SOL     OW28525   4.025   1.078   1.940
 9209SOL    HW128526   4.075   1.154   1.981
 9209SOL    HW228527   4.062   1.060   1.849
 9210SOL     OW28528   1.991   0.240   1.230
 9210SOL    HW128529   1.966   0.145   1.248
 9210SOL    HW228530   2.039   0.245   1.142
 9211SOL     OW28531   5.250   2.037   6.540
 9211SOL    HW128532   5.197   1.980   6.477
 9211SOL    HW228533   5.335   1.990   6.564
 9212SOL     OW28534   4.776   4.188   4.927
 9212SOL    HW128535   4.692   4.235   4.953
 9212SOL    HW228536   4.809   4.132   5.003
 9213SOL     OW28537   5.729   6.570   4.231
 9213SOL    HW128538   5.821   6.575   4.270
 9213SOL    HW228539   5.663   6.555   4.304
 9214SOL     OW28540   0.893   2.517   5.186
 9214SOL    HW128541   0.951   2.587   5.144
 9214SOL    HW228542   0.843   2.558   5.263
 9215SOL     OW28543   0.139   3.807   2.331
 9215SOL    HW128544   0.211   3.739   2.349
 9215SOL    HW228545   0.169   3.868   2.258
 9216SOL     OW28546   2.362   6.562   4.672
 9216SOL    HW128547   2.431   6.514   4.618
 9216SOL    HW228548   2.299   6.610   4.611
 9217SOL     OW28549   5.525   1.560   6.734
 9217SOL    HW128550   5.530   1.500   6.815
 9217SOL    HW228551   5.490   1.649   6.762
 9218SOL     OW28552   4.239   0.586   6.605
 9218SOL    HW128553   4.277   0.495   6.623
 9218SOL    HW228554   4.171   0.580   6.532
 9219SOL     OW28555   4.190   3.017   5.347
 9219SOL    HW128556   4.120   3.024   5.419
 9219SOL    HW228557   4.208   3.108   5.309
 9220SOL     OW28558   2.152   5.815   2.730
 9220SOL    HW128559   2.103   5.861   2.656
 9220SOL    HW228560   2.166   5.879   2.806
 9221SOL     OW28561   2.317   0.667   5.594
 9221SOL    HW128562   2.385   0.641   5.664
 9221SOL    HW228563   2.338   0.759   5.561
 9222SOL     OW28564   2.294   4.598   4.385
 9222SOL    HW128565   2.209   4.557   4.418
 9222SOL    HW228566   2.347   4.631   4.463
 9223SOL     OW28567   0.996   3.096   3.780
 9223SOL    HW128568   0.939   3.105   3.698
 9223SOL    HW228569   0.964   3.159   3.850
 9224SOL     OW28570   1.409   3.236   3.772
 9224SOL    HW128571   1.357   3.296   3.833
 9224SOL    HW228572   1.349   3.165   3.736
 9225SOL     OW28573   3.584   6.999   6.131
 9225SOL    HW128574   3.644   0.031   6.077
 9225SOL    HW228575   3.558   6.919   6.077
 9226SOL     OW28576   1.330   0.192   1.663
 9226SOL    HW128577   1.350   0.187   1.761
 9226SOL    HW228578   1.249   0.138   1.642
 9227SOL     OW28579   1.596   5.101   1.491
 9227SOL    HW128580   1.538   5.103   1.572
 9227SOL    HW228581   1.692   5.095   1.519
 9228SOL     OW28582   2.311   2.618   6.127
 9228SOL    HW128583   2.344   2.685   6.061
 9228SOL    HW228584   2.213   2.630   6.141
 9229SOL     OW28585   1.302   5.065   6.806
 9229SOL    HW128586   1.378   5.057   6.742
 9229SOL    HW228587   1.224   5.108   6.760
 9230SOL     OW28588   5.174   3.209   3.777
 9230SOL    HW128589   5.223   3.125   3.799
 9230SOL    HW228590   5.238   3.286   3.780
 9231SOL     OW28591   0.971   5.087   6.120
 9231SOL    HW128592   1.063   5.054   6.141
 9231SOL    HW228593   0.961   5.181   6.152
 9232SOL     OW28594   1.564   5.092   1.056
 9232SOL    HW128595   1.570   5.080   0.957
 9232SOL    HW228596   1.476   5.135   1.079
 9233SOL     OW28597   0.969   6.905   0.914
 9233SOL    HW128598   1.034   6.831   0.898
 9233SOL    HW228599   1.014   6.993   0.897
 9234SOL     OW28600   2.409   5.346   0.855
 9234SOL    HW128601   2.504   5.318   0.868
 9234SOL    HW228602   2.389   5.356   0.758
 9235SOL     OW28603   2.485   2.049   3.676
 9235SOL    HW128604   2.487   2.148   3.665
 9235SOL    HW228605   2.443   2.007   3.596
 9236SOL     OW28606   2.226   3.122   6.830
 9236SOL    HW128607   2.175   3.178   6.896
 9236SOL    HW228608   2.310   3.089   6.873
 9237SOL     OW28609   0.135   5.858   3.023
 9237SOL    HW128610   0.072   5.932   2.999
 9237SOL    HW228611   0.115   5.777   2.968
 9238SOL     OW28612   2.920   2.597   6.059
 9238SOL    HW128613   2.969   2.658   5.996
 9238SOL    HW228614   2.873   2.652   6.128
 9239SOL     OW28615   6.857   4.397   6.335
 9239SOL    HW128616   6.838   4.495   6.321
 9239SOL    HW228617   6.939   4.387   6.390
 9240SOL     OW28618   5.155   3.339   2.764
 9240SOL    HW128619   5.214   3.266   2.730
 9240SOL    HW228620   5.076   3.350   2.704
 9241SOL     OW28621   6.695   5.751   0.298
 9241SOL    HW128622   6.682   5.676   0.232
 9241SOL    HW228623   6.688   5.838   0.250
 9242SOL     OW28624   1.911   2.117   1.591
 9242SOL    HW128625   1.951   2.193   1.540
 9242SOL    HW228626   1.836   2.152   1.648
 9243SOL     OW28627   1.132   0.514   1.743
 9243SOL    HW128628   1.069   0.518   1.664
 9243SOL    HW228629   1.224   0.492   1.711
 9244SOL     OW28630   2.670   6.157   6.294
 9244SOL    HW128631   2.594   6.217   6.269
 9244SOL    HW228632   2.675   6.149   6.394
 9245SOL     OW28633   0.592   4.405   3.671
 9245SOL    HW128634   0.566   4.312   3.698
 9245SOL    HW228635   0.569   4.419   3.575
 9246SOL     OW28636   5.695   0.480   4.084
 9246SOL    HW128637   5.633   0.416   4.038
 9246SOL    HW228638   5.783   0.482   4.036
 9247SOL     OW28639   3.928   5.362   3.019
 9247SOL    HW128640   3.843   5.345   3.068
 9247SOL    HW228641   4.001   5.304   3.057
 9248SOL     OW28642   2.689   2.024   5.257
 9248SOL    HW128643   2.672   1.933   5.294
 9248SOL    HW228644   2.763   2.068   5.308
 9249SOL     OW28645   3.946   4.961   1.571
 9249SOL    HW128646   4.028   4.917   1.535
 9249SOL    HW228647   3.904   4.902   1.640
 9250SOL     OW28648   6.912   3.608   4.043
 9250SOL    HW128649   6.978   3.580   4.113
 9250SOL    HW228650   6.874   3.526   3.999
 9251SOL     OW28651   4.396   2.590   1.784
 9251SOL    HW128652   4.342   2.519   1.830
 9251SOL    HW228653   4.493   2.577   1.806
 9252SOL     OW28654   5.159   0.648   5.183
 9252SOL    HW128655   5.139   0.647   5.281
 9252SOL    HW228656   5.258   0.649   5.169
 9253SOL     OW28657   5.715   4.967   5.793
 9253SOL    HW128658   5.746   4.880   5.756
 9253SOL    HW228659   5.667   5.018   5.721
 9254SOL     OW28660   5.133   4.764   2.527
 9254SOL    HW128661   5.163   4.850   2.488
 9254SOL    HW228662   5.201   4.693   2.507
 9255SOL     OW28663   5.759   3.394   6.702
 9255SOL    HW128664   5.675   3.341   6.721
 9255SOL    HW228665   5.836   3.349   6.747
 9256SOL     OW28666   2.283   6.915   1.902
 9256SOL    HW128667   2.380   6.917   1.925
 9256SOL    HW228668   2.270   6.939   1.806
 9257SOL     OW28669   6.090   5.847   3.088
 9257SOL    HW128670   6.100   5.749   3.074
 9257SOL    HW228671   6.178   5.892   3.074
 9258SOL     OW28672   3.695   3.501   0.751
 9258SOL    HW128673   3.656   3.575   0.805
 9258SOL    HW228674   3.728   3.429   0.812
 9259SOL     OW28675   1.718   1.607   7.003
 9259SOL    HW128676   1.770   1.523   6.984
 9259SOL    HW228677   1.663   1.594   0.057
 9260SOL     OW28678   6.882   2.608   6.246
 9260SOL    HW128679   6.870   2.611   6.345
 9260SOL    HW228680   6.858   2.517   6.212
 9261SOL     OW28681   4.923   1.145   6.794
 9261SOL    HW128682   4.950   1.123   6.701
 9261SOL    HW228683   4.987   1.211   6.833
 9262SOL     OW28684   0.530   6.606   4.978
 9262SOL    HW128685   0.534   6.554   4.893
 9262SOL    HW228686   0.494   6.698   4.959
 9263SOL     OW28687   3.542   5.289   3.145
 9263SOL    HW128688   3.482   5.210   3.128
 9263SOL    HW228689   3.495   5.353   3.206
 9264SOL     OW28690   4.684   3.240   6.564
 9264SOL    HW128691   4.721   3.292   6.641
 9264SOL    HW228692   4.598   3.281   6.534
 9265SOL     OW28693   4.266   2.050   6.448
 9265SOL    HW128694   4.301   2.103   6.371
 9265SOL    HW228695   4.285   2.099   6.533
 9266SOL     OW28696   0.138   5.527   1.230
 9266SOL    HW128697   0.145   5.618   1.189
 9266SOL    HW228698   0.182   5.460   1.169
 9267SOL     OW28699   0.877   2.002   4.453
 9267SOL    HW128700   0.959   2.000   4.397
 9267SOL    HW228701   0.858   1.911   4.489
 9268SOL     OW28702   0.877   6.332   2.687
 9268SOL    HW128703   0.867   6.421   2.641
 9268SOL    HW228704   0.810   6.326   2.761
 9269SOL     OW28705   4.065   0.203   6.465
 9269SOL    HW128706   4.028   0.286   6.423
 9269SOL    HW228707   4.141   0.227   6.525
 9270SOL     OW28708   3.369   0.780   5.536
 9270SOL    HW128709   3.307   0.836   5.481
 9270SOL    HW228710   3.346   0.683   5.523
 9271SOL     OW28711   0.151   0.128   0.650
 9271SOL    HW128712   0.134   0.086   0.561
 9271SOL    HW228713   0.210   0.208   0.639
 9272SOL     OW28714   1.049   6.626   0.061
 9272SOL    HW128715   0.951   6.614   0.046
 9272SOL    HW228716   1.066   6.639   0.158
 9273SOL     OW28717   5.266   6.049   3.247
 9273SOL    HW128718   5.192   6.104   3.285
 9273SOL    HW228719   5.332   6.108   3.201
 9274SOL     OW28720   6.862   1.973   0.337
 9274SOL    HW128721   6.862   1.883   0.382
 9274SOL    HW228722   6.951   2.017   0.352
 9275SOL     OW28723   6.996   6.811   0.119
 9275SOL    HW128724   6.994   6.712   0.109
 9275SOL    HW228725   0.058   6.840   0.154
 9276SOL     OW28726   2.684   4.674   6.827
 9276SOL    HW128727   2.748   4.719   6.890
 9276SOL    HW228728   2.719   4.583   6.805
 9277SOL     OW28729   3.999   4.968   3.498
 9277SOL    HW128730   4.049   4.884   3.521
 9277SOL    HW228731   4.062   5.045   3.501
 9278SOL     OW28732   0.587   0.769   5.464
 9278SOL    HW128733   0.678   0.730   5.462
 9278SOL    HW228734   0.570   0.810   5.554
 9279SOL     OW28735   3.167   6.450   1.765
 9279SOL    HW128736   3.131   6.508   1.692
 9279SOL    HW228737   3.262   6.476   1.784
 9280SOL     OW28738   2.330   2.109   2.171
 9280SOL    HW128739   2.391   2.035   2.142
 9280SOL    HW228740   2.385   2.189   2.195
 9281SOL     OW28741   3.586   3.718   5.996
 9281SOL    HW128742   3.613   3.652   6.065
 9281SOL    HW228743   3.664   3.777   5.974
 9282SOL     OW28744   4.365   1.393   4.344
 9282SOL    HW128745   4.390   1.298   4.327
 9282SOL    HW228746   4.441   1.439   4.390
 9283SOL     OW28747   5.388   0.517   5.513
 9283SOL    HW128748   5.306   0.569   5.491
 9283SOL    HW228749   5.405   0.522   5.611
 9284SOL     OW28750   2.907   3.288   4.922
 9284SOL    HW128751   2.892   3.279   5.021
 9284SOL    HW228752   2.822   3.270   4.874
 9285SOL     OW28753   5.065   3.144   0.889
 9285SOL    HW128754   4.988   3.093   0.927
 9285SOL    HW228755   5.036   3.193   0.807
 9286SOL     OW28756   4.747   5.589   0.078
 9286SOL    HW128757   4.745   5.534   0.161
 9286SOL    HW228758   4.718   5.682   0.099
 9287SOL     OW28759   3.105   4.540   5.783
 9287SOL    HW128760   3.136   4.555   5.689
 9287SOL    HW228761   3.005   4.532   5.783
 9288SOL     OW28762   4.602   2.081   3.246
 9288SOL    HW128763   4.686   2.136   3.250
 9288SOL    HW228764   4.571   2.076   3.152
 9289SOL     OW28765   4.457   0.726   6.516
 9289SOL    HW128766   4.504   0.767   6.595
 9289SOL    HW228767   4.374   0.680   6.547
 9290SOL     OW28768   6.001   0.770   4.066
 9290SOL    HW128769   6.042   0.681   4.084
 9290SOL    HW228770   6.062   0.842   4.097
 9291SOL     OW28771   1.252   6.418   6.045
 9291SOL    HW128772   1.279   6.390   6.137
 9291SOL    HW228773   1.330   6.458   5.997
 9292SOL     OW28774   1.168   1.307   6.456
 9292SOL    HW128775   1.229   1.372   6.501
 9292SOL    HW228776   1.204   1.215   6.467
 9293SOL     OW28777   5.114   2.849   6.980
 9293SOL    HW128778   5.075   2.764   7.017
 9293SOL    HW228779   5.204   2.830   6.941
 9294SOL     OW28780   4.944   0.805   0.029
 9294SOL    HW128781   4.884   0.818   6.977
 9294SOL    HW228782   5.000   0.887   0.042
 9295SOL     OW28783   0.239   0.617   5.493
 9295SOL    HW128784   0.254   0.707   5.452
 9295SOL    HW228785   0.247   0.624   5.593
 9296SOL     OW28786   2.061   4.097   0.979
 9296SOL    HW128787   2.105   4.185   0.995
 9296SOL    HW228788   2.026   4.093   0.885
 9297SOL     OW28789   0.630   6.521   3.143
 9297SOL    HW128790   0.709   6.532   3.082
 9297SOL    HW228791   0.643   6.440   3.200
 9298SOL     OW28792   0.996   6.639   6.029
 9298SOL    HW128793   0.979   6.714   6.093
 9298SOL    HW228794   0.979   6.552   6.074
 9299SOL     OW28795   0.936   1.309   4.008
 9299SOL    HW128796   0.993   1.380   3.967
 9299SOL    HW228797   0.965   1.293   4.102
 9300SOL     OW28798   0.497   5.149   5.096
 9300SOL    HW128799   0.527   5.233   5.050
 9300SOL    HW228800   0.427   5.104   5.040
 9301SOL     OW28801   0.078   4.400   5.180
 9301SOL    HW128802   0.150   4.352   5.129
 9301SOL    HW228803   7.018   4.353   5.166
 9302SOL     OW28804   2.217   3.122   4.653
 9302SOL    HW128805   2.213   3.057   4.729
 9302SOL    HW228806   2.299   3.179   4.663
 9303SOL     OW28807   3.101   4.469   0.754
 9303SOL    HW128808   3.037   4.472   0.678
 9303SOL    HW228809   3.077   4.393   0.815
 9304SOL     OW28810   4.388   5.266   0.708
 9304SOL    HW128811   4.296   5.304   0.719
 9304SOL    HW228812   4.428   5.299   0.623
 9305SOL     OW28813   3.578   1.219   0.373
 9305SOL    HW128814   3.653   1.154   0.382
 9305SOL    HW228815   3.610   1.311   0.399
 9306SOL     OW28816   0.385   3.830   4.942
 9306SOL    HW128817   0.463   3.804   4.999
 9306SOL    HW228818   0.418   3.877   4.861
 9307SOL     OW28819   1.402   4.261   0.448
 9307SOL    HW128820   1.487   4.305   0.478
 9307SOL    HW228821   1.411   4.162   0.453
 9308SOL     OW28822   0.639   4.841   1.591
 9308SOL    HW128823   0.658   4.813   1.497
 9308SOL    HW228824   0.622   4.760   1.647
 9309SOL     OW28825   4.113   6.933   5.981
 9309SOL    HW128826   4.150   6.846   6.012
 9309SOL    HW228827   4.146   7.006   6.040
 9310SOL     OW28828   5.149   6.052   5.665
 9310SOL    HW128829   5.141   6.142   5.707
 9310SOL    HW228830   5.060   6.024   5.629
 9311SOL     OW28831   4.978   4.083   0.944
 9311SOL    HW128832   4.984   3.985   0.926
 9311SOL    HW228833   5.019   4.103   1.033
 9312SOL     OW28834   1.845   2.083   1.198
 9312SOL    HW128835   1.854   2.182   1.187
 9312SOL    HW228836   1.839   2.040   1.108
 9313SOL     OW28837   0.678   0.819   1.372
 9313SOL    HW128838   0.593   0.771   1.394
 9313SOL    HW228839   0.755   0.773   1.416
 9314SOL     OW28840   5.990   3.576   0.760
 9314SOL    HW128841   5.904   3.595   0.807
 9314SOL    HW228842   6.067   3.598   0.819
 9315SOL     OW28843   6.047   0.691   6.083
 9315SOL    HW128844   6.031   0.722   6.176
 9315SOL    HW228845   6.119   0.621   6.083
 9316SOL     OW28846   5.986   0.126   4.669
 9316SOL    HW128847   5.899   0.115   4.621
 9316SOL    HW228848   6.048   0.053   4.643
 9317SOL     OW28849   3.769   5.110   3.476
 9317SOL    HW128850   3.731   5.117   3.568
 9317SOL    HW228851   3.868   5.121   3.479
 9318SOL     OW28852   4.351   6.297   0.280
 9318SOL    HW128853   4.302   6.378   0.249
 9318SOL    HW228854   4.309   6.263   0.364
 9319SOL     OW28855   2.165   3.076   0.942
 9319SOL    HW128856   2.205   3.019   1.014
 9319SOL    HW228857   2.238   3.113   0.884
 9320SOL     OW28858   4.461   0.109   5.940
 9320SOL    HW128859   4.526   0.035   5.925
 9320SOL    HW228860   4.495   0.192   5.894
 9321SOL     OW28861   1.261   2.143   5.552
 9321SOL    HW128862   1.300   2.051   5.548
 9321SOL    HW228863   1.163   2.137   5.569
 9322SOL     OW28864   6.508   4.786   6.170
 9322SOL    HW128865   6.496   4.690   6.144
 9322SOL    HW228866   6.423   4.836   6.153
 9323SOL     OW28867   2.192   2.181   4.714
 9323SOL    HW128868   2.267   2.246   4.728
 9323SOL    HW228869   2.124   2.221   4.653
 9324SOL     OW28870   1.714   3.580   1.002
 9324SOL    HW128871   1.801   3.531   0.993
 9324SOL    HW228872   1.657   3.534   1.070
 9325SOL     OW28873   0.936   6.455   1.712
 9325SOL    HW128874   0.859   6.405   1.672
 9325SOL    HW228875   0.952   6.538   1.659
 9326SOL     OW28876   3.259   5.384   0.002
 9326SOL    HW128877   3.262   5.482   0.023
 9326SOL    HW228878   3.351   5.347   0.006
 9327SOL     OW28879   4.566   0.318   3.147
 9327SOL    HW128880   4.468   0.333   3.162
 9327SOL    HW228881   4.606   0.275   3.227
 9328SOL     OW28882   2.095   6.864   4.749
 9328SOL    HW128883   2.074   6.779   4.700
 9328SOL    HW228884   2.160   6.844   4.822
 9329SOL     OW28885   6.892   5.331   0.004
 9329SOL    HW128886   6.836   5.260   6.988
 9329SOL    HW228887   6.924   5.396   6.962
 9330SOL     OW28888   0.503   6.853   6.708
 9330SOL    HW128889   0.517   6.917   6.633
 9330SOL    HW228890   0.409   6.860   6.741
 9331SOL     OW28891   2.022   2.552   5.841
 9331SOL    HW128892   2.012   2.489   5.918
 9331SOL    HW228893   1.932   2.571   5.801
 9332SOL     OW28894   3.942   5.451   0.331
 9332SOL    HW128895   4.031   5.489   0.308
 9332SOL    HW228896   3.949   5.397   0.415
 9333SOL     OW28897   3.780   5.652   0.475
 9333SOL    HW128898   3.848   5.608   0.417
 9333SOL    HW228899   3.743   5.586   0.540
 9334SOL     OW28900   5.259   0.345   4.248
 9334SOL    HW128901   5.318   0.317   4.324
 9334SOL    HW228902   5.273   0.284   4.170
 9335SOL     OW28903   1.839   2.061   0.460
 9335SOL    HW128904   1.821   2.103   0.371
 9335SOL    HW228905   1.932   2.025   0.462
 9336SOL     OW28906   5.562   7.018   4.319
 9336SOL    HW128907   5.618   6.986   4.242
 9336SOL    HW228908   5.543   6.942   4.380
 9337SOL     OW28909   4.851   0.880   6.789
 9337SOL    HW128910   4.854   0.844   6.696
 9337SOL    HW228911   4.850   0.980   6.786
 9338SOL     OW28912   6.857   5.713   0.493
 9338SOL    HW128913   6.887   5.617   0.499
 9338SOL    HW228914   6.806   5.726   0.408
 9339SOL     OW28915   5.446   5.807   0.557
 9339SOL    HW128916   5.542   5.810   0.528
 9339SOL    HW228917   5.422   5.893   0.602
 9340SOL     OW28918   3.980   4.914   2.796
 9340SOL    HW128919   3.935   4.879   2.714
 9340SOL    HW228920   3.913   4.960   2.855
 9341SOL     OW28921   6.521   4.455   6.552
 9341SOL    HW128922   6.612   4.431   6.587
 9341SOL    HW228923   6.497   4.394   6.477
 9342SOL     OW28924   2.798   0.420   4.570
 9342SOL    HW128925   2.793   0.463   4.660
 9342SOL    HW228926   2.742   0.337   4.570
 9343SOL     OW28927   5.028   3.375   1.834
 9343SOL    HW128928   4.992   3.466   1.811
 9343SOL    HW228929   5.005   3.311   1.761
 9344SOL     OW28930   4.929   5.737   6.198
 9344SOL    HW128931   5.003   5.669   6.196
 9344SOL    HW228932   4.871   5.725   6.117
 9345SOL     OW28933   6.006   5.046   6.982
 9345SOL    HW128934   6.101   5.069   6.962
 9345SOL    HW228935   5.999   4.949   7.006
 9346SOL     OW28936   4.770   6.282   2.440
 9346SOL    HW128937   4.862   6.309   2.409
 9346SOL    HW228938   4.752   6.188   2.413
 9347SOL     OW28939   3.611   6.068   0.590
 9347SOL    HW128940   3.588   6.000   0.520
 9347SOL    HW228941   3.685   6.126   0.557
 9348SOL     OW28942   2.828   5.282   2.982
 9348SOL    HW128943   2.856   5.327   2.898
 9348SOL    HW228944   2.873   5.326   3.060
 9349SOL     OW28945   6.201   5.995   2.119
 9349SOL    HW128946   6.139   6.023   2.046
 9349SOL    HW228947   6.165   6.025   2.207
 9350SOL     OW28948   0.210   1.518   4.117
 9350SOL    HW128949   0.269   1.593   4.089
 9350SOL    HW228950   0.228   1.438   4.060
 9351SOL     OW28951   2.723   0.238   6.284
 9351SOL    HW128952   2.677   0.178   6.349
 9351SOL    HW228953   2.679   0.328   6.285
 9352SOL     OW28954   2.148   3.103   5.911
 9352SOL    HW128955   2.056   3.069   5.929
 9352SOL    HW228956   2.207   3.028   5.883
 9353SOL     OW28957   1.691   4.205   1.968
 9353SOL    HW128958   1.757   4.130   1.968
 9353SOL    HW228959   1.736   4.289   1.999
 9354SOL     OW28960   5.848   1.512   0.902
 9354SOL    HW128961   5.754   1.519   0.935
 9354SOL    HW228962   5.859   1.568   0.820
 9355SOL     OW28963   6.232   0.966   4.129
 9355SOL    HW128964   6.176   1.045   4.155
 9355SOL    HW228965   6.311   0.997   4.075
 9356SOL     OW28966   4.777   5.290   2.220
 9356SOL    HW128967   4.744   5.377   2.184
 9356SOL    HW228968   4.713   5.256   2.289
 9357SOL     OW28969   2.065   4.081   6.907
 9357SOL    HW128970   2.011   3.997   6.912
 9357SOL    HW228971   2.148   4.064   6.853
 9358SOL     OW28972   5.889   3.521   1.613
 9358SOL    HW128973   5.972   3.489   1.661
 9358SOL    HW228974   5.899   3.504   1.515
 9359SOL     OW28975   0.612   3.783   5.358
 9359SOL    HW128976   0.519   3.817   5.369
 9359SOL    HW228977   0.665   3.804   5.441
 9360SOL     OW28978   0.882   0.137   5.804
 9360SOL    HW128979   0.937   0.083   5.867
 9360SOL    HW228980   0.789   0.100   5.801
 9361SOL     OW28981   2.420   6.224   3.583
 9361SOL    HW128982   2.436   6.136   3.627
 9361SOL    HW228983   2.379   6.287   3.649
 9362SOL     OW28984   1.652   1.072   1.852
 9362SOL    HW128985   1.619   1.164   1.870
 9362SOL    HW228986   1.629   1.012   1.929
 9363SOL     OW28987   4.264   5.405   2.145
 9363SOL    HW128988   4.218   5.493   2.158
 9363SOL    HW228989   4.308   5.377   2.231
 9364SOL     OW28990   4.145   3.507   5.944
 9364SOL    HW128991   4.160   3.605   5.956
 9364SOL    HW228992   4.232   3.461   5.928
 9365SOL     OW28993   2.613   1.754   5.103
 9365SOL    HW128994   2.607   1.764   5.003
 9365SOL    HW228995   2.526   1.782   5.144
 9366SOL     OW28996   3.115   1.534   6.576
 9366SOL    HW128997   3.032   1.550   6.629
 9366SOL    HW228998   3.155   1.446   6.604
 9367SOL     OW28999   0.081   5.934   3.525
 9367SOL    HW129000   0.077   6.027   3.487
 9367SOL    HW229001   7.019   5.891   3.515
 9368SOL     OW29002   3.135   2.034   3.699
 9368SOL    HW129003   3.099   2.087   3.776
 9368SOL    HW229004   3.132   2.090   3.616
 9369SOL     OW29005   0.716   0.282   6.167
 9369SOL    HW129006   0.692   0.369   6.124
 9369SOL    HW229007   0.814   0.278   6.181
 9370SOL     OW29008   5.062   0.292   2.662
 9370SOL    HW129009   5.066   0.212   2.721
 9370SOL    HW229010   5.000   0.274   2.585
 9371SOL     OW29011   2.037   4.763   0.013
 9371SOL    HW129012   2.090   4.808   6.969
 9371SOL    HW229013   2.065   4.798   0.102
 9372SOL     OW29014   5.592   5.802   3.111
 9372SOL    HW129015   5.609   5.832   3.205
 9372SOL    HW229016   5.511   5.743   3.110
 9373SOL     OW29017   4.827   2.161   2.417
 9373SOL    HW129018   4.920   2.139   2.447
 9373SOL    HW229019   4.782   2.218   2.486
 9374SOL     OW29020   6.567   3.238   6.865
 9374SOL    HW129021   6.633   3.225   6.939
 9374SOL    HW229022   6.547   3.150   6.822
 9375SOL     OW29023   6.989   2.354   3.172
 9375SOL    HW129024   0.038   2.290   3.183
 9375SOL    HW229025   6.999   2.403   3.085
 9376SOL     OW29026   2.608   3.623   1.174
 9376SOL    HW129027   2.535   3.597   1.237
 9376SOL    HW229028   2.681   3.555   1.177
 9377SOL     OW29029   1.422   5.873   3.659
 9377SOL    HW129030   1.407   5.922   3.745
 9377SOL    HW229031   1.462   5.935   3.592
 9378SOL     OW29032   0.348   0.217   5.374
 9378SOL    HW129033   0.364   0.208   5.276
 9378SOL    HW229034   0.408   0.286   5.412
 9379SOL     OW29035   4.666   4.816   5.221
 9379SOL    HW129036   4.751   4.842   5.176
 9379SOL    HW229037   4.609   4.897   5.235
 9380SOL     OW29038   6.158   4.492   4.869
 9380SOL    HW129039   6.207   4.491   4.782
 9380SOL    HW229040   6.183   4.575   4.920
 9381SOL     OW29041   2.283   3.322   5.989
 9381SOL    HW129042   2.218   3.260   5.946
 9381SOL    HW229043   2.236   3.406   6.017
 9382SOL     OW29044   3.632   1.569   3.553
 9382SOL    HW129045   3.706   1.519   3.597
 9382SOL    HW229046   3.618   1.656   3.599
 9383SOL     OW29047   2.558   6.179   4.581
 9383SOL    HW129048   2.631   6.155   4.517
 9383SOL    HW229049   2.524   6.270   4.559
 9384SOL     OW29050   3.323   5.888   1.596
 9384SOL    HW129051   3.396   5.898   1.528
 9384SOL    HW229052   3.252   5.828   1.560
 9385SOL     OW29053   4.915   1.382   2.771
 9385SOL    HW129054   4.934   1.470   2.815
 9385SOL    HW229055   4.818   1.375   2.752
 9386SOL     OW29056   1.955   6.472   5.074
 9386SOL    HW129057   1.969   6.569   5.093
 9386SOL    HW229058   1.965   6.420   5.159
 9387SOL     OW29059   2.919   1.074   6.727
 9387SOL    HW129060   2.888   1.118   6.642
 9387SOL    HW229061   2.843   1.024   6.769
 9388SOL     OW29062   2.149   5.325   2.580
 9388SOL    HW129063   2.050   5.313   2.574
 9388SOL    HW229064   2.187   5.256   2.642
 9389SOL     OW29065   1.939   7.005   5.061
 9389SOL    HW129066   1.942   6.907   5.078
 9389SOL    HW229067   1.895   7.023   4.974
 9390SOL     OW29068   3.948   5.411   4.974
 9390SOL    HW129069   4.042   5.430   5.001
 9390SOL    HW229070   3.939   5.422   4.874
 9391SOL     OW29071   2.417   0.572   4.926
 9391SOL    HW129072   2.362   0.651   4.901
 9391SOL    HW229073   2.372   0.523   5.002
 9392SOL     OW29074   0.014   0.236   5.320
 9392SOL    HW129075   0.080   0.238   5.396
 9392SOL    HW229076   6.965   0.298   5.341
 9393SOL     OW29077   2.746   0.501   5.455
 9393SOL    HW129078   2.701   0.432   5.512
 9393SOL    HW229079   2.698   0.588   5.465
 9394SOL     OW29080   6.945   1.870   2.123
 9394SOL    HW129081   7.015   1.813   2.079
 9394SOL    HW229082   6.859   1.818   2.130
 9395SOL     OW29083   2.750   2.226   0.147
 9395SOL    HW129084   2.743   2.259   0.242
 9395SOL    HW229085   2.773   2.303   0.087
 9396SOL     OW29086   0.915   5.383   3.316
 9396SOL    HW129087   0.965   5.454   3.267
 9396SOL    HW229088   0.865   5.424   3.393
 9397SOL     OW29089   2.831   0.159   0.812
 9397SOL    HW129090   2.788   0.242   0.777
 9397SOL    HW229091   2.911   0.137   0.755
 9398SOL     OW29092   1.483   0.404   5.519
 9398SOL    HW129093   1.561   0.370   5.465
 9398SOL    HW229094   1.410   0.336   5.516
 9399SOL     OW29095   0.414   1.596   6.972
 9399SOL    HW129096   0.481   1.621   6.901
 9399SOL    HW229097   0.330   1.648   6.958
 9400SOL     OW29098   5.092   2.400   1.525
 9400SOL    HW129099   5.158   2.406   1.600
 9400SOL    HW229100   5.133   2.352   1.448
 9401SOL     OW29101   4.483   6.896   3.252
 9401SOL    HW129102   4.471   6.907   3.351
 9401SOL    HW229103   4.513   6.802   3.233
 9402SOL     OW29104   0.898   5.190   4.161
 9402SOL    HW129105   0.998   5.188   4.161
 9402SOL    HW229106   0.867   5.285   4.160
 9403SOL     OW29107   5.944   1.290   3.043
 9403SOL    HW129108   5.935   1.356   3.118
 9403SOL    HW229109   5.861   1.235   3.038
 9404SOL     OW29110   0.690   3.030   5.887
 9404SOL    HW129111   0.744   3.094   5.831
 9404SOL    HW229112   0.749   2.956   5.919
 9405SOL     OW29113   0.380   6.029   2.255
 9405SOL    HW129114   0.301   5.999   2.310
 9405SOL    HW229115   0.446   5.955   2.249
 9406SOL     OW29116   6.987   2.818   6.095
 9406SOL    HW129117   6.970   2.731   6.141
 9406SOL    HW229118   0.001   2.882   6.160
 9407SOL     OW29119   2.482   5.267   3.221
 9407SOL    HW129120   2.410   5.284   3.289
 9407SOL    HW229121   2.566   5.241   3.267
 9408SOL     OW29122   3.910   1.806   6.354
 9408SOL    HW129123   3.820   1.763   6.365
 9408SOL    HW229124   3.920   1.837   6.259
 9409SOL     OW29125   5.788   4.598   6.294
 9409SOL    HW129126   5.742   4.631   6.377
 9409SOL    HW229127   5.723   4.544   6.240
 9410SOL     OW29128   2.806   6.309   2.113
 9410SOL    HW129129   2.814   6.290   2.015
 9410SOL    HW229130   2.880   6.371   2.141
 9411SOL     OW29131   3.986   3.821   1.642
 9411SOL    HW129132   4.041   3.827   1.558
 9411SOL    HW229133   3.905   3.879   1.632
 9412SOL     OW29134   0.352   3.041   2.002
 9412SOL    HW129135   0.277   3.046   1.937
 9412SOL    HW229136   0.317   3.020   2.093
 9413SOL     OW29137   3.715   6.018   4.139
 9413SOL    HW129138   3.784   5.966   4.189
 9413SOL    HW229139   3.755   6.057   4.056
 9414SOL     OW29140   3.059   0.924   3.566
 9414SOL    HW129141   3.052   0.827   3.543
 9414SOL    HW229142   2.996   0.945   3.641
 9415SOL     OW29143   2.741   0.255   2.330
 9415SOL    HW129144   2.676   0.266   2.254
 9415SOL    HW229145   2.778   0.345   2.355
 9416SOL     OW29146   0.714   1.483   0.955
 9416SOL    HW129147   0.706   1.532   1.041
 9416SOL    HW229148   0.652   1.524   0.888
 9417SOL     OW29149   3.631   6.580   5.630
 9417SOL    HW129150   3.621   6.526   5.714
 9417SOL    HW229151   3.728   6.586   5.606
 9418SOL     OW29152   3.249   6.234   1.550
 9418SOL    HW129153   3.282   6.326   1.527
 9418SOL    HW229154   3.209   6.235   1.641
 9419SOL     OW29155   3.230   4.864   5.694
 9419SOL    HW129156   3.206   4.781   5.644
 9419SOL    HW229157   3.155   4.889   5.755
 9420SOL     OW29158   0.336   2.753   4.358
 9420SOL    HW129159   0.245   2.738   4.397
 9420SOL    HW229160   0.393   2.673   4.374
 9421SOL     OW29161   1.891   6.218   4.950
 9421SOL    HW129162   1.960   6.187   4.886
 9421SOL    HW229163   1.913   6.311   4.980
 9422SOL     OW29164   4.770   6.439   2.861
 9422SOL    HW129165   4.695   6.373   2.866
 9422SOL    HW229166   4.819   6.427   2.775
 9423SOL     OW29167   4.400   0.809   3.303
 9423SOL    HW129168   4.426   0.903   3.324
 9423SOL    HW229169   4.447   0.779   3.220
 9424SOL     OW29170   4.554   0.991   5.007
 9424SOL    HW129171   4.648   0.960   4.997
 9424SOL    HW229172   4.507   0.986   4.919
 9425SOL     OW29173   0.296   3.625   6.413
 9425SOL    HW129174   0.258   3.595   6.501
 9425SOL    HW229175   0.340   3.547   6.368
 9426SOL     OW29176   2.661   1.963   0.044
 9426SOL    HW129177   2.663   1.939   0.141
 9426SOL    HW229178   2.687   2.059   0.034
 9427SOL     OW29179   2.738   5.504   4.617
 9427SOL    HW129180   2.736   5.494   4.716
 9427SOL    HW229181   2.831   5.529   4.588
 9428SOL     OW29182   5.008   0.752   1.147
 9428SOL    HW129183   4.973   0.846   1.145
 9428SOL    HW229184   5.106   0.753   1.123
 9429SOL     OW29185   1.922   4.076   2.014
 9429SOL    HW129186   1.920   4.129   2.098
 9429SOL    HW229187   2.016   4.069   1.981
 9430SOL     OW29188   6.744   4.478   1.925
 9430SOL    HW129189   6.837   4.487   1.891
 9430SOL    HW229190   6.719   4.560   1.976
 9431SOL     OW29191   5.422   3.642   0.994
 9431SOL    HW129192   5.346   3.593   0.952
 9431SOL    HW229193   5.398   3.667   1.088
 9432SOL     OW29194   5.669   1.070   2.717
 9432SOL    HW129195   5.597   1.052   2.785
 9432SOL    HW229196   5.749   1.014   2.739
 9433SOL     OW29197   3.662   4.934   3.944
 9433SOL    HW129198   3.720   4.909   4.021
 9433SOL    HW229199   3.694   4.888   3.861
 9434SOL     OW29200   5.176   5.220   3.194
 9434SOL    HW129201   5.136   5.208   3.285
 9434SOL    HW229202   5.198   5.130   3.155
 9435SOL     OW29203   0.340   2.174   4.701
 9435SOL    HW129204   0.248   2.150   4.670
 9435SOL    HW229205   0.393   2.091   4.717
 9436SOL     OW29206   1.401   3.464   1.834
 9436SOL    HW129207   1.411   3.562   1.819
 9436SOL    HW229208   1.489   3.419   1.823
 9437SOL     OW29209   2.212   6.525   3.433
 9437SOL    HW129210   2.233   6.605   3.490
 9437SOL    HW229211   2.113   6.509   3.435
 9438SOL     OW29212   0.301   6.926   1.956
 9438SOL    HW129213   0.317   7.011   1.905
 9438SOL    HW229214   0.255   6.860   1.898
 9439SOL     OW29215   0.805   2.564   2.265
 9439SOL    HW129216   0.772   2.623   2.191
 9439SOL    HW229217   0.803   2.469   2.234
 9440SOL     OW29218   4.221   5.339   4.235
 9440SOL    HW129219   4.280   5.319   4.313
 9440SOL    HW229220   4.215   5.438   4.222
 9441SOL     OW29221   1.485   3.368   4.888
 9441SOL    HW129222   1.409   3.357   4.824
 9441SOL    HW229223   1.571   3.377   4.838
 9442SOL     OW29224   4.478   3.208   0.114
 9442SOL    HW129225   4.452   3.287   0.059
 9442SOL    HW229226   4.443   3.125   0.071
 9443SOL     OW29227   2.188   5.199   1.299
 9443SOL    HW129228   2.092   5.224   1.310
 9443SOL    HW229229   2.245   5.267   1.345
 9444SOL     OW29230   1.370   3.857   6.731
 9444SOL    HW129231   1.451   3.840   6.675
 9444SOL    HW229232   1.392   3.920   6.805
 9445SOL     OW29233   5.657   3.819   2.511
 9445SOL    HW129234   5.666   3.840   2.609
 9445SOL    HW229235   5.561   3.813   2.487
 9446SOL     OW29236   6.808   6.396   4.082
 9446SOL    HW129237   6.714   6.427   4.073
 9446SOL    HW229238   6.829   6.382   4.179
 9447SOL     OW29239   6.339   3.669   3.330
 9447SOL    HW129240   6.245   3.694   3.310
 9447SOL    HW229241   6.342   3.577   3.370
 9448SOL     OW29242   6.587   6.814   6.207
 9448SOL    HW129243   6.546   6.898   6.171
 9448SOL    HW229244   6.583   6.815   6.307
 9449SOL     OW29245   6.903   6.007   6.779
 9449SOL    HW129246   6.944   5.990   6.688
 9449SOL    HW229247   6.847   6.089   6.775
 9450SOL     OW29248   3.225   5.333   5.215
 9450SOL    HW129249   3.177   5.291   5.138
 9450SOL    HW229250   3.189   5.425   5.231
 9451SOL     OW29251   3.912   6.430   6.120
 9451SOL    HW129252   3.984   6.487   6.081
 9451SOL    HW229253   3.890   6.356   6.056
 9452SOL     OW29254   1.148   3.719   0.454
 9452SOL    HW129255   1.147   3.799   0.515
 9452SOL    HW229256   1.225   3.727   0.391
 9453SOL     OW29257   2.418   5.230   3.683
 9453SOL    HW129258   2.452   5.285   3.607
 9453SOL    HW229259   2.323   5.253   3.701
 9454SOL     OW29260   2.062   3.762   6.618
 9454SOL    HW129261   2.121   3.797   6.690
 9454SOL    HW229262   2.028   3.671   6.644
 9455SOL     OW29263   4.307   1.692   2.800
 9455SOL    HW129264   4.372   1.624   2.767
 9455SOL    HW229265   4.260   1.657   2.881
 9456SOL     OW29266   0.793   3.787   0.816
 9456SOL    HW129267   0.812   3.711   0.754
 9456SOL    HW229268   0.870   3.799   0.878
 9457SOL     OW29269   2.329   4.241   5.257
 9457SOL    HW129270   2.373   4.155   5.233
 9457SOL    HW229271   2.278   4.230   5.343
 9458SOL     OW29272   1.167   2.992   6.497
 9458SOL    HW129273   1.158   3.042   6.411
 9458SOL    HW229274   1.262   2.997   6.528
 9459SOL     OW29275   5.525   4.872   2.639
 9459SOL    HW129276   5.539   4.778   2.610
 9459SOL    HW229277   5.519   4.876   2.739
 9460SOL     OW29278   6.780   2.534   4.235
 9460SOL    HW129279   6.775   2.633   4.228
 9460SOL    HW229280   6.728   2.492   4.161
 9461SOL     OW29281   6.794   1.927   2.778
 9461SOL    HW129282   6.739   1.980   2.713
 9461SOL    HW229283   6.859   1.870   2.727
 9462SOL     OW29284   2.030   3.770   3.149
 9462SOL    HW129285   2.046   3.720   3.235
 9462SOL    HW229286   1.942   3.742   3.111
 9463SOL     OW29287   0.096   0.596   1.427
 9463SOL    HW129288   0.117   0.678   1.479
 9463SOL    HW229289   0.175   0.570   1.371
 9464SOL     OW29290   6.221   6.910   0.978
 9464SOL    HW129291   6.141   6.970   0.972
 9464SOL    HW229292   6.193   6.821   1.012
 9465SOL     OW29293   0.378   6.303   3.370
 9465SOL    HW129294   0.314   6.379   3.380
 9465SOL    HW229295   0.395   6.262   3.460
 9466SOL     OW29296   3.900   4.458   5.319
 9466SOL    HW129297   3.815   4.432   5.364
 9466SOL    HW229298   3.952   4.376   5.294
 9467SOL     OW29299   1.469   2.301   1.300
 9467SOL    HW129300   1.395   2.255   1.251
 9467SOL    HW229301   1.464   2.277   1.397
 9468SOL     OW29302   5.842   2.551   6.220
 9468SOL    HW129303   5.832   2.454   6.245
 9468SOL    HW229304   5.779   2.573   6.146
 9469SOL     OW29305   6.061   6.205   1.461
 9469SOL    HW129306   6.040   6.298   1.430
 9469SOL    HW229307   5.982   6.167   1.508
 9470SOL     OW29308   4.737   4.359   5.466
 9470SOL    HW129309   4.696   4.343   5.556
 9470SOL    HW229310   4.794   4.441   5.469
 9471SOL     OW29311   6.280   1.512   4.060
 9471SOL    HW129312   6.224   1.525   3.978
 9471SOL    HW229313   6.365   1.465   4.035
 9472SOL     OW29314   6.006   2.962   4.490
 9472SOL    HW129315   6.050   2.992   4.405
 9472SOL    HW229316   5.996   3.040   4.552
 9473SOL     OW29317   2.579   5.211   5.571
 9473SOL    HW129318   2.580   5.306   5.540
 9473SOL    HW229319   2.639   5.201   5.650
 9474SOL     OW29320   6.748   3.210   0.289
 9474SOL    HW129321   6.787   3.276   0.353
 9474SOL    HW229322   6.777   3.118   0.316
 9475SOL     OW29323   3.011   3.745   0.215
 9475SOL    HW129324   2.971   3.759   0.306
 9475SOL    HW229325   2.976   3.660   0.177
 9476SOL     OW29326   2.899   3.303   5.198
 9476SOL    HW129327   2.832   3.246   5.244
 9476SOL    HW229328   2.991   3.280   5.231
 9477SOL     OW29329   0.064   3.687   2.554
 9477SOL    HW129330   0.141   3.669   2.616
 9477SOL    HW229331   0.098   3.731   2.471
 9478SOL     OW29332   5.238   3.272   5.760
 9478SOL    HW129333   5.247   3.225   5.673
 9478SOL    HW229334   5.327   3.310   5.787
 9479SOL     OW29335   4.998   6.608   7.013
 9479SOL    HW129336   5.013   6.687   6.952
 9479SOL    HW229337   4.917   6.558   6.983
 9480SOL     OW29338   5.290   3.851   0.833
 9480SOL    HW129339   5.318   3.879   0.925
 9480SOL    HW229340   5.260   3.755   0.836
 9481SOL     OW29341   5.810   3.779   1.660
 9481SOL    HW129342   5.720   3.751   1.694
 9481SOL    HW229343   5.857   3.699   1.622
 9482SOL     OW29344   6.696   0.696   3.264
 9482SOL    HW129345   6.697   0.726   3.169
 9482SOL    HW229346   6.628   0.748   3.316
 9483SOL     OW29347   1.759   1.432   1.094
 9483SOL    HW129348   1.774   1.428   1.193
 9483SOL    HW229349   1.742   1.527   1.067
 9484SOL     OW29350   4.379   1.418   3.155
 9484SOL    HW129351   4.455   1.471   3.193
 9484SOL    HW229352   4.342   1.467   3.076
 9485SOL     OW29353   0.838   0.438   2.441
 9485SOL    HW129354   0.854   0.344   2.469
 9485SOL    HW229355   0.891   0.459   2.360
 9486SOL     OW29356   2.489   5.161   1.622
 9486SOL    HW129357   2.584   5.135   1.604
 9486SOL    HW229358   2.448   5.096   1.685
 9487SOL     OW29359   2.913   3.281   3.295
 9487SOL    HW129360   2.943   3.353   3.232
 9487SOL    HW229361   2.890   3.322   3.384
 9488SOL     OW29362   1.964   6.170   1.207
 9488SOL    HW129363   1.940   6.151   1.302
 9488SOL    HW229364   1.888   6.144   1.147
 9489SOL     OW29365   3.987   4.140   1.491
 9489SOL    HW129366   4.059   4.073   1.471
 9489SOL    HW229367   3.899   4.093   1.501
 9490SOL     OW29368   6.518   5.511   0.586
 9490SOL    HW129369   6.500   5.588   0.524
 9490SOL    HW229370   6.448   5.441   0.573
 9491SOL     OW29371   6.571   4.636   3.735
 9491SOL    HW129372   6.550   4.603   3.644
 9491SOL    HW229373   6.523   4.722   3.752
 9492SOL     OW29374   3.598   2.948   2.898
 9492SOL    HW129375   3.567   3.043   2.891
 9492SOL    HW229376   3.519   2.887   2.896
 9493SOL     OW29377   4.199   5.334   3.805
 9493SOL    HW129378   4.138   5.411   3.786
 9493SOL    HW229379   4.164   5.282   3.883
 9494SOL     OW29380   4.413   4.599   1.239
 9494SOL    HW129381   4.398   4.536   1.314
 9494SOL    HW229382   4.440   4.689   1.275
 9495SOL     OW29383   6.001   1.751   3.852
 9495SOL    HW129384   6.052   1.765   3.768
 9495SOL    HW229385   6.051   1.689   3.913
 9496SOL     OW29386   5.972   4.812   1.113
 9496SOL    HW129387   5.915   4.842   1.189
 9496SOL    HW229388   5.955   4.869   1.033
 9497SOL     OW29389   6.035   4.785   0.015
 9497SOL    HW129390   6.053   4.749   0.106
 9497SOL    HW229391   6.041   4.712   6.975
 9498SOL     OW29392   5.309   0.193   5.070
 9498SOL    HW129393   5.312   0.280   5.119
 9498SOL    HW229394   5.214   0.166   5.056
 9499SOL     OW29395   2.269   5.078   6.300
 9499SOL    HW129396   2.288   5.089   6.398
 9499SOL    HW229397   2.337   5.016   6.260
 9500SOL     OW29398   4.330   6.936   1.440
 9500SOL    HW129399   4.305   6.871   1.367
 9500SOL    HW229400   4.325   0.002   1.405
 9501SOL     OW29401   2.820   1.491   4.762
 9501SOL    HW129402   2.835   1.396   4.789
 9501SOL    HW229403   2.890   1.549   4.803
 9502SOL     OW29404   0.440   2.203   5.096
 9502SOL    HW129405   0.425   2.104   5.105
 9502SOL    HW229406   0.363   2.244   5.047
 9503SOL     OW29407   0.479   1.534   0.763
 9503SOL    HW129408   0.464   1.438   0.739
 9503SOL    HW229409   0.391   1.582   0.760
 9504SOL     OW29410   0.440   1.964   0.713
 9504SOL    HW129411   0.485   1.883   0.750
 9504SOL    HW229412   0.347   1.970   0.749
 9505SOL     OW29413   5.484   3.985   3.712
 9505SOL    HW129414   5.475   4.078   3.747
 9505SOL    HW229415   5.417   3.969   3.640
 9506SOL     OW29416   0.454   2.927   6.774
 9506SOL    HW129417   0.365   2.968   6.758
 9506SOL    HW229418   0.452   2.873   6.858
 9507SOL     OW29419   1.262   1.361   3.581
 9507SOL    HW129420   1.211   1.319   3.656
 9507SOL    HW229421   1.347   1.401   3.616
 9508SOL     OW29422   6.422   3.647   1.085
 9508SOL    HW129423   6.456   3.649   1.179
 9508SOL    HW229424   6.492   3.683   1.024
 9509SOL     OW29425   0.811   0.546   5.041
 9509SOL    HW129426   0.873   0.511   4.971
 9509SOL    HW229427   0.734   0.594   4.997
 9510SOL     OW29428   0.956   4.134   2.025
 9510SOL    HW129429   1.029   4.093   2.080
 9510SOL    HW229430   0.909   4.203   2.079
 9511SOL     OW29431   0.765   1.371   6.842
 9511SOL    HW129432   0.802   1.392   6.933
 9511SOL    HW229433   0.686   1.429   6.824
 9512SOL     OW29434   5.943   1.232   1.578
 9512SOL    HW129435   6.030   1.182   1.569
 9512SOL    HW229436   5.869   1.168   1.598
 9513SOL     OW29437   1.917   3.406   5.418
 9513SOL    HW129438   1.935   3.504   5.416
 9513SOL    HW229439   1.973   3.360   5.349
 9514SOL     OW29440   2.137   4.261   0.081
 9514SOL    HW129441   2.155   4.349   0.037
 9514SOL    HW229442   2.135   4.189   0.012
 9515SOL     OW29443   1.267   5.717   0.405
 9515SOL    HW129444   1.324   5.798   0.419
 9515SOL    HW229445   1.271   5.691   0.308
 9516SOL     OW29446   5.904   3.578   5.041
 9516SOL    HW129447   5.948   3.593   5.129
 9516SOL    HW229448   5.945   3.638   4.972
 9517SOL     OW29449   1.088   4.773   0.433
 9517SOL    HW129450   1.169   4.801   0.382
 9517SOL    HW229451   1.016   4.746   0.369
 9518SOL     OW29452   1.453   2.152   0.008
 9518SOL    HW129453   1.426   2.116   6.945
 9518SOL    HW229454   1.505   2.237   7.023
 9519SOL     OW29455   3.918   4.032   4.179
 9519SOL    HW129456   3.972   4.116   4.179
 9519SOL    HW229457   3.855   4.032   4.101
 9520SOL     OW29458   0.549   1.261   2.940
 9520SOL    HW129459   0.580   1.225   2.852
 9520SOL    HW229460   0.628   1.284   2.997
 9521SOL     OW29461   3.445   4.309   1.220
 9521SOL    HW129462   3.490   4.397   1.236
 9521SOL    HW229463   3.486   4.239   1.278
 9522SOL     OW29464   4.428   5.623   1.528
 9522SOL    HW129465   4.371   5.622   1.610
 9522SOL    HW229466   4.380   5.672   1.455
 9523SOL     OW29467   2.564   5.016   4.854
 9523SOL    HW129468   2.516   4.929   4.844
 9523SOL    HW229469   2.656   4.999   4.889
 9524SOL     OW29470   2.290   2.884   0.548
 9524SOL    HW129471   2.339   2.969   0.531
 9524SOL    HW229472   2.191   2.901   0.543
 9525SOL     OW29473   2.337   1.989   5.754
 9525SOL    HW129474   2.410   1.968   5.689
 9525SOL    HW229475   2.248   1.972   5.710
 9526SOL     OW29476   6.265   4.223   1.394
 9526SOL    HW129477   6.230   4.218   1.301
 9526SOL    HW229478   6.298   4.316   1.413
 9527SOL     OW29479   1.305   0.460   4.689
 9527SOL    HW129480   1.303   0.506   4.600
 9527SOL    HW229481   1.249   0.377   4.684
 9528SOL     OW29482   6.832   1.168   0.420
 9528SOL    HW129483   6.869   1.211   0.338
 9528SOL    HW229484   6.860   1.221   0.500
 9529SOL     OW29485   5.976   3.563   6.250
 9529SOL    HW129486   5.902   3.630   6.266
 9529SOL    HW229487   5.958   3.513   6.166
 9530SOL     OW29488   1.644   3.085   3.723
 9530SOL    HW129489   1.593   3.035   3.653
 9530SOL    HW229490   1.580   3.139   3.778
 9531SOL     OW29491   4.927   4.431   2.286
 9531SOL    HW129492   4.940   4.458   2.381
 9531SOL    HW229493   4.837   4.388   2.276
 9532SOL     OW29494   0.078   5.967   0.883
 9532SOL    HW129495   0.006   5.972   0.813
 9532SOL    HW229496   0.110   6.059   0.905
 9533SOL     OW29497   0.537   5.959   4.953
 9533SOL    HW129498   0.624   6.005   4.935
 9533SOL    HW229499   0.476   5.971   4.874
 9534SOL     OW29500   6.544   4.005   5.163
 9534SOL    HW129501   6.568   3.938   5.093
 9534SOL    HW229502   6.616   4.008   5.232
 9535SOL     OW29503   1.872   0.446   5.779
 9535SOL    HW129504   1.957   0.469   5.825
 9535SOL    HW229505   1.865   0.497   5.693
 9536SOL     OW29506   3.099   4.128   5.086
 9536SOL    HW129507   3.079   4.040   5.131
 9536SOL    HW229508   3.074   4.202   5.148
 9537SOL     OW29509   2.691   0.196   4.056
 9537SOL    HW129510   2.598   0.195   4.018
 9537SOL    HW229511   2.742   0.117   4.021
 9538SOL     OW29512   5.371   1.326   4.008
 9538SOL    HW129513   5.421   1.370   3.934
 9538SOL    HW229514   5.423   1.335   4.093
 9539SOL     OW29515   3.558   3.718   4.661
 9539SOL    HW129516   3.556   3.683   4.568
 9539SOL    HW229517   3.521   3.648   4.723
 9540SOL     OW29518   5.943   5.130   4.253
 9540SOL    HW129519   6.028   5.120   4.304
 9540SOL    HW229520   5.961   5.120   4.155
 9541SOL     OW29521   3.263   0.368   6.280
 9541SOL    HW129522   3.263   0.459   6.237
 9541SOL    HW229523   3.302   0.376   6.373
 9542SOL     OW29524   5.051   4.710   4.862
 9542SOL    HW129525   5.068   4.636   4.796
 9542SOL    HW229526   5.136   4.734   4.908
 9543SOL     OW29527   3.316   0.276   5.755
 9543SOL    HW129528   3.288   0.304   5.847
 9543SOL    HW229529   3.416   0.271   5.751
 9544SOL     OW29530   6.171   2.875   3.942
 9544SOL    HW129531   6.110   2.951   3.920
 9544SOL    HW229532   6.117   2.795   3.965
 9545SOL     OW29533   5.766   5.609   3.732
 9545SOL    HW129534   5.742   5.579   3.824
 9545SOL    HW229535   5.684   5.647   3.688
 9546SOL     OW29536   4.217   2.080   5.604
 9546SOL    HW129537   4.299   2.028   5.628
 9546SOL    HW229538   4.137   2.038   5.649
 9547SOL     OW29539   2.296   5.063   4.175
 9547SOL    HW129540   2.327   5.157   4.164
 9547SOL    HW229541   2.314   5.032   4.268
 9548SOL     OW29542   6.834   4.760   5.337
 9548SOL    HW129543   6.887   4.842   5.358
 9548SOL    HW229544   6.798   4.766   5.244
 9549SOL     OW29545   3.098   2.323   1.403
 9549SOL    HW129546   3.047   2.410   1.396
 9549SOL    HW229547   3.112   2.301   1.499
 9550SOL     OW29548   6.573   1.070   0.537
 9550SOL    HW129549   6.654   1.123   0.513
 9550SOL    HW229550   6.549   1.087   0.633
 9551SOL     OW29551   5.580   2.518   6.067
 9551SOL    HW129552   5.484   2.496   6.049
 9551SOL    HW229553   5.634   2.500   5.985
 9552SOL     OW29554   1.677   6.451   4.298
 9552SOL    HW129555   1.667   6.525   4.365
 9552SOL    HW229556   1.627   6.474   4.215
 9553SOL     OW29557   5.951   2.223   6.695
 9553SOL    HW129558   6.037   2.260   6.660
 9553SOL    HW229559   5.948   2.232   6.794
 9554SOL     OW29560   2.542   0.059   2.434
 9554SOL    HW129561   2.586   6.996   2.426
 9554SOL    HW229562   2.611   0.130   2.421
 9555SOL     OW29563   1.041   1.203   2.605
 9555SOL    HW129564   1.046   1.106   2.583
 9555SOL    HW229565   1.037   1.215   2.704
 9556SOL     OW29566   1.900   3.897   1.598
 9556SOL    HW129567   1.946   3.824   1.547
 9556SOL    HW229568   1.804   3.903   1.569
 9557SOL     OW29569   6.660   6.375   1.966
 9557SOL    HW129570   6.718   6.377   1.884
 9557SOL    HW229571   6.646   6.280   1.994
 9558SOL     OW29572   6.044   5.988   5.395
 9558SOL    HW129573   6.047   5.909   5.335
 9558SOL    HW229574   6.109   6.057   5.363
 9559SOL     OW29575   0.365   4.783   1.150
 9559SOL    HW129576   0.385   4.703   1.092
 9559SOL    HW229577   0.401   4.865   1.107
 9560SOL     OW29578   2.105   1.413   3.618
 9560SOL    HW129579   2.116   1.417   3.717
 9560SOL    HW229580   2.062   1.327   3.592
 9561SOL     OW29581   2.303   0.661   0.552
 9561SOL    HW129582   2.390   0.650   0.504
 9561SOL    HW229583   2.320   0.687   0.647
 9562SOL     OW29584   2.594   0.308   5.545
 9562SOL    HW129585   2.679   0.256   5.556
 9562SOL    HW229586   2.524   0.270   5.607
 9563SOL     OW29587   0.349   6.289   0.485
 9563SOL    HW129588   0.366   6.192   0.503
 9563SOL    HW229589   0.315   6.332   0.569
 9564SOL     OW29590   2.263   0.935   1.074
 9564SOL    HW129591   2.356   0.934   1.038
 9564SOL    HW229592   2.202   0.886   1.012
 9565SOL     OW29593   4.048   0.829   4.227
 9565SOL    HW129594   4.110   0.786   4.292
 9565SOL    HW229595   4.058   0.787   4.137
 9566SOL     OW29596   2.490   4.949   0.005
 9566SOL    HW129597   2.536   4.893   6.964
 9566SOL    HW229598   2.540   4.942   0.092
 9567SOL     OW29599   4.892   5.128   0.600
 9567SOL    HW129600   4.795   5.141   0.624
 9567SOL    HW229601   4.913   5.183   0.519
 9568SOL     OW29602   4.230   2.674   6.095
 9568SOL    HW129603   4.145   2.669   6.044
 9568SOL    HW229604   4.254   2.770   6.111
 9569SOL     OW29605   6.946   1.293   2.119
 9569SOL    HW129606   6.900   1.208   2.091
 9569SOL    HW229607   0.006   1.301   2.070
 9570SOL     OW29608   0.540   3.486   2.021
 9570SOL    HW129609   0.608   3.505   2.092
 9570SOL    HW229610   0.495   3.399   2.041
 9571SOL     OW29611   3.504   3.907   6.193
 9571SOL    HW129612   3.406   3.889   6.182
 9571SOL    HW229613   3.556   3.834   6.150
 9572SOL     OW29614   2.398   4.805   2.070
 9572SOL    HW129615   2.455   4.756   2.003
 9572SOL    HW229616   2.379   4.745   2.148
 9573SOL     OW29617   0.806   2.825   6.469
 9573SOL    HW129618   0.881   2.771   6.507
 9573SOL    HW229619   0.832   2.858   6.378
 9574SOL     OW29620   4.107   3.646   3.149
 9574SOL    HW129621   4.183   3.639   3.214
 9574SOL    HW229622   4.021   3.630   3.197
 9575SOL     OW29623   0.451   0.978   1.178
 9575SOL    HW129624   0.543   1.006   1.151
 9575SOL    HW229625   0.437   0.881   1.158
 9576SOL     OW29626   1.884   1.134   1.371
 9576SOL    HW129627   1.893   1.035   1.378
 9576SOL    HW229628   1.969   1.173   1.337
 9577SOL     OW29629   1.185   0.875   6.267
 9577SOL    HW129630   1.120   0.852   6.340
 9577SOL    HW229631   1.226   0.791   6.232
 9578SOL     OW29632   0.607   3.526   3.084
 9578SOL    HW129633   0.520   3.566   3.115
 9578SOL    HW229634   0.626   3.444   3.137
 9579SOL     OW29635   1.531   5.286   2.906
 9579SOL    HW129636   1.592   5.355   2.944
 9579SOL    HW229637   1.585   5.211   2.867
 9580SOL     OW29638   4.828   4.198   0.486
 9580SOL    HW129639   4.885   4.191   0.568
 9580SOL    HW229640   4.852   4.125   0.422
 9581SOL     OW29641   0.133   5.337   5.921
 9581SOL    HW129642   0.226   5.308   5.903
 9581SOL    HW229643   0.072   5.304   5.849
 9582SOL     OW29644   5.079   5.520   5.925
 9582SOL    HW129645   5.051   5.429   5.894
 9582SOL    HW229646   5.179   5.527   5.923
 9583SOL     OW29647   3.664   4.212   1.384
 9583SOL    HW129648   3.726   4.197   1.307
 9583SOL    HW229649   3.694   4.158   1.462
 9584SOL     OW29650   6.966   5.440   6.779
 9584SOL    HW129651   6.894   5.510   6.784
 9584SOL    HW229652   0.013   5.473   6.721
 9585SOL     OW29653   6.975   0.247   4.951
 9585SOL    HW129654   6.880   0.278   4.947
 9585SOL    HW229655   7.005   0.244   5.047
 9586SOL     OW29656   5.708   4.714   2.174
 9586SOL    HW129657   5.616   4.742   2.148
 9586SOL    HW229658   5.718   4.615   2.161
 9587SOL     OW29659   0.694   0.509   1.607
 9587SOL    HW129660   0.783   0.555   1.612
 9587SOL    HW229661   0.691   0.436   1.675
 9588SOL     OW29662   6.572   1.038   1.385
 9588SOL    HW129663   6.660   0.990   1.393
 9588SOL    HW229664   6.586   1.135   1.401
 9589SOL     OW29665   2.250   5.065   0.105
 9589SOL    HW129666   2.300   5.129   0.163
 9589SOL    HW229667   2.315   5.017   0.046
 9590SOL     OW29668   6.719   2.781   2.058
 9590SOL    HW129669   6.807   2.827   2.044
 9590SOL    HW229670   6.655   2.844   2.102
 9591SOL     OW29671   2.889   6.168   5.856
 9591SOL    HW129672   2.964   6.229   5.881
 9591SOL    HW229673   2.924   6.093   5.800
 9592SOL     OW29674   3.853   4.385   0.890
 9592SOL    HW129675   3.904   4.368   0.974
 9592SOL    HW229676   3.820   4.479   0.890
 9593SOL     OW29677   0.282   0.670   6.024
 9593SOL    HW129678   0.370   0.718   6.031
 9593SOL    HW229679   0.217   0.711   6.088
 9594SOL     OW29680   1.063   5.359   2.402
 9594SOL    HW129681   1.017   5.443   2.373
 9594SOL    HW229682   1.162   5.371   2.395
 9595SOL     OW29683   0.769   4.110   5.253
 9595SOL    HW129684   0.721   4.067   5.177
 9595SOL    HW229685   0.847   4.054   5.280
 9596SOL     OW29686   6.713   5.394   6.419
 9596SOL    HW129687   6.789   5.444   6.379
 9596SOL    HW229688   6.743   5.302   6.444
 9597SOL     OW29689   0.687   4.180   1.517
 9597SOL    HW129690   0.592   4.175   1.487
 9597SOL    HW229691   0.744   4.122   1.458
 9598SOL     OW29692   1.744   3.755   4.343
 9598SOL    HW129693   1.741   3.800   4.254
 9598SOL    HW229694   1.687   3.673   4.340
 9599SOL     OW29695   3.719   0.126   4.823
 9599SOL    HW129696   3.692   0.214   4.783
 9599SOL    HW229697   3.654   0.056   4.794
 9600SOL     OW29698   2.176   6.680   6.569
 9600SOL    HW129699   2.192   6.732   6.653
 9600SOL    HW229700   2.256   6.623   6.549
 9601SOL     OW29701   5.035   4.162   1.208
 9601SOL    HW129702   5.045   4.088   1.274
 9601SOL    HW229703   5.119   4.217   1.207
 9602SOL     OW29704   6.621   5.004   6.305
 9602SOL    HW129705   6.571   4.929   6.263
 9602SOL    HW229706   6.586   5.022   6.397
 9603SOL     OW29707   3.988   1.362   4.040
 9603SOL    HW129708   3.912   1.320   3.989
 9603SOL    HW229709   4.029   1.434   3.984
 9604SOL     OW29710   4.283   0.300   6.624
 9604SOL    HW129711   4.263   0.247   6.706
 9604SOL    HW229712   4.383   0.306   6.611
 9605SOL     OW29713   0.802   5.520   3.522
 9605SOL    HW129714   0.731   5.580   3.485
 9605SOL    HW229715   0.871   5.575   3.568
 9606SOL     OW29716   1.668   6.488   6.661
 9606SOL    HW129717   1.752   6.540   6.677
 9606SOL    HW229718   1.600   6.546   6.616
 9607SOL     OW29719   1.789   1.831   0.185
 9607SOL    HW129720   1.767   1.799   0.093
 9607SOL    HW229721   1.806   1.753   0.245
 9608SOL     OW29722   6.733   5.652   2.377
 9608SOL    HW129723   6.815   5.698   2.343
 9608SOL    HW229724   6.727   5.662   2.476
 9609SOL     OW29725   1.961   4.335   6.402
 9609SOL    HW129726   2.018   4.319   6.321
 9609SOL    HW229727   1.876   4.282   6.394
 9610SOL     OW29728   1.432   5.551   4.276
 9610SOL    HW129729   1.464   5.551   4.371
 9610SOL    HW229730   1.405   5.458   4.250
 9611SOL     OW29731   0.667   6.455   6.814
 9611SOL    HW129732   0.608   6.396   6.870
 9611SOL    HW229733   0.611   6.523   6.767
 9612SOL     OW29734   0.300   3.997   2.214
 9612SOL    HW129735   0.364   4.004   2.137
 9612SOL    HW229736   0.208   4.023   2.184
 9613SOL     OW29737   4.941   6.402   3.356
 9613SOL    HW129738   4.997   6.485   3.353
 9613SOL    HW229739   4.922   6.372   3.263
 9614SOL     OW29740   3.063   2.338   0.393
 9614SOL    HW129741   3.054   2.374   0.299
 9614SOL    HW229742   3.087   2.412   0.455
 9615SOL     OW29743   1.230   0.041   0.408
 9615SOL    HW129744   1.323   0.054   0.374
 9615SOL    HW229745   1.231   7.005   0.485
 9616SOL     OW29746   4.250   4.169   1.265
 9616SOL    HW129747   4.180   4.098   1.267
 9616SOL    HW229748   4.319   4.146   1.196
 9617SOL     OW29749   2.244   3.005   3.399
 9617SOL    HW129750   2.284   2.985   3.489
 9617SOL    HW229751   2.198   3.094   3.403
 9618SOL     OW29752   3.763   6.768   5.320
 9618SOL    HW129753   3.821   6.749   5.399
 9618SOL    HW229754   3.764   6.866   5.300
 9619SOL     OW29755   1.127   6.700   0.294
 9619SOL    HW129756   1.092   6.792   0.273
 9619SOL    HW229757   1.223   6.706   0.319
 9620SOL     OW29758   4.275   2.445   0.036
 9620SOL    HW129759   4.195   2.434   0.094
 9620SOL    HW229760   4.248   2.433   6.967
 9621SOL     OW29761   0.511   0.885   2.416
 9621SOL    HW129762   0.513   0.944   2.336
 9621SOL    HW229763   0.445   0.920   2.483
 9622SOL     OW29764   6.315   0.762   0.250
 9622SOL    HW129765   6.360   0.691   0.196
 9622SOL    HW229766   6.381   0.831   0.279
 9623SOL     OW29767   3.280   4.775   6.142
 9623SOL    HW129768   3.227   4.855   6.114
 9623SOL    HW229769   3.258   4.698   6.081
 9624SOL     OW29770   6.689   4.705   2.048
 9624SOL    HW129771   6.609   4.660   2.088
 9624SOL    HW229772   6.695   4.798   2.083
 9625SOL     OW29773   5.027   5.905   0.064
 9625SOL    HW129774   5.076   5.945   0.142
 9625SOL    HW229775   4.962   5.837   0.098
 9626SOL     OW29776   3.287   6.209   6.688
 9626SOL    HW129777   3.193   6.207   6.654
 9626SOL    HW229778   3.289   6.173   6.781
 9627SOL     OW29779   6.912   5.207   3.122
 9627SOL    HW129780   6.938   5.231   3.216
 9627SOL    HW229781   6.983   5.151   3.081
 9628SOL     OW29782   5.530   5.255   6.835
 9628SOL    HW129783   5.599   5.228   6.902
 9628SOL    HW229784   5.575   5.282   6.749
 9629SOL     OW29785   0.402   6.528   3.027
 9629SOL    HW129786   0.444   6.520   2.937
 9629SOL    HW229787   0.474   6.522   3.097
 9630SOL     OW29788   6.614   6.211   5.635
 9630SOL    HW129789   6.526   6.164   5.625
 9630SOL    HW229790   6.666   6.169   5.709
 9631SOL     OW29791   5.843   0.297   0.236
 9631SOL    HW129792   5.854   0.204   0.269
 9631SOL    HW229793   5.788   0.350   0.300
 9632SOL     OW29794   2.281   5.100   2.749
 9632SOL    HW129795   2.376   5.067   2.751
 9632SOL    HW229796   2.263   5.151   2.833
 9633SOL     OW29797   5.114   5.133   0.107
 9633SOL    HW129798   5.157   5.043   0.108
 9633SOL    HW229799   5.016   5.124   0.122
 9634SOL     OW29800   0.564   0.289   4.173
 9634SOL    HW129801   0.664   0.290   4.171
 9634SOL    HW229802   0.529   0.269   4.081
 9635SOL     OW29803   1.373   5.249   5.649
 9635SOL    HW129804   1.459   5.210   5.683
 9635SOL    HW229805   1.298   5.186   5.671
 9636SOL     OW29806   4.271   1.836   6.168
 9636SOL    HW129807   4.173   1.832   6.149
 9636SOL    HW229808   4.300   1.932   6.169
 9637SOL     OW29809   2.736   1.536   6.584
 9637SOL    HW129810   2.744   1.618   6.528
 9637SOL    HW229811   2.778   1.553   6.673
 9638SOL     OW29812   6.944   3.516   6.922
 9638SOL    HW129813   6.909   3.609   6.932
 9638SOL    HW229814   6.913   3.478   6.835
 9639SOL     OW29815   3.742   1.342   2.084
 9639SOL    HW129816   3.761   1.431   2.044
 9639SOL    HW229817   3.828   1.296   2.106
 9640SOL     OW29818   3.556   1.802   2.847
 9640SOL    HW129819   3.487   1.731   2.831
 9640SOL    HW229820   3.518   1.873   2.906
 9641SOL     OW29821   5.503   6.664   1.178
 9641SOL    HW129822   5.589   6.672   1.128
 9641SOL    HW229823   5.477   6.754   1.214
 9642SOL     OW29824   2.781   6.020   5.033
 9642SOL    HW129825   2.804   6.113   5.004
 9642SOL    HW229826   2.817   5.954   4.967
 9643SOL     OW29827   6.186   4.397   4.235
 9643SOL    HW129828   6.192   4.429   4.141
 9643SOL    HW229829   6.227   4.464   4.296
 9644SOL     OW29830   1.122   5.229   4.953
 9644SOL    HW129831   1.035   5.180   4.945
 9644SOL    HW229832   1.198   5.164   4.945
 9645SOL     OW29833   3.895   4.891   4.113
 9645SOL    HW129834   3.942   4.980   4.108
 9645SOL    HW229835   3.830   4.893   4.189
 9646SOL     OW29836   2.931   4.786   2.155
 9646SOL    HW129837   2.872   4.728   2.099
 9646SOL    HW229838   2.892   4.795   2.246
 9647SOL     OW29839   6.809   5.337   1.050
 9647SOL    HW129840   6.801   5.437   1.055
 9647SOL    HW229841   6.767   5.297   1.132
 9648SOL     OW29842   3.640   1.935   0.049
 9648SOL    HW129843   3.659   1.941   0.147
 9648SOL    HW229844   3.612   1.841   0.027
 9649SOL     OW29845   3.258   5.645   0.132
 9649SOL    HW129846   3.296   5.647   0.225
 9649SOL    HW229847   3.163   5.675   0.134
 9650SOL     OW29848   4.978   4.316   3.291
 9650SOL    HW129849   4.952   4.343   3.198
 9650SOL    HW229850   4.900   4.274   3.337
 9651SOL     OW29851   6.536   1.021   6.858
 9651SOL    HW129852   6.551   1.118   6.873
 9651SOL    HW229853   6.564   0.997   6.765
 9652SOL     OW29854   2.241   4.411   0.485
 9652SOL    HW129855   2.206   4.501   0.458
 9652SOL    HW229856   2.198   4.340   0.429
 9653SOL     OW29857   4.300   5.591   5.199
 9653SOL    HW129858   4.286   5.686   5.172
 9653SOL    HW229859   4.278   5.531   5.123
 9654SOL     OW29860   3.914   3.158   1.880
 9654SOL    HW129861   3.993   3.186   1.933
 9654SOL    HW229862   3.865   3.086   1.928
 9655SOL     OW29863   0.058   1.177   7.022
 9655SOL    HW129864   0.071   1.081   0.017
 9655SOL    HW229865   0.136   1.230   0.028
 9656SOL     OW29866   3.718   2.261   0.918
 9656SOL    HW129867   3.662   2.182   0.891
 9656SOL    HW229868   3.778   2.236   0.994
 9657SOL     OW29869   6.133   2.052   3.195
 9657SOL    HW129870   6.193   1.985   3.237
 9657SOL    HW229871   6.170   2.079   3.105
 9658SOL     OW29872   6.116   1.381   2.449
 9658SOL    HW129873   6.053   1.357   2.523
 9658SOL    HW229874   6.093   1.329   2.367
 9659SOL     OW29875   0.228   3.780   0.574
 9659SOL    HW129876   0.284   3.835   0.511
 9659SOL    HW229877   0.142   3.828   0.593
 9660SOL     OW29878   0.319   5.968   1.237
 9660SOL    HW129879   0.388   5.989   1.307
 9660SOL    HW229880   0.345   6.011   1.151
 9661SOL     OW29881   3.594   6.465   2.071
 9661SOL    HW129882   3.646   6.521   2.135
 9661SOL    HW229883   3.632   6.372   2.068
 9662SOL     OW29884   5.047   2.639   4.974
 9662SOL    HW129885   5.022   2.645   4.877
 9662SOL    HW229886   4.981   2.690   5.028
 9663SOL     OW29887   0.594   6.292   4.261
 9663SOL    HW129888   0.684   6.254   4.242
 9663SOL    HW229889   0.558   6.253   4.346
 9664SOL     OW29890   5.816   6.634   3.955
 9664SOL    HW129891   5.895   6.590   3.911
 9664SOL    HW229892   5.805   6.597   4.048
 9665SOL     OW29893   5.016   6.072   6.864
 9665SOL    HW129894   5.070   6.017   6.799
 9665SOL    HW229895   5.003   6.021   6.948
 9666SOL     OW29896   5.699   3.987   1.496
 9666SOL    HW129897   5.700   3.933   1.580
 9666SOL    HW229898   5.771   3.954   1.435
 9667SOL     OW29899   3.626   3.638   5.480
 9667SOL    HW129900   3.624   3.545   5.442
 9667SOL    HW229901   3.671   3.699   5.414
 9668SOL     OW29902   6.406   1.289   6.251
 9668SOL    HW129903   6.506   1.291   6.262
 9668SOL    HW229904   6.384   1.254   6.160
 9669SOL     OW29905   1.380   0.200   1.941
 9669SOL    HW129906   1.466   0.173   1.984
 9669SOL    HW229907   1.381   0.299   1.926
 9670SOL     OW29908   5.494   4.638   6.054
 9670SOL    HW129909   5.478   4.691   6.137
 9670SOL    HW229910   5.437   4.675   5.980
 9671SOL     OW29911   5.837   5.442   6.883
 9671SOL    HW129912   5.929   5.461   6.917
 9671SOL    HW229913   5.796   5.526   6.848
 9672SOL     OW29914   1.316   6.004   4.210
 9672SOL    HW129915   1.391   6.058   4.173
 9672SOL    HW229916   1.326   5.909   4.182
 9673SOL     OW29917   5.503   3.925   0.452
 9673SOL    HW129918   5.472   4.006   0.402
 9673SOL    HW229919   5.565   3.871   0.395
 9674SOL     OW29920   2.792   5.597   2.913
 9674SOL    HW129921   2.703   5.610   2.870
 9674SOL    HW229922   2.785   5.615   3.011
 9675SOL     OW29923   5.943   2.284   0.328
 9675SOL    HW129924   5.844   2.285   0.335
 9675SOL    HW229925   5.974   2.191   0.303
 9676SOL     OW29926   1.374   3.609   5.459
 9676SOL    HW129927   1.381   3.609   5.559
 9676SOL    HW229928   1.291   3.561   5.431
 9677SOL     OW29929   1.550   5.535   5.108
 9677SOL    HW129930   1.574   5.440   5.126
 9677SOL    HW229931   1.481   5.565   5.174
 9678SOL     OW29932   3.252   3.375   3.301
 9678SOL    HW129933   3.186   3.414   3.237
 9678SOL    HW229934   3.227   3.280   3.321
 9679SOL     OW29935   2.409   1.121   2.438
 9679SOL    HW129936   2.405   1.100   2.340
 9679SOL    HW229937   2.395   1.037   2.490
 9680SOL     OW29938   5.547   0.906   3.302
 9680SOL    HW129939   5.453   0.908   3.269
 9680SOL    HW229940   5.558   0.976   3.373
 9681SOL     OW29941   3.222   1.419   6.867
 9681SOL    HW129942   3.307   1.384   6.906
 9681SOL    HW229943   3.168   1.463   6.939
 9682SOL     OW29944   5.073   4.860   4.174
 9682SOL    HW129945   4.984   4.815   4.183
 9682SOL    HW229946   5.060   4.956   4.152
 9683SOL     OW29947   2.625   5.319   1.213
 9683SOL    HW129948   2.574   5.238   1.241
 9683SOL    HW229949   2.640   5.316   1.114
 9684SOL     OW29950   0.755   2.705   5.329
 9684SOL    HW129951   0.791   2.796   5.309
 9684SOL    HW229952   0.657   2.711   5.344
 9685SOL     OW29953   2.309   4.176   1.483
 9685SOL    HW129954   2.244   4.252   1.493
 9685SOL    HW229955   2.260   4.090   1.476
 9686SOL     OW29956   6.906   1.274   0.173
 9686SOL    HW129957   6.973   1.246   0.104
 9686SOL    HW229958   6.890   1.373   0.165
 9687SOL     OW29959   1.812   0.586   4.082
 9687SOL    HW129960   1.750   0.512   4.057
 9687SOL    HW229961   1.835   0.578   4.179
 9688SOL     OW29962   0.102   2.267   2.767
 9688SOL    HW129963   0.118   2.237   2.861
 9688SOL    HW229964   0.095   2.188   2.707
 9689SOL     OW29965   1.603   6.018   0.130
 9689SOL    HW129966   1.652   6.105   0.125
 9689SOL    HW229967   1.627   5.971   0.215
 9690SOL     OW29968   5.902   6.040   6.607
 9690SOL    HW129969   5.893   6.102   6.530
 9690SOL    HW229970   5.847   5.958   6.591
 9691SOL     OW29971   2.868   4.937   1.757
 9691SOL    HW129972   2.823   4.970   1.840
 9691SOL    HW229973   2.864   4.837   1.754
 9692SOL     OW29974   3.544   5.475   2.873
 9692SOL    HW129975   3.558   5.446   2.968
 9692SOL    HW229976   3.589   5.564   2.859
 9693SOL     OW29977   6.310   5.616   1.443
 9693SOL    HW129978   6.347   5.694   1.495
 9693SOL    HW229979   6.376   5.588   1.373
 9694SOL     OW29980   2.091   1.184   0.141
 9694SOL    HW129981   2.187   1.208   0.133
 9694SOL    HW229982   2.067   1.117   0.071
 9695SOL     OW29983   0.186   3.684   2.037
 9695SOL    HW129984   0.116   3.706   2.105
 9695SOL    HW229985   0.153   3.613   1.975
 9696SOL     OW29986   4.963   3.564   0.656
 9696SOL    HW129987   5.032   3.582   0.586
 9696SOL    HW229988   4.954   3.465   0.669
 9697SOL     OW29989   0.372   5.923   6.148
 9697SOL    HW129990   0.318   6.007   6.154
 9697SOL    HW229991   0.425   5.911   6.231
 9698SOL     OW29992   4.781   1.581   5.796
 9698SOL    HW129993   4.693   1.550   5.832
 9698SOL    HW229994   4.779   1.680   5.781
 9699SOL     OW29995   6.914   5.168   6.746
 9699SOL    HW129996   6.820   5.144   6.771
 9699SOL    HW229997   6.933   5.262   6.774
 9700SOL     OW29998   4.227   5.161   4.956
 9700SOL    HW129999   4.312   5.112   4.936
 9700SOL    HW230000   4.149   5.111   4.917
 9701SOL     OW30001   3.870   5.202   5.141
 9701SOL    HW130002   3.907   5.277   5.086
 9701SOL    HW230003   3.771   5.212   5.148
 9702SOL     OW30004   4.994   0.569   6.940
 9702SOL    HW130005   4.982   0.651   6.995
 9702SOL    HW230006   4.991   0.488   6.999
 9703SOL     OW30007   4.551   4.722   4.227
 9703SOL    HW130008   4.551   4.628   4.262
 9703SOL    HW230009   4.498   4.780   4.288
 9704SOL     OW30010   2.938   0.985   3.158
 9704SOL    HW130011   2.942   1.079   3.191
 9704SOL    HW230012   2.870   0.978   3.086
 9705SOL     OW30013   5.119   5.048   6.184
 9705SOL    HW130014   5.030   5.028   6.144
 9705SOL    HW230015   5.115   5.035   6.283
 9706SOL     OW30016   0.531   2.670   0.906
 9706SOL    HW130017   0.471   2.666   0.986
 9706SOL    HW230018   0.622   2.638   0.931
 9707SOL     OW30019   6.330   4.496   1.446
 9707SOL    HW130020   6.284   4.496   1.535
 9707SOL    HW230021   6.327   4.588   1.408
 9708SOL     OW30022   1.718   1.966   2.308
 9708SOL    HW130023   1.754   1.928   2.393
 9708SOL    HW230024   1.702   2.064   2.319
 9709SOL     OW30025   5.963   6.037   2.917
 9709SOL    HW130026   6.027   6.063   2.845
 9709SOL    HW230027   6.012   5.988   2.990
 9710SOL     OW30028   0.132   1.674   1.964
 9710SOL    HW130029   0.117   1.616   2.043
 9710SOL    HW230030   0.079   1.641   1.886
 9711SOL     OW30031   2.392   4.642   6.160
 9711SOL    HW130032   2.384   4.624   6.062
 9711SOL    HW230033   2.387   4.556   6.211
 9712SOL     OW30034   5.901   4.795   6.146
 9712SOL    HW130035   5.938   4.742   6.070
 9712SOL    HW230036   5.868   4.734   6.218
 9713SOL     OW30037   1.096   5.036   3.345
 9713SOL    HW130038   1.125   5.130   3.364
 9713SOL    HW230039   1.009   5.038   3.296
 9714SOL     OW30040   2.612   1.122   1.225
 9714SOL    HW130041   2.534   1.157   1.173
 9714SOL    HW230042   2.580   1.075   1.307
 9715SOL     OW30043   5.474   4.065   6.131
 9715SOL    HW130044   5.521   4.135   6.077
 9715SOL    HW230045   5.528   4.043   6.212
 9716SOL     OW30046   4.198   3.160   6.813
 9716SOL    HW130047   4.160   3.159   6.906
 9716SOL    HW230048   4.169   3.079   6.763
 9717SOL     OW30049   5.401   5.881   5.824
 9717SOL    HW130050   5.499   5.862   5.813
 9717SOL    HW230051   5.386   5.980   5.831
 9718SOL     OW30052   5.137   2.616   1.190
 9718SOL    HW130053   5.122   2.674   1.270
 9718SOL    HW230054   5.200   2.662   1.128
 9719SOL     OW30055   0.231   1.756   6.788
 9719SOL    HW130056   0.260   1.846   6.755
 9719SOL    HW230057   0.251   1.687   6.718
 9720SOL     OW30058   6.979   5.359   2.124
 9720SOL    HW130059   0.042   5.378   2.164
 9720SOL    HW230060   6.922   5.440   2.131
 9721SOL     OW30061   0.281   2.857   1.420
 9721SOL    HW130062   0.322   2.766   1.427
 9721SOL    HW230063   0.303   2.897   1.331
 9722SOL     OW30064   6.805   0.391   4.280
 9722SOL    HW130065   6.746   0.373   4.359
 9722SOL    HW230066   6.852   0.478   4.292
 9723SOL     OW30067   2.129   6.226   3.233
 9723SOL    HW130068   2.174   6.179   3.309
 9723SOL    HW230069   2.167   6.318   3.223
 9724SOL     OW30070   1.576   3.674   0.502
 9724SOL    HW130071   1.612   3.679   0.409
 9724SOL    HW230072   1.627   3.605   0.554
 9725SOL     OW30073   3.364   4.536   6.476
 9725SOL    HW130074   3.297   4.596   6.432
 9725SOL    HW230075   3.456   4.562   6.447
 9726SOL     OW30076   5.163   0.589   4.187
 9726SOL    HW130077   5.182   0.496   4.221
 9726SOL    HW230078   5.222   0.654   4.234
 9727SOL     OW30079   0.710   3.574   5.657
 9727SOL    HW130080   0.661   3.656   5.625
 9727SOL    HW230081   0.738   3.520   5.578
 9728SOL     OW30082   0.518   0.021   6.532
 9728SOL    HW130083   0.604   0.042   6.486
 9728SOL    HW230084   0.441   0.050   6.474
 9729SOL     OW30085   0.896   4.177   3.352
 9729SOL    HW130086   0.858   4.237   3.422
 9729SOL    HW230087   0.947   4.232   3.285
 9730SOL     OW30088   1.067   3.574   3.134
 9730SOL    HW130089   1.123   3.495   3.160
 9730SOL    HW230090   1.038   3.565   3.039
 9731SOL     OW30091   4.404   4.109   1.045
 9731SOL    HW130092   4.332   4.106   0.975
 9731SOL    HW230093   4.475   4.173   1.017
 9732SOL     OW30094   5.754   5.610   2.805
 9732SOL    HW130095   5.755   5.577   2.899
 9732SOL    HW230096   5.755   5.710   2.805
 9733SOL     OW30097   5.928   4.983   0.620
 9733SOL    HW130098   5.844   5.036   0.606
 9733SOL    HW230099   6.007   5.042   0.602
 9734SOL     OW30100   6.329   1.205   2.497
 9734SOL    HW130101   6.419   1.248   2.501
 9734SOL    HW230102   6.259   1.277   2.491
 9735SOL     OW30103   2.514   4.483   3.055
 9735SOL    HW130104   2.533   4.479   3.152
 9735SOL    HW230105   2.583   4.539   3.009
 9736SOL     OW30106   5.963   1.928   6.199
 9736SOL    HW130107   5.888   1.942   6.264
 9736SOL    HW230108   5.928   1.882   6.117
 9737SOL     OW30109   6.270   3.134   4.571
 9737SOL    HW130110   6.249   3.104   4.478
 9737SOL    HW230111   6.368   3.153   4.579
 9738SOL     OW30112   2.021   6.826   1.699
 9738SOL    HW130113   2.052   6.921   1.703
 9738SOL    HW230114   2.050   6.785   1.612
 9739SOL     OW30115   5.856   5.468   2.417
 9739SOL    HW130116   5.770   5.484   2.465
 9739SOL    HW230117   5.888   5.375   2.436
 9740SOL     OW30118   6.867   2.141   2.941
 9740SOL    HW130119   6.856   2.048   2.906
 9740SOL    HW230120   6.896   2.138   3.036
 9741SOL     OW30121   4.936   2.398   2.823
 9741SOL    HW130122   4.981   2.309   2.812
 9741SOL    HW230123   4.993   2.458   2.878
 9742SOL     OW30124   3.966   0.377   1.775
 9742SOL    HW130125   3.975   0.474   1.799
 9742SOL    HW230126   3.894   0.366   1.707
 9743SOL     OW30127   0.593   2.246   4.237
 9743SOL    HW130128   0.688   2.262   4.211
 9743SOL    HW230129   0.548   2.190   4.166
 9744SOL     OW30130   0.590   0.280   2.657
 9744SOL    HW130131   0.654   0.204   2.673
 9744SOL    HW230132   0.522   0.252   2.589
 9745SOL     OW30133   6.191   2.869   6.170
 9745SOL    HW130134   6.148   2.959   6.168
 9745SOL    HW230135   6.239   2.853   6.084
 9746SOL     OW30136   6.398   0.925   5.928
 9746SOL    HW130137   6.362   0.896   6.017
 9746SOL    HW230138   6.361   1.015   5.905
 9747SOL     OW30139   2.181   0.246   1.461
 9747SOL    HW130140   2.151   0.332   1.504
 9747SOL    HW230141   2.110   0.214   1.399
 9748SOL     OW30142   0.747   1.881   3.847
 9748SOL    HW130143   0.677   1.951   3.833
 9748SOL    HW230144   0.837   1.918   3.824
 9749SOL     OW30145   2.170   1.557   4.781
 9749SOL    HW130146   2.188   1.567   4.683
 9749SOL    HW230147   2.169   1.460   4.805
 9750SOL     OW30148   5.651   4.561   3.485
 9750SOL    HW130149   5.612   4.652   3.500
 9750SOL    HW230150   5.591   4.508   3.425
 9751SOL     OW30151   1.691   0.951   0.302
 9751SOL    HW130152   1.768   1.016   0.305
 9751SOL    HW230153   1.621   0.979   0.368
 9752SOL     OW30154   5.414   2.173   6.885
 9752SOL    HW130155   5.348   2.097   6.894
 9752SOL    HW230156   5.388   2.247   6.947
 9753SOL     OW30157   6.204   5.902   5.621
 9753SOL    HW130158   6.168   5.831   5.682
 9753SOL    HW230159   6.131   5.933   5.560
 9754SOL     OW30160   0.876   1.752   6.440
 9754SOL    HW130161   0.909   1.749   6.346
 9754SOL    HW230162   0.920   1.680   6.494
 9755SOL     OW30163   4.122   3.974   5.366
 9755SOL    HW130164   4.084   3.944   5.454
 9755SOL    HW230165   4.203   3.919   5.344
 9756SOL     OW30166   6.019   3.343   0.532
 9756SOL    HW130167   6.029   3.401   0.613
 9756SOL    HW230168   6.100   3.351   0.474
 9757SOL     OW30169   5.798   3.436   3.269
 9757SOL    HW130170   5.791   3.531   3.240
 9757SOL    HW230171   5.884   3.422   3.318
 9758SOL     OW30172   2.323   0.020   0.054
 9758SOL    HW130173   2.418   7.013   0.056
 9758SOL    HW230174   2.300   0.048   6.988
 9759SOL     OW30175   2.504   6.670   0.050
 9759SOL    HW130176   2.535   6.732   7.005
 9759SOL    HW230177   2.530   6.708   0.139
 9760SOL     OW30178   4.787   3.312   5.195
 9760SOL    HW130179   4.765   3.409   5.185
 9760SOL    HW230180   4.883   3.302   5.222
 9761SOL     OW30181   5.941   0.582   2.270
 9761SOL    HW130182   6.033   0.620   2.263
 9761SOL    HW230183   5.937   0.496   2.219
 9762SOL     OW30184   2.980   2.100   4.638
 9762SOL    HW130185   2.996   2.011   4.683
 9762SOL    HW230186   2.950   2.166   4.706
 9763SOL     OW30187   5.171   1.558   1.790
 9763SOL    HW130188   5.215   1.639   1.829
 9763SOL    HW230189   5.215   1.476   1.825
 9764SOL     OW30190   0.688   2.892   2.891
 9764SOL    HW130191   0.721   2.975   2.846
 9764SOL    HW230192   0.723   2.812   2.843
 9765SOL     OW30193   6.806   1.390   2.862
 9765SOL    HW130194   6.827   1.332   2.783
 9765SOL    HW230195   6.707   1.396   2.873
 9766SOL     OW30196   2.618   0.463   3.272
 9766SOL    HW130197   2.711   0.430   3.258
 9766SOL    HW230198   2.599   0.538   3.208
 9767SOL     OW30199   5.551   1.988   5.668
 9767SOL    HW130200   5.454   2.011   5.659
 9767SOL    HW230201   5.560   1.903   5.721
 9768SOL     OW30202   5.119   1.520   2.270
 9768SOL    HW130203   5.127   1.423   2.246
 9768SOL    HW230204   5.207   1.553   2.304
 9769SOL     OW30205   2.571   0.770   2.626
 9769SOL    HW130206   2.549   0.692   2.685
 9769SOL    HW230207   2.492   0.793   2.570
 9770SOL     OW30208   5.548   0.526   6.987
 9770SOL    HW130209   5.497   0.510   6.902
 9770SOL    HW230210   5.563   0.439   0.006
 9771SOL     OW30211   3.019   5.177   1.256
 9771SOL    HW130212   3.081   5.180   1.177
 9771SOL    HW230213   3.054   5.237   1.327
 9772SOL     OW30214   1.302   6.665   3.041
 9772SOL    HW130215   1.304   6.727   2.962
 9772SOL    HW230216   1.396   6.644   3.069
 9773SOL     OW30217   5.544   6.459   4.066
 9773SOL    HW130218   5.502   6.525   4.003
 9773SOL    HW230219   5.625   6.500   4.108
 9774SOL     OW30220   6.147   5.043   1.532
 9774SOL    HW130221   6.173   5.083   1.620
 9774SOL    HW230222   6.084   4.967   1.548
 9775SOL     OW30223   2.352   0.861   3.618
 9775SOL    HW130224   2.360   0.891   3.713
 9775SOL    HW230225   2.334   0.940   3.560
 9776SOL     OW30226   0.352   5.451   4.518
 9776SOL    HW130227   0.316   5.359   4.532
 9776SOL    HW230228   0.402   5.453   4.431
 9777SOL     OW30229   5.437   4.394   6.074
 9777SOL    HW130230   5.519   4.341   6.095
 9777SOL    HW230231   5.463   4.489   6.053
 9778SOL     OW30232   0.582   0.845   3.441
 9778SOL    HW130233   0.562   0.903   3.361
 9778SOL    HW230234   0.576   0.900   3.524
 9779SOL     OW30235   1.976   0.718   4.934
 9779SOL    HW130236   1.965   0.623   4.962
 9779SOL    HW230237   1.887   0.760   4.918
 9780SOL     OW30238   2.539   1.930   0.700
 9780SOL    HW130239   2.627   1.965   0.733
 9780SOL    HW230240   2.488   1.891   0.776
 9781SOL     OW30241   0.950   4.148   4.289
 9781SOL    HW130242   0.943   4.108   4.198
 9781SOL    HW230243   1.044   4.177   4.306
 9782SOL     OW30244   6.712   0.861   1.666
 9782SOL    HW130245   6.708   0.776   1.719
 9782SOL    HW230246   6.622   0.881   1.627
 9783SOL     OW30247   5.071   2.554   3.004
 9783SOL    HW130248   5.081   2.504   3.090
 9783SOL    HW230249   5.056   2.651   3.024
 9784SOL     OW30250   3.655   1.622   4.176
 9784SOL    HW130251   3.683   1.633   4.080
 9784SOL    HW230252   3.639   1.525   4.195
 9785SOL     OW30253   6.691   3.980   5.637
 9785SOL    HW130254   6.613   4.022   5.684
 9785SOL    HW230255   6.746   3.929   5.702
 9786SOL     OW30256   2.308   5.091   6.558
 9786SOL    HW130257   2.357   5.102   6.645
 9786SOL    HW230258   2.211   5.076   6.576
 9787SOL     OW30259   4.535   3.477   1.698
 9787SOL    HW130260   4.491   3.566   1.689
 9787SOL    HW230261   4.494   3.413   1.633
 9788SOL     OW30262   0.236   0.307   4.026
 9788SOL    HW130263   0.327   0.303   3.984
 9788SOL    HW230264   0.177   0.367   3.973
 9789SOL     OW30265   1.215   5.645   0.157
 9789SOL    HW130266   1.270   5.716   0.112
 9789SOL    HW230267   1.252   5.555   0.134
 9790SOL     OW30268   5.857   3.841   5.524
 9790SOL    HW130269   5.863   3.880   5.432
 9790SOL    HW230270   5.773   3.873   5.568
 9791SOL     OW30271   0.174   1.552   2.812
 9791SOL    HW130272   0.221   1.486   2.871
 9791SOL    HW230273   0.093   1.508   2.772
 9792SOL     OW30274   5.521   5.614   2.232
 9792SOL    HW130275   5.544   5.516   2.231
 9792SOL    HW230276   5.566   5.657   2.310
 9793SOL     OW30277   5.827   4.890   3.535
 9793SOL    HW130278   5.874   4.898   3.447
 9793SOL    HW230279   5.729   4.874   3.520
 9794SOL     OW30280   6.369   4.810   6.824
 9794SOL    HW130281   6.353   4.730   6.882
 9794SOL    HW230282   6.370   4.781   6.728
 9795SOL     OW30283   1.419   2.239   4.117
 9795SOL    HW130284   1.478   2.234   4.198
 9795SOL    HW230285   1.329   2.275   4.143
 9796SOL     OW30286   4.027   2.607   1.272
 9796SOL    HW130287   3.982   2.679   1.221
 9796SOL    HW230288   4.126   2.626   1.277
 9797SOL     OW30289   3.594   5.113   6.550
 9797SOL    HW130290   3.583   5.029   6.498
 9797SOL    HW230291   3.684   5.152   6.532
 9798SOL     OW30292   2.700   0.664   1.069
 9798SOL    HW130293   2.723   0.655   1.167
 9798SOL    HW230294   2.774   0.625   1.015
 9799SOL     OW30295   3.333   3.731   3.440
 9799SOL    HW130296   3.285   3.649   3.470
 9799SOL    HW230297   3.379   3.714   3.353
 9800SOL     OW30298   3.098   6.537   5.155
 9800SOL    HW130299   3.195   6.521   5.135
 9800SOL    HW230300   3.089   6.583   5.243
 9801SOL     OW30301   4.861   4.439   0.369
 9801SOL    HW130302   4.827   4.363   0.424
 9801SOL    HW230303   4.943   4.476   0.412
 9802SOL     OW30304   0.901   2.686   1.962
 9802SOL    HW130305   0.992   2.706   1.925
 9802SOL    HW230306   0.834   2.684   1.888
 9803SOL     OW30307   6.242   1.605   0.283
 9803SOL    HW130308   6.145   1.625   0.291
 9803SOL    HW230309   6.290   1.638   0.364
 9804SOL     OW30310   0.714   6.304   2.941
 9804SOL    HW130311   0.776   6.286   3.018
 9804SOL    HW230312   0.673   6.218   2.911
 9805SOL     OW30313   1.246   5.851   5.733
 9805SOL    HW130314   1.253   5.861   5.633
 9805SOL    HW230315   1.271   5.937   5.776
 9806SOL     OW30316   1.350   2.120   0.265
 9806SOL    HW130317   1.365   2.141   0.169
 9806SOL    HW230318   1.426   2.065   0.300
 9807SOL     OW30319   1.960   2.905   7.012
 9807SOL    HW130320   1.955   2.807   0.002
 9807SOL    HW230321   1.900   2.929   6.936
 9808SOL     OW30322   5.888   1.328   5.688
 9808SOL    HW130323   5.867   1.231   5.685
 9808SOL    HW230324   5.987   1.341   5.691
 9809SOL     OW30325   0.996   1.963   6.547
 9809SOL    HW130326   1.084   1.977   6.502
 9809SOL    HW230327   0.967   1.868   6.535
 9810SOL     OW30328   2.416   2.721   4.160
 9810SOL    HW130329   2.321   2.725   4.191
 9810SOL    HW230330   2.428   2.783   4.082
 9811SOL     OW30331   5.555   5.729   4.098
 9811SOL    HW130332   5.477   5.726   4.161
 9811SOL    HW230333   5.573   5.824   4.072
 9812SOL     OW30334   2.896   2.365   5.658
 9812SOL    HW130335   2.903   2.418   5.573
 9812SOL    HW230336   2.799   2.351   5.680
 9813SOL     OW30337   5.899   0.353   7.016
 9813SOL    HW130338   5.866   0.324   0.078
 9813SOL    HW230339   5.902   0.453   7.013
 9814SOL     OW30340   0.717   1.151   6.696
 9814SOL    HW130341   0.750   1.219   6.761
 9814SOL    HW230342   0.771   1.156   6.612
 9815SOL     OW30343   5.900   3.673   2.676
 9815SOL    HW130344   5.856   3.757   2.710
 9815SOL    HW230345   5.859   3.647   2.589
 9816SOL     OW30346   6.921   1.529   6.321
 9816SOL    HW130347   6.895   1.458   6.387
 9816SOL    HW230348   6.961   1.606   6.370
 9817SOL     OW30349   2.868   5.617   2.255
 9817SOL    HW130350   2.788   5.666   2.219
 9817SOL    HW230351   2.837   5.549   2.322
 9818SOL     OW30352   1.847   1.035   3.913
 9818SOL    HW130353   1.817   1.104   3.848
 9818SOL    HW230354   1.779   0.962   3.917
 9819SOL     OW30355   5.192   2.998   5.099
 9819SOL    HW130356   5.166   3.044   5.014
 9819SOL    HW230357   5.119   2.937   5.128
 9820SOL     OW30358   3.875   3.221   6.425
 9820SOL    HW130359   3.899   3.150   6.491
 9820SOL    HW230360   3.775   3.228   6.418
 9821SOL     OW30361   4.591   1.023   0.557
 9821SOL    HW130362   4.638   1.067   0.480
 9821SOL    HW230363   4.515   1.080   0.586
 9822SOL     OW30364   3.266   5.497   3.789
 9822SOL    HW130365   3.366   5.501   3.794
 9822SOL    HW230366   3.238   5.487   3.693
 9823SOL     OW30367   1.946   0.100   2.015
 9823SOL    HW130368   1.909   0.007   2.015
 9823SOL    HW230369   1.905   0.152   1.940
 9824SOL     OW30370   1.896   5.737   4.800
 9824SOL    HW130371   1.990   5.704   4.792
 9824SOL    HW230372   1.891   5.805   4.873
 9825SOL     OW30373   5.940   6.422   4.906
 9825SOL    HW130374   5.956   6.425   5.004
 9825SOL    HW230375   5.960   6.331   4.871
 9826SOL     OW30376   3.768   6.232   5.581
 9826SOL    HW130377   3.856   6.217   5.626
 9826SOL    HW230378   3.702   6.164   5.614
 9827SOL     OW30379   2.123   4.108   3.481
 9827SOL    HW130380   2.211   4.138   3.443
 9827SOL    HW230381   2.136   4.025   3.534
 9828SOL     OW30382   2.758   2.127   5.021
 9828SOL    HW130383   2.708   2.048   5.059
 9828SOL    HW230384   2.786   2.187   5.096
 9829SOL     OW30385   4.662   5.878   6.420
 9829SOL    HW130386   4.730   5.892   6.492
 9829SOL    HW230387   4.697   5.915   6.334
 9830SOL     OW30388   4.876   2.139   1.589
 9830SOL    HW130389   4.811   2.215   1.590
 9830SOL    HW230390   4.893   2.110   1.683
 9831SOL     OW30391   0.508   4.502   2.302
 9831SOL    HW130392   0.475   4.436   2.370
 9831SOL    HW230393   0.467   4.481   2.213
 9832SOL     OW30394   4.437   5.741   2.935
 9832SOL    HW130395   4.378   5.708   3.009
 9832SOL    HW230396   4.397   5.717   2.847
 9833SOL     OW30397   3.485   3.177   3.280
 9833SOL    HW130398   3.410   3.112   3.281
 9833SOL    HW230399   3.499   3.211   3.187
 9834SOL     OW30400   1.860   4.666   5.599
 9834SOL    HW130401   1.784   4.637   5.541
 9834SOL    HW230402   1.937   4.695   5.542
 9835SOL     OW30403   3.603   3.190   4.201
 9835SOL    HW130404   3.518   3.234   4.229
 9835SOL    HW230405   3.600   3.093   4.225
 9836SOL     OW30406   0.579   4.461   4.532
 9836SOL    HW130407   0.492   4.413   4.517
 9836SOL    HW230408   0.654   4.404   4.499
 9837SOL     OW30409   5.648   0.519   1.987
 9837SOL    HW130410   5.673   0.606   1.946
 9837SOL    HW230411   5.551   0.519   2.010
 9838SOL     OW30412   1.392   7.003   0.766
 9838SOL    HW130413   1.448   6.930   0.727
 9838SOL    HW230414   1.428   0.001   0.856
 9839SOL     OW30415   4.630   6.572   3.223
 9839SOL    HW130416   4.538   6.535   3.211
 9839SOL    HW230417   4.648   6.585   3.321
 9840SOL     OW30418   4.755   1.819   0.339
 9840SOL    HW130419   4.678   1.774   0.385
 9840SOL    HW230420   4.801   1.880   0.404
 9841SOL     OW30421   1.038   5.282   3.589
 9841SOL    HW130422   0.977   5.330   3.653
 9841SOL    HW230423   1.036   5.328   3.500
 9842SOL     OW30424   3.405   3.088   0.926
 9842SOL    HW130425   3.347   3.027   0.980
 9842SOL    HW230426   3.430   3.168   0.980
 9843SOL     OW30427   6.972   0.225   2.014
 9843SOL    HW130428   6.916   0.142   2.019
 9843SOL    HW230429   0.019   0.219   2.080
 9844SOL     OW30430   6.148   1.276   3.980
 9844SOL    HW130431   6.052   1.302   3.973
 9844SOL    HW230432   6.200   1.351   4.021
 9845SOL     OW30433   1.597   2.509   2.463
 9845SOL    HW130434   1.659   2.516   2.541
 9845SOL    HW230435   1.512   2.557   2.482
 9846SOL     OW30436   4.596   1.462   0.908
 9846SOL    HW130437   4.674   1.401   0.892
 9846SOL    HW230438   4.590   1.485   1.005
 9847SOL     OW30439   3.937   3.041   2.320
 9847SOL    HW130440   3.936   3.095   2.404
 9847SOL    HW230441   4.011   2.973   2.325
 9848SOL     OW30442   3.915   4.640   5.759
 9848SOL    HW130443   4.011   4.615   5.752
 9848SOL    HW230444   3.906   4.739   5.766
 9849SOL     OW30445   0.951   6.930   6.962
 9849SOL    HW130446   1.007   7.011   6.941
 9849SOL    HW230447   0.880   6.919   6.892
 9850SOL     OW30448   0.347   0.722   3.804
 9850SOL    HW130449   0.264   0.767   3.769
 9850SOL    HW230450   0.339   0.711   3.903
 9851SOL     OW30451   2.555   6.484   4.489
 9851SOL    HW130452   2.653   6.466   4.484
 9851SOL    HW230453   2.510   6.452   4.405
 9852SOL     OW30454   1.893   1.436   4.827
 9852SOL    HW130455   1.949   1.507   4.784
 9852SOL    HW230456   1.799   1.443   4.793
 9853SOL     OW30457   6.479   3.630   5.598
 9853SOL    HW130458   6.479   3.595   5.504
 9853SOL    HW230459   6.572   3.627   5.634
 9854SOL     OW30460   0.646   5.598   4.737
 9854SOL    HW130461   0.639   5.546   4.652
 9854SOL    HW230462   0.740   5.594   4.771
 9855SOL     OW30463   1.254   3.171   1.059
 9855SOL    HW130464   1.307   3.246   1.018
 9855SOL    HW230465   1.212   3.202   1.144
 9856SOL     OW30466   5.619   4.731   4.085
 9856SOL    HW130467   5.591   4.788   4.162
 9856SOL    HW230468   5.667   4.650   4.120
 9857SOL     OW30469   5.642   3.013   2.827
 9857SOL    HW130470   5.589   3.098   2.821
 9857SOL    HW230471   5.582   2.935   2.809
 9858SOL     OW30472   0.526   6.872   1.411
 9858SOL    HW130473   0.619   6.852   1.443
 9858SOL    HW230474   0.473   6.911   1.486
 9859SOL     OW30475   6.931   4.504   4.405
 9859SOL    HW130476   6.847   4.463   4.441
 9859SOL    HW230477   7.003   4.500   4.474
 9860SOL     OW30478   1.506   2.218   4.743
 9860SOL    HW130479   1.455   2.134   4.761
 9860SOL    HW230480   1.453   2.279   4.685
 9861SOL     OW30481   3.038   0.430   3.599
 9861SOL    HW130482   3.070   0.518   3.563
 9861SOL    HW230483   3.039   0.362   3.526
 9862SOL     OW30484   2.823   3.679   0.706
 9862SOL    HW130485   2.756   3.680   0.780
 9862SOL    HW230486   2.777   3.698   0.619
 9863SOL     OW30487   3.084   5.561   1.088
 9863SOL    HW130488   3.143   5.623   1.036
 9863SOL    HW230489   3.094   5.579   1.185
 9864SOL     OW30490   3.200   0.651   5.174
 9864SOL    HW130491   3.133   0.605   5.233
 9864SOL    HW230492   3.206   0.603   5.087
 9865SOL     OW30493   0.697   6.269   4.824
 9865SOL    HW130494   0.723   6.211   4.747
 9865SOL    HW230495   0.774   6.327   4.851
 9866SOL     OW30496   5.920   4.653   4.979
 9866SOL    HW130497   5.973   4.587   4.926
 9866SOL    HW230498   5.951   4.652   5.074
 9867SOL     OW30499   6.354   2.698   2.551
 9867SOL    HW130500   6.374   2.622   2.490
 9867SOL    HW230501   6.337   2.664   2.644
 9868SOL     OW30502   0.321   3.459   4.197
 9868SOL    HW130503   0.388   3.404   4.148
 9868SOL    HW230504   0.341   3.455   4.295
 9869SOL     OW30505   0.814   2.860   0.951
 9869SOL    HW130506   0.767   2.819   1.029
 9869SOL    HW230507   0.893   2.803   0.927
 9870SOL     OW30508   4.247   0.554   2.959
 9870SOL    HW130509   4.213   0.641   2.995
 9870SOL    HW230510   4.261   0.491   3.035
 9871SOL     OW30511   6.672   3.320   5.591
 9871SOL    HW130512   6.652   3.328   5.493
 9871SOL    HW230513   6.764   3.354   5.609
 9872SOL     OW30514   2.231   5.340   5.004
 9872SOL    HW130515   2.236   5.339   5.104
 9872SOL    HW230516   2.135   5.336   4.975
 9873SOL     OW30517   2.402   2.379   6.027
 9873SOL    HW130518   2.379   2.373   5.930
 9873SOL    HW230519   2.370   2.466   6.064
 9874SOL     OW30520   0.410   3.100   5.237
 9874SOL    HW130521   0.407   3.199   5.250
 9874SOL    HW230522   0.347   3.056   5.302
 9875SOL     OW30523   6.841   5.996   2.686
 9875SOL    HW130524   6.798   6.083   2.662
 9875SOL    HW230525   6.940   6.009   2.694
 9876SOL     OW30526   5.316   0.947   4.497
 9876SOL    HW130527   5.294   0.880   4.567
 9876SOL    HW230528   5.260   1.029   4.510
 9877SOL     OW30529   6.868   4.183   4.377
 9877SOL    HW130530   6.953   4.193   4.326
 9877SOL    HW230531   6.807   4.260   4.356
 9878SOL     OW30532   2.284   4.043   6.686
 9878SOL    HW130533   2.381   4.051   6.661
 9878SOL    HW230534   2.230   4.106   6.631
 9879SOL     OW30535   0.354   4.477   5.601
 9879SOL    HW130536   0.454   4.473   5.604
 9879SOL    HW230537   0.324   4.572   5.593
 9880SOL     OW30538   2.208   0.443   0.423
 9880SOL    HW130539   2.229   0.534   0.458
 9880SOL    HW230540   2.270   0.422   0.347
 9881SOL     OW30541   6.495   1.031   4.523
 9881SOL    HW130542   6.503   0.971   4.444
 9881SOL    HW230543   6.572   1.094   4.526
 9882SOL     OW30544   3.669   3.450   5.281
 9882SOL    HW130545   3.675   3.455   5.181
 9882SOL    HW230546   3.761   3.447   5.320
 9883SOL     OW30547   1.543   5.977   1.873
 9883SOL    HW130548   1.510   5.915   1.945
 9883SOL    HW230549   1.615   5.932   1.820
 9884SOL     OW30550   3.492   2.346   0.201
 9884SOL    HW130551   3.404   2.389   0.180
 9884SOL    HW230552   3.476   2.259   0.249
 9885SOL     OW30553   0.970   3.520   4.104
 9885SOL    HW130554   0.957   3.583   4.028
 9885SOL    HW230555   0.892   3.526   4.166
 9886SOL     OW30556   6.706   6.788   1.965
 9886SOL    HW130557   6.669   6.757   1.877
 9886SOL    HW230558   6.634   6.835   2.016
 9887SOL     OW30559   3.045   0.052   0.670
 9887SOL    HW130560   3.055   6.983   0.694
 9887SOL    HW230561   3.123   0.081   0.615
 9888SOL     OW30562   5.718   5.951   3.334
 9888SOL    HW130563   5.750   6.045   3.342
 9888SOL    HW230564   5.672   5.924   3.419
 9889SOL     OW30565   1.074   4.999   2.609
 9889SOL    HW130566   1.067   5.005   2.709
 9889SOL    HW230567   1.003   5.055   2.567
 9890SOL     OW30568   6.475   2.856   0.383
 9890SOL    HW130569   6.556   2.803   0.409
 9890SOL    HW230570   6.464   2.853   0.284
 9891SOL     OW30571   5.478   4.836   1.688
 9891SOL    HW130572   5.466   4.885   1.602
 9891SOL    HW230573   5.393   4.788   1.711
 9892SOL     OW30574   2.599   5.515   3.859
 9892SOL    HW130575   2.547   5.430   3.862
 9892SOL    HW230576   2.654   5.524   3.942
 9893SOL     OW30577   6.537   6.215   2.438
 9893SOL    HW130578   6.635   6.230   2.441
 9893SOL    HW230579   6.517   6.118   2.452
 9894SOL     OW30580   2.847   1.230   6.457
 9894SOL    HW130581   2.778   1.280   6.510
 9894SOL    HW230582   2.918   1.294   6.427
 9895SOL     OW30583   6.292   2.005   5.738
 9895SOL    HW130584   6.205   2.054   5.733
 9895SOL    HW230585   6.367   2.067   5.714
 9896SOL     OW30586   4.768   2.627   0.799
 9896SOL    HW130587   4.702   2.701   0.813
 9896SOL    HW230588   4.855   2.652   0.842
 9897SOL     OW30589   5.263   1.258   2.609
 9897SOL    HW130590   5.201   1.260   2.530
 9897SOL    HW230591   5.221   1.204   2.682
 9898SOL     OW30592   0.859   5.453   5.054
 9898SOL    HW130593   0.852   5.545   5.093
 9898SOL    HW230594   0.917   5.455   4.973
 9899SOL     OW30595   6.452   4.589   2.132
 9899SOL    HW130596   6.418   4.635   2.214
 9899SOL    HW230597   6.375   4.551   2.080
 9900SOL     OW30598   2.310   2.119   2.656
 9900SOL    HW130599   2.321   2.179   2.735
 9900SOL    HW230600   2.301   2.173   2.573
 9901SOL     OW30601   1.196   2.710   0.486
 9901SOL    HW130602   1.151   2.787   0.531
 9901SOL    HW230603   1.240   2.652   0.554
 9902SOL     OW30604   3.511   3.058   1.275
 9902SOL    HW130605   3.487   2.974   1.227
 9902SOL    HW230606   3.575   3.037   1.349
 9903SOL     OW30607   4.527   0.327   2.776
 9903SOL    HW130608   4.545   0.411   2.827
 9903SOL    HW230609   4.503   0.254   2.840
 9904SOL     OW30610   0.016   3.183   6.731
 9904SOL    HW130611   6.963   3.151   6.681
 9904SOL    HW230612   7.015   3.227   6.816
 9905SOL     OW30613   2.060   6.479   0.658
 9905SOL    HW130614   2.097   6.468   0.566
 9905SOL    HW230615   2.005   6.399   0.682
 9906SOL     OW30616   1.510   3.177   0.326
 9906SOL    HW130617   1.558   3.098   0.361
 9906SOL    HW230618   1.413   3.171   0.350
 9907SOL     OW30619   2.815   7.011   3.170
 9907SOL    HW130620   2.716   7.027   3.176
 9907SOL    HW230621   2.854   7.010   3.262
 9908SOL     OW30622   0.892   3.376   6.049
 9908SOL    HW130623   0.804   3.420   6.068
 9908SOL    HW230624   0.936   3.421   5.972
 9909SOL     OW30625   3.429   0.782   3.190
 9909SOL    HW130626   3.445   0.866   3.240
 9909SOL    HW230627   3.382   0.716   3.249
 9910SOL     OW30628   6.952   5.172   1.664
 9910SOL    HW130629   6.968   5.243   1.733
 9910SOL    HW230630   0.004   5.165   1.605
 9911SOL     OW30631   5.033   5.229   3.443
 9911SOL    HW130632   5.041   5.134   3.474
 9911SOL    HW230633   4.962   5.276   3.495
 9912SOL     OW30634   4.427   0.718   2.815
 9912SOL    HW130635   4.359   0.660   2.860
 9912SOL    HW230636   4.413   0.813   2.843
 9913SOL     OW30637   6.181   3.106   2.261
 9913SOL    HW130638   6.192   3.020   2.312
 9913SOL    HW230639   6.145   3.086   2.169
 9914SOL     OW30640   0.939   0.848   5.659
 9914SOL    HW130641   0.961   0.751   5.648
 9914SOL    HW230642   0.993   0.902   5.595
 9915SOL     OW30643   5.410   3.991   4.143
 9915SOL    HW130644   5.495   4.035   4.112
 9915SOL    HW230645   5.394   3.908   4.090
 9916SOL     OW30646   2.706   2.142   3.990
 9916SOL    HW130647   2.676   2.104   4.078
 9916SOL    HW230648   2.684   2.077   3.917
 9917SOL     OW30649   3.165   3.031   4.472
 9917SOL    HW130650   3.169   3.060   4.377
 9917SOL    HW230651   3.258   3.026   4.510
 9918SOL     OW30652   1.387   1.474   0.395
 9918SOL    HW130653   1.386   1.380   0.361
 9918SOL    HW230654   1.444   1.479   0.477
 9919SOL     OW30655   2.168   4.881   2.413
 9919SOL    HW130656   2.263   4.913   2.411
 9919SOL    HW230657   2.108   4.955   2.381
 9920SOL     OW30658   3.404   1.157   3.062
 9920SOL    HW130659   3.346   1.199   2.993
 9920SOL    HW230660   3.346   1.110   3.130
 9921SOL     OW30661   5.917   6.383   3.774
 9921SOL    HW130662   5.829   6.387   3.727
 9921SOL    HW230663   5.903   6.367   3.871
 9922SOL     OW30664   4.395   4.225   0.665
 9922SOL    HW130665   4.375   4.139   0.712
 9922SOL    HW230666   4.488   4.253   0.688
 9923SOL     OW30667   6.880   2.886   0.517
 9923SOL    HW130668   6.849   2.953   0.585
 9923SOL    HW230669   6.811   2.813   0.509
 9924SOL     OW30670   5.719   1.751   1.677
 9924SOL    HW130671   5.688   1.845   1.659
 9924SOL    HW230672   5.817   1.752   1.696
 9925SOL     OW30673   1.975   4.235   5.310
 9925SOL    HW130674   2.006   4.162   5.249
 9925SOL    HW230675   1.946   4.314   5.255
 9926SOL     OW30676   3.372   2.550   1.488
 9926SOL    HW130677   3.332   2.640   1.476
 9926SOL    HW230678   3.377   2.527   1.585
 9927SOL     OW30679   1.038   2.351   1.318
 9927SOL    HW130680   0.989   2.303   1.390
 9927SOL    HW230681   0.994   2.439   1.300
 9928SOL     OW30682   6.267   4.642   2.338
 9928SOL    HW130683   6.285   4.596   2.425
 9928SOL    HW230684   6.193   4.708   2.350
 9929SOL     OW30685   2.652   4.263   5.490
 9929SOL    HW130686   2.638   4.165   5.481
 9929SOL    HW230687   2.572   4.304   5.533
 9930SOL     OW30688   0.084   0.439   5.858
 9930SOL    HW130689   0.082   0.536   5.833
 9930SOL    HW230690   0.115   0.430   5.953
 9931SOL     OW30691   0.218   5.260   4.836
 9931SOL    HW130692   0.231   5.358   4.851
 9931SOL    HW230693   0.199   5.216   4.924
 9932SOL     OW30694   1.716   2.357   0.761
 9932SOL    HW130695   1.657   2.277   0.748
 9932SOL    HW230696   1.794   2.332   0.819
 9933SOL     OW30697   2.066   0.784   3.818
 9933SOL    HW130698   2.063   0.694   3.860
 9933SOL    HW230699   2.138   0.839   3.859
 9934SOL     OW30700   6.041   2.036   0.289
 9934SOL    HW130701   6.098   2.006   0.366
 9934SOL    HW230702   6.072   1.990   0.206
 9935SOL     OW30703   2.879   2.096   0.537
 9935SOL    HW130704   2.899   2.051   0.624
 9935SOL    HW230705   2.958   2.151   0.510
 9936SOL     OW30706   5.660   4.948   6.349
 9936SOL    HW130707   5.695   4.882   6.283
 9936SOL    HW230708   5.735   5.008   6.379
 9937SOL     OW30709   1.155   1.059   3.072
 9937SOL    HW130710   1.236   1.035   3.019
 9937SOL    HW230711   1.180   1.074   3.168
 9938SOL     OW30712   5.447   0.373   3.494
 9938SOL    HW130713   5.433   0.472   3.499
 9938SOL    HW230714   5.537   0.354   3.454
 9939SOL     OW30715   2.042   2.763   1.170
 9939SOL    HW130716   2.131   2.791   1.133
 9939SOL    HW230717   2.041   2.778   1.268
 9940SOL     OW30718   6.798   0.450   3.856
 9940SOL    HW130719   6.842   0.537   3.880
 9940SOL    HW230720   6.732   0.466   3.782
 9941SOL     OW30721   3.250   5.506   6.033
 9941SOL    HW130722   3.264   5.510   6.132
 9941SOL    HW230723   3.301   5.428   5.996
 9942SOL     OW30724   4.832   4.551   2.859
 9942SOL    HW130725   4.799   4.642   2.834
 9942SOL    HW230726   4.885   4.512   2.782
 9943SOL     OW30727   0.947   4.446   6.328
 9943SOL    HW130728   0.966   4.378   6.398
 9943SOL    HW230729   1.032   4.490   6.300
 9944SOL     OW30730   0.071   5.800   6.498
 9944SOL    HW130731   7.003   5.770   6.487
 9944SOL    HW230732   0.127   5.723   6.529
 9945SOL     OW30733   5.298   3.861   6.621
 9945SOL    HW130734   5.297   3.803   6.539
 9945SOL    HW230735   5.350   3.815   6.693
 9946SOL     OW30736   6.432   0.390   3.305
 9946SOL    HW130737   6.515   0.441   3.284
 9946SOL    HW230738   6.456   0.304   3.349
 9947SOL     OW30739   1.817   1.543   3.509
 9947SOL    HW130740   1.795   1.454   3.470
 9947SOL    HW230741   1.915   1.561   3.496
 9948SOL     OW30742   6.809   5.725   5.194
 9948SOL    HW130743   6.901   5.687   5.191
 9948SOL    HW230744   6.742   5.653   5.176
 9949SOL     OW30745   0.291   5.092   4.191
 9949SOL    HW130746   0.356   5.075   4.117
 9949SOL    HW230747   0.334   5.071   4.279
 9950SOL     OW30748   6.685   5.228   6.152
 9950SOL    HW130749   6.646   5.158   6.213
 9950SOL    HW230750   6.783   5.212   6.142
 9951SOL     OW30751   1.600   2.209   2.677
 9951SOL    HW130752   1.614   2.120   2.721
 9951SOL    HW230753   1.632   2.204   2.582
 9952SOL     OW30754   0.983   3.453   1.645
 9952SOL    HW130755   0.895   3.423   1.681
 9952SOL    HW230756   0.969   3.534   1.588
 9953SOL     OW30757   5.696   2.249   3.207
 9953SOL    HW130758   5.761   2.190   3.159
 9953SOL    HW230759   5.695   2.225   3.304
 9954SOL     OW30760   1.582   0.941   5.031
 9954SOL    HW130761   1.496   0.889   5.032
 9954SOL    HW230762   1.636   0.914   4.951
 9955SOL     OW30763   4.853   2.951   6.811
 9955SOL    HW130764   4.926   2.887   6.834
 9955SOL    HW230765   4.873   2.993   6.722
 9956SOL     OW30766   6.948   3.903   2.602
 9956SOL    HW130767   6.979   3.980   2.657
 9956SOL    HW230768   7.023   3.837   2.592
 9957SOL     OW30769   5.645   0.101   1.172
 9957SOL    HW130770   5.599   0.038   1.235
 9957SOL    HW230771   5.730   0.133   1.213
 9958SOL     OW30772   3.428   5.732   6.196
 9958SOL    HW130773   3.349   5.771   6.149
 9958SOL    HW230774   3.411   5.635   6.214
 9959SOL     OW30775   4.213   3.414   1.685
 9959SOL    HW130776   4.218   3.324   1.730
 9959SOL    HW230777   4.136   3.466   1.722
 9960SOL     OW30778   0.237   6.500   1.565
 9960SOL    HW130779   0.232   6.424   1.500
 9960SOL    HW230780   0.332   6.524   1.580
 9961SOL     OW30781   2.235   4.416   2.485
 9961SOL    HW130782   2.273   4.362   2.409
 9961SOL    HW230783   2.307   4.474   2.523
 9962SOL     OW30784   3.745   1.157   1.881
 9962SOL    HW130785   3.836   1.126   1.909
 9962SOL    HW230786   3.715   1.230   1.941
 9963SOL     OW30787   2.438   3.015   6.933
 9963SOL    HW130788   2.471   2.952   7.004
 9963SOL    HW230789   2.507   3.085   6.917
 9964SOL     OW30790   3.492   4.861   5.774
 9964SOL    HW130791   3.399   4.881   5.742
 9964SOL    HW230792   3.557   4.921   5.728
 9965SOL     OW30793   3.569   5.848   4.659
 9965SOL    HW130794   3.621   5.790   4.722
 9965SOL    HW230795   3.513   5.790   4.600
 9966SOL     OW30796   2.708   5.238   2.206
 9966SOL    HW130797   2.797   5.193   2.203
 9966SOL    HW230798   2.687   5.277   2.116
 9967SOL     OW30799   5.829   5.231   2.780
 9967SOL    HW130800   5.863   5.322   2.804
 9967SOL    HW230801   5.901   5.163   2.797
 9968SOL     OW30802   4.197   5.670   0.030
 9968SOL    HW130803   4.127   5.658   6.987
 9968SOL    HW230804   4.287   5.674   7.014
 9969SOL     OW30805   1.657   3.168   4.263
 9969SOL    HW130806   1.755   3.159   4.282
 9969SOL    HW230807   1.608   3.179   4.349
 9970SOL     OW30808   6.519   5.511   1.273
 9970SOL    HW130809   6.573   5.427   1.266
 9970SOL    HW230810   6.564   5.584   1.222
 9971SOL     OW30811   2.284   2.477   1.717
 9971SOL    HW130812   2.341   2.417   1.772
 9971SOL    HW230813   2.315   2.572   1.728
 9972SOL     OW30814   2.590   3.883   1.085
 9972SOL    HW130815   2.602   3.818   1.159
 9972SOL    HW230816   2.498   3.874   1.047
 9973SOL     OW30817   4.693   2.745   4.335
 9973SOL    HW130818   4.721   2.713   4.425
 9973SOL    HW230819   4.725   2.840   4.323
 9974SOL     OW30820   0.492   2.435   3.102
 9974SOL    HW130821   0.485   2.355   3.042
 9974SOL    HW230822   0.502   2.517   3.046
 9975SOL     OW30823   0.563   5.940   6.422
 9975SOL    HW130824   0.628   5.885   6.369
 9975SOL    HW230825   0.513   5.880   6.486
 9976SOL     OW30826   1.205   5.280   5.234
 9976SOL    HW130827   1.183   5.265   5.138
 9976SOL    HW230828   1.211   5.379   5.252
 9977SOL     OW30829   5.303   4.709   5.816
 9977SOL    HW130830   5.215   4.754   5.828
 9977SOL    HW230831   5.288   4.616   5.782
 9978SOL     OW30832   0.021   1.758   5.406
 9978SOL    HW130833   6.997   1.726   5.325
 9978SOL    HW230834   0.051   1.679   5.459
 9979SOL     OW30835   6.244   4.278   6.223
 9979SOL    HW130836   6.190   4.314   6.147
 9979SOL    HW230837   6.341   4.286   6.201
 9980SOL     OW30838   2.085   0.043   0.618
 9980SOL    HW130839   2.178   0.024   0.587
 9980SOL    HW230840   2.076   0.140   0.638
 9981SOL     OW30841   2.119   2.105   0.807
 9981SOL    HW130842   2.132   2.185   0.748
 9981SOL    HW230843   2.022   2.093   0.826
 9982SOL     OW30844   1.033   1.180   4.279
 9982SOL    HW130845   0.953   1.125   4.256
 9982SOL    HW230846   1.104   1.120   4.317
 9983SOL     OW30847   0.203   1.357   2.024
 9983SOL    HW130848   0.223   1.448   2.061
 9983SOL    HW230849   0.285   1.319   1.982
 9984SOL     OW30850   0.847   6.164   0.347
 9984SOL    HW130851   0.945   6.149   0.365
 9984SOL    HW230852   0.802   6.191   0.432
 9985SOL     OW30853   2.850   5.487   1.306
 9985SOL    HW130854   2.847   5.500   1.405
 9985SOL    HW230855   2.812   5.397   1.283
 9986SOL     OW30856   5.926   5.069   0.933
 9986SOL    HW130857   6.004   5.105   0.985
 9986SOL    HW230858   5.941   5.084   0.835
 9987SOL     OW30859   6.360   2.564   2.011
 9987SOL    HW130860   6.445   2.540   1.966
 9987SOL    HW230861   6.374   2.566   2.110
 9988SOL     OW30862   6.944   5.156   4.251
 9988SOL    HW130863   7.013   5.228   4.252
 9988SOL    HW230864   6.899   5.155   4.162
 9989SOL     OW30865   6.115   4.298   2.272
 9989SOL    HW130866   6.211   4.287   2.248
 9989SOL    HW230867   6.107   4.354   2.355
 9990SOL     OW30868   2.222   6.674   2.965
 9990SOL    HW130869   2.279   6.753   2.941
 9990SOL    HW230870   2.165   6.648   2.887
 9991SOL     OW30871   2.102   3.886   3.643
 9991SOL    HW130872   2.120   3.790   3.625
 9991SOL    HW230873   2.130   3.908   3.736
 9992SOL     OW30874   3.646   3.760   0.932
 9992SOL    HW130875   3.703   3.798   0.860
 9992SOL    HW230876   3.559   3.808   0.936
 9993SOL     OW30877   4.010   6.950   4.079
 9993SOL    HW130878   4.058   6.881   4.134
 9993SOL    HW230879   4.027   6.933   3.982
 9994SOL     OW30880   6.713   3.842   2.429
 9994SOL    HW130881   6.771   3.891   2.494
 9994SOL    HW230882   6.696   3.900   2.349
 9995SOL     OW30883   3.466   1.356   3.646
 9995SOL    HW130884   3.544   1.418   3.640
 9995SOL    HW230885   3.386   1.407   3.678
 9996SOL     OW30886   2.697   3.723   1.706
 9996SOL    HW130887   2.627   3.656   1.681
 9996SOL    HW230888   2.658   3.815   1.704
 9997SOL     OW30889   5.498   0.594   2.286
 9997SOL    HW130890   5.543   0.511   2.318
 9997SOL    HW230891   5.514   0.668   2.351
 9998SOL     OW30892   5.954   3.712   1.944
 9998SOL    HW130893   5.958   3.774   1.866
 9998SOL    HW230894   5.922   3.622   1.914
 9999SOL     OW30895   0.041   5.591   5.158
 9999SOL    HW130896   0.110   5.657   5.129
 9999SOL    HW230897   0.056   5.568   5.255
10000SOL     OW30898   5.207   2.419   0.380
10000SOL    HW130899   5.251   2.366   0.452
10000SOL    HW230900   5.145   2.361   0.328
10001SOL     OW30901   3.450   0.504   1.405
10001SOL    HW130902   3.536   0.552   1.388
10001SOL    HW230903   3.439   0.430   1.339
10002SOL     OW30904   1.848   0.931   1.724
10002SOL    HW130905   1.776   0.987   1.765
10002SOL    HW230906   1.913   0.904   1.795
10003SOL     OW30907   2.843   2.166   2.283
10003SOL    HW130908   2.902   2.208   2.352
10003SOL    HW230909   2.849   2.218   2.198
10004SOL     OW30910   5.412   2.979   5.217
10004SOL    HW130911   5.333   2.971   5.156
10004SOL    HW230912   5.478   2.906   5.196
10005SOL     OW30913   3.325   5.427   2.730
10005SOL    HW130914   3.411   5.444   2.777
10005SOL    HW230915   3.276   5.514   2.718
10006SOL     OW30916   6.128   0.459   5.527
10006SOL    HW130917   6.183   0.406   5.464
10006SOL    HW230918   6.050   0.499   5.479
10007SOL     OW30919   0.984   3.263   3.996
10007SOL    HW130920   1.077   3.297   3.983
10007SOL    HW230921   0.929   3.336   4.038
10008SOL     OW30922   5.050   1.198   3.729
10008SOL    HW130923   5.112   1.160   3.798
10008SOL    HW230924   4.968   1.233   3.774
10009SOL     OW30925   1.447   3.897   1.167
10009SOL    HW130926   1.463   3.828   1.238
10009SOL    HW230927   1.350   3.918   1.161
10010SOL     OW30928   2.626   6.174   0.374
10010SOL    HW130929   2.669   6.087   0.396
10010SOL    HW230930   2.565   6.162   0.296
10011SOL     OW30931   0.517   4.463   6.524
10011SOL    HW130932   0.480   4.552   6.548
10011SOL    HW230933   0.581   4.432   6.594
10012SOL     OW30934   5.325   6.964   1.938
10012SOL    HW130935   5.321   6.877   1.889
10012SOL    HW230936   5.232   6.997   1.954
10013SOL     OW30937   1.803   2.375   4.004
10013SOL    HW130938   1.804   2.440   3.929
10013SOL    HW230939   1.778   2.422   4.089
10014SOL     OW30940   0.724   0.882   1.682
10014SOL    HW130941   0.626   0.867   1.686
10014SOL    HW230942   0.747   0.935   1.601
10015SOL     OW30943   4.054   5.135   0.076
10015SOL    HW130944   4.013   5.222   0.050
10015SOL    HW230945   3.983   5.072   0.108
10016SOL     OW30946   1.734   0.800   4.830
10016SOL    HW130947   1.689   0.711   4.816
10016SOL    HW230948   1.739   0.849   4.743
10017SOL     OW30949   1.835   1.560   3.012
10017SOL    HW130950   1.853   1.656   2.990
10017SOL    HW230951   1.921   1.509   3.015
10018SOL     OW30952   6.784   4.664   5.600
10018SOL    HW130953   6.862   4.690   5.657
10018SOL    HW230954   6.805   4.686   5.504
10019SOL     OW30955   0.626   1.497   3.194
10019SOL    HW130956   0.688   1.571   3.220
10019SOL    HW230957   0.647   1.467   3.101
10020SOL     OW30958   0.336   0.529   1.276
10020SOL    HW130959   0.354   0.432   1.261
10020SOL    HW230960   0.367   0.582   1.197
10021SOL     OW30961   1.022   2.469   2.503
10021SOL    HW130962   1.066   2.440   2.588
10021SOL    HW230963   0.925   2.448   2.506
10022SOL     OW30964   3.144   6.796   0.668
10022SOL    HW130965   3.170   6.724   0.732
10022SOL    HW230966   3.227   6.842   0.635
10023SOL     OW30967   2.050   5.311   4.177
10023SOL    HW130968   1.956   5.290   4.203
10023SOL    HW230969   2.111   5.284   4.252
10024SOL     OW30970   2.100   5.767   2.024
10024SOL    HW130971   2.168   5.785   1.953
10024SOL    HW230972   2.037   5.696   1.993
10025SOL     OW30973   1.580   2.953   2.253
10025SOL    HW130974   1.591   2.862   2.213
10025SOL    HW230975   1.592   3.022   2.183
10026SOL     OW30976   5.305   0.594   3.220
10026SOL    HW130977   5.206   0.608   3.209
10026SOL    HW230978   5.326   0.497   3.211
10027SOL     OW30979   0.909   2.504   5.548
10027SOL    HW130980   0.925   2.482   5.644
10027SOL    HW230981   0.811   2.516   5.533
10028SOL     OW30982   2.027   1.769   2.003
10028SOL    HW130983   2.063   1.685   1.963
10028SOL    HW230984   2.053   1.847   1.947
10029SOL     OW30985   1.729   2.538   3.453
10029SOL    HW130986   1.651   2.595   3.427
10029SOL    HW230987   1.737   2.461   3.390
10030SOL     OW30988   3.231   0.475   4.972
10030SOL    HW130989   3.296   0.400   4.978
10030SOL    HW230990   3.254   0.533   4.893
10031SOL     OW30991   5.712   4.569   4.574
10031SOL    HW130992   5.653   4.526   4.506
10031SOL    HW230993   5.784   4.506   4.602
10032SOL     OW30994   4.382   0.524   5.458
10032SOL    HW130995   4.445   0.602   5.458
10032SOL    HW230996   4.303   0.544   5.401
10033SOL     OW30997   4.805   2.557   3.952
10033SOL    HW130998   4.777   2.468   3.989
10033SOL    HW230999   4.745   2.628   3.987
10034SOL     OW31000   3.265   0.321   3.696
10034SOL    HW131001   3.229   0.234   3.729
10034SOL    HW231002   3.190   0.377   3.661
10035SOL     OW31003   6.490   5.054   1.188
10035SOL    HW131004   6.539   4.967   1.198
10035SOL    HW231005   6.439   5.053   1.102
10036SOL     OW31006   6.382   0.427   0.455
10036SOL    HW131007   6.437   0.412   0.373
10036SOL    HW231008   6.286   0.435   0.430
10037SOL     OW31009   6.054   0.906   0.269
10037SOL    HW131010   6.140   0.857   0.253
10037SOL    HW231011   6.037   0.912   0.367
10038SOL     OW31012   4.342   6.877   6.746
10038SOL    HW131013   4.395   6.884   6.830
10038SOL    HW231014   4.369   6.795   6.696
10039SOL     OW31015   4.415   6.633   5.144
10039SOL    HW131016   4.466   6.550   5.122
10039SOL    HW231017   4.344   6.612   5.211
10040SOL     OW31018   4.135   5.955   6.339
10040SOL    HW131019   4.230   5.950   6.370
10040SOL    HW231020   4.088   6.026   6.391
10041SOL     OW31021   4.883   6.265   6.516
10041SOL    HW131022   4.820   6.277   6.440
10041SOL    HW231023   4.833   6.276   6.602
10042SOL     OW31024   1.279   2.022   5.040
10042SOL    HW131025   1.259   2.110   4.995
10042SOL    HW231026   1.269   1.948   4.973
10043SOL     OW31027   0.357   2.007   4.441
10043SOL    HW131028   0.454   2.024   4.461
10043SOL    HW231029   0.350   1.929   4.379
10044SOL     OW31030   2.251   1.661   4.248
10044SOL    HW131031   2.244   1.759   4.229
10044SOL    HW231032   2.347   1.632   4.239
10045SOL     OW31033   5.255   6.765   4.034
10045SOL    HW131034   5.191   6.709   4.086
10045SOL    HW231035   5.305   6.708   3.969
10046SOL     OW31036   1.212   3.717   1.390
10046SOL    HW131037   1.301   3.759   1.403
10046SOL    HW231038   1.162   3.716   1.477
10047SOL     OW31039   6.626   3.779   5.027
10047SOL    HW131040   6.723   3.765   5.005
10047SOL    HW231041   6.571   3.713   4.976
10048SOL     OW31042   5.102   2.221   2.541
10048SOL    HW131043   5.095   2.318   2.518
10048SOL    HW231044   5.128   2.212   2.637
10049SOL     OW31045   0.945   7.019   6.527
10049SOL    HW131046   0.882   0.041   6.467
10049SOL    HW231047   0.925   0.014   6.623
10050SOL     OW31048   6.607   2.645   5.182
10050SOL    HW131049   6.690   2.699   5.176
10050SOL    HW231050   6.530   2.697   5.144
10051SOL     OW31051   6.234   2.618   5.323
10051SOL    HW131052   6.213   2.567   5.239
10051SOL    HW231053   6.149   2.656   5.361
10052SOL     OW31054   3.190   2.170   2.970
10052SOL    HW131055   3.223   2.255   3.012
10052SOL    HW231056   3.090   2.172   2.965
10053SOL     OW31057   3.624   5.865   1.799
10053SOL    HW131058   3.534   5.907   1.789
10053SOL    HW231059   3.693   5.921   1.754
10054SOL     OW31060   4.855   4.963   6.068
10054SOL    HW131061   4.807   4.955   6.155
10054SOL    HW231062   4.793   5.000   5.999
10055SOL     OW31063   6.090   2.001   5.349
10055SOL    HW131064   6.141   2.080   5.383
10055SOL    HW231065   6.012   1.984   5.409
10056SOL     OW31066   5.462   4.475   1.984
10056SOL    HW131067   5.400   4.537   2.032
10056SOL    HW231068   5.516   4.423   2.050
10057SOL     OW31069   4.138   2.232   4.641
10057SOL    HW131070   4.153   2.166   4.714
10057SOL    HW231071   4.048   2.217   4.600
10058SOL     OW31072   0.250   3.954   4.382
10058SOL    HW131073   0.274   4.002   4.297
10058SOL    HW231074   0.165   3.992   4.419
10059SOL     OW31075   4.761   6.575   1.196
10059SOL    HW131076   4.860   6.573   1.177
10059SOL    HW231077   4.712   6.583   1.109
10060SOL     OW31078   1.583   1.414   1.517
10060SOL    HW131079   1.653   1.346   1.537
10060SOL    HW231080   1.612   1.470   1.439
10061SOL     OW31081   5.214   1.238   4.540
10061SOL    HW131082   5.199   1.293   4.622
10061SOL    HW231083   5.308   1.250   4.507
10062SOL     OW31084   6.695   0.286   4.534
10062SOL    HW131085   6.715   0.194   4.501
10062SOL    HW231086   6.615   0.284   4.594
10063SOL     OW31087   1.870   1.442   4.139
10063SOL    HW131088   1.834   1.494   4.216
10063SOL    HW231089   1.965   1.416   4.157
10064SOL     OW31090   4.803   6.639   0.273
10064SOL    HW131091   4.717   6.663   0.319
10064SOL    HW231092   4.879   6.681   0.323
10065SOL     OW31093   2.019   0.227   2.462
10065SOL    HW131094   2.006   0.128   2.458
10065SOL    HW231095   2.073   0.250   2.543
10066SOL     OW31096   1.228   2.023   3.337
10066SOL    HW131097   1.261   2.100   3.283
10066SOL    HW231098   1.299   1.995   3.402
10067SOL     OW31099   6.286   4.379   4.660
10067SOL    HW131100   6.204   4.329   4.634
10067SOL    HW231101   6.341   4.324   4.723
10068SOL     OW31102   6.877   3.321   2.823
10068SOL    HW131103   6.908   3.341   2.730
10068SOL    HW231104   6.885   3.223   2.841
10069SOL     OW31105   1.862   5.309   3.482
10069SOL    HW131106   1.768   5.310   3.448
10069SOL    HW231107   1.883   5.399   3.521
10070SOL     OW31108   6.358   0.312   5.320
10070SOL    HW131109   6.365   0.220   5.280
10070SOL    HW231110   6.360   0.306   5.419
10071SOL     OW31111   6.421   5.906   3.670
10071SOL    HW131112   6.339   5.854   3.650
10071SOL    HW231113   6.466   5.868   3.751
10072SOL     OW31114   0.258   6.105   3.831
10072SOL    HW131115   0.345   6.124   3.876
10072SOL    HW231116   0.230   6.011   3.854
10073SOL     OW31117   5.942   4.779   5.229
10073SOL    HW131118   5.950   4.879   5.235
10073SOL    HW231119   5.882   4.746   5.302
10074SOL     OW31120   1.383   0.634   5.416
10074SOL    HW131121   1.424   0.720   5.444
10074SOL    HW231122   1.423   0.559   5.469
10075SOL     OW31123   1.354   2.831   3.187
10075SOL    HW131124   1.408   2.795   3.111
10075SOL    HW231125   1.266   2.785   3.190
10076SOL     OW31126   0.083   0.381   3.804
10076SOL    HW131127   7.020   0.424   3.810
10076SOL    HW231128   0.125   0.404   3.717
10077SOL     OW31129   3.998   2.824   6.234
10077SOL    HW131130   4.024   2.762   6.160
10077SOL    HW231131   3.909   2.796   6.271
10078SOL     OW31132   0.230   5.140   3.586
10078SOL    HW131133   0.328   5.145   3.605
10078SOL    HW231134   0.203   5.219   3.532
10079SOL     OW31135   6.725   3.725   2.689
10079SOL    HW131136   6.681   3.744   2.601
10079SOL    HW231137   6.818   3.760   2.688
10080SOL     OW31138   4.146   1.472   5.315
10080SOL    HW131139   4.067   1.428   5.274
10080SOL    HW231140   4.197   1.521   5.245
10081SOL     OW31141   0.036   6.970   0.431
10081SOL    HW131142   6.973   7.009   0.447
10081SOL    HW231143   0.026   6.876   0.398
10082SOL     OW31144   6.529   4.794   1.534
10082SOL    HW131145   6.622   4.757   1.529
10082SOL    HW231146   6.527   4.872   1.597
10083SOL     OW31147   4.996   1.386   3.119
10083SOL    HW131148   5.013   1.399   3.021
10083SOL    HW231149   4.907   1.343   3.131
10084SOL     OW31150   2.091   0.584   5.240
10084SOL    HW131151   2.163   0.536   5.189
10084SOL    HW231152   2.118   0.679   5.252
10085SOL     OW31153   1.593   5.858   2.130
10085SOL    HW131154   1.612   5.956   2.133
10085SOL    HW231155   1.561   5.827   2.219
10086SOL     OW31156   4.758   5.591   2.135
10086SOL    HW131157   4.724   5.651   2.207
10086SOL    HW231158   4.687   5.579   2.066
10087SOL     OW31159   0.127   0.027   3.964
10087SOL    HW131160   0.182   0.109   3.977
10087SOL    HW231161   0.051   0.046   3.901
10088SOL     OW31162   6.913   0.098   1.142
10088SOL    HW131163   6.840   0.043   1.101
10088SOL    HW231164   6.964   0.145   1.069
10089SOL     OW31165   3.004   1.741   2.505
10089SOL    HW131166   3.104   1.735   2.508
10089SOL    HW231167   2.975   1.779   2.417
10090SOL     OW31168   1.031   4.983   1.476
10090SOL    HW131169   1.081   5.028   1.551
10090SOL    HW231170   0.934   5.004   1.484
10091SOL     OW31171   1.112   3.705   6.135
10091SOL    HW131172   1.086   3.648   6.213
10091SOL    HW231173   1.161   3.786   6.167
10092SOL     OW31174   1.946   2.735   5.018
10092SOL    HW131175   1.888   2.815   5.004
10092SOL    HW231176   2.042   2.761   5.007
10093SOL     OW31177   6.580   3.683   5.294
10093SOL    HW131178   6.608   3.710   5.202
10093SOL    HW231179   6.610   3.753   5.359
10094SOL     OW31180   2.639   5.763   2.188
10094SOL    HW131181   2.582   5.688   2.220
10094SOL    HW231182   2.582   5.832   2.143
10095SOL     OW31183   5.745   1.882   5.204
10095SOL    HW131184   5.666   1.899   5.145
10095SOL    HW231185   5.747   1.949   5.278
10096SOL     OW31186   4.423   4.985   2.504
10096SOL    HW131187   4.460   4.983   2.596
10096SOL    HW231188   4.409   4.892   2.471
10097SOL     OW31189   1.035   0.681   0.492
10097SOL    HW131190   0.983   0.597   0.474
10097SOL    HW231191   1.127   0.672   0.456
10098SOL     OW31192   2.748   0.601   4.771
10098SOL    HW131193   2.746   0.531   4.844
10098SOL    HW231194   2.788   0.685   4.808
10099SOL     OW31195   6.971   5.063   0.617
10099SOL    HW131196   6.873   5.044   0.631
10099SOL    HW231197   6.991   5.156   0.647
10100SOL     OW31198   5.387   0.057   4.850
10100SOL    HW131199   5.352   0.113   4.925
10100SOL    HW231200   5.486   0.070   4.841
10101SOL     OW31201   6.036   3.950   1.631
10101SOL    HW131202   6.040   4.031   1.689
10101SOL    HW231203   5.942   3.919   1.621
10102SOL     OW31204   0.774   1.116   2.245
10102SOL    HW131205   0.687   1.119   2.293
10102SOL    HW231206   0.840   1.174   2.293
10103SOL     OW31207   2.547   0.025   5.894
10103SOL    HW131208   2.595   6.978   5.848
10103SOL    HW231209   2.599   0.110   5.885
10104SOL     OW31210   1.952   1.977   3.622
10104SOL    HW131211   2.022   1.907   3.614
10104SOL    HW231212   1.898   1.962   3.704
10105SOL     OW31213   1.947   0.555   0.658
10105SOL    HW131214   1.883   0.623   0.694
10105SOL    HW231215   1.940   0.553   0.559
10106SOL     OW31216   3.891   6.615   0.652
10106SOL    HW131217   3.834   6.535   0.636
10106SOL    HW231218   3.842   6.679   0.712
10107SOL     OW31219   6.550   1.567   6.534
10107SOL    HW131220   6.563   1.476   6.495
10107SOL    HW231221   6.477   1.564   6.602
10108SOL     OW31222   6.577   6.870   0.188
10108SOL    HW131223   6.643   6.859   0.261
10108SOL    HW231224   6.502   6.928   0.219
10109SOL     OW31225   5.026   6.877   0.658
10109SOL    HW131226   5.102   6.860   0.596
10109SOL    HW231227   5.002   6.792   0.706
10110SOL     OW31228   3.952   5.462   4.700
10110SOL    HW131229   4.040   5.450   4.654
10110SOL    HW231230   3.900   5.534   4.654
10111SOL     OW31231   5.711   3.342   3.681
10111SOL    HW131232   5.668   3.263   3.638
10111SOL    HW231233   5.692   3.342   3.779
10112SOL     OW31234   5.628   3.383   3.943
10112SOL    HW131235   5.543   3.331   3.953
10112SOL    HW231236   5.607   3.481   3.949
10113SOL     OW31237   4.317   0.400   6.167
10113SOL    HW131238   4.251   0.327   6.145
10113SOL    HW231239   4.380   0.412   6.091
10114SOL     OW31240   5.557   1.230   0.947
10114SOL    HW131241   5.629   1.173   0.986
10114SOL    HW231242   5.583   1.326   0.953
10115SOL     OW31243   3.793   1.512   4.763
10115SOL    HW131244   3.723   1.584   4.769
10115SOL    HW231245   3.884   1.553   4.761
10116SOL     OW31246   0.636   6.285   0.518
10116SOL    HW131247   0.541   6.300   0.493
10116SOL    HW231248   0.688   6.369   0.500
10117SOL     OW31249   6.595   5.838   5.805
10117SOL    HW131250   6.589   5.759   5.744
10117SOL    HW231251   6.680   5.888   5.788
10118SOL     OW31252   1.877   4.630   2.836
10118SOL    HW131253   1.831   4.598   2.919
10118SOL    HW231254   1.975   4.607   2.842
10119SOL     OW31255   0.571   5.755   4.363
10119SOL    HW131256   0.575   5.827   4.432
10119SOL    HW231257   0.494   5.694   4.382
10120SOL     OW31258   1.572   3.155   5.040
10120SOL    HW131259   1.640   3.196   5.101
10120SOL    HW231260   1.547   3.221   4.969
10121SOL     OW31261   6.474   3.990   6.672
10121SOL    HW131262   6.573   4.003   6.672
10121SOL    HW231263   6.429   4.079   6.664
10122SOL     OW31264   6.281   3.207   1.798
10122SOL    HW131265   6.329   3.268   1.861
10122SOL    HW231266   6.219   3.148   1.849
10123SOL     OW31267   5.346   6.668   0.225
10123SOL    HW131268   5.343   6.660   0.125
10123SOL    HW231269   5.419   6.610   0.261
10124SOL     OW31270   1.194   4.362   0.338
10124SOL    HW131271   1.205   4.454   0.299
10124SOL    HW231272   1.278   4.336   0.385
10125SOL     OW31273   2.038   1.291   2.121
10125SOL    HW131274   1.947   1.272   2.158
10125SOL    HW231275   2.048   1.246   2.033
10126SOL     OW31276   0.108   6.556   6.456
10126SOL    HW131277   0.093   6.601   6.367
10126SOL    HW231278   0.204   6.569   6.483
10127SOL     OW31279   2.961   4.567   6.294
10127SOL    HW131280   2.884   4.522   6.340
10127SOL    HW231281   2.935   4.660   6.268
10128SOL     OW31282   2.601   1.544   0.830
10128SOL    HW131283   2.599   1.618   0.764
10128SOL    HW231284   2.569   1.459   0.787
10129SOL     OW31285   5.825   1.533   2.357
10129SOL    HW131286   5.879   1.607   2.317
10129SOL    HW231287   5.794   1.560   2.449
10130SOL     OW31288   1.635   3.314   1.777
10130SOL    HW131289   1.662   3.217   1.782
10130SOL    HW231290   1.709   3.370   1.812
10131SOL     OW31291   0.955   0.084   4.520
10131SOL    HW131292   0.986   0.157   4.581
10131SOL    HW231293   0.894   0.023   4.571
10132SOL     OW31294   3.589   0.367   4.143
10132SOL    HW131295   3.534   0.352   4.061
10132SOL    HW231296   3.534   0.412   4.213
10133SOL     OW31297   3.496   6.016   1.007
10133SOL    HW131298   3.475   6.108   0.973
10133SOL    HW231299   3.414   5.975   1.045
10134SOL     OW31300   0.383   5.819   3.098
10134SOL    HW131301   0.373   5.879   3.178
10134SOL    HW231302   0.300   5.822   3.043
10135SOL     OW31303   4.909   3.365   3.508
10135SOL    HW131304   4.939   3.307   3.584
10135SOL    HW231305   4.902   3.310   3.425
10136SOL     OW31306   5.361   0.759   2.832
10136SOL    HW131307   5.314   0.825   2.774
10136SOL    HW231308   5.431   0.806   2.886
10137SOL     OW31309   6.719   3.873   3.829
10137SOL    HW131310   6.701   3.792   3.884
10137SOL    HW231311   6.744   3.846   3.736
10138SOL     OW31312   5.197   3.480   0.280
10138SOL    HW131313   5.288   3.437   0.285
10138SOL    HW231314   5.167   3.484   0.185
10139SOL     OW31315   3.048   3.680   3.632
10139SOL    HW131316   3.032   3.666   3.730
10139SOL    HW231317   3.128   3.739   3.620
10140SOL     OW31318   5.510   6.149   0.137
10140SOL    HW131319   5.517   6.188   0.045
10140SOL    HW231320   5.543   6.054   0.136
10141SOL     OW31321   4.106   1.570   5.597
10141SOL    HW131322   4.189   1.572   5.653
10141SOL    HW231323   4.129   1.542   5.504
10142SOL     OW31324   6.390   6.731   5.405
10142SOL    HW131325   6.384   6.664   5.478
10142SOL    HW231326   6.343   6.697   5.324
10143SOL     OW31327   5.614   1.381   6.926
10143SOL    HW131328   5.591   1.322   6.849
10143SOL    HW231329   5.568   1.348   7.008
10144SOL     OW31330   2.963   0.320   6.162
10144SOL    HW131331   3.036   0.266   6.205
10144SOL    HW231332   2.879   0.310   6.215
10145SOL     OW31333   2.978   4.879   3.887
10145SOL    HW131334   2.895   4.844   3.844
10145SOL    HW231335   2.955   4.956   3.947
10146SOL     OW31336   4.572   4.448   4.874
10146SOL    HW131337   4.477   4.454   4.905
10146SOL    HW231338   4.633   4.467   4.950
10147SOL     OW31339   5.834   3.974   5.279
10147SOL    HW131340   5.891   3.931   5.209
10147SOL    HW231341   5.845   4.073   5.274
10148SOL     OW31342   4.860   4.840   6.493
10148SOL    HW131343   4.788   4.796   6.547
10148SOL    HW231344   4.898   4.775   6.428
10149SOL     OW31345   5.795   3.129   0.786
10149SOL    HW131346   5.783   3.129   0.687
10149SOL    HW231347   5.879   3.080   0.809
10150SOL     OW31348   3.470   3.567   0.518
10150SOL    HW131349   3.453   3.653   0.565
10150SOL    HW231350   3.386   3.537   0.471
10151SOL     OW31351   0.766   5.768   0.042
10151SOL    HW131352   0.790   5.703   6.998
10151SOL    HW231353   0.719   5.847   0.001
10152SOL     OW31354   0.033   5.667   4.285
10152SOL    HW131355   0.133   5.665   4.291
10152SOL    HW231356   0.003   5.601   4.217
10153SOL     OW31357   4.449   6.067   3.659
10153SOL    HW131358   4.439   5.968   3.668
10153SOL    HW231359   4.544   6.088   3.636
10154SOL     OW31360   4.222   6.494   5.313
10154SOL    HW131361   4.203   6.435   5.391
10154SOL    HW231362   4.170   6.579   5.322
10155SOL     OW31363   3.985   2.476   5.862
10155SOL    HW131364   3.922   2.479   5.939
10155SOL    HW231365   3.945   2.423   5.787
10156SOL     OW31366   6.228   0.254   2.247
10156SOL    HW131367   6.218   0.284   2.152
10156SOL    HW231368   6.150   0.196   2.271
10157SOL     OW31369   0.343   1.586   0.475
10157SOL    HW131370   0.397   1.505   0.499
10157SOL    HW231371   0.246   1.560   0.469
10158SOL     OW31372   5.729   5.599   0.284
10158SOL    HW131373   5.658   5.542   0.245
10158SOL    HW231374   5.775   5.550   0.358
10159SOL     OW31375   2.124   3.173   0.498
10159SOL    HW131376   2.098   3.079   0.475
10159SOL    HW231377   2.222   3.177   0.514
10160SOL     OW31378   1.899   3.051   2.221
10160SOL    HW131379   1.825   3.109   2.187
10160SOL    HW231380   1.877   2.955   2.203
10161SOL     OW31381   3.734   2.998   0.974
10161SOL    HW131382   3.642   3.037   0.973
10161SOL    HW231383   3.782   3.024   0.890
10162SOL     OW31384   3.345   4.494   1.026
10162SOL    HW131385   3.372   4.454   0.939
10162SOL    HW231386   3.365   4.431   1.100
10163SOL     OW31387   6.077   4.338   6.893
10163SOL    HW131388   6.047   4.430   6.867
10163SOL    HW231389   6.011   4.271   6.860
10164SOL     OW31390   6.006   3.821   4.084
10164SOL    HW131391   6.098   3.835   4.046
10164SOL    HW231392   5.989   3.723   4.093
10165SOL     OW31393   6.767   1.750   3.434
10165SOL    HW131394   6.785   1.657   3.401
10165SOL    HW231395   6.831   1.772   3.507
10166SOL     OW31396   3.415   1.771   2.135
10166SOL    HW131397   3.389   1.833   2.060
10166SOL    HW231398   3.477   1.819   2.198
10167SOL     OW31399   1.765   4.659   6.754
10167SOL    HW131400   1.764   4.637   6.852
10167SOL    HW231401   1.829   4.597   6.707
10168SOL     OW31402   5.802   2.810   6.346
10168SOL    HW131403   5.821   2.742   6.276
10168SOL    HW231404   5.774   2.765   6.431
10169SOL     OW31405   6.323   4.676   3.549
10169SOL    HW131406   6.251   4.677   3.479
10169SOL    HW231407   6.412   4.666   3.505
10170SOL     OW31408   6.979   5.301   5.242
10170SOL    HW131409   7.012   5.340   5.328
10170SOL    HW231410   6.932   5.371   5.189
10171SOL     OW31411   0.075   2.643   4.159
10171SOL    HW131412   0.145   2.675   4.095
10171SOL    HW231413   0.011   2.583   4.110
10172SOL     OW31414   0.232   5.828   4.993
10172SOL    HW131415   0.302   5.764   4.960
10172SOL    HW231416   0.277   5.909   5.032
10173SOL     OW31417   1.631   2.598   0.857
10173SOL    HW131418   1.714   2.634   0.901
10173SOL    HW231419   1.651   2.509   0.817
10174SOL     OW31420   5.115   4.476   3.483
10174SOL    HW131421   5.036   4.436   3.436
10174SOL    HW231422   5.127   4.571   3.452
10175SOL     OW31423   6.140   1.762   3.050
10175SOL    HW131424   6.159   1.832   3.119
10175SOL    HW231425   6.147   1.803   2.959
10176SOL     OW31426   0.640   3.400   4.828
10176SOL    HW131427   0.557   3.451   4.805
10176SOL    HW231428   0.719   3.446   4.788
10177SOL     OW31429   2.104   0.803   1.605
10177SOL    HW131430   2.065   0.892   1.629
10177SOL    HW231431   2.089   0.738   1.680
10178SOL     OW31432   0.569   0.960   6.472
10178SOL    HW131433   0.559   0.873   6.423
10178SOL    HW231434   0.552   0.946   6.569
10179SOL     OW31435   0.176   2.511   6.618
10179SOL    HW131436   0.154   2.599   6.660
10179SOL    HW231437   0.091   2.464   6.593
10180SOL     OW31438   4.245   0.689   5.824
10180SOL    HW131439   4.334   0.737   5.823
10180SOL    HW231440   4.261   0.591   5.832
10181SOL     OW31441   6.501   3.539   1.357
10181SOL    HW131442   6.502   3.612   1.425
10181SOL    HW231443   6.461   3.456   1.396
10182SOL     OW31444   4.452   0.665   1.854
10182SOL    HW131445   4.551   0.670   1.844
10182SOL    HW231446   4.427   0.583   1.905
10183SOL     OW31447   0.105   2.968   6.279
10183SOL    HW131448   0.111   2.925   6.369
10183SOL    HW231449   0.071   3.062   6.289
10184SOL     OW31450   4.263   1.374   6.481
10184SOL    HW131451   4.344   1.370   6.421
10184SOL    HW231452   4.229   1.467   6.485
10185SOL     OW31453   6.279   5.849   2.725
10185SOL    HW131454   6.355   5.796   2.687
10185SOL    HW231455   6.202   5.788   2.745
10186SOL     OW31456   5.725   3.651   3.965
10186SOL    HW131457   5.736   3.650   4.065
10186SOL    HW231458   5.812   3.678   3.924
10187SOL     OW31459   1.413   3.438   0.401
10187SOL    HW131460   1.355   3.357   0.396
10187SOL    HW231461   1.505   3.412   0.432
10188SOL     OW31462   4.130   4.510   0.366
10188SOL    HW131463   4.065   4.585   0.353
10188SOL    HW231464   4.144   4.462   0.280
10189SOL     OW31465   0.895   1.091   5.893
10189SOL    HW131466   0.874   1.002   5.851
10189SOL    HW231467   0.895   1.082   5.992
10190SOL     OW31468   4.985   3.172   1.660
10190SOL    HW131469   4.887   3.179   1.679
10190SOL    HW231470   5.016   3.078   1.675
10191SOL     OW31471   3.944   6.107   6.513
10191SOL    HW131472   3.991   6.054   6.584
10191SOL    HW231473   3.845   6.095   6.523
10192SOL     OW31474   4.286   1.623   5.156
10192SOL    HW131475   4.383   1.603   5.142
10192SOL    HW231476   4.237   1.615   5.070
10193SOL     OW31477   3.760   2.923   1.980
10193SOL    HW131478   3.669   2.960   1.961
10193SOL    HW231479   3.768   2.903   2.078
10194SOL     OW31480   5.356   6.130   5.465
10194SOL    HW131481   5.283   6.109   5.530
10194SOL    HW231482   5.348   6.226   5.437
10195SOL     OW31483   6.414   5.968   0.088
10195SOL    HW131484   6.345   5.965   0.015
10195SOL    HW231485   6.369   5.957   0.176
10196SOL     OW31486   4.711   1.721   4.005
10196SOL    HW131487   4.654   1.800   3.981
10196SOL    HW231488   4.673   1.639   3.964
10197SOL     OW31489   5.689   1.261   4.798
10197SOL    HW131490   5.614   1.203   4.766
10197SOL    HW231491   5.669   1.293   4.890
10198SOL     OW31492   2.859   6.954   2.632
10198SOL    HW131493   2.894   6.871   2.675
10198SOL    HW231494   2.934   7.019   2.620
10199SOL     OW31495   1.854   3.051   0.663
10199SOL    HW131496   1.853   3.001   0.750
10199SOL    HW231497   1.892   3.142   0.677
10200SOL     OW31498   4.856   2.833   6.051
10200SOL    HW131499   4.769   2.787   6.069
10200SOL    HW231500   4.844   2.901   5.979
10201SOL     OW31501   1.137   5.255   0.227
10201SOL    HW131502   1.180   5.174   0.187
10201SOL    HW231503   1.206   5.307   0.278
10202SOL     OW31504   3.341   4.955   1.178
10202SOL    HW131505   3.440   4.953   1.190
10202SOL    HW231506   3.299   4.886   1.237
10203SOL     OW31507   6.723   2.936   2.426
10203SOL    HW131508   6.673   2.911   2.343
10203SOL    HW231509   6.756   2.854   2.472
10204SOL     OW31510   4.550   5.655   6.861
10204SOL    HW131511   4.624   5.722   6.865
10204SOL    HW231512   4.578   5.572   6.908
10205SOL     OW31513   2.456   0.795   2.168
10205SOL    HW131514   2.419   0.716   2.119
10205SOL    HW231515   2.549   0.814   2.136
10206SOL     OW31516   6.833   0.078   6.438
10206SOL    HW131517   6.854   0.175   6.427
10206SOL    HW231518   6.739   0.067   6.469
10207SOL     OW31519   1.141   2.268   6.895
10207SOL    HW131520   1.233   2.290   6.861
10207SOL    HW231521   1.074   2.285   6.824
10208SOL     OW31522   6.367   5.013   3.968
10208SOL    HW131523   6.378   5.103   3.925
10208SOL    HW231524   6.273   5.002   4.000
10209SOL     OW31525   0.274   0.037   0.005
10209SOL    HW131526   0.287   0.116   0.065
10209SOL    HW231527   0.286   6.980   0.058
10210SOL     OW31528   4.476   6.465   1.902
10210SOL    HW131529   4.524   6.543   1.941
10210SOL    HW231530   4.447   6.403   1.976
10211SOL     OW31531   4.645   6.297   4.401
10211SOL    HW131532   4.704   6.376   4.420
10211SOL    HW231533   4.590   6.316   4.319
10212SOL     OW31534   6.998   0.047   5.669
10212SOL    HW131535   0.023   0.117   5.620
10212SOL    HW231536   7.017   6.984   5.629
10213SOL     OW31537   5.846   2.291   1.850
10213SOL    HW131538   5.874   2.380   1.816
10213SOL    HW231539   5.899   2.220   1.804
10214SOL     OW31540   0.576   1.762   1.404
10214SOL    HW131541   0.548   1.671   1.436
10214SOL    HW231542   0.494   1.815   1.381
10215SOL     OW31543   3.788   3.250   3.998
10215SOL    HW131544   3.729   3.254   3.917
10215SOL    HW231545   3.734   3.268   4.080
10216SOL     OW31546   6.879   1.395   1.443
10216SOL    HW131547   6.920   1.316   1.396
10216SOL    HW231548   6.782   1.378   1.459
10217SOL     OW31549   2.992   1.357   3.471
10217SOL    HW131550   3.031   1.449   3.466
10217SOL    HW231551   3.061   1.292   3.501
10218SOL     OW31552   1.091   0.962   1.821
10218SOL    HW131553   1.034   0.992   1.897
10218SOL    HW231554   1.173   1.019   1.816
10219SOL     OW31555   0.646   1.956   3.033
10219SOL    HW131556   0.624   2.049   3.002
10219SOL    HW231557   0.570   1.895   3.009
10220SOL     OW31558   4.876   1.676   0.887
10220SOL    HW131559   4.902   1.626   0.970
10220SOL    HW231560   4.833   1.613   0.822
10221SOL     OW31561   1.583   4.178   4.114
10221SOL    HW131562   1.552   4.188   4.019
10221SOL    HW231563   1.607   4.083   4.132
10222SOL     OW31564   2.990   4.332   5.305
10222SOL    HW131565   2.946   4.399   5.246
10222SOL    HW231566   2.942   4.327   5.392
10223SOL     OW31567   2.337   4.542   1.101
10223SOL    HW131568   2.396   4.607   1.149
10223SOL    HW231569   2.371   4.529   1.008
10224SOL     OW31570   5.834   2.784   5.965
10224SOL    HW131571   5.764   2.846   6.001
10224SOL    HW231572   5.905   2.837   5.918
10225SOL     OW31573   1.460   6.087   5.297
10225SOL    HW131574   1.458   6.102   5.199
10225SOL    HW231575   1.515   6.158   5.341
10226SOL     OW31576   2.152   0.207   5.913
10226SOL    HW131577   2.189   0.283   5.966
10226SOL    HW231578   2.168   0.223   5.816
10227SOL     OW31579   5.682   4.931   0.870
10227SOL    HW131580   5.628   5.014   0.854
10227SOL    HW231581   5.767   4.955   0.916
10228SOL     OW31582   0.698   6.271   2.118
10228SOL    HW131583   0.612   6.323   2.118
10228SOL    HW231584   0.724   6.251   2.213
10229SOL     OW31585   2.065   3.055   5.070
10229SOL    HW131586   2.129   3.059   5.146
10229SOL    HW231587   1.977   3.020   5.102
10230SOL     OW31588   6.307   6.197   2.960
10230SOL    HW131589   6.260   6.160   2.880
10230SOL    HW231590   6.322   6.295   2.948
10231SOL     OW31591   6.524   4.602   5.364
10231SOL    HW131592   6.485   4.558   5.284
10231SOL    HW231593   6.580   4.680   5.335
10232SOL     OW31594   3.092   1.465   4.194
10232SOL    HW131595   3.113   1.558   4.227
10232SOL    HW231596   3.069   1.469   4.097
10233SOL     OW31597   3.835   3.738   5.081
10233SOL    HW131598   3.798   3.655   5.039
10233SOL    HW231599   3.775   3.815   5.062
10234SOL     OW31600   5.415   0.422   0.794
10234SOL    HW131601   5.346   0.447   0.861
10234SOL    HW231602   5.505   0.422   0.838
10235SOL     OW31603   3.485   2.039   1.200
10235SOL    HW131604   3.409   2.030   1.264
10235SOL    HW231605   3.538   2.121   1.221
10236SOL     OW31606   2.438   1.275   0.780
10236SOL    HW131607   2.348   1.241   0.806
10236SOL    HW231608   2.451   1.259   0.682
10237SOL     OW31609   0.695   4.533   6.260
10237SOL    HW131610   0.663   4.453   6.209
10237SOL    HW231611   0.791   4.521   6.284
10238SOL     OW31612   3.806   4.299   1.684
10238SOL    HW131613   3.802   4.237   1.761
10238SOL    HW231614   3.719   4.348   1.676
10239SOL     OW31615   2.071   3.797   6.219
10239SOL    HW131616   2.137   3.828   6.287
10239SOL    HW231617   2.018   3.875   6.186
10240SOL     OW31618   1.887   4.761   2.406
10240SOL    HW131619   1.910   4.857   2.393
10240SOL    HW231620   1.856   4.722   2.320
10241SOL     OW31621   7.015   6.220   3.459
10241SOL    HW131622   6.923   6.206   3.421
10241SOL    HW231623   0.053   6.236   3.386
10242SOL     OW31624   0.347   0.968   1.425
10242SOL    HW131625   0.381   1.042   1.483
10242SOL    HW231626   0.385   0.977   1.333
10243SOL     OW31627   2.379   4.266   2.320
10243SOL    HW131628   2.426   4.185   2.287
10243SOL    HW231629   2.388   4.340   2.253
10244SOL     OW31630   1.504   4.380   0.935
10244SOL    HW131631   1.407   4.361   0.955
10244SOL    HW231632   1.553   4.294   0.923
10245SOL     OW31633   3.608   3.392   1.535
10245SOL    HW131634   3.601   3.489   1.510
10245SOL    HW231635   3.685   3.378   1.596
10246SOL     OW31636   3.308   3.387   3.778
10246SOL    HW131637   3.234   3.341   3.828
10246SOL    HW231638   3.278   3.406   3.685
10247SOL     OW31639   0.016   3.991   6.282
10247SOL    HW131640   0.093   3.950   6.233
10247SOL    HW231641   6.961   3.937   6.265
10248SOL     OW31642   1.378   6.353   2.736
10248SOL    HW131643   1.325   6.283   2.688
10248SOL    HW231644   1.406   6.318   2.826
10249SOL     OW31645   3.014   5.898   6.543
10249SOL    HW131646   2.946   5.957   6.586
10249SOL    HW231647   2.988   5.881   6.448
10250SOL     OW31648   6.438   2.468   1.680
10250SOL    HW131649   6.346   2.492   1.649
10250SOL    HW231650   6.487   2.551   1.708
10251SOL     OW31651   2.267   1.307   4.898
10251SOL    HW131652   2.330   1.238   4.934
10251SOL    HW231653   2.191   1.320   4.962
10252SOL     OW31654   3.867   4.524   6.295
10252SOL    HW131655   3.960   4.508   6.327
10252SOL    HW231656   3.837   4.446   6.240
10253SOL     OW31657   2.871   6.438   0.664
10253SOL    HW131658   2.835   6.486   0.584
10253SOL    HW231659   2.933   6.365   0.634
10254SOL     OW31660   5.311   1.267   5.577
10254SOL    HW131661   5.216   1.234   5.572
10254SOL    HW231662   5.311   1.367   5.584
10255SOL     OW31663   2.689   5.982   1.725
10255SOL    HW131664   2.619   6.007   1.659
10255SOL    HW231665   2.700   5.882   1.725
10256SOL     OW31666   5.065   2.418   2.136
10256SOL    HW131667   5.136   2.350   2.118
10256SOL    HW231668   5.093   2.507   2.099
10257SOL     OW31669   1.540   4.588   4.448
10257SOL    HW131670   1.620   4.572   4.505
10257SOL    HW231671   1.526   4.509   4.387
10258SOL     OW31672   3.334   1.504   3.961
10258SOL    HW131673   3.352   1.598   3.991
10258SOL    HW231674   3.240   1.498   3.926
10259SOL     OW31675   1.220   4.829   2.855
10259SOL    HW131676   1.297   4.891   2.873
10259SOL    HW231677   1.229   4.747   2.911
10260SOL     OW31678   1.499   1.471   3.654
10260SOL    HW131679   1.535   1.562   3.674
10260SOL    HW231680   1.562   1.401   3.689
10261SOL     OW31681   6.903   4.874   2.319
10261SOL    HW131682   6.850   4.910   2.396
10261SOL    HW231683   6.952   4.792   2.347
10262SOL     OW31684   2.525   6.750   5.716
10262SOL    HW131685   2.623   6.747   5.731
10262SOL    HW231686   2.500   6.685   5.643
10263SOL     OW31687   5.564   0.294   0.122
10263SOL    HW131688   5.603   0.308   0.213
10263SOL    HW231689   5.580   0.199   0.093
10264SOL     OW31690   5.708   0.052   6.595
10264SOL    HW131691   5.761   7.009   6.642
10264SOL    HW231692   5.741   0.062   6.501
10265SOL     OW31693   2.561   2.792   1.437
10265SOL    HW131694   2.634   2.734   1.472
10265SOL    HW231695   2.530   2.853   1.510
10266SOL     OW31696   3.879   3.061   3.758
10266SOL    HW131697   3.965   3.084   3.804
10266SOL    HW231698   3.818   3.141   3.759
10267SOL     OW31699   6.123   2.606   7.023
10267SOL    HW131700   6.042   2.596   6.966
10267SOL    HW231701   6.133   2.525   0.054
10268SOL     OW31702   5.989   5.829   2.425
10268SOL    HW131703   6.028   5.737   2.426
10268SOL    HW231704   6.012   5.876   2.511
10269SOL     OW31705   0.570   3.874   6.856
10269SOL    HW131706   0.589   3.826   6.771
10269SOL    HW231707   0.513   3.816   6.915
10270SOL     OW31708   3.659   4.852   2.510
10270SOL    HW131709   3.588   4.860   2.440
10270SOL    HW231710   3.624   4.887   2.597
10271SOL     OW31711   3.661   2.595   6.790
10271SOL    HW131712   3.759   2.604   6.806
10271SOL    HW231713   3.646   2.532   6.713
10272SOL     OW31714   1.659   1.522   5.058
10272SOL    HW131715   1.644   1.472   5.143
10272SOL    HW231716   1.700   1.461   4.990
10273SOL     OW31717   2.596   5.113   2.709
10273SOL    HW131718   2.654   5.182   2.666
10273SOL    HW231719   2.591   5.131   2.808
10274SOL     OW31720   0.818   5.263   5.429
10274SOL    HW131721   0.826   5.359   5.402
10274SOL    HW231722   0.887   5.209   5.381
10275SOL     OW31723   0.684   6.717   2.528
10275SOL    HW131724   0.623   6.659   2.583
10275SOL    HW231725   0.629   6.775   2.468
10276SOL     OW31726   5.633   5.155   5.586
10276SOL    HW131727   5.695   5.110   5.522
10276SOL    HW231728   5.606   5.244   5.550
10277SOL     OW31729   1.129   6.190   4.228
10277SOL    HW131730   1.181   6.106   4.215
10277SOL    HW231731   1.032   6.167   4.237
10278SOL     OW31732   0.969   2.001   3.815
10278SOL    HW131733   1.039   1.977   3.747
10278SOL    HW231734   1.006   2.068   3.879
10279SOL     OW31735   1.801   5.170   4.118
10279SOL    HW131736   1.857   5.089   4.101
10279SOL    HW231737   1.708   5.155   4.084
10280SOL     OW31738   0.218   2.776   0.164
10280SOL    HW131739   0.176   2.686   0.154
10280SOL    HW231740   0.149   2.842   0.192
10281SOL     OW31741   5.623   1.548   2.929
10281SOL    HW131742   5.692   1.500   2.874
10281SOL    HW231743   5.642   1.646   2.928
10282SOL     OW31744   5.656   3.560   4.262
10282SOL    HW131745   5.676   3.476   4.313
10282SOL    HW231746   5.599   3.620   4.317
10283SOL     OW31747   1.864   2.969   1.204
10283SOL    HW131748   1.855   2.953   1.302
10283SOL    HW231749   1.927   2.901   1.165
10284SOL     OW31750   5.443   2.320   4.938
10284SOL    HW131751   5.393   2.338   4.853
10284SOL    HW231752   5.516   2.254   4.921
10285SOL     OW31753   5.688   6.827   2.525
10285SOL    HW131754   5.599   6.793   2.554
10285SOL    HW231755   5.686   6.845   2.427
10286SOL     OW31756   3.293   1.791   3.339
10286SOL    HW131757   3.339   1.739   3.411
10286SOL    HW231758   3.327   1.885   3.338
10287SOL     OW31759   2.324   6.329   1.597
10287SOL    HW131760   2.275   6.380   1.668
10287SOL    HW231761   2.392   6.390   1.555
10288SOL     OW31762   4.754   5.328   3.257
10288SOL    HW131763   4.775   5.308   3.352
10288SOL    HW231764   4.811   5.404   3.225
10289SOL     OW31765   2.443   6.230   0.169
10289SOL    HW131766   2.363   6.281   0.200
10289SOL    HW231767   2.499   6.289   0.110
10290SOL     OW31768   3.061   3.983   2.809
10290SOL    HW131769   3.029   3.911   2.747
10290SOL    HW231770   3.021   3.968   2.900
10291SOL     OW31771   3.829   1.761   2.945
10291SOL    HW131772   3.733   1.762   2.918
10291SOL    HW231773   3.847   1.836   3.009
10292SOL     OW31774   1.580   1.373   5.278
10292SOL    HW131775   1.485   1.348   5.256
10292SOL    HW231776   1.614   1.312   5.350
10293SOL     OW31777   2.201   3.899   2.338
10293SOL    HW131778   2.101   3.898   2.330
10293SOL    HW231779   2.228   3.840   2.414
10294SOL     OW31780   5.604   2.921   3.093
10294SOL    HW131781   5.625   2.824   3.080
10294SOL    HW231782   5.606   2.968   3.005
10295SOL     OW31783   0.462   4.026   5.626
10295SOL    HW131784   0.400   4.089   5.580
10295SOL    HW231785   0.414   3.939   5.642
10296SOL     OW31786   4.880   1.624   0.183
10296SOL    HW131787   4.919   1.683   0.112
10296SOL    HW231788   4.813   1.676   0.237
10297SOL     OW31789   2.060   0.169   6.549
10297SOL    HW131790   2.085   0.082   6.507
10297SOL    HW231791   1.966   0.166   6.581
10298SOL     OW31792   2.468   4.174   1.715
10298SOL    HW131793   2.399   4.193   1.645
10298SOL    HW231794   2.432   4.199   1.805
10299SOL     OW31795   4.467   4.469   3.004
10299SOL    HW131796   4.517   4.410   3.067
10299SOL    HW231797   4.477   4.565   3.031
10300SOL     OW31798   1.232   4.186   2.280
10300SOL    HW131799   1.165   4.258   2.262
10300SOL    HW231800   1.314   4.203   2.226
10301SOL     OW31801   5.367   2.636   4.297
10301SOL    HW131802   5.379   2.568   4.369
10301SOL    HW231803   5.283   2.617   4.246
10302SOL     OW31804   1.551   6.853   4.001
10302SOL    HW131805   1.616   6.914   4.047
10302SOL    HW231806   1.464   6.901   3.987
10303SOL     OW31807   1.858   5.977   2.920
10303SOL    HW131808   1.811   5.898   2.881
10303SOL    HW231809   1.869   6.048   2.850
10304SOL     OW31810   5.347   6.991   1.634
10304SOL    HW131811   5.274   0.012   1.586
10304SOL    HW231812   5.435   7.017   1.595
10305SOL     OW31813   1.333   4.516   6.896
10305SOL    HW131814   1.415   4.523   6.839
10305SOL    HW231815   1.301   4.421   6.898
10306SOL     OW31816   5.049   6.967   6.432
10306SOL    HW131817   5.119   6.928   6.373
10306SOL    HW231818   5.002   0.014   6.383
10307SOL     OW31819   2.940   2.134   5.406
10307SOL    HW131820   2.902   2.185   5.329
10307SOL    HW231821   3.007   2.068   5.372
10308SOL     OW31822   1.978   4.086   3.233
10308SOL    HW131823   2.040   4.048   3.165
10308SOL    HW231824   2.026   4.096   3.321
10309SOL     OW31825   6.684   1.268   6.270
10309SOL    HW131826   6.710   1.278   6.366
10309SOL    HW231827   6.754   1.311   6.212
10310SOL     OW31828   3.188   3.273   1.128
10310SOL    HW131829   3.266   3.308   1.181
10310SOL    HW231830   3.109   3.262   1.188
10311SOL     OW31831   0.091   6.239   0.295
10311SOL    HW131832   0.143   6.255   0.379
10311SOL    HW231833   0.141   6.175   0.237
10312SOL     OW31834   3.631   5.927   2.493
10312SOL    HW131835   3.720   5.901   2.528
10312SOL    HW231836   3.560   5.905   2.561
10313SOL     OW31837   4.653   6.665   2.049
10313SOL    HW131838   4.666   6.760   2.021
10313SOL    HW231839   4.707   6.647   2.132
10314SOL     OW31840   6.373   0.797   1.875
10314SOL    HW131841   6.352   0.824   1.781
10314SOL    HW231842   6.351   0.700   1.887
10315SOL     OW31843   4.945   5.949   5.484
10315SOL    HW131844   4.849   5.962   5.458
10315SOL    HW231845   4.985   5.876   5.429
10316SOL     OW31846   5.776   1.657   4.159
10316SOL    HW131847   5.782   1.709   4.244
10316SOL    HW231848   5.855   1.597   4.150
10317SOL     OW31849   5.074   5.763   4.396
10317SOL    HW131850   4.975   5.771   4.384
10317SOL    HW231851   5.118   5.851   4.377
10318SOL     OW31852   5.268   6.494   6.699
10318SOL    HW131853   5.187   6.435   6.703
10318SOL    HW231854   5.269   6.554   6.779
10319SOL     OW31855   1.281   2.535   5.798
10319SOL    HW131856   1.326   2.537   5.887
10319SOL    HW231857   1.289   2.443   5.759
10320SOL     OW31858   0.032   0.929   2.799
10320SOL    HW131859   0.112   0.880   2.765
10320SOL    HW231860   6.985   0.864   2.815
10321SOL     OW31861   4.299   1.991   1.808
10321SOL    HW131862   4.232   2.057   1.842
10321SOL    HW231863   4.254   1.903   1.791
10322SOL     OW31864   6.433   5.774   5.447
10322SOL    HW131865   6.371   5.824   5.507
10322SOL    HW231866   6.380   5.718   5.383
10323SOL     OW31867   5.750   3.018   5.560
10323SOL    HW131868   5.710   3.087   5.499
10323SOL    HW231869   5.744   2.928   5.517
10324SOL     OW31870   3.786   3.397   2.354
10324SOL    HW131871   3.772   3.329   2.282
10324SOL    HW231872   3.697   3.431   2.386
10325SOL     OW31873   6.956   3.591   2.030
10325SOL    HW131874   6.933   3.636   2.116
10325SOL    HW231875   6.909   3.636   1.954
10326SOL     OW31876   3.438   4.583   0.075
10326SOL    HW131877   3.426   4.494   0.032
10326SOL    HW231878   3.410   4.655   0.012
10327SOL     OW31879   2.394   1.278   1.129
10327SOL    HW131880   2.303   1.249   1.158
10327SOL    HW231881   2.403   1.265   1.030
10328SOL     OW31882   5.994   2.660   0.965
10328SOL    HW131883   6.082   2.613   0.965
10328SOL    HW231884   5.935   2.620   0.895
10329SOL     OW31885   3.896   0.499   3.840
10329SOL    HW131886   3.855   0.487   3.750
10329SOL    HW231887   3.856   0.579   3.885
10330SOL     OW31888   4.804   0.319   2.474
10330SOL    HW131889   4.807   0.222   2.497
10330SOL    HW231890   4.708   0.347   2.462
10331SOL     OW31891   6.671   0.913   5.840
10331SOL    HW131892   6.691   0.827   5.792
10331SOL    HW231893   6.579   0.910   5.878
10332SOL     OW31894   6.733   6.852   0.450
10332SOL    HW131895   6.694   6.792   0.520
10332SOL    HW231896   6.783   6.926   0.494
10333SOL     OW31897   6.657   4.756   4.364
10333SOL    HW131898   6.656   4.750   4.264
10333SOL    HW231899   6.624   4.670   4.403
10334SOL     OW31900   4.032   6.540   3.699
10334SOL    HW131901   4.079   6.495   3.623
10334SOL    HW231902   3.933   6.534   3.685
10335SOL     OW31903   2.948   4.584   0.042
10335SOL    HW131904   2.992   4.631   6.992
10335SOL    HW231905   2.992   4.496   0.057
10336SOL     OW31906   6.881   6.365   2.279
10336SOL    HW131907   6.919   6.401   2.194
10336SOL    HW231908   6.935   6.399   2.357
10337SOL     OW31909   7.007   6.758   5.837
10337SOL    HW131910   7.016   6.781   5.740
10337SOL    HW231911   6.913   6.730   5.857
10338SOL     OW31912   2.200   6.350   2.694
10338SOL    HW131913   2.225   6.341   2.597
10338SOL    HW231914   2.283   6.359   2.749
10339SOL     OW31915   3.643   4.417   0.144
10339SOL    HW131916   3.715   4.442   0.209
10339SOL    HW231917   3.579   4.493   0.136
10340SOL     OW31918   1.792   4.578   0.714
10340SOL    HW131919   1.868   4.585   0.778
10340SOL    HW231920   1.712   4.625   0.753
10341SOL     OW31921   2.034   3.337   1.855
10341SOL    HW131922   2.060   3.344   1.759
10341SOL    HW231923   2.097   3.390   1.911
10342SOL     OW31924   1.025   0.084   5.319
10342SOL    HW131925   1.022   0.130   5.408
10342SOL    HW231926   1.074   7.025   5.328
10343SOL     OW31927   3.573   5.758   6.431
10343SOL    HW131928   3.519   5.797   6.357
10343SOL    HW231929   3.592   5.828   6.500
10344SOL     OW31930   4.506   4.041   1.694
10344SOL    HW131931   4.593   4.022   1.741
10344SOL    HW231932   4.463   4.121   1.734
10345SOL     OW31933   1.857   1.068   6.721
10345SOL    HW131934   1.794   1.001   6.681
10345SOL    HW231935   1.925   1.095   6.653
10346SOL     OW31936   6.636   6.686   1.712
10346SOL    HW131937   6.708   6.735   1.663
10346SOL    HW231938   6.583   6.632   1.647
10347SOL     OW31939   4.742   2.295   2.640
10347SOL    HW131940   4.671   2.257   2.699
10347SOL    HW231941   4.815   2.332   2.698
10348SOL     OW31942   6.593   1.318   0.070
10348SOL    HW131943   6.636   1.399   0.030
10348SOL    HW231944   6.660   1.244   0.077
10349SOL     OW31945   6.723   0.799   1.055
10349SOL    HW131946   6.751   0.707   1.084
10349SOL    HW231947   6.781   0.828   0.978
10350SOL     OW31948   1.761   6.840   5.284
10350SOL    HW131949   1.697   6.876   5.216
10350SOL    HW231950   1.762   6.901   5.363
10351SOL     OW31951   4.771   5.391   6.438
10351SOL    HW131952   4.736   5.461   6.501
10351SOL    HW231953   4.709   5.382   6.360
10352SOL     OW31954   4.455   2.199   5.815
10352SOL    HW131955   4.528   2.162   5.872
10352SOL    HW231956   4.489   2.211   5.722
10353SOL     OW31957   0.242   2.581   5.683
10353SOL    HW131958   0.214   2.598   5.778
10353SOL    HW231959   0.294   2.496   5.679
10354SOL     OW31960   5.880   2.586   1.916
10354SOL    HW131961   5.831   2.591   2.003
10354SOL    HW231962   5.978   2.579   1.933
10355SOL     OW31963   1.868   0.199   1.753
10355SOL    HW131964   1.784   0.234   1.712
10355SOL    HW231965   1.902   0.121   1.701
10356SOL     OW31966   0.654   4.570   5.849
10356SOL    HW131967   0.677   4.535   5.758
10356SOL    HW231968   0.652   4.495   5.915
10357SOL     OW31969   2.773   3.066   6.013
10357SOL    HW131970   2.748   3.004   5.939
10357SOL    HW231971   2.760   3.160   5.984
10358SOL     OW31972   6.334   2.980   2.667
10358SOL    HW131973   6.390   3.013   2.592
10358SOL    HW231974   6.328   2.880   2.663
10359SOL     OW31975   6.977   1.660   1.492
10359SOL    HW131976   6.959   1.563   1.475
10359SOL    HW231977   6.902   1.715   1.456
10360SOL     OW31978   4.681   5.770   2.642
10360SOL    HW131979   4.750   5.758   2.571
10360SOL    HW231980   4.631   5.684   2.655
10361SOL     OW31981   3.101   0.256   3.038
10361SOL    HW131982   3.057   0.335   2.997
10361SOL    HW231983   3.165   0.215   2.973
10362SOL     OW31984   1.129   5.404   4.465
10362SOL    HW131985   1.085   5.330   4.515
10362SOL    HW231986   1.078   5.425   4.382
10363SOL     OW31987   4.614   1.726   1.069
10363SOL    HW131988   4.535   1.752   1.124
10363SOL    HW231989   4.692   1.708   1.128
10364SOL     OW31990   3.517   3.509   2.371
10364SOL    HW131991   3.520   3.603   2.405
10364SOL    HW231992   3.500   3.511   2.272
10365SOL     OW31993   5.146   4.403   5.722
10365SOL    HW131994   5.096   4.421   5.637
10365SOL    HW231995   5.081   4.380   5.794
10366SOL     OW31996   4.470   0.396   4.372
10366SOL    HW131997   4.555   0.343   4.367
10366SOL    HW231998   4.448   0.417   4.467
10367SOL     OW31999   7.013   1.540   1.764
10367SOL    HW132000   6.994   1.577   1.673
10367SOL    HW232001   6.934   1.488   1.797
10368SOL     OW32002   2.026   0.899   1.928
10368SOL    HW132003   2.019   0.889   2.027
10368SOL    HW232004   2.028   0.808   1.885
10369SOL     OW32005   3.937   1.392   5.180
10369SOL    HW132006   3.911   1.327   5.108
10369SOL    HW232007   3.889   1.478   5.166
10370SOL     OW32008   5.703   2.054   5.420
10370SOL    HW132009   5.705   2.153   5.408
10370SOL    HW232010   5.623   2.029   5.475
10371SOL     OW32011   1.877   5.979   4.429
10371SOL    HW132012   1.881   5.891   4.383
10371SOL    HW232013   1.822   5.971   4.512
10372SOL     OW32014   1.421   1.630   6.818
10372SOL    HW132015   1.419   1.670   6.910
10372SOL    HW232016   1.516   1.614   6.791
10373SOL     OW32017   1.956   6.532   4.387
10373SOL    HW132018   1.929   6.445   4.345
10373SOL    HW232019   1.876   6.591   4.396
10374SOL     OW32020   4.249   1.158   2.794
10374SOL    HW132021   4.307   1.207   2.729
10374SOL    HW232022   4.157   1.197   2.794
10375SOL     OW32023   2.942   1.369   6.093
10375SOL    HW132024   2.864   1.423   6.125
10375SOL    HW232025   2.957   1.387   5.995
10376SOL     OW32026   1.345   6.496   4.245
10376SOL    HW132027   1.264   6.555   4.233
10376SOL    HW232028   1.421   6.533   4.192
10377SOL     OW32029   6.935   0.992   3.926
10377SOL    HW132030   7.008   0.964   3.863
10377SOL    HW232031   6.966   0.981   4.020
10378SOL     OW32032   6.190   0.103   5.943
10378SOL    HW132033   6.166   0.097   6.040
10378SOL    HW232034   6.106   0.110   5.889
10379SOL     OW32035   3.007   6.706   4.686
10379SOL    HW132036   3.043   6.631   4.740
10379SOL    HW232037   2.933   6.674   4.628
10380SOL     OW32038   0.850   2.104   4.119
10380SOL    HW132039   0.940   2.080   4.081
10380SOL    HW232040   0.818   2.029   4.177
10381SOL     OW32041   4.617   4.738   0.063
10381SOL    HW132042   4.680   4.765   0.135
10381SOL    HW232043   4.657   4.759   7.001
10382SOL     OW32044   2.048   4.285   0.333
10382SOL    HW132045   1.951   4.262   0.341
10382SOL    HW232046   2.076   4.277   0.237
10383SOL     OW32047   6.989   4.027   0.603
10383SOL    HW132048   6.908   4.017   0.661
10383SOL    HW232049   6.965   4.075   0.519
10384SOL     OW32050   0.729   6.805   0.863
10384SOL    HW132051   0.806   6.832   0.921
10384SOL    HW232052   0.678   6.732   0.908
10385SOL     OW32053   3.253   6.447   5.661
10385SOL    HW132054   3.175   6.430   5.722
10385SOL    HW232055   3.235   6.528   5.606
10386SOL     OW32056   6.162   2.691   5.672
10386SOL    HW132057   6.235   2.755   5.648
10386SOL    HW232058   6.104   2.675   5.593
10387SOL     OW32059   4.480   2.321   3.055
10387SOL    HW132060   4.424   2.307   3.136
10387SOL    HW232061   4.421   2.349   2.979
10388SOL     OW32062   2.236   5.685   2.496
10388SOL    HW132063   2.232   5.728   2.406
10388SOL    HW232064   2.206   5.750   2.565
10389SOL     OW32065   0.144   6.719   1.863
10389SOL    HW132066   0.059   6.685   1.905
10389SOL    HW232067   0.134   6.720   1.764
10390SOL     OW32068   2.400   2.726   1.702
10390SOL    HW132069   2.359   2.814   1.728
10390SOL    HW232070   2.499   2.731   1.713
10391SOL     OW32071   1.463   5.886   4.532
10391SOL    HW132072   1.486   5.981   4.508
10391SOL    HW232073   1.380   5.886   4.588
10392SOL     OW32074   6.514   4.347   6.851
10392SOL    HW132075   6.593   4.352   6.790
10392SOL    HW232076   6.437   4.306   6.802
10393SOL     OW32077   2.163   2.332   2.490
10393SOL    HW132078   2.162   2.379   2.578
10393SOL    HW232079   2.244   2.359   2.438
10394SOL     OW32080   2.253   6.389   4.857
10394SOL    HW132081   2.219   6.446   4.933
10394SOL    HW232082   2.282   6.448   4.782
10395SOL     OW32083   6.947   0.641   3.360
10395SOL    HW132084   7.020   0.707   3.342
10395SOL    HW232085   6.870   0.658   3.299
10396SOL     OW32086   2.313   0.403   4.292
10396SOL    HW132087   2.315   0.461   4.211
10396SOL    HW232088   2.379   0.437   4.360
10397SOL     OW32089   2.741   2.293   3.570
10397SOL    HW132090   2.667   2.275   3.635
10397SOL    HW232091   2.805   2.360   3.608
10398SOL     OW32092   5.772   2.596   0.442
10398SOL    HW132093   5.706   2.547   0.498
10398SOL    HW232094   5.842   2.636   0.502
10399SOL     OW32095   4.161   1.980   4.259
10399SOL    HW132096   4.176   1.921   4.180
10399SOL    HW232097   4.085   2.043   4.241
10400SOL     OW32098   3.853   5.661   1.267
10400SOL    HW132099   3.879   5.681   1.173
10400SOL    HW232100   3.785   5.727   1.297
10401SOL     OW32101   6.974   0.312   3.003
10401SOL    HW132102   6.897   0.287   3.062
10401SOL    HW232103   0.011   0.235   2.997
10402SOL     OW32104   0.238   2.763   5.481
10402SOL    HW132105   0.180   2.732   5.406
10402SOL    HW232106   0.241   2.693   5.552
10403SOL     OW32107   5.351   1.475   3.046
10403SOL    HW132108   5.443   1.511   3.029
10403SOL    HW232109   5.321   1.502   3.137
10404SOL     OW32110   0.198   6.551   3.656
10404SOL    HW132111   0.188   6.454   3.679
10404SOL    HW232112   0.192   6.562   3.557
10405SOL     OW32113   1.392   5.566   4.822
10405SOL    HW132114   1.466   5.631   4.808
10405SOL    HW232115   1.416   5.503   4.895
10406SOL     OW32116   2.079   3.751   5.176
10406SOL    HW132117   2.176   3.759   5.198
10406SOL    HW232118   2.063   3.663   5.129
10407SOL     OW32119   1.539   0.558   6.774
10407SOL    HW132120   1.591   0.641   6.797
10407SOL    HW232121   1.482   0.576   6.694
10408SOL     OW32122   3.691   6.191   2.080
10408SOL    HW132123   3.675   6.097   2.050
10408SOL    HW232124   3.698   6.193   2.180
10409SOL     OW32125   0.282   3.950   1.065
10409SOL    HW132126   0.187   3.960   1.035
10409SOL    HW232127   0.288   3.883   1.138
10410SOL     OW32128   5.071   1.701   1.374
10410SOL    HW132129   5.045   1.655   1.459
10410SOL    HW232130   5.168   1.687   1.356
10411SOL     OW32131   3.827   5.654   4.498
10411SOL    HW132132   3.769   5.716   4.445
10411SOL    HW232133   3.847   5.573   4.444
10412SOL     OW32134   0.423   0.984   0.514
10412SOL    HW132135   0.420   1.001   0.612
10412SOL    HW232136   0.368   0.903   0.492
10413SOL     OW32137   0.183   1.979   0.752
10413SOL    HW132138   0.169   2.062   0.698
10413SOL    HW232139   0.119   1.977   0.829
10414SOL     OW32140   4.620   6.658   5.594
10414SOL    HW132141   4.676   6.741   5.590
10414SOL    HW232142   4.650   6.594   5.523
10415SOL     OW32143   2.518   4.622   3.954
10415SOL    HW132144   2.455   4.652   3.883
10415SOL    HW232145   2.480   4.542   4.001
10416SOL     OW32146   6.613   1.049   5.566
10416SOL    HW132147   6.620   1.014   5.659
10416SOL    HW232148   6.523   1.093   5.553
10417SOL     OW32149   4.759   4.197   3.942
10417SOL    HW132150   4.679   4.235   3.989
10417SOL    HW232151   4.831   4.179   4.009
10418SOL     OW32152   6.123   4.331   5.239
10418SOL    HW132153   6.204   4.275   5.255
10418SOL    HW232154   6.121   4.407   5.305
10419SOL     OW32155   2.728   0.396   5.184
10419SOL    HW132156   2.814   0.372   5.138
10419SOL    HW232157   2.748   0.441   5.271
10420SOL     OW32158   6.962   3.657   3.755
10420SOL    HW132159   6.943   3.669   3.852
10420SOL    HW232160   6.904   3.584   3.718
10421SOL     OW32161   1.341   3.300   4.156
10421SOL    HW132162   1.282   3.249   4.219
10421SOL    HW232163   1.431   3.313   4.198
10422SOL     OW32164   6.743   3.646   5.651
10422SOL    HW132165   6.766   3.707   5.727
10422SOL    HW232166   6.819   3.584   5.632
10423SOL     OW32167   4.021   5.032   4.830
10423SOL    HW132168   3.944   4.990   4.878
10423SOL    HW232169   3.990   5.070   4.743
10424SOL     OW32170   3.915   2.416   0.036
10424SOL    HW132171   3.828   2.450   0.071
10424SOL    HW232172   3.983   2.417   0.110
10425SOL     OW32173   0.369   6.199   1.811
10425SOL    HW132174   0.342   6.295   1.814
10425SOL    HW232175   0.316   6.148   1.879
10426SOL     OW32176   5.478   3.509   5.538
10426SOL    HW132177   5.497   3.458   5.623
10426SOL    HW232178   5.384   3.491   5.509
10427SOL     OW32179   5.373   6.588   6.140
10427SOL    HW132180   5.344   6.655   6.071
10427SOL    HW232181   5.451   6.624   6.191
10428SOL     OW32182   1.960   1.728   4.148
10428SOL    HW132183   2.003   1.653   4.099
10428SOL    HW232184   1.914   1.693   4.230
10429SOL     OW32185   1.245   3.802   3.121
10429SOL    HW132186   1.201   3.737   3.059
10429SOL    HW232187   1.190   3.886   3.125
10430SOL     OW32188   4.018   6.216   4.458
10430SOL    HW132189   3.985   6.290   4.400
10430SOL    HW232190   4.023   6.131   4.405
10431SOL     OW32191   2.913   0.835   4.354
10431SOL    HW132192   2.861   0.752   4.334
10431SOL    HW232193   2.985   0.815   4.419
10432SOL     OW32194   0.308   1.705   5.264
10432SOL    HW132195   0.220   1.667   5.238
10432SOL    HW232196   0.300   1.804   5.277
10433SOL     OW32197   7.021   6.180   1.935
10433SOL    HW132198   0.085   6.154   1.966
10433SOL    HW232199   6.971   6.098   1.906
10434SOL     OW32200   4.775   6.035   4.837
10434SOL    HW132201   4.692   6.091   4.841
10434SOL    HW232202   4.760   5.958   4.775
10435SOL     OW32203   1.758   2.114   6.046
10435SOL    HW132204   1.815   2.061   5.982
10435SOL    HW232205   1.749   2.065   6.132
10436SOL     OW32206   6.892   4.077   3.926
10436SOL    HW132207   6.938   4.116   3.846
10436SOL    HW232208   6.815   4.020   3.896
10437SOL     OW32209   5.850   5.047   5.450
10437SOL    HW132210   5.880   5.032   5.355
10437SOL    HW232211   5.926   5.027   5.512
10438SOL     OW32212   6.936   5.829   5.819
10438SOL    HW132213   6.906   5.739   5.848
10438SOL    HW232214   7.018   5.855   5.871
10439SOL     OW32215   5.573   1.239   5.511
10439SOL    HW132216   5.561   1.223   5.413
10439SOL    HW232217   5.483   1.248   5.554
10440SOL     OW32218   6.720   6.557   6.896
10440SOL    HW132219   6.627   6.571   6.930
10440SOL    HW232220   6.778   6.524   6.970
10441SOL     OW32221   3.214   1.529   1.133
10441SOL    HW132222   3.247   1.511   1.226
10441SOL    HW232223   3.281   1.495   1.067
10442SOL     OW32224   4.160   0.446   4.886
10442SOL    HW132225   4.200   0.362   4.922
10442SOL    HW232226   4.082   0.424   4.827
10443SOL     OW32227   6.615   2.523   2.658
10443SOL    HW132228   6.530   2.472   2.644
10443SOL    HW232229   6.641   2.520   2.754
10444SOL     OW32230   3.319   4.938   2.977
10444SOL    HW132231   3.412   4.901   2.980
10444SOL    HW232232   3.269   4.897   2.901
10445SOL     OW32233   0.542   3.693   2.537
10445SOL    HW132234   0.507   3.669   2.628
10445SOL    HW232235   0.518   3.788   2.516
10446SOL     OW32236   1.732   3.825   5.928
10446SOL    HW132237   1.805   3.872   5.977
10446SOL    HW232238   1.673   3.893   5.883
10447SOL     OW32239   6.659   0.392   2.231
10447SOL    HW132240   6.642   0.295   2.250
10447SOL    HW232241   6.696   0.437   2.313
10448SOL     OW32242   3.349   0.489   2.852
10448SOL    HW132243   3.352   0.517   2.756
10448SOL    HW232244   3.309   0.563   2.907
10449SOL     OW32245   3.020   5.681   6.864
10449SOL    HW132246   2.933   5.719   6.832
10449SOL    HW232247   3.064   5.632   6.788
10450SOL     OW32248   6.636   0.641   6.710
10450SOL    HW132249   6.728   0.663   6.678
10450SOL    HW232250   6.586   0.726   6.728
10451SOL     OW32251   3.310   0.208   2.832
10451SOL    HW132252   3.337   0.297   2.867
10451SOL    HW232253   3.384   0.143   2.845
10452SOL     OW32254   6.589   3.128   2.559
10452SOL    HW132255   6.636   3.052   2.513
10452SOL    HW232256   6.600   3.119   2.658
10453SOL     OW32257   4.516   6.308   2.520
10453SOL    HW132258   4.609   6.312   2.482
10453SOL    HW232259   4.494   6.213   2.544
10454SOL     OW32260   5.892   0.661   0.743
10454SOL    HW132261   5.831   0.679   0.820
10454SOL    HW232262   5.974   0.614   0.777
10455SOL     OW32263   0.317   5.688   4.252
10455SOL    HW132264   0.327   5.786   4.269
10455SOL    HW232265   0.343   5.668   4.158
10456SOL     OW32266   0.431   5.502   0.383
10456SOL    HW132267   0.451   5.559   0.303
10456SOL    HW232268   0.341   5.527   0.420
10457SOL     OW32269   4.052   3.127   0.333
10457SOL    HW132270   4.141   3.171   0.348
10457SOL    HW232271   4.049   3.041   0.384
10458SOL     OW32272   6.362   6.490   6.613
10458SOL    HW132273   6.282   6.458   6.561
10458SOL    HW232274   6.444   6.480   6.556
10459SOL     OW32275   5.082   4.918   1.038
10459SOL    HW132276   5.158   4.941   0.977
10459SOL    HW232277   4.998   4.962   1.004
10460SOL     OW32278   0.448   3.750   2.092
10460SOL    HW132279   0.353   3.722   2.077
10460SOL    HW232280   0.451   3.822   2.161
10461SOL     OW32281   6.436   4.960   5.486
10461SOL    HW132282   6.523   4.952   5.536
10461SOL    HW232283   6.435   5.046   5.435
10462SOL     OW32284   5.716   2.369   2.796
10462SOL    HW132285   5.734   2.434   2.870
10462SOL    HW232286   5.799   2.355   2.743
10463SOL     OW32287   4.503   2.180   5.542
10463SOL    HW132288   4.536   2.146   5.454
10463SOL    HW232289   4.411   2.146   5.559
10464SOL     OW32290   5.914   6.251   1.982
10464SOL    HW132291   5.932   6.155   1.959
10464SOL    HW232292   5.860   6.256   2.066
10465SOL     OW32293   4.559   5.576   1.963
10465SOL    HW132294   4.505   5.656   1.937
10465SOL    HW232295   4.499   5.497   1.974
10466SOL     OW32296   4.919   4.379   5.885
10466SOL    HW132297   4.851   4.447   5.857
10466SOL    HW232298   4.892   4.340   5.973
10467SOL     OW32299   1.682   2.348   0.431
10467SOL    HW132300   1.695   2.447   0.442
10467SOL    HW232301   1.726   2.300   0.507
10468SOL     OW32302   4.278   4.959   4.139
10468SOL    HW132303   4.293   4.893   4.213
10468SOL    HW232304   4.324   4.926   4.056
10469SOL     OW32305   4.343   4.172   5.829
10469SOL    HW132306   4.338   4.272   5.833
10469SOL    HW232307   4.394   4.145   5.748
10470SOL     OW32308   2.361   1.567   3.340
10470SOL    HW132309   2.270   1.576   3.380
10470SOL    HW232310   2.395   1.474   3.356
10471SOL     OW32311   2.636   0.666   0.618
10471SOL    HW132312   2.712   0.713   0.662
10471SOL    HW232313   2.595   0.726   0.549
10472SOL     OW32314   2.714   5.635   0.556
10472SOL    HW132315   2.694   5.587   0.641
10472SOL    HW232316   2.811   5.623   0.533
10473SOL     OW32317   5.978   6.627   5.839
10473SOL    HW132318   5.988   6.532   5.866
10473SOL    HW232319   6.053   6.653   5.778
10474SOL     OW32320   4.326   0.921   4.019
10474SOL    HW132321   4.409   0.873   4.045
10474SOL    HW232322   4.349   1.011   3.983
10475SOL     OW32323   3.230   6.775   1.887
10475SOL    HW132324   3.176   6.850   1.925
10475SOL    HW232325   3.267   6.720   1.962
10476SOL     OW32326   5.326   6.412   5.835
10476SOL    HW132327   5.402   6.476   5.826
10476SOL    HW232328   5.304   6.400   5.932
10477SOL     OW32329   6.509   0.695   4.880
10477SOL    HW132330   6.471   0.752   4.807
10477SOL    HW232331   6.482   0.599   4.864
10478SOL     OW32332   6.464   6.250   6.767
10478SOL    HW132333   6.435   6.326   6.710
10478SOL    HW232334   6.410   6.169   6.744
10479SOL     OW32335   6.697   1.076   2.362
10479SOL    HW132336   6.655   0.985   2.364
10479SOL    HW232337   6.797   1.066   2.363
10480SOL     OW32338   1.153   0.845   2.134
10480SOL    HW132339   1.094   0.880   2.061
10480SOL    HW232340   1.102   0.845   2.220
10481SOL     OW32341   1.712   6.539   2.716
10481SOL    HW132342   1.742   6.595   2.793
10481SOL    HW232343   1.627   6.577   2.679
10482SOL     OW32344   6.263   5.229   4.669
10482SOL    HW132345   6.224   5.137   4.677
10482SOL    HW232346   6.354   5.230   4.711
10483SOL     OW32347   5.190   5.835   0.290
10483SOL    HW132348   5.242   5.752   0.273
10483SOL    HW232349   5.249   5.904   0.332
10484SOL     OW32350   4.945   1.737   1.769
10484SOL    HW132351   5.017   1.669   1.772
10484SOL    HW232352   4.883   1.724   1.846
10485SOL     OW32353   3.114   4.348   0.340
10485SOL    HW132354   3.149   4.364   0.433
10485SOL    HW232355   3.087   4.252   0.331
10486SOL     OW32356   6.947   0.391   0.471
10486SOL    HW132357   6.922   0.485   0.494
10486SOL    HW232358   0.009   0.390   0.424
10487SOL     OW32359   4.752   6.858   1.796
10487SOL    HW132360   4.730   6.923   1.868
10487SOL    HW232361   4.747   6.904   1.707
10488SOL     OW32362   3.332   1.469   5.682
10488SOL    HW132363   3.375   1.539   5.740
10488SOL    HW232364   3.287   1.513   5.605
10489SOL     OW32365   0.060   6.586   5.412
10489SOL    HW132366   0.155   6.565   5.438
10489SOL    HW232367   0.060   6.648   5.333
10490SOL     OW32368   6.169   1.098   1.541
10490SOL    HW132369   6.162   1.055   1.451
10490SOL    HW232370   6.264   1.125   1.558
10491SOL     OW32371   1.612   3.725   6.978
10491SOL    HW132372   1.611   3.708   0.049
10491SOL    HW232373   1.637   3.641   6.930
10492SOL     OW32374   6.119   4.318   5.683
10492SOL    HW132375   6.125   4.285   5.588
10492SOL    HW232376   6.211   4.342   5.715
10493SOL     OW32377   3.544   0.704   1.652
10493SOL    HW132378   3.559   0.705   1.553
10493SOL    HW232379   3.608   0.766   1.696
10494SOL     OW32380   5.158   3.802   5.697
10494SOL    HW132381   5.134   3.899   5.711
10494SOL    HW232382   5.087   3.745   5.737
10495SOL     OW32383   2.416   0.001   0.305
10495SOL    HW132384   2.356   0.009   0.225
10495SOL    HW232385   2.362   0.002   0.388
10496SOL     OW32386   0.453   4.660   6.188
10496SOL    HW132387   0.378   4.609   6.231
10496SOL    HW232388   0.540   4.612   6.205
10497SOL     OW32389   2.297   6.998   2.292
10497SOL    HW132390   2.387   7.022   2.327
10497SOL    HW232391   2.267   0.038   2.225
10498SOL     OW32392   2.916   6.010   1.533
10498SOL    HW132393   2.982   5.980   1.602
10498SOL    HW232394   2.823   6.005   1.571
10499SOL     OW32395   3.511   0.026   2.550
10499SOL    HW132396   3.579   0.039   2.622
10499SOL    HW232397   3.479   0.115   2.518
10500SOL     OW32398   6.891   0.709   6.685
10500SOL    HW132399   6.896   0.792   6.741
10500SOL    HW232400   6.912   0.731   6.590
10501SOL     OW32401   2.232   5.746   3.111
10501SOL    HW132402   2.269   5.804   3.183
10501SOL    HW232403   2.185   5.802   3.043
10502SOL     OW32404   2.925   0.066   1.051
10502SOL    HW132405   2.889   0.100   0.964
10502SOL    HW232406   2.926   0.140   1.118
10503SOL     OW32407   3.590   2.990   0.467
10503SOL    HW132408   3.654   3.012   0.394
10503SOL    HW232409   3.547   2.902   0.448
10504SOL     OW32410   1.809   1.347   6.878
10504SOL    HW132411   1.801   1.254   6.914
10504SOL    HW232412   1.890   1.354   6.820
10505SOL     OW32413   5.003   6.215   0.497
10505SOL    HW132414   5.008   6.237   0.594
10505SOL    HW232415   4.950   6.286   0.450
10506SOL     OW32416   6.686   5.194   6.926
10506SOL    HW132417   6.623   5.227   6.855
10506SOL    HW232418   6.664   5.099   6.949
10507SOL     OW32419   2.057   7.024   0.210
10507SOL    HW132420   2.145   7.017   0.162
10507SOL    HW232421   2.057   6.962   0.288
10508SOL     OW32422   6.270   6.535   4.463
10508SOL    HW132423   6.362   6.496   4.459
10508SOL    HW232424   6.245   6.552   4.559
10509SOL     OW32425   0.503   6.448   4.728
10509SOL    HW132426   0.405   6.443   4.747
10509SOL    HW232427   0.549   6.368   4.766
10510SOL     OW32428   4.985   6.115   6.028
10510SOL    HW132429   5.009   6.132   5.933
10510SOL    HW232430   4.930   6.191   6.062
10511SOL     OW32431   4.510   1.481   1.622
10511SOL    HW132432   4.586   1.445   1.568
10511SOL    HW232433   4.424   1.453   1.580
10512SOL     OW32434   3.849   0.025   5.332
10512SOL    HW132435   3.913   7.018   5.402
10512SOL    HW232436   3.803   0.106   5.367
10513SOL     OW32437   6.702   2.791   4.282
10513SOL    HW132438   6.617   2.801   4.334
10513SOL    HW232439   6.750   2.878   4.281
10514SOL     OW32440   6.958   3.572   0.193
10514SOL    HW132441   6.968   3.505   0.119
10514SOL    HW232442   0.021   3.594   0.230
10515SOL     OW32443   0.204   3.280   2.827
10515SOL    HW132444   0.185   3.323   2.915
10515SOL    HW232445   0.249   3.346   2.766
10516SOL     OW32446   3.818   1.031   0.335
10516SOL    HW132447   3.904   1.043   0.285
10516SOL    HW232448   3.779   0.942   0.314
10517SOL     OW32449   0.317   2.446   2.771
10517SOL    HW132450   0.247   2.377   2.751
10517SOL    HW232451   0.272   2.534   2.788
10518SOL     OW32452   1.114   5.228   6.687
10518SOL    HW132453   1.174   5.301   6.654
10518SOL    HW232454   1.035   5.220   6.627
10519SOL     OW32455   2.216   2.808   6.862
10519SOL    HW132456   2.230   2.752   6.944
10519SOL    HW232457   2.275   2.889   6.867
10520SOL     OW32458   1.241   2.824   6.840
10520SOL    HW132459   1.149   2.789   6.852
10520SOL    HW232460   1.242   2.922   6.862
10521SOL     OW32461   5.608   5.965   1.757
10521SOL    HW132462   5.569   5.987   1.847
10521SOL    HW232463   5.656   6.045   1.721
10522SOL     OW32464   6.103   0.120   6.194
10522SOL    HW132465   6.016   0.163   6.170
10522SOL    HW232466   6.161   0.186   6.241
10523SOL     OW32467   0.963   4.926   4.286
10523SOL    HW132468   1.057   4.891   4.284
10523SOL    HW232469   0.958   5.010   4.233
10524SOL     OW32470   1.593   0.496   4.750
10524SOL    HW132471   1.634   0.432   4.815
10524SOL    HW232472   1.496   0.472   4.737
10525SOL     OW32473   3.149   7.018   5.942
10525SOL    HW132474   3.213   0.064   5.961
10525SOL    HW232475   3.066   0.002   5.997
10526SOL     OW32476   0.652   6.826   3.433
10526SOL    HW132477   0.724   6.802   3.368
10526SOL    HW232478   0.674   6.789   3.523
10527SOL     OW32479   6.047   2.132   5.098
10527SOL    HW132480   6.129   2.117   5.043
10527SOL    HW232481   6.055   2.082   5.184
10528SOL     OW32482   1.765   3.429   5.730
10528SOL    HW132483   1.840   3.472   5.781
10528SOL    HW232484   1.762   3.467   5.637
10529SOL     OW32485   2.344   5.773   4.246
10529SOL    HW132486   2.432   5.808   4.214
10529SOL    HW232487   2.316   5.695   4.190
10530SOL     OW32488   2.498   0.488   6.873
10530SOL    HW132489   2.409   0.467   6.912
10530SOL    HW232490   2.567   0.426   6.912
10531SOL     OW32491   1.050   2.990   4.128
10531SOL    HW132492   1.122   2.957   4.189
10531SOL    HW232493   1.060   3.089   4.116
10532SOL     OW32494   1.519   4.971   6.385
10532SOL    HW132495   1.426   4.988   6.418
10532SOL    HW232496   1.548   4.880   6.417
10533SOL     OW32497   2.652   1.208   4.688
10533SOL    HW132498   2.713   1.228   4.612
10533SOL    HW232499   2.573   1.268   4.685
10534SOL     OW32500   5.911   5.755   1.344
10534SOL    HW132501   5.957   5.676   1.384
10534SOL    HW232502   5.979   5.811   1.295
10535SOL     OW32503   0.698   1.595   1.194
10535SOL    HW132504   0.755   1.518   1.223
10535SOL    HW232505   0.672   1.649   1.274
10536SOL     OW32506   3.958   0.954   3.227
10536SOL    HW132507   3.988   0.970   3.321
10536SOL    HW232508   3.994   1.026   3.168
10537SOL     OW32509   3.879   5.515   4.221
10537SOL    HW132510   3.783   5.544   4.220
10537SOL    HW232511   3.884   5.418   4.198
10538SOL     OW32512   5.142   2.690   0.490
10538SOL    HW132513   5.164   2.597   0.462
10538SOL    HW232514   5.047   2.711   0.465
10539SOL     OW32515   0.420   3.716   7.002
10539SOL    HW132516   0.450   3.636   0.027
10539SOL    HW232517   0.330   3.746   0.008
10540SOL     OW32518   1.466   2.901   5.007
10540SOL    HW132519   1.534   2.831   5.032
10540SOL    HW232520   1.511   2.991   5.004
10541SOL     OW32521   3.948   3.705   2.338
10541SOL    HW132522   4.041   3.731   2.316
10541SOL    HW232523   3.946   3.610   2.369
10542SOL     OW32524   6.917   0.919   5.977
10542SOL    HW132525   6.846   0.933   5.908
10542SOL    HW232526   6.883   0.950   6.066
10543SOL     OW32527   0.122   1.087   5.400
10543SOL    HW132528   0.124   1.116   5.496
10543SOL    HW232529   0.108   1.168   5.342
10544SOL     OW32530   1.869   6.877   1.912
10544SOL    HW132531   1.913   6.857   1.825
10544SOL    HW232532   1.883   6.800   1.975
10545SOL     OW32533   6.168   1.145   3.095
10545SOL    HW132534   6.076   1.185   3.093
10545SOL    HW232535   6.223   1.184   3.021
10546SOL     OW32536   1.243   1.015   6.473
10546SOL    HW132537   1.176   0.969   6.532
10546SOL    HW232538   1.230   0.985   6.378
10547SOL     OW32539   5.574   2.257   1.858
10547SOL    HW132540   5.673   2.241   1.856
10547SOL    HW232541   5.552   2.323   1.929
10548SOL     OW32542   5.387   4.402   4.657
10548SOL    HW132543   5.376   4.351   4.743
10548SOL    HW232544   5.315   4.470   4.649
10549SOL     OW32545   6.827   0.018   2.088
10549SOL    HW132546   6.851   0.007   2.184
10549SOL    HW232547   6.801   6.957   2.049
10550SOL     OW32548   4.242   6.185   4.637
10550SOL    HW132549   4.293   6.257   4.591
10550SOL    HW232550   4.147   6.186   4.607
10551SOL     OW32551   1.992   2.684   6.764
10551SOL    HW132552   1.917   2.678   6.829
10551SOL    HW232553   2.062   2.747   6.799
10552SOL     OW32554   3.757   1.975   6.093
10552SOL    HW132555   3.674   2.030   6.086
10552SOL    HW232556   3.812   2.006   6.170
10553SOL     OW32557   0.548   5.372   1.332
10553SOL    HW132558   0.547   5.286   1.383
10553SOL    HW232559   0.578   5.355   1.239
10554SOL     OW32560   5.149   5.387   0.177
10554SOL    HW132561   5.176   5.296   0.147
10554SOL    HW232562   5.085   5.426   0.111
10555SOL     OW32563   1.833   3.241   0.415
10555SOL    HW132564   1.781   3.155   0.417
10555SOL    HW232565   1.931   3.220   0.413
10556SOL     OW32566   2.004   2.371   5.089
10556SOL    HW132567   1.917   2.361   5.139
10556SOL    HW232568   2.057   2.287   5.096
10557SOL     OW32569   2.338   2.327   2.856
10557SOL    HW132570   2.255   2.351   2.805
10557SOL    HW232571   2.371   2.407   2.905
10558SOL     OW32572   4.269   0.606   3.842
10558SOL    HW132573   4.184   0.644   3.878
10558SOL    HW232574   4.298   0.529   3.898
10559SOL     OW32575   4.586   0.242   1.343
10559SOL    HW132576   4.629   0.271   1.429
10559SOL    HW232577   4.491   0.272   1.342
10560SOL     OW32578   3.593   6.063   3.713
10560SOL    HW132579   3.647   6.068   3.797
10560SOL    HW232580   3.634   5.995   3.651
10561SOL     OW32581   3.283   4.630   1.294
10561SOL    HW132582   3.247   4.621   1.202
10561SOL    HW232583   3.382   4.647   1.289
10562SOL     OW32584   4.741   5.851   0.197
10562SOL    HW132585   4.672   5.820   0.263
10562SOL    HW232586   4.757   5.949   0.209
10563SOL     OW32587   0.253   1.339   3.919
10563SOL    HW132588   0.161   1.345   3.881
10563SOL    HW232589   0.263   1.251   3.967
10564SOL     OW32590   5.829   6.520   2.314
10564SOL    HW132591   5.902   6.588   2.319
10564SOL    HW232592   5.842   6.452   2.387
10565SOL     OW32593   6.950   0.542   6.270
10565SOL    HW132594   0.008   0.490   6.270
10565SOL    HW232595   6.888   0.504   6.201
10566SOL     OW32596   4.315   2.817   0.246
10566SOL    HW132597   4.387   2.821   0.316
10566SOL    HW232598   4.356   2.808   0.156
10567SOL     OW32599   2.578   1.761   4.468
10567SOL    HW132600   2.573   1.665   4.496
10567SOL    HW232601   2.659   1.803   4.510
10568SOL     OW32602   6.226   2.126   1.016
10568SOL    HW132603   6.310   2.150   0.968
10568SOL    HW232604   6.149   2.130   0.953
10569SOL     OW32605   5.916   2.148   1.586
10569SOL    HW132606   5.878   2.217   1.525
10569SOL    HW232607   6.007   2.122   1.556
10570SOL     OW32608   1.465   5.174   3.610
10570SOL    HW132609   1.396   5.127   3.555
10570SOL    HW232610   1.532   5.108   3.644
10571SOL     OW32611   0.069   4.990   4.591
10571SOL    HW132612   0.018   5.056   4.646
10571SOL    HW232613   0.007   4.944   4.528
10572SOL     OW32614   0.139   4.428   3.757
10572SOL    HW132615   0.215   4.481   3.718
10572SOL    HW232616   0.176   4.347   3.804
10573SOL     OW32617   4.464   0.621   4.908
10573SOL    HW132618   4.472   0.621   4.808
10573SOL    HW232619   4.521   0.693   4.946
10574SOL     OW32620   1.025   1.667   4.247
10574SOL    HW132621   1.067   1.710   4.167
10574SOL    HW232622   1.070   1.700   4.330
10575SOL     OW32623   0.266   1.364   2.990
10575SOL    HW132624   0.204   1.285   2.988
10575SOL    HW232625   0.357   1.335   2.959
10576SOL     OW32626   0.028   5.518   5.458
10576SOL    HW132627   0.128   5.515   5.469
10576SOL    HW232628   7.021   5.604   5.495
10577SOL     OW32629   1.919   2.632   0.024
10577SOL    HW132630   1.896   2.635   0.121
10577SOL    HW232631   1.933   2.537   7.024
10578SOL     OW32632   5.994   0.581   3.151
10578SOL    HW132633   6.047   0.663   3.176
10578SOL    HW232634   6.024   0.548   3.061
10579SOL     OW32635   4.609   2.072   0.994
10579SOL    HW132636   4.516   2.055   1.028
10579SOL    HW232637   4.672   2.075   1.072
10580SOL     OW32638   6.700   0.294   7.006
10580SOL    HW132639   6.749   0.206   7.013
10580SOL    HW232640   6.670   0.308   6.912
10581SOL     OW32641   0.276   0.206   3.198
10581SOL    HW132642   0.211   0.135   3.223
10581SOL    HW232643   0.236   0.296   3.212
10582SOL     OW32644   4.776   5.064   6.845
10582SOL    HW132645   4.762   5.163   6.840
10582SOL    HW232646   4.803   5.039   6.938
10583SOL     OW32647   3.690   1.428   5.318
10583SOL    HW132648   3.670   1.523   5.343
10583SOL    HW232649   3.783   1.421   5.283
10584SOL     OW32650   6.462   6.062   1.243
10584SOL    HW132651   6.548   6.105   1.214
10584SOL    HW232652   6.410   6.127   1.299
10585SOL     OW32653   2.339   2.689   5.454
10585SOL    HW132654   2.341   2.754   5.378
10585SOL    HW232655   2.261   2.709   5.513
10586SOL     OW32656   0.984   5.184   4.564
10586SOL    HW132657   1.034   5.104   4.598
10586SOL    HW232658   0.895   5.155   4.529
10587SOL     OW32659   6.174   4.154   0.384
10587SOL    HW132660   6.258   4.115   0.346
10587SOL    HW232661   6.095   4.106   0.345
10588SOL     OW32662   0.216   3.964   2.881
10588SOL    HW132663   0.138   4.026   2.889
10588SOL    HW232664   0.194   3.877   2.925
10589SOL     OW32665   6.350   1.252   4.534
10589SOL    HW132666   6.255   1.245   4.504
10589SOL    HW232667   6.389   1.161   4.544
10590SOL     OW32668   1.315   0.445   1.528
10590SOL    HW132669   1.311   0.349   1.554
10590SOL    HW232670   1.279   0.456   1.435
10591SOL     OW32671   1.053   1.485   5.912
10591SOL    HW132672   1.021   1.446   5.825
10591SOL    HW232673   0.974   1.513   5.967
10592SOL     OW32674   6.400   3.087   0.735
10592SOL    HW132675   6.340   3.012   0.761
10592SOL    HW232676   6.491   3.073   0.775
10593SOL     OW32677   2.108   4.982   0.510
10593SOL    HW132678   2.184   5.012   0.567
10593SOL    HW232679   2.034   4.947   0.568
10594SOL     OW32680   5.208   0.484   2.308
10594SOL    HW132681   5.277   0.531   2.253
10594SOL    HW232682   5.128   0.543   2.317
10595SOL     OW32683   3.707   6.860   5.036
10595SOL    HW132684   3.753   6.773   5.016
10595SOL    HW232685   3.702   6.873   5.135
10596SOL     OW32686   4.754   0.128   0.195
10596SOL    HW132687   4.833   0.067   0.196
10596SOL    HW232688   4.785   0.223   0.186
10597SOL     OW32689   3.454   1.286   4.991
10597SOL    HW132690   3.407   1.363   5.036
10597SOL    HW232691   3.459   1.209   5.055
10598SOL     OW32692   2.623   2.475   6.713
10598SOL    HW132693   2.626   2.538   6.636
10598SOL    HW232694   2.648   2.523   6.797
10599SOL     OW32695   4.782   2.612   6.405
10599SOL    HW132696   4.822   2.601   6.496
10599SOL    HW232697   4.843   2.669   6.349
10600SOL     OW32698   1.765   2.602   0.524
10600SOL    HW132699   1.688   2.643   0.573
10600SOL    HW232700   1.848   2.615   0.578
10601SOL     OW32701   1.613   4.014   5.743
10601SOL    HW132702   1.653   4.072   5.672
10601SOL    HW232703   1.548   4.066   5.798
10602SOL     OW32704   4.841   2.195   3.251
10602SOL    HW132705   4.828   2.239   3.162
10602SOL    HW232706   4.922   2.231   3.295
10603SOL     OW32707   2.132   5.363   3.777
10603SOL    HW132708   2.156   5.281   3.828
10603SOL    HW232709   2.043   5.396   3.807
10604SOL     OW32710   5.978   3.991   5.716
10604SOL    HW132711   5.898   4.049   5.709
10604SOL    HW232712   5.972   3.917   5.648
10605SOL     OW32713   1.597   4.783   0.780
10605SOL    HW132714   1.559   4.820   0.865
10605SOL    HW232715   1.573   4.843   0.704
10606SOL     OW32716   6.867   6.995   2.375
10606SOL    HW132717   6.777   6.967   2.409
10606SOL    HW232718   6.934   6.924   2.395
10607SOL     OW32719   3.983   4.709   6.100
10607SOL    HW132720   3.966   4.801   6.064
10607SOL    HW232721   3.900   4.676   6.145
10608SOL     OW32722   5.073   1.615   5.941
10608SOL    HW132723   5.032   1.675   6.009
10608SOL    HW232724   5.009   1.599   5.866
10609SOL     OW32725   3.098   6.602   2.124
10609SOL    HW132726   3.198   6.600   2.118
10609SOL    HW232727   3.070   6.684   2.174
10610SOL     OW32728   1.398   3.285   6.039
10610SOL    HW132729   1.440   3.211   6.092
10610SOL    HW232730   1.314   3.251   5.997
10611SOL     OW32731   4.251   3.856   5.721
10611SOL    HW132732   4.297   3.934   5.680
10611SOL    HW232733   4.157   3.850   5.687
10612SOL     OW32734   2.771   0.238   5.848
10612SOL    HW132735   2.816   0.210   5.763
10612SOL    HW232736   2.837   0.232   5.923
10613SOL     OW32737   6.772   0.252   5.460
10613SOL    HW132738   6.834   0.311   5.512
10613SOL    HW232739   6.791   0.156   5.483
10614SOL     OW32740   6.638   2.599   4.561
10614SOL    HW132741   6.705   2.532   4.528
10614SOL    HW232742   6.675   2.692   4.550
10615SOL     OW32743   3.210   6.035   5.872
10615SOL    HW132744   3.213   6.135   5.865
10615SOL    HW232745   3.205   5.996   5.781
10616SOL     OW32746   2.880   6.419   1.524
10616SOL    HW132747   2.925   6.505   1.547
10616SOL    HW232748   2.946   6.355   1.486
10617SOL     OW32749   2.019   2.936   0.444
10617SOL    HW132750   1.941   2.934   0.507
10617SOL    HW232751   1.986   2.950   0.351
10618SOL     OW32752   6.549   3.640   6.348
10618SOL    HW132753   6.557   3.557   6.292
10618SOL    HW232754   6.453   3.668   6.351
10619SOL     OW32755   6.550   3.629   2.429
10619SOL    HW132756   6.504   3.622   2.340
10619SOL    HW232757   6.607   3.711   2.431
10620SOL     OW32758   1.702   5.466   5.704
10620SOL    HW132759   1.752   5.427   5.626
10620SOL    HW232760   1.634   5.531   5.671
10621SOL     OW32761   0.949   6.160   1.541
10621SOL    HW132762   0.863   6.185   1.496
10621SOL    HW232763   1.016   6.132   1.472
10622SOL     OW32764   4.750   0.795   1.279
10622SOL    HW132765   4.816   0.720   1.280
10622SOL    HW232766   4.796   0.881   1.301
10623SOL     OW32767   0.394   4.757   4.431
10623SOL    HW132768   0.316   4.746   4.369
10623SOL    HW232769   0.370   4.718   4.520
10624SOL     OW32770   0.529   1.973   4.739
10624SOL    HW132771   0.586   1.955   4.659
10624SOL    HW232772   0.541   1.900   4.806
10625SOL     OW32773   0.515   4.423   6.928
10625SOL    HW132774   0.440   4.433   6.863
10625SOL    HW232775   0.598   4.398   6.878
10626SOL     OW32776   2.051   3.227   1.148
10626SOL    HW132777   2.080   3.176   1.068
10626SOL    HW232778   1.994   3.169   1.206
10627SOL     OW32779   5.627   6.103   1.235
10627SOL    HW132780   5.609   6.075   1.141
10627SOL    HW232781   5.643   6.022   1.291
10628SOL     OW32782   5.196   5.897   6.403
10628SOL    HW132783   5.141   5.949   6.337
10628SOL    HW232784   5.209   5.804   6.369
10629SOL     OW32785   2.662   4.698   4.829
10629SOL    HW132786   2.595   4.624   4.841
10629SOL    HW232787   2.748   4.672   4.873
10630SOL     OW32788   6.607   1.419   4.031
10630SOL    HW132789   6.648   1.358   4.099
10630SOL    HW232790   6.622   1.514   4.059
10631SOL     OW32791   2.016   5.124   5.155
10631SOL    HW132792   2.075   5.049   5.124
10631SOL    HW232793   2.000   5.186   5.079
10632SOL     OW32794   5.457   1.741   3.647
10632SOL    HW132795   5.479   1.828   3.605
10632SOL    HW232796   5.456   1.750   3.747
10633SOL     OW32797   2.456   3.577   1.418
10633SOL    HW132798   2.425   3.641   1.489
10633SOL    HW232799   2.521   3.513   1.459
10634SOL     OW32800   3.085   5.342   1.501
10634SOL    HW132801   3.153   5.408   1.534
10634SOL    HW232802   3.071   5.271   1.569
10635SOL     OW32803   3.492   1.726   0.857
10635SOL    HW132804   3.514   1.672   0.939
10635SOL    HW232805   3.400   1.704   0.826
10636SOL     OW32806   1.277   1.346   1.370
10636SOL    HW132807   1.319   1.354   1.460
10636SOL    HW232808   1.240   1.434   1.342
10637SOL     OW32809   3.126   4.653   5.542
10637SOL    HW132810   3.042   4.679   5.494
10637SOL    HW232811   3.186   4.604   5.479
10638SOL     OW32812   6.921   5.508   3.135
10638SOL    HW132813   6.855   5.476   3.202
10638SOL    HW232814   6.972   5.431   3.098
10639SOL     OW32815   0.522   3.162   2.851
10639SOL    HW132816   0.487   3.194   2.763
10639SOL    HW232817   0.479   3.214   2.925
10640SOL     OW32818   3.769   0.159   5.638
10640SOL    HW132819   3.776   0.232   5.569
10640SOL    HW232820   3.702   0.091   5.607
10641SOL     OW32821   3.677   2.514   0.079
10641SOL    HW132822   3.643   2.517   7.013
10641SOL    HW232823   3.621   2.451   0.133
10642SOL     OW32824   6.677   2.361   1.575
10642SOL    HW132825   6.712   2.435   1.517
10642SOL    HW232826   6.591   2.391   1.618
10643SOL     OW32827   2.106   4.814   5.477
10643SOL    HW132828   2.199   4.829   5.447
10643SOL    HW232829   2.050   4.894   5.456
10644SOL     OW32830   5.874   2.121   3.068
10644SOL    HW132831   5.946   2.074   3.118
10644SOL    HW232832   5.909   2.149   2.978
10645SOL     OW32833   0.431   1.450   4.662
10645SOL    HW132834   0.495   1.504   4.607
10645SOL    HW232835   0.378   1.511   4.721
10646SOL     OW32836   0.185   1.403   6.088
10646SOL    HW132837   0.264   1.388   6.148
10646SOL    HW232838   0.117   1.460   6.137
10647SOL     OW32839   3.699   5.357   0.223
10647SOL    HW132840   3.788   5.399   0.239
10647SOL    HW232841   3.676   5.299   0.301
10648SOL     OW32842   4.810   4.312   6.129
10648SOL    HW132843   4.843   4.355   6.213
10648SOL    HW232844   4.719   4.274   6.144
10649SOL     OW32845   0.690   4.382   3.181
10649SOL    HW132846   0.716   4.288   3.202
10649SOL    HW232847   0.655   4.387   3.087
10650SOL     OW32848   1.271   6.719   2.753
10650SOL    HW132849   1.249   6.812   2.724
10650SOL    HW232850   1.337   6.679   2.690
10651SOL     OW32851   4.660   7.010   5.724
10651SOL    HW132852   4.688   7.009   5.820
10651SOL    HW232853   4.713   6.942   5.674
10652SOL     OW32854   3.688   0.258   6.325
10652SOL    HW132855   3.666   0.239   6.420
10652SOL    HW232856   3.653   0.184   6.267
10653SOL     OW32857   5.656   4.081   4.072
10653SOL    HW132858   5.701   4.060   4.158
10653SOL    HW232859   5.705   4.037   3.997
10654SOL     OW32860   4.143   1.019   1.131
10654SOL    HW132861   4.128   0.996   1.035
10654SOL    HW232862   4.232   1.062   1.141
10655SOL     OW32863   2.981   5.183   1.718
10655SOL    HW132864   2.944   5.099   1.756
10655SOL    HW232865   2.965   5.259   1.782
10656SOL     OW32866   6.124   2.623   0.672
10656SOL    HW132867   6.063   2.678   0.616
10656SOL    HW232868   6.219   2.640   0.645
10657SOL     OW32869   6.602   7.005   6.876
10657SOL    HW132870   6.638   6.929   6.823
10657SOL    HW232871   6.648   7.009   6.965
10658SOL     OW32872   6.460   3.744   4.408
10658SOL    HW132873   6.419   3.711   4.493
10658SOL    HW232874   6.558   3.760   4.423
10659SOL     OW32875   6.499   5.961   0.688
10659SOL    HW132876   6.441   5.975   0.768
10659SOL    HW232877   6.496   6.042   0.630
10660SOL     OW32878   5.171   4.421   6.116
10660SOL    HW132879   5.152   4.516   6.091
10660SOL    HW232880   5.269   4.404   6.109
10661SOL     OW32881   0.314   6.321   2.557
10661SOL    HW132882   0.267   6.409   2.561
10661SOL    HW232883   0.295   6.269   2.640
10662SOL     OW32884   5.602   0.784   2.106
10662SOL    HW132885   5.676   0.832   2.153
10662SOL    HW232886   5.572   0.706   2.162
10663SOL     OW32887   0.281   0.119   1.793
10663SOL    HW132888   0.320   0.211   1.785
10663SOL    HW232889   0.182   0.125   1.805
10664SOL     OW32890   2.184   4.599   5.639
10664SOL    HW132891   2.192   4.631   5.733
10664SOL    HW232892   2.166   4.677   5.579
10665SOL     OW32893   0.458   0.549   0.706
10665SOL    HW132894   0.544   0.540   0.656
10665SOL    HW232895   0.454   0.639   0.750
10666SOL     OW32896   3.426   4.918   0.581
10666SOL    HW132897   3.390   4.837   0.535
10666SOL    HW232898   3.523   4.905   0.603
10667SOL     OW32899   3.822   2.790   5.528
10667SOL    HW132900   3.779   2.875   5.558
10667SOL    HW232901   3.751   2.727   5.495
10668SOL     OW32902   1.002   1.725   5.251
10668SOL    HW132903   1.011   1.818   5.215
10668SOL    HW232904   0.986   1.662   5.175
10669SOL     OW32905   5.938   6.613   0.382
10669SOL    HW132906   5.937   6.525   0.333
10669SOL    HW232907   6.021   6.618   0.438
10670SOL     OW32908   4.840   3.815   5.272
10670SOL    HW132909   4.786   3.731   5.278
10670SOL    HW232910   4.871   3.828   5.178
10671SOL     OW32911   2.570   2.052   2.445
10671SOL    HW132912   2.522   1.969   2.417
10671SOL    HW232913   2.618   2.091   2.367
10672SOL     OW32914   6.640   2.369   0.301
10672SOL    HW132915   6.653   2.282   0.253
10672SOL    HW232916   6.719   2.386   0.360
10673SOL     OW32917   1.611   2.367   7.020
10673SOL    HW132918   1.601   2.465   0.008
10673SOL    HW232919   1.696   2.349   6.970
10674SOL     OW32920   3.440   3.501   0.952
10674SOL    HW132921   3.368   3.537   1.012
10674SOL    HW232922   3.402   3.485   0.861
10675SOL     OW32923   1.921   0.228   6.063
10675SOL    HW132924   2.002   0.223   6.004
10675SOL    HW232925   1.947   0.268   6.151
10676SOL     OW32926   6.577   6.550   6.220
10676SOL    HW132927   6.590   6.527   6.317
10676SOL    HW232928   6.579   6.649   6.209
10677SOL     OW32929   0.654   0.499   2.214
10677SOL    HW132930   0.658   0.454   2.303
10677SOL    HW232931   0.746   0.523   2.184
10678SOL     OW32932   3.788   5.235   3.226
10678SOL    HW132933   3.697   5.254   3.190
10678SOL    HW232934   3.780   5.202   3.320
10679SOL     OW32935   5.169   4.707   6.124
10679SOL    HW132936   5.255   4.757   6.137
10679SOL    HW232937   5.138   4.719   6.030
10680SOL     OW32938   1.691   2.130   4.002
10680SOL    HW132939   1.738   2.215   4.022
10680SOL    HW232940   1.713   2.101   3.908
10681SOL     OW32941   0.008   4.080   6.762
10681SOL    HW132942   0.032   3.983   6.769
10681SOL    HW232943   6.977   4.093   6.681
10682SOL     OW32944   2.095   2.433   2.747
10682SOL    HW132945   2.037   2.512   2.769
10682SOL    HW232946   2.060   2.352   2.795
10683SOL     OW32947   3.352   1.754   4.046
10683SOL    HW132948   3.371   1.830   3.984
10683SOL    HW232949   3.274   1.778   4.104
10684SOL     OW32950   4.638   3.837   0.279
10684SOL    HW132951   4.706   3.866   0.211
10684SOL    HW232952   4.682   3.831   0.368
10685SOL     OW32953   6.364   4.255   2.183
10685SOL    HW132954   6.457   4.250   2.148
10685SOL    HW232955   6.309   4.313   2.123
10686SOL     OW32956   3.849   5.357   6.665
10686SOL    HW132957   3.896   5.331   6.581
10686SOL    HW232958   3.790   5.436   6.648
10687SOL     OW32959   6.736   5.141   1.505
10687SOL    HW132960   6.657   5.109   1.558
10687SOL    HW232961   6.812   5.161   1.568
10688SOL     OW32962   6.782   4.575   2.476
10688SOL    HW132963   6.700   4.632   2.473
10688SOL    HW232964   6.834   4.596   2.559
10689SOL     OW32965   0.326   0.159   3.565
10689SOL    HW132966   0.304   0.066   3.533
10689SOL    HW232967   0.249   0.220   3.546
10690SOL     OW32968   6.007   5.399   3.990
10690SOL    HW132969   6.070   5.374   3.917
10690SOL    HW232970   5.924   5.344   3.984
10691SOL     OW32971   6.834   1.528   2.485
10691SOL    HW132972   6.833   1.614   2.536
10691SOL    HW232973   6.902   1.467   2.526
10692SOL     OW32974   3.277   5.379   3.520
10692SOL    HW132975   3.342   5.318   3.565
10692SOL    HW232976   3.186   5.336   3.519
10693SOL     OW32977   1.697   0.765   2.005
10693SOL    HW132978   1.766   0.732   1.942
10693SOL    HW232979   1.606   0.758   1.964
10694SOL     OW32980   3.797   6.139   1.304
10694SOL    HW132981   3.712   6.128   1.357
10694SOL    HW232982   3.811   6.057   1.248
10695SOL     OW32983   6.334   2.120   3.025
10695SOL    HW132984   6.331   2.180   2.945
10695SOL    HW232985   6.424   2.078   3.033
10696SOL     OW32986   6.689   4.987   2.117
10696SOL    HW132987   6.753   4.968   2.191
10696SOL    HW232988   6.696   5.083   2.090
10697SOL     OW32989   0.053   6.076   4.138
10697SOL    HW132990   0.004   6.061   4.224
10697SOL    HW232991   0.151   6.064   4.153
10698SOL     OW32992   3.103   6.419   4.239
10698SOL    HW132993   3.119   6.436   4.336
10698SOL    HW232994   3.134   6.328   4.214
10699SOL     OW32995   4.402   1.553   2.467
10699SOL    HW132996   4.412   1.535   2.369
10699SOL    HW232997   4.328   1.618   2.482
10700SOL     OW32998   1.076   0.277   0.358
10700SOL    HW132999   1.112   0.184   0.371
10700SOL    HW233000   1.064   0.321   0.447
10701SOL     OW33001   4.098   5.880   0.242
10701SOL    HW133002   4.123   5.817   0.169
10701SOL    HW233003   4.077   5.969   0.204
10702SOL     OW33004   6.018   2.673   2.268
10702SOL    HW133005   6.017   2.709   2.175
10702SOL    HW233006   5.925   2.647   2.295
10703SOL     OW33007   3.772   2.962   4.021
10703SOL    HW133008   3.781   3.057   3.991
10703SOL    HW233009   3.708   2.915   3.961
10704SOL     OW33010   4.931   5.953   1.838
10704SOL    HW133011   4.845   5.987   1.801
10704SOL    HW233012   4.973   6.024   1.894
10705SOL     OW33013   0.476   3.453   1.288
10705SOL    HW133014   0.537   3.429   1.364
10705SOL    HW233015   0.480   3.552   1.273
10706SOL     OW33016   4.519   6.580   2.469
10706SOL    HW133017   4.504   6.491   2.513
10706SOL    HW233018   4.462   6.586   2.387
10707SOL     OW33019   0.492   0.040   4.622
10707SOL    HW133020   0.412   7.015   4.652
10707SOL    HW233021   0.483   0.062   4.525
10708SOL     OW33022   4.944   1.058   2.144
10708SOL    HW133023   4.846   1.055   2.163
10708SOL    HW233024   4.982   0.966   2.148
10709SOL     OW33025   6.299   1.095   5.374
10709SOL    HW133026   6.342   1.006   5.390
10709SOL    HW233027   6.201   1.087   5.390
10710SOL     OW33028   0.980   6.611   4.819
10710SOL    HW133029   0.984   6.686   4.886
10710SOL    HW233030   0.969   6.524   4.867
10711SOL     OW33031   1.907   6.871   3.706
10711SOL    HW133032   1.955   6.856   3.792
10711SOL    HW233033   1.893   6.783   3.660
10712SOL     OW33034   3.529   1.197   3.310
10712SOL    HW133035   3.597   1.269   3.296
10712SOL    HW233036   3.507   1.156   3.221
10713SOL     OW33037   1.560   4.722   1.726
10713SOL    HW133038   1.486   4.664   1.691
10713SOL    HW233039   1.526   4.815   1.740
10714SOL     OW33040   6.776   3.487   5.192
10714SOL    HW133041   6.736   3.546   5.262
10714SOL    HW233042   6.866   3.523   5.166
10715SOL     OW33043   5.002   0.473   3.288
10715SOL    HW133044   4.909   0.462   3.324
10715SOL    HW233045   5.026   0.570   3.289
10716SOL     OW33046   0.382   2.494   3.489
10716SOL    HW133047   0.334   2.550   3.421
10716SOL    HW233048   0.327   2.413   3.510
10717SOL     OW33049   0.474   1.279   0.688
10717SOL    HW133050   0.557   1.222   0.685
10717SOL    HW233051   0.420   1.263   0.606
10718SOL     OW33052   6.577   4.999   0.160
10718SOL    HW133053   6.593   4.906   0.191
10718SOL    HW233054   6.619   5.063   0.224
10719SOL     OW33055   4.438   6.135   1.922
10719SOL    HW133056   4.428   6.048   1.969
10719SOL    HW233057   4.515   6.131   1.859
10720SOL     OW33058   6.550   3.437   6.060
10720SOL    HW133059   6.485   3.513   6.053
10720SOL    HW233060   6.565   3.398   5.970
10721SOL     OW33061   6.666   2.207   4.542
10721SOL    HW133062   6.615   2.280   4.496
10721SOL    HW233063   6.635   2.118   4.508
10722SOL     OW33064   0.004   3.279   6.996
10722SOL    HW133065   7.007   3.376   6.997
10722SOL    HW233066   0.091   3.266   0.015
10723SOL     OW33067   5.449   3.678   6.769
10723SOL    HW133068   5.548   3.670   6.775
10723SOL    HW233069   5.412   3.604   6.714
10724SOL     OW33070   3.745   6.639   5.961
10724SOL    HW133071   3.845   6.644   5.953
10724SOL    HW233072   3.714   6.551   5.928
10725SOL     OW33073   0.124   5.324   4.246
10725SOL    HW133074   0.186   5.248   4.268
10725SOL    HW233075   0.177   5.409   4.240
10726SOL     OW33076   6.299   6.957   4.819
10726SOL    HW133077   6.269   6.867   4.790
10726SOL    HW233078   6.323   7.012   4.738
10727SOL     OW33079   2.044   5.495   5.741
10727SOL    HW133080   1.982   5.550   5.797
10727SOL    HW233081   2.127   5.546   5.722
10728SOL     OW33082   5.894   6.683   2.585
10728SOL    HW133083   5.870   6.588   2.562
10728SOL    HW233084   5.811   6.735   2.601
10729SOL     OW33085   6.561   1.554   2.609
10729SOL    HW133086   6.646   1.504   2.590
10729SOL    HW233087   6.513   1.572   2.523
10730SOL     OW33088   2.782   6.614   2.161
10730SOL    HW133089   2.853   6.585   2.097
10730SOL    HW233090   2.704   6.652   2.110
10731SOL     OW33091   2.446   5.514   0.539
10731SOL    HW133092   2.450   5.465   0.452
10731SOL    HW233093   2.536   5.553   0.560
10732SOL     OW33094   6.603   0.238   2.957
10732SOL    HW133095   6.665   0.226   2.879
10732SOL    HW233096   6.656   0.245   3.041
10733SOL     OW33097   5.972   2.218   6.972
10733SOL    HW133098   5.879   2.253   6.963
10733SOL    HW233099   6.027   2.281   7.027
10734SOL     OW33100   0.899   0.456   6.435
10734SOL    HW133101   0.858   0.545   6.416
10734SOL    HW233102   0.922   0.411   6.348
10735SOL     OW33103   1.032   4.926   2.208
10735SOL    HW133104   1.053   4.912   2.305
10735SOL    HW233105   0.933   4.933   2.196
10736SOL     OW33106   0.587   1.009   3.237
10736SOL    HW133107   0.552   1.013   3.144
10736SOL    HW233108   0.599   1.102   3.273
10737SOL     OW33109   0.853   1.848   0.588
10737SOL    HW133110   0.792   1.769   0.591
10737SOL    HW233111   0.831   1.904   0.509
10738SOL     OW33112   2.222   0.288   2.618
10738SOL    HW133113   2.268   0.297   2.529
10738SOL    HW233114   2.274   0.224   2.675
10739SOL     OW33115   6.962   1.751   2.615
10739SOL    HW133116   0.006   1.723   2.679
10739SOL    HW233117   7.004   1.791   2.534
10740SOL     OW33118   1.381   6.039   6.145
10740SOL    HW133119   1.434   6.083   6.072
10740SOL    HW233120   1.440   5.977   6.196
10741SOL     OW33121   2.069   1.681   3.176
10741SOL    HW133122   2.083   1.649   3.270
10741SOL    HW233123   2.109   1.615   3.112
10742SOL     OW33124   6.053   0.036   2.150
10742SOL    HW133125   6.104   0.015   2.066
10742SOL    HW233126   5.961   7.025   2.143
10743SOL     OW33127   2.812   1.580   4.266
10743SOL    HW133128   2.892   1.580   4.326
10743SOL    HW233129   2.805   1.669   4.221
10744SOL     OW33130   3.191   1.391   2.165
10744SOL    HW133131   3.134   1.332   2.222
10744SOL    HW233132   3.134   1.453   2.112
10745SOL     OW33133   2.171   4.679   0.386
10745SOL    HW133134   2.220   4.753   0.431
10745SOL    HW233135   2.218   4.653   0.302
10746SOL     OW33136   2.149   5.575   1.191
10746SOL    HW133137   2.240   5.548   1.223
10746SOL    HW233138   2.124   5.520   1.111
10747SOL     OW33139   5.584   1.647   3.186
10747SOL    HW133140   5.631   1.601   3.262
10747SOL    HW233141   5.594   1.594   3.103
10748SOL     OW33142   5.449   5.886   1.349
10748SOL    HW133143   5.402   5.903   1.263
10748SOL    HW233144   5.520   5.817   1.336
10749SOL     OW33145   6.976   4.629   2.669
10749SOL    HW133146   6.972   4.568   2.749
10749SOL    HW233147   7.019   4.715   2.695
10750SOL     OW33148   4.944   4.038   4.556
10750SOL    HW133149   4.942   4.007   4.461
10750SOL    HW233150   4.892   3.975   4.614
10751SOL     OW33151   1.172   3.066   4.962
10751SOL    HW133152   1.270   3.054   4.971
10751SOL    HW233153   1.124   2.999   5.019
10752SOL     OW33154   5.714   4.720   6.962
10752SOL    HW133155   5.638   4.682   6.910
10752SOL    HW233156   5.736   4.660   0.011
10753SOL     OW33157   5.251   0.292   3.928
10753SOL    HW133158   5.349   0.278   3.938
10753SOL    HW233159   5.234   0.374   3.874
10754SOL     OW33160   1.606   2.697   2.169
10754SOL    HW133161   1.567   2.657   2.087
10754SOL    HW233162   1.552   2.669   2.249
10755SOL     OW33163   6.869   2.111   0.603
10755SOL    HW133164   6.899   2.075   0.515
10755SOL    HW233165   6.781   2.158   0.592
10756SOL     OW33166   6.423   2.675   0.148
10756SOL    HW133167   6.374   2.744   0.095
10756SOL    HW233168   6.359   2.626   0.206
10757SOL     OW33169   0.148   4.186   0.742
10757SOL    HW133170   0.225   4.217   0.687
10757SOL    HW233171   0.098   4.115   0.692
10758SOL     OW33172   0.351   5.239   5.828
10758SOL    HW133173   0.335   5.221   5.731
10758SOL    HW233174   0.448   5.257   5.844
10759SOL     OW33175   1.812   3.381   6.360
10759SOL    HW133176   1.865   3.367   6.276
10759SOL    HW233177   1.715   3.361   6.342
10760SOL     OW33178   0.478   5.743   1.006
10760SOL    HW133179   0.405   5.727   1.072
10760SOL    HW233180   0.549   5.799   1.049
10761SOL     OW33181   1.141   2.663   6.352
10761SOL    HW133182   1.194   2.596   6.405
10761SOL    HW233183   1.064   2.695   6.408
10762SOL     OW33184   4.932   1.105   5.279
10762SOL    HW133185   4.834   1.100   5.260
10762SOL    HW233186   4.981   1.136   5.197
10763SOL     OW33187   4.490   0.274   1.830
10763SOL    HW133188   4.406   0.324   1.850
10763SOL    HW233189   4.467   0.192   1.777
10764SOL     OW33190   5.360   1.348   6.208
10764SOL    HW133191   5.395   1.277   6.270
10764SOL    HW233192   5.325   1.425   6.262
10765SOL     OW33193   5.771   1.101   2.058
10765SOL    HW133194   5.813   1.010   2.057
10765SOL    HW233195   5.795   1.149   1.974
10766SOL     OW33196   2.167   3.806   0.081
10766SOL    HW133197   2.180   3.785   7.011
10766SOL    HW233198   2.084   3.861   0.091
10767SOL     OW33199   1.612   6.366   0.843
10767SOL    HW133200   1.674   6.331   0.913
10767SOL    HW233201   1.642   6.334   0.753
10768SOL     OW33202   4.987   5.492   7.010
10768SOL    HW133203   4.900   5.533   0.010
10768SOL    HW233204   5.052   5.564   6.988
10769SOL     OW33205   2.620   4.504   5.270
10769SOL    HW133206   2.704   4.482   5.220
10769SOL    HW233207   2.545   4.447   5.235
10770SOL     OW33208   5.476   0.244   4.464
10770SOL    HW133209   5.532   0.162   4.453
10770SOL    HW233210   5.445   0.252   4.558
10771SOL     OW33211   4.232   0.057   5.230
10771SOL    HW133212   4.240   6.985   5.242
10771SOL    HW233213   4.321   0.100   5.247
10772SOL     OW33214   6.671   6.619   3.685
10772SOL    HW133215   6.724   6.627   3.769
10772SOL    HW233216   6.577   6.591   3.707
10773SOL     OW33217   6.989   4.478   6.764
10773SOL    HW133218   6.987   4.573   6.795
10773SOL    HW233219   0.009   4.422   6.832
10774SOL     OW33220   1.735   2.472   1.341
10774SOL    HW133221   1.653   2.457   1.286
10774SOL    HW233222   1.710   2.513   1.428
10775SOL     OW33223   2.227   4.354   0.899
10775SOL    HW133224   2.212   4.413   0.819
10775SOL    HW233225   2.318   4.313   0.894
10776SOL     OW33226   0.311   6.475   1.938
10776SOL    HW133227   0.303   6.552   1.875
10776SOL    HW233228   0.220   6.436   1.954
10777SOL     OW33229   4.038   0.289   3.137
10777SOL    HW133230   4.010   0.384   3.131
10777SOL    HW233231   4.039   0.260   3.233
10778SOL     OW33232   6.779   6.923   4.705
10778SOL    HW133233   6.736   6.959   4.788
10778SOL    HW233234   6.733   6.838   4.678
10779SOL     OW33235   0.120   4.583   2.472
10779SOL    HW133236   0.202   4.627   2.509
10779SOL    HW233237   0.044   4.597   2.535
10780SOL     OW33238   0.361   5.588   4.010
10780SOL    HW133239   0.272   5.553   3.983
10780SOL    HW233240   0.427   5.513   4.010
10781SOL     OW33241   5.139   1.460   4.166
10781SOL    HW133242   5.066   1.518   4.130
10781SOL    HW233243   5.178   1.405   4.093
10782SOL     OW33244   6.143   2.503   3.869
10782SOL    HW133245   6.065   2.555   3.835
10782SOL    HW233246   6.183   2.550   3.948
10783SOL     OW33247   2.136   3.200   2.451
10783SOL    HW133248   2.180   3.116   2.421
10783SOL    HW233249   2.122   3.261   2.373
10784SOL     OW33250   2.837   6.830   1.966
10784SOL    HW133251   2.862   6.734   1.954
10784SOL    HW233252   2.784   6.861   1.887
10785SOL     OW33253   1.357   5.068   1.335
10785SOL    HW133254   1.442   5.084   1.384
10785SOL    HW233255   1.347   5.135   1.262
10786SOL     OW33256   5.267   2.215   2.139
10786SOL    HW133257   5.224   2.139   2.089
10786SOL    HW233258   5.265   2.195   2.237
10787SOL     OW33259   3.189   1.238   4.300
10787SOL    HW133260   3.166   1.322   4.250
10787SOL    HW233261   3.254   1.258   4.373
10788SOL     OW33262   1.997   4.159   0.723
10788SOL    HW133263   2.034   4.250   0.706
10788SOL    HW233264   1.898   4.165   0.734
10789SOL     OW33265   6.143   0.361   0.323
10789SOL    HW133266   6.199   0.382   0.243
10789SOL    HW233267   6.048   0.346   0.295
10790SOL     OW33268   0.303   0.642   5.750
10790SOL    HW133269   0.255   0.644   5.838
10790SOL    HW233270   0.400   0.665   5.764
10791SOL     OW33271   1.885   1.392   1.756
10791SOL    HW133272   1.828   1.467   1.789
10791SOL    HW233273   1.826   1.321   1.716
10792SOL     OW33274   3.273   3.048   1.768
10792SOL    HW133275   3.203   2.987   1.805
10792SOL    HW233276   3.280   3.130   1.825
10793SOL     OW33277   5.653   2.141   4.128
10793SOL    HW133278   5.699   2.152   4.040
10793SOL    HW233279   5.563   2.099   4.114
10794SOL     OW33280   3.630   4.091   2.161
10794SOL    HW133281   3.675   4.178   2.179
10794SOL    HW233282   3.679   4.017   2.207
10795SOL     OW33283   6.161   3.712   2.520
10795SOL    HW133284   6.179   3.768   2.439
10795SOL    HW233285   6.063   3.712   2.539
10796SOL     OW33286   3.645   0.197   6.576
10796SOL    HW133287   3.580   0.215   6.650
10796SOL    HW233288   3.643   0.100   6.553
10797SOL     OW33289   3.972   2.645   0.460
10797SOL    HW133290   4.012   2.737   0.457
10797SOL    HW233291   3.879   2.650   0.496
10798SOL     OW33292   2.224   0.487   6.959
10798SOL    HW133293   2.270   0.444   0.010
10798SOL    HW233294   2.134   0.445   6.947
10799SOL     OW33295   3.555   1.767   2.424
10799SOL    HW133296   3.598   1.852   2.453
10799SOL    HW233297   3.620   1.692   2.434
10800SOL     OW33298   1.985   6.247   0.719
10800SOL    HW133299   2.068   6.226   0.668
10800SOL    HW233300   1.948   6.162   0.758
10801SOL     OW33301   1.802   6.953   4.335
10801SOL    HW133302   1.755   6.977   4.249
10801SOL    HW233303   1.804   0.005   4.395
10802SOL     OW33304   2.272   2.924   4.428
10802SOL    HW133305   2.274   2.959   4.522
10802SOL    HW233306   2.303   2.829   4.427
10803SOL     OW33307   5.167   4.824   5.457
10803SOL    HW133308   5.258   4.782   5.461
10803SOL    HW233309   5.103   4.760   5.415
10804SOL     OW33310   0.005   4.359   0.604
10804SOL    HW133311   0.057   4.292   0.657
10804SOL    HW233312   0.060   4.442   0.593
10805SOL     OW33313   3.521   0.557   6.962
10805SOL    HW133314   3.484   0.489   6.898
10805SOL    HW233315   3.499   0.649   6.931
10806SOL     OW33316   5.666   4.480   0.089
10806SOL    HW133317   5.608   4.399   0.080
10806SOL    HW233318   5.751   4.455   0.135
10807SOL     OW33319   3.573   6.790   3.585
10807SOL    HW133320   3.620   6.722   3.641
10807SOL    HW233321   3.514   6.846   3.644
10808SOL     OW33322   0.178   3.864   0.074
10808SOL    HW133323   0.150   3.889   0.167
10808SOL    HW233324   0.114   3.796   0.037
10809SOL     OW33325   2.771   0.586   4.334
10809SOL    HW133326   2.772   0.518   4.407
10809SOL    HW233327   2.762   0.540   4.245
10810SOL     OW33328   0.692   1.691   5.532
10810SOL    HW133329   0.753   1.612   5.543
10810SOL    HW233330   0.634   1.677   5.452
10811SOL     OW33331   3.598   5.267   5.499
10811SOL    HW133332   3.556   5.334   5.439
10811SOL    HW233333   3.692   5.249   5.468
10812SOL     OW33334   0.763   2.965   2.501
10812SOL    HW133335   0.822   3.015   2.438
10812SOL    HW233336   0.763   2.868   2.477
10813SOL     OW33337   2.682   6.204   1.405
10813SOL    HW133338   2.681   6.293   1.450
10813SOL    HW233339   2.771   6.161   1.417
10814SOL     OW33340   1.569   0.272   5.799
10814SOL    HW133341   1.657   0.239   5.763
10814SOL    HW233342   1.514   0.195   5.828
10815SOL     OW33343   4.755   4.585   3.507
10815SOL    HW133344   4.686   4.524   3.545
10815SOL    HW233345   4.735   4.601   3.410
10816SOL     OW33346   1.780   1.238   2.142
10816SOL    HW133347   1.776   1.141   2.167
10816SOL    HW233348   1.698   1.263   2.091
10817SOL     OW33349   5.381   6.450   3.091
10817SOL    HW133350   5.299   6.411   3.050
10817SOL    HW233351   5.366   6.546   3.113
10818SOL     OW33352   5.793   2.522   5.891
10818SOL    HW133353   5.811   2.617   5.920
10818SOL    HW233354   5.803   2.515   5.792
10819SOL     OW33355   0.968   3.726   6.574
10819SOL    HW133356   0.909   3.672   6.514
10819SOL    HW233357   1.064   3.706   6.554
10820SOL     OW33358   0.094   6.790   3.955
10820SOL    HW133359   0.088   6.754   4.048
10820SOL    HW233360   0.124   6.886   3.958
10821SOL     OW33361   6.176   6.097   2.736
10821SOL    HW133362   6.210   6.006   2.711
10821SOL    HW233363   6.205   6.164   2.667
10822SOL     OW33364   1.358   3.444   2.865
10822SOL    HW133365   1.330   3.383   2.791
10822SOL    HW233366   1.352   3.539   2.836
10823SOL     OW33367   1.409   5.220   1.680
10823SOL    HW133368   1.352   5.301   1.665
10823SOL    HW233369   1.501   5.248   1.705
10824SOL     OW33370   5.030   6.810   3.490
10824SOL    HW133371   5.073   6.878   3.549
10824SOL    HW233372   4.931   6.821   3.494
10825SOL     OW33373   2.682   1.699   0.579
10825SOL    HW133374   2.761   1.748   0.614
10825SOL    HW233375   2.639   1.753   0.506
10826SOL     OW33376   6.342   3.261   2.569
10826SOL    HW133377   6.347   3.361   2.577
10826SOL    HW233378   6.435   3.223   2.571
10827SOL     OW33379   6.425   3.622   3.699
10827SOL    HW133380   6.486   3.562   3.750
10827SOL    HW233381   6.426   3.595   3.602
10828SOL     OW33382   0.869   6.102   1.784
10828SOL    HW133383   0.792   6.163   1.801
10828SOL    HW233384   0.913   6.128   1.698
10829SOL     OW33385   2.681   3.258   1.192
10829SOL    HW133386   2.731   3.190   1.245
10829SOL    HW233387   2.583   3.242   1.200
10830SOL     OW33388   5.899   2.383   3.884
10830SOL    HW133389   5.873   2.358   3.791
10830SOL    HW233390   5.993   2.417   3.884
10831SOL     OW33391   5.022   0.264   1.823
10831SOL    HW133392   5.112   0.295   1.793
10831SOL    HW233393   4.976   0.339   1.871
10832SOL     OW33394   0.817   2.028   0.812
10832SOL    HW133395   0.821   2.006   0.714
10832SOL    HW233396   0.903   2.001   0.855
10833SOL     OW33397   2.323   0.468   3.685
10833SOL    HW133398   2.284   0.530   3.617
10833SOL    HW233399   2.298   0.374   3.663
10834SOL     OW33400   0.398   1.315   5.450
10834SOL    HW133401   0.385   1.260   5.368
10834SOL    HW233402   0.336   1.283   5.522
10835SOL     OW33403   5.996   1.330   1.010
10835SOL    HW133404   5.931   1.389   0.963
10835SOL    HW233405   6.071   1.386   1.046
10836SOL     OW33406   6.860   1.785   5.624
10836SOL    HW133407   6.937   1.764   5.563
10836SOL    HW233408   6.862   1.723   5.703
10837SOL     OW33409   6.763   4.533   0.010
10837SOL    HW133410   6.678   4.565   0.052
10837SOL    HW233411   6.790   4.597   6.965
10838SOL     OW33412   6.020   0.648   5.203
10838SOL    HW133413   6.024   0.748   5.207
10838SOL    HW233414   5.963   0.613   5.277
10839SOL     OW33415   2.677   3.187   6.941
10839SOL    HW133416   2.712   3.222   6.854
10839SOL    HW233417   2.703   3.248   7.015
10840SOL     OW33418   3.610   5.878   1.472
10840SOL    HW133419   3.620   5.863   1.373
10840SOL    HW233420   3.683   5.940   1.502
10841SOL     OW33421   3.136   5.683   5.844
10841SOL    HW133422   3.176   5.636   5.923
10841SOL    HW233423   3.145   5.781   5.856
10842SOL     OW33424   6.341   2.845   1.060
10842SOL    HW133425   6.274   2.825   0.989
10842SOL    HW233426   6.423   2.788   1.046
10843SOL     OW33427   0.951   1.649   1.622
10843SOL    HW133428   0.895   1.597   1.558
10843SOL    HW233429   0.965   1.741   1.587
10844SOL     OW33430   6.867   6.343   4.360
10844SOL    HW133431   6.861   6.243   4.368
10844SOL    HW233432   6.802   6.386   4.422
10845SOL     OW33433   1.957   0.861   1.377
10845SOL    HW133434   1.985   0.790   1.313
10845SOL    HW233435   2.013   0.856   1.460
10846SOL     OW33436   4.856   1.962   0.887
10846SOL    HW133437   4.877   1.869   0.917
10846SOL    HW233438   4.764   1.987   0.919
10847SOL     OW33439   2.749   2.199   6.209
10847SOL    HW133440   2.802   2.127   6.164
10847SOL    HW233441   2.760   2.190   6.308
10848SOL     OW33442   2.657   1.478   6.894
10848SOL    HW133443   2.627   1.557   6.947
10848SOL    HW233444   2.728   1.429   6.945
10849SOL     OW33445   4.042   4.850   3.868
10849SOL    HW133446   3.998   4.822   3.954
10849SOL    HW233447   3.971   4.876   3.802
10850SOL     OW33448   3.659   7.015   6.846
10850SOL    HW133449   3.659   6.919   6.873
10850SOL    HW233450   3.753   0.019   6.834
10851SOL     OW33451   3.119   2.711   5.835
10851SOL    HW133452   3.209   2.672   5.852
10851SOL    HW233453   3.106   2.791   5.894
10852SOL     OW33454   0.187   0.400   6.891
10852SOL    HW133455   0.284   0.384   6.871
10852SOL    HW233456   0.160   0.489   6.854
10853SOL     OW33457   3.814   1.881   4.240
10853SOL    HW133458   3.762   1.830   4.309
10853SOL    HW233459   3.777   1.973   4.232
10854SOL     OW33460   5.985   0.106   6.482
10854SOL    HW133461   5.973   0.115   6.383
10854SOL    HW233462   6.030   0.188   6.517
10855SOL     OW33463   2.857   5.923   2.752
10855SOL    HW133464   2.816   5.929   2.842
10855SOL    HW233465   2.813   5.989   2.690
10856SOL     OW33466   5.961   7.021   0.967
10856SOL    HW133467   5.939   0.090   0.955
10856SOL    HW233468   5.938   6.971   0.883
10857SOL     OW33469   6.368   3.130   3.139
10857SOL    HW133470   6.366   3.153   3.042
10857SOL    HW233471   6.457   3.091   3.163
10858SOL     OW33472   1.842   3.091   6.390
10858SOL    HW133473   1.843   3.189   6.373
10858SOL    HW233474   1.855   3.074   6.488
10859SOL     OW33475   1.559   3.845   3.509
10859SOL    HW133476   1.577   3.831   3.411
10859SOL    HW233477   1.645   3.855   3.558
10860SOL     OW33478   6.313   1.108   6.635
10860SOL    HW133479   6.312   1.009   6.618
10860SOL    HW233480   6.268   1.127   6.722
10861SOL     OW33481   3.802   2.454   1.698
10861SOL    HW133482   3.796   2.549   1.727
10861SOL    HW233483   3.739   2.399   1.753
10862SOL     OW33484   2.378   1.911   6.039
10862SOL    HW133485   2.426   1.988   6.081
10862SOL    HW233486   2.385   1.917   5.939
10863SOL     OW33487   3.208   0.831   2.752
10863SOL    HW133488   3.137   0.883   2.799
10863SOL    HW233489   3.167   0.772   2.683
10864SOL     OW33490   1.971   4.765   1.364
10864SOL    HW133491   2.034   4.839   1.340
10864SOL    HW233492   2.023   4.682   1.383
10865SOL     OW33493   5.896   3.052   3.637
10865SOL    HW133494   5.807   3.061   3.681
10865SOL    HW233495   5.884   3.017   3.544
10866SOL     OW33496   5.783   3.304   0.993
10866SOL    HW133497   5.780   3.256   0.906
10866SOL    HW233498   5.855   3.267   1.051
10867SOL     OW33499   2.562   2.725   0.310
10867SOL    HW133500   2.525   2.652   0.368
10867SOL    HW233501   2.652   2.697   0.276
10868SOL     OW33502   1.498   2.067   2.989
10868SOL    HW133503   1.478   2.100   2.897
10868SOL    HW233504   1.429   2.101   3.053
10869NA      NA33505   0.678   2.148   6.319
10870NA      NA33506   4.459   4.410   5.279
10871NA      NA33507   1.822   4.648   2.611
10872NA      NA33508   5.239   4.483   3.909
10873NA      NA33509   4.414   2.449   5.183
10874NA      NA33510   3.187   4.389   1.668
10875NA      NA33511   0.836   4.729   0.068
10876NA      NA33512   3.999   4.373   1.559
10877NA      NA33513   4.528   3.893   1.025
10878NA      NA33514   3.744   1.164   5.803
10879NA      NA33515   5.034   5.725   1.822
10880NA      NA33516   1.623   0.497   5.784
10881NA      NA33517   4.971   4.913   2.139
10882NA      NA33518   3.545   3.374   0.610
   7.02731   7.02731   7.02731
