Generated by trjconv : CNT in water t= 131.00000
33518
    1C        C    1   2.839   2.767   4.746
    1C        C    2   2.895   2.718   4.866
    1C        C    3   2.842   2.771   4.984
    1C        C    4   2.849   2.772   4.257
    1C        C    5   2.902   2.731   4.382
    1C        C    6   2.845   2.774   4.504
    1C        C    7   3.011   2.641   4.624
    1C        C    8   2.894   2.721   4.625
    1C        C    9   3.076   2.607   4.745
    1C        C   10   3.008   2.633   4.866
    1C        C   11   3.181   2.485   4.972
    1C        C   12   3.062   2.559   4.972
    1C        C   13   2.845   2.768   3.769
    1C        C   14   2.901   2.724   3.891
    1C        C   15   2.854   2.774   4.014
    1C        C   16   3.021   2.645   4.136
    1C        C   17   2.907   2.728   4.137
    1C        C   18   3.081   2.613   4.260
    1C        C   19   3.019   2.652   4.381
    1C        C   20   3.206   2.555   4.499
    1C        C   21   3.076   2.609   4.503
    1C        C   22   3.275   2.534   4.621
    1C        C   23   3.206   2.549   4.743
    1C        C   24   3.411   2.479   4.862
    1C        C   25   3.270   2.504   4.862
    1C        C   26   3.487   2.471   4.980
    1C        C   27   2.851   2.767   3.282
    1C        C   28   2.904   2.722   3.406
    1C        C   29   2.852   2.774   3.526
    1C        C   30   3.021   2.646   3.647
    1C        C   31   2.905   2.727   3.648
    1C        C   32   3.080   2.607   3.769
    1C        C   33   3.015   2.640   3.890
    1C        C   34   3.207   2.552   4.014
    1C        C   35   3.076   2.604   4.013
    1C        C   36   3.277   2.534   4.136
    1C        C   37   3.208   2.553   4.258
    1C        C   38   3.415   2.503   4.381
    1C        C   39   3.275   2.526   4.380
    1C        C   40   3.485   2.500   4.503
    1C        C   41   3.413   2.505   4.624
    1C        C   42   3.630   2.480   4.742
    1C        C   43   3.487   2.480   4.742
    1C        C   44   3.702   2.481   4.863
    1C        C   45   3.626   2.476   4.980
    1C        C   46   2.839   2.753   2.792
    1C        C   47   2.898   2.712   2.914
    1C        C   48   2.844   2.761   3.036
    1C        C   49   3.017   2.641   3.161
    1C        C   50   2.901   2.721   3.159
    1C        C   51   3.081   2.605   3.282
    1C        C   52   3.021   2.643   3.404
    1C        C   53   3.211   2.547   3.527
    1C        C   54   3.082   2.606   3.526
    1C        C   55   3.279   2.526   3.649
    1C        C   56   3.209   2.550   3.770
    1C        C   57   3.414   2.503   3.895
    1C        C   58   3.275   2.527   3.893
    1C        C   59   3.485   2.497   4.017
    1C        C   60   3.414   2.503   4.138
    1C        C   61   3.628   2.491   4.258
    1C        C   62   3.487   2.501   4.259
    1C        C   63   3.700   2.496   4.379
    1C        C   64   3.627   2.496   4.500
    1C        C   65   3.836   2.535   4.620
    1C        C   66   3.700   2.497   4.620
    1C        C   67   3.903   2.557   4.742
    1C        C   68   3.837   2.522   4.862
    1C        C   69   4.049   2.585   4.979
    1C        C   70   3.923   2.526   4.973
    1C        C   71   2.823   2.733   2.308
    1C        C   72   2.880   2.688   2.429
    1C        C   73   2.830   2.743   2.549
    1C        C   74   3.004   2.619   2.672
    1C        C   75   2.888   2.700   2.671
    1C        C   76   3.069   2.590   2.794
    1C        C   77   3.011   2.628   2.917
    1C        C   78   3.206   2.545   3.035
    1C        C   79   3.077   2.601   3.039
    1C        C   80   3.275   2.527   3.158
    1C        C   81   3.208   2.544   3.281
    1C        C   82   3.412   2.494   3.403
    1C        C   83   3.273   2.518   3.404
    1C        C   84   3.485   2.490   3.523
    1C        C   85   3.417   2.497   3.647
    1C        C   86   3.625   2.498   3.767
    1C        C   87   3.483   2.494   3.772
    1C        C   88   3.695   2.507   3.889
    1C        C   89   3.627   2.497   4.013
    1C        C   90   3.832   2.543   4.135
    1C        C   91   3.697   2.504   4.135
    1C        C   92   3.900   2.567   4.257
    1C        C   93   3.836   2.536   4.379
    1C        C   94   4.028   2.628   4.499
    1C        C   95   3.906   2.557   4.500
    1C        C   96   4.089   2.668   4.620
    1C        C   97   4.030   2.622   4.740
    1C        C   98   4.189   2.762   4.860
    1C        C   99   4.096   2.653   4.862
    1C        C  100   4.205   2.842   4.974
    1C        C  101   2.817   2.729   2.069
    1C        C  102   2.990   2.594   2.189
    1C        C  103   2.875   2.680   2.187
    1C        C  104   3.060   2.568   2.310
    1C        C  105   2.997   2.608   2.430
    1C        C  106   3.199   2.537   2.551
    1C        C  107   3.066   2.586   2.550
    1C        C  108   3.269   2.516   2.672
    1C        C  109   3.201   2.539   2.794
    1C        C  110   3.413   2.496   2.911
    1C        C  111   3.274   2.522   2.913
    1C        C  112   3.482   2.490   3.034
    1C        C  113   3.414   2.501   3.158
    1C        C  114   3.624   2.490   3.276
    1C        C  115   3.483   2.489   3.280
    1C        C  116   3.695   2.501   3.398
    1C        C  117   3.626   2.496   3.521
    1C        C  118   3.832   2.538   3.644
    1C        C  119   3.695   2.506   3.644
    1C        C  120   3.897   2.561   3.767
    1C        C  121   3.833   2.535   3.890
    1C        C  122   4.023   2.630   4.012
    1C        C  123   3.897   2.567   4.012
    1C        C  124   4.085   2.668   4.134
    1C        C  125   4.025   2.632   4.257
    1C        C  126   4.192   2.764   4.374
    1C        C  127   4.087   2.670   4.378
    1C        C  128   4.239   2.819   4.496
    1C        C  129   4.192   2.764   4.617
    1C        C  130   4.324   2.932   4.740
    1C        C  131   4.237   2.819   4.739
    1C        C  132   4.350   3.003   4.859
    1C        C  133   4.279   2.959   4.972
    1C        C  134   3.171   2.468   2.077
    1C        C  135   3.038   2.511   2.083
    1C        C  136   3.256   2.473   2.189
    1C        C  137   3.192   2.515   2.307
    1C        C  138   3.402   2.481   2.425
    1C        C  139   3.263   2.507   2.429
    1C        C  140   3.477   2.482   2.545
    1C        C  141   3.408   2.492   2.668
    1C        C  142   3.623   2.487   2.788
    1C        C  143   3.482   2.487   2.788
    1C        C  144   3.694   2.500   2.910
    1C        C  145   3.623   2.494   3.032
    1C        C  146   3.831   2.532   3.151
    1C        C  147   3.694   2.497   3.153
    1C        C  148   3.896   2.558   3.274
    1C        C  149   3.832   2.534   3.398
    1C        C  150   4.024   2.623   3.521
    1C        C  151   3.899   2.557   3.520
    1C        C  152   4.081   2.665   3.643
    1C        C  153   4.020   2.631   3.766
    1C        C  154   4.189   2.759   3.886
    1C        C  155   4.076   2.674   3.889
    1C        C  156   4.240   2.808   4.008
    1C        C  157   4.191   2.761   4.132
    1C        C  158   4.330   2.925   4.251
    1C        C  159   4.242   2.814   4.252
    1C        C  160   4.371   2.984   4.373
    1C        C  161   4.327   2.930   4.496
    1C        C  162   4.431   3.115   4.616
    1C        C  163   4.361   2.992   4.618
    1C        C  164   4.463   3.184   4.735
    1C        C  165   4.426   3.122   4.857
    1C        C  166   4.514   3.319   4.969
    1C        C  167   4.478   3.185   4.970
    1C        C  168   3.473   2.438   2.072
    1C        C  169   3.396   2.452   2.188
    1C        C  170   3.616   2.459   2.304
    1C        C  171   3.474   2.456   2.306
    1C        C  172   3.691   2.479   2.422
    1C        C  173   3.618   2.479   2.543
    1C        C  174   3.826   2.534   2.663
    1C        C  175   3.690   2.495   2.664
    1C        C  176   3.895   2.556   2.784
    1C        C  177   3.831   2.534   2.907
    1C        C  178   4.025   2.619   3.030
    1C        C  179   3.899   2.555   3.029
    1C        C  180   4.085   2.656   3.152
    1C        C  181   4.021   2.625   3.274
    1C        C  182   4.191   2.748   3.395
    1C        C  183   4.081   2.659   3.397
    1C        C  184   4.241   2.800   3.517
    1C        C  185   4.192   2.753   3.641
    1C        C  186   4.328   2.916   3.761
    1C        C  187   4.241   2.804   3.763
    1C        C  188   4.367   2.977   3.882
    1C        C  189   4.328   2.919   4.005
    1C        C  190   4.436   3.103   4.125
    1C        C  191   4.370   2.978   4.126
    1C        C  192   4.462   3.169   4.247
    1C        C  193   4.435   3.109   4.372
    1C        C  194   4.503   3.312   4.488
    1C        C  195   4.457   3.178   4.493
    1C        C  196   4.524   3.386   4.607
    1C        C  197   4.509   3.318   4.730
    1C        C  198   4.553   3.532   4.851
    1C        C  199   4.532   3.391   4.850
    1C        C  200   4.588   3.618   4.960
    1C        C  201   3.611   2.417   2.070
    1C        C  202   3.823   2.509   2.179
    1C        C  203   3.689   2.458   2.182
    1C        C  204   3.896   2.533   2.299
    1C        C  205   3.829   2.510   2.421
    1C        C  206   4.018   2.616   2.538
    1C        C  207   3.893   2.551   2.540
    1C        C  208   4.081   2.653   2.659
    1C        C  209   4.022   2.618   2.782
    1C        C  210   4.190   2.746   2.904
    1C        C  211   4.081   2.656   2.905
    1C        C  212   4.247   2.792   3.025
    1C        C  213   4.197   2.743   3.148
    1C        C  214   4.324   2.910   3.271
    1C        C  215   4.239   2.797   3.272
    1C        C  216   4.358   2.973   3.392
    1C        C  217   4.321   2.916   3.516
    1C        C  218   4.430   3.099   3.637
    1C        C  219   4.364   2.974   3.637
    1C        C  220   4.456   3.168   3.757
    1C        C  221   4.428   3.104   3.880
    1C        C  222   4.497   3.305   4.000
    1C        C  223   4.457   3.170   4.002
    1C        C  224   4.513   3.376   4.121
    1C        C  225   4.500   3.305   4.242
    1C        C  226   4.516   3.518   4.361
    1C        C  227   4.512   3.377   4.363
    1C        C  228   4.513   3.593   4.481
    1C        C  229   4.533   3.527   4.604
    1C        C  230   4.506   3.737   4.725
    1C        C  231   4.536   3.598   4.726
    1C        C  232   4.494   3.813   4.843
    1C        C  233   4.541   3.750   4.959
    1C        C  234   4.012   2.613   2.063
    1C        C  235   3.895   2.538   2.062
    1C        C  236   4.085   2.645   2.179
    1C        C  237   4.018   2.606   2.297
    1C        C  238   4.198   2.731   2.418
    1C        C  239   4.081   2.650   2.416
    1C        C  240   4.248   2.784   2.539
    1C        C  241   4.192   2.742   2.661
    1C        C  242   4.332   2.903   2.782
    1C        C  243   4.241   2.795   2.782
    1C        C  244   4.373   2.961   2.905
    1C        C  245   4.331   2.905   3.028
    1C        C  246   4.430   3.094   3.147
    1C        C  247   4.370   2.966   3.149
    1C        C  248   4.449   3.162   3.269
    1C        C  249   4.422   3.099   3.392
    1C        C  250   4.488   3.302   3.511
    1C        C  251   4.450   3.166   3.514
    1C        C  252   4.500   3.372   3.633
    1C        C  253   4.490   3.305   3.757
    1C        C  254   4.524   3.516   3.875
    1C        C  255   4.511   3.376   3.878
    1C        C  256   4.522   3.590   3.996
    1C        C  257   4.522   3.517   4.117
    1C        C  258   4.485   3.728   4.239
    1C        C  259   4.512   3.589   4.238
    1C        C  260   4.469   3.800   4.359
    1C        C  261   4.483   3.731   4.482
    1C        C  262   4.425   3.934   4.602
    1C        C  263   4.473   3.801   4.604
    1C        C  264   4.397   4.006   4.721
    1C        C  265   4.432   3.940   4.841
    1C        C  266   4.319   4.128   4.953
    1C        C  267   4.391   4.010   4.955
    1C        C  268   4.258   2.773   2.058
    1C        C  269   4.198   2.729   2.177
    1C        C  270   4.349   2.883   2.296
    1C        C  271   4.255   2.776   2.297
    1C        C  272   4.379   2.950   2.417
    1C        C  273   4.341   2.891   2.539
    1C        C  274   4.439   3.083   2.660
    1C        C  275   4.376   2.956   2.659
    1C        C  276   4.467   3.149   2.781
    1C        C  277   4.439   3.086   2.904
    1C        C  278   4.499   3.293   3.020
    1C        C  279   4.465   3.156   3.024
    1C        C  280   4.509   3.363   3.142
    1C        C  281   4.498   3.295   3.265
    1C        C  282   4.510   3.508   3.387
    1C        C  283   4.509   3.366   3.387
    1C        C  284   4.511   3.582   3.508
    1C        C  285   4.513   3.512   3.631
    1C        C  286   4.490   3.724   3.749
    1C        C  287   4.515   3.585   3.752
    1C        C  288   4.477   3.793   3.871
    1C        C  289   4.497   3.729   3.996
    1C        C  290   4.428   3.932   4.113
    1C        C  291   4.477   3.799   4.117
    1C        C  292   4.396   3.994   4.236
    1C        C  293   4.421   3.933   4.361
    1C        C  294   4.321   4.123   4.476
    1C        C  295   4.393   4.001   4.481
    1C        C  296   4.282   4.186   4.596
    1C        C  297   4.326   4.129   4.717
    1C        C  298   4.201   4.313   4.833
    1C        C  299   4.279   4.193   4.835
    1C        C  300   4.173   4.399   4.944
    1C        C  301   4.344   2.882   2.061
    1C        C  302   4.468   3.066   2.173
    1C        C  303   4.398   2.941   2.176
    1C        C  304   4.476   3.139   2.295
    1C        C  305   4.441   3.077   2.416
    1C        C  306   4.504   3.282   2.535
    1C        C  307   4.471   3.145   2.537
    1C        C  308   4.514   3.355   2.655
    1C        C  309   4.502   3.286   2.778
    1C        C  310   4.527   3.501   2.899
    1C        C  311   4.515   3.360   2.897
    1C        C  312   4.522   3.574   3.020
    1C        C  313   4.520   3.504   3.143
    1C        C  314   4.486   3.716   3.260
    1C        C  315   4.510   3.577   3.264
    1C        C  316   4.472   3.787   3.382
    1C        C  317   4.491   3.722   3.505
    1C        C  318   4.430   3.927   3.625
    1C        C  319   4.477   3.794   3.626
    1C        C  320   4.400   3.989   3.749
    1C        C  321   4.429   3.926   3.872
    1C        C  322   4.317   4.112   3.989
    1C        C  323   4.392   3.992   3.991
    1C        C  324   4.278   4.170   4.111
    1C        C  325   4.320   4.112   4.233
    1C        C  326   4.184   4.281   4.350
    1C        C  327   4.280   4.177   4.352
    1C        C  328   4.130   4.333   4.470
    1C        C  329   4.185   4.288   4.592
    1C        C  330   4.024   4.433   4.711
    1C        C  331   4.138   4.350   4.711
    1C        C  332   3.968   4.486   4.829
    1C        C  333   4.054   4.473   4.940
    1C        C  334   4.542   3.266   2.060
    1C        C  335   4.529   3.127   2.059
    1C        C  336   4.533   3.348   2.173
    1C        C  337   4.511   3.277   2.293
    1C        C  338   4.522   3.493   2.411
    1C        C  339   4.519   3.352   2.412
    1C        C  340   4.525   3.567   2.531
    1C        C  341   4.524   3.496   2.653
    1C        C  342   4.502   3.708   2.772
    1C        C  343   4.521   3.568   2.775
    1C        C  344   4.480   3.780   2.891
    1C        C  345   4.490   3.712   3.014
    1C        C  346   4.425   3.915   3.136
    1C        C  347   4.469   3.781   3.136
    1C        C  348   4.393   3.981   3.257
    1C        C  349   4.425   3.920   3.380
    1C        C  350   4.315   4.102   3.500
    1C        C  351   4.395   3.986   3.502
    1C        C  352   4.270   4.157   3.622
    1C        C  353   4.318   4.104   3.744
    1C        C  354   4.174   4.265   3.866
    1C        C  355   4.271   4.161   3.865
    1C        C  356   4.124   4.317   3.987
    1C        C  357   4.177   4.270   4.109
    1C        C  358   4.009   4.403   4.227
    1C        C  359   4.125   4.322   4.229
    1C        C  360   3.949   4.444   4.349
    1C        C  361   4.018   4.418   4.470
    1C        C  362   3.823   4.510   4.591
    1C        C  363   3.955   4.459   4.590
    1C        C  364   3.760   4.546   4.712
    1C        C  365   3.838   4.539   4.829
    1C        C  366   3.629   4.591   4.950
    1C        C  367   3.767   4.574   4.945
    1C        C  368   4.501   3.563   2.053
    1C        C  369   4.519   3.489   2.170
    1C        C  370   4.494   3.704   2.288
    1C        C  371   4.515   3.565   2.289
    1C        C  372   4.481   3.777   2.408
    1C        C  373   4.500   3.706   2.529
    1C        C  374   4.427   3.906   2.644
    1C        C  375   4.482   3.776   2.650
    1C        C  376   4.393   3.971   2.765
    1C        C  377   4.424   3.910   2.888
    1C        C  378   4.319   4.093   3.013
    1C        C  379   4.395   3.973   3.011
    1C        C  380   4.271   4.153   3.131
    1C        C  381   4.317   4.100   3.254
    1C        C  382   4.175   4.257   3.375
    1C        C  383   4.274   4.157   3.376
    1C        C  384   4.118   4.300   3.497
    1C        C  385   4.172   4.259   3.621
    1C        C  386   4.002   4.386   3.740
    1C        C  387   4.119   4.306   3.743
    1C        C  388   3.944   4.428   3.862
    1C        C  389   4.007   4.397   3.984
    1C        C  390   3.814   4.484   4.104
    1C        C  391   3.947   4.438   4.105
    1C        C  392   3.746   4.510   4.225
    1C        C  393   3.820   4.501   4.345
    1C        C  394   3.615   4.549   4.471
    1C        C  395   3.754   4.523   4.468
    1C        C  396   3.545   4.567   4.592
    1C        C  397   3.620   4.568   4.712
    1C        C  398   3.412   4.547   4.835
    1C        C  399   3.551   4.572   4.835
    1C        C  400   3.343   4.514   4.952
    1C        C  401   4.499   3.702   2.052
    1C        C  402   4.451   3.915   2.163
    1C        C  403   4.493   3.780   2.169
    1C        C  404   4.410   3.979   2.282
    1C        C  405   4.433   3.910   2.403
    1C        C  406   4.323   4.094   2.524
    1C        C  407   4.400   3.975   2.524
    1C        C  408   4.273   4.145   2.646
    1C        C  409   4.316   4.090   2.768
    1C        C  410   4.170   4.243   2.886
    1C        C  411   4.273   4.147   2.890
    1C        C  412   4.117   4.293   3.008
    1C        C  413   4.170   4.252   3.132
    1C        C  414   3.999   4.378   3.251
    1C        C  415   4.119   4.303   3.254
    1C        C  416   3.940   4.414   3.374
    1C        C  417   4.002   4.381   3.496
    1C        C  418   3.805   4.463   3.618
    1C        C  419   3.938   4.415   3.618
    1C        C  420   3.744   4.500   3.740
    1C        C  421   3.812   4.478   3.862
    1C        C  422   3.607   4.538   3.984
    1C        C  423   3.741   4.493   3.983
    1C        C  424   3.538   4.551   4.107
    1C        C  425   3.611   4.550   4.228
    1C        C  426   3.400   4.556   4.356
    1C        C  427   3.541   4.556   4.351
    1C        C  428   3.331   4.546   4.479
    1C        C  429   3.404   4.561   4.598
    1C        C  430   3.192   4.522   4.720
    1C        C  431   3.332   4.547   4.719
    1C        C  432   3.123   4.496   4.841
    1C        C  433   3.205   4.493   4.955
    1C        C  434   4.380   4.122   2.048
    1C        C  435   4.444   3.997   2.050
    1C        C  436   4.300   4.164   2.159
    1C        C  437   4.333   4.098   2.281
    1C        C  438   4.181   4.249   2.400
    1C        C  439   4.281   4.150   2.401
    1C        C  440   4.121   4.293   2.520
    1C        C  441   4.170   4.242   2.643
    1C        C  442   4.003   4.373   2.764
    1C        C  443   4.117   4.290   2.764
    1C        C  444   3.942   4.411   2.885
    1C        C  445   4.004   4.377   3.008
    1C        C  446   3.810   4.470   3.128
    1C        C  447   3.938   4.411   3.128
    1C        C  448   3.744   4.493   3.251
    1C        C  449   3.810   4.470   3.373
    1C        C  450   3.604   4.525   3.494
    1C        C  451   3.741   4.492   3.495
    1C        C  452   3.536   4.541   3.617
    1C        C  453   3.607   4.535   3.739
    1C        C  454   3.398   4.550   3.865
    1C        C  455   3.539   4.553   3.861
    1C        C  456   3.328   4.534   3.986
    1C        C  457   3.397   4.545   4.109
    1C        C  458   3.195   4.503   4.235
    1C        C  459   3.331   4.542   4.234
    1C        C  460   3.128   4.478   4.357
    1C        C  461   3.195   4.508   4.478
    1C        C  462   2.998   4.429   4.601
    1C        C  463   3.126   4.489   4.599
    1C        C  464   2.930   4.399   4.722
    1C        C  465   2.991   4.440   4.843
    1C        C  466   2.803   4.334   4.957
    1C        C  467   2.907   4.428   4.958
    1C        C  468   4.119   4.281   2.038
    1C        C  469   4.181   4.243   2.158
    1C        C  470   4.004   4.370   2.275
    1C        C  471   4.123   4.291   2.278
    1C        C  472   3.941   4.402   2.397
    1C        C  473   4.000   4.367   2.520
    1C        C  474   3.810   4.461   2.640
    1C        C  475   3.940   4.406   2.641
    1C        C  476   3.743   4.486   2.762
    1C        C  477   3.811   4.465   2.883
    1C        C  478   3.605   4.516   3.005
    1C        C  479   3.744   4.492   3.004
    1C        C  480   3.535   4.525   3.127
    1C        C  481   3.605   4.520   3.250
    1C        C  482   3.393   4.534   3.375
    1C        C  483   3.534   4.532   3.371
    1C        C  484   3.322   4.533   3.497
    1C        C  485   3.394   4.543   3.618
    1C        C  486   3.191   4.504   3.744
    1C        C  487   3.327   4.542   3.743
    1C        C  488   3.127   4.474   3.866
    1C        C  489   3.191   4.497   3.990
    1C        C  490   3.004   4.410   4.114
    1C        C  491   3.127   4.479   4.114
    1C        C  492   2.944   4.374   4.237
    1C        C  493   3.004   4.411   4.359
    1C        C  494   2.830   4.293   4.481
    1C        C  495   2.940   4.381   4.482
    1C        C  496   2.774   4.251   4.604
    1C        C  497   2.818   4.312   4.724
    1C        C  498   2.663   4.162   4.844
    1C        C  499   2.754   4.270   4.843
    1C        C  500   2.589   4.117   4.955
    1C        C  501   4.000   4.353   2.035
    1C        C  502   3.817   4.469   2.154
    1C        C  503   3.943   4.404   2.152
    1C        C  504   3.744   4.482   2.274
    1C        C  505   3.810   4.455   2.396
    1C        C  506   3.605   4.514   2.519
    1C        C  507   3.743   4.483   2.517
    1C        C  508   3.532   4.524   2.639
    1C        C  509   3.605   4.516   2.760
    1C        C  510   3.393   4.523   2.883
    1C        C  511   3.535   4.523   2.883
    1C        C  512   3.323   4.519   3.005
    1C        C  513   3.393   4.527   3.128
    1C        C  514   3.188   4.492   3.253
    1C        C  515   3.325   4.525   3.251
    1C        C  516   3.123   4.466   3.376
    1C        C  517   3.186   4.496   3.498
    1C        C  518   2.999   4.406   3.621
    1C        C  519   3.123   4.474   3.623
    1C        C  520   2.942   4.367   3.744
    1C        C  521   3.003   4.405   3.866
    1C        C  522   2.840   4.277   3.993
    1C        C  523   2.950   4.366   3.990
    1C        C  524   2.787   4.231   4.116
    1C        C  525   2.833   4.286   4.238
    1C        C  526   2.690   4.131   4.362
    1C        C  527   2.779   4.240   4.360
    1C        C  528   2.649   4.075   4.486
    1C        C  529   2.688   4.139   4.605
    1C        C  530   2.580   3.958   4.732
    1C        C  531   2.641   4.087   4.727
    1C        C  532   2.542   3.900   4.856
    1C        C  533   2.523   3.994   4.962
    1C        C  534   3.619   4.560   2.040
    1C        C  535   3.752   4.517   2.040
    1C        C  536   3.535   4.538   2.154
    1C        C  537   3.605   4.512   2.275
    1C        C  538   3.392   4.512   2.395
    1C        C  539   3.534   4.517   2.397
    1C        C  540   3.321   4.503   2.517
    1C        C  541   3.391   4.516   2.639
    1C        C  542   3.184   4.480   2.762
    1C        C  543   3.322   4.512   2.761
    1C        C  544   3.120   4.460   2.886
    1C        C  545   3.187   4.483   3.008
    1C        C  546   2.994   4.402   3.130
    1C        C  547   3.119   4.466   3.132
    1C        C  548   2.940   4.361   3.254
    1C        C  549   3.000   4.396   3.377
    1C        C  550   2.831   4.275   3.502
    1C        C  551   2.940   4.365   3.500
    1C        C  552   2.781   4.227   3.625
    1C        C  553   2.835   4.275   3.747
    1C        C  554   2.698   4.120   3.874
    1C        C  555   2.787   4.229   3.872
    1C        C  556   2.654   4.063   3.996
    1C        C  557   2.694   4.125   4.116
    1C        C  558   2.598   3.940   4.244
    1C        C  559   2.658   4.068   4.240
    1C        C  560   2.567   3.877   4.367
    1C        C  561   2.589   3.947   4.488
    1C        C  562   2.528   3.749   4.614
    1C        C  563   2.557   3.887   4.612
    1C        C  564   2.513   3.679   4.737
    1C        C  565   2.519   3.759   4.854
    1C        C  566   2.516   3.546   4.980
    1C        C  567   2.522   3.685   4.973
    1C        C  568   3.325   4.476   2.036
    1C        C  569   3.396   4.509   2.152
    1C        C  570   3.186   4.460   2.276
    1C        C  571   3.322   4.502   2.273
    1C        C  572   3.117   4.445   2.399
    1C        C  573   3.183   4.475   2.520
    1C        C  574   2.987   4.394   2.645
    1C        C  575   3.113   4.458   2.642
    1C        C  576   2.930   4.354   2.768
    1C        C  577   2.994   4.396   2.886
    1C        C  578   2.826   4.268   3.016
    1C        C  579   2.936   4.357   3.009
    1C        C  580   2.776   4.220   3.139
    1C        C  581   2.831   4.271   3.259
    1C        C  582   2.699   4.106   3.386
    1C        C  583   2.782   4.220   3.381
    1C        C  584   2.661   4.051   3.511
    1C        C  585   2.691   4.118   3.631
    1C        C  586   2.596   3.930   3.756
    1C        C  587   2.656   4.058   3.754
    1C        C  588   2.572   3.864   3.878
    1C        C  589   2.596   3.934   3.999
    1C        C  590   2.528   3.738   4.127
    1C        C  591   2.567   3.874   4.123
    1C        C  592   2.516   3.670   4.250
    1C        C  593   2.526   3.742   4.371
    1C        C  594   2.507   3.535   4.498
    1C        C  595   2.512   3.676   4.494
    1C        C  596   2.510   3.464   4.620
    1C        C  597   2.510   3.537   4.741
    1C        C  598   2.531   3.327   4.862
    1C        C  599   2.516   3.468   4.863
    1C        C  600   2.530   3.249   4.978
    1C        C  601   3.195   4.429   2.041
    1C        C  602   2.979   4.389   2.156
    1C        C  603   3.115   4.434   2.156
    1C        C  604   2.922   4.353   2.281
    1C        C  605   2.989   4.386   2.400
    1C        C  606   2.816   4.267   2.529
    1C        C  607   2.929   4.351   2.523
    1C        C  608   2.764   4.218   2.651
    1C        C  609   2.819   4.266   2.772
    1C        C  610   2.683   4.108   2.896
    1C        C  611   2.770   4.219   2.896
    1C        C  612   2.648   4.051   3.021
    1C        C  613   2.688   4.110   3.143
    1C        C  614   2.589   3.923   3.264
    1C        C  615   2.653   4.049   3.265
    1C        C  616   2.568   3.860   3.389
    1C        C  617   2.600   3.924   3.511
    1C        C  618   2.526   3.729   3.638
    1C        C  619   2.571   3.862   3.635
    1C        C  620   2.516   3.659   3.761
    1C        C  621   2.532   3.729   3.882
    1C        C  622   2.507   3.522   4.010
    1C        C  623   2.518   3.663   4.007
    1C        C  624   2.506   3.454   4.133
    1C        C  625   2.503   3.529   4.253
    1C        C  626   2.532   3.323   4.378
    1C        C  627   2.507   3.462   4.377
    1C        C  628   2.550   3.251   4.499
    1C        C  629   2.534   3.324   4.619
    1C        C  630   2.592   3.121   4.744
    1C        C  631   2.547   3.255   4.741
    1C        C  632   2.618   3.049   4.864
    1C        C  633   2.569   3.115   4.981
    1C        C  634   2.782   4.299   2.050
    1C        C  635   2.889   4.388   2.044
    1C        C  636   2.746   4.227   2.165
    1C        C  637   2.810   4.265   2.285
    1C        C  638   2.674   4.107   2.410
    1C        C  639   2.759   4.220   2.409
    1C        C  640   2.638   4.046   2.532
    1C        C  641   2.676   4.108   2.653
    1C        C  642   2.580   3.920   2.778
    1C        C  643   2.638   4.049   2.776
    1C        C  644   2.558   3.854   2.901
    1C        C  645   2.591   3.921   3.021
    1C        C  646   2.527   3.719   3.148
    1C        C  647   2.563   3.856   3.143
    1C        C  648   2.510   3.655   3.272
    1C        C  649   2.527   3.725   3.394
    1C        C  650   2.508   3.516   3.518
    1C        C  651   2.514   3.657   3.517
    1C        C  652   2.506   3.446   3.640
    1C        C  653   2.504   3.518   3.762
    1C        C  654   2.524   3.313   3.888
    1C        C  655   2.505   3.452   3.887
    1C        C  656   2.547   3.248   4.011
    1C        C  657   2.532   3.315   4.135
    1C        C  658   2.604   3.119   4.257
    1C        C  659   2.555   3.251   4.259
    1C        C  660   2.634   3.055   4.380
    1C        C  661   2.602   3.120   4.502
    1C        C  662   2.711   2.939   4.625
    1C        C  663   2.631   3.056   4.624
    1C        C  664   2.746   2.874   4.745
    1C        C  665   2.695   2.928   4.866
    1C        C  666   2.743   2.869   4.984
    1C        C  667   2.678   4.021   2.055
    1C        C  668   2.683   4.101   2.170
    1C        C  669   2.581   3.912   2.289
    1C        C  670   2.637   4.043   2.290
    1C        C  671   2.550   3.849   2.411
    1C        C  672   2.579   3.918   2.532
    1C        C  673   2.518   3.718   2.657
    1C        C  674   2.558   3.853   2.655
    1C        C  675   2.508   3.649   2.780
    1C        C  676   2.521   3.718   2.902
    1C        C  677   2.501   3.509   3.029
    1C        C  678   2.513   3.650   3.025
    1C        C  679   2.497   3.441   3.152
    1C        C  680   2.495   3.514   3.273
    1C        C  681   2.531   3.306   3.398
    1C        C  682   2.505   3.445   3.395
    1C        C  683   2.550   3.238   3.521
    1C        C  684   2.528   3.306   3.643
    1C        C  685   2.603   3.113   3.769
    1C        C  686   2.546   3.242   3.767
    1C        C  687   2.640   3.053   3.892
    1C        C  688   2.607   3.120   4.012
    1C        C  689   2.711   2.937   4.138
    1C        C  690   2.639   3.058   4.134
    1C        C  691   2.756   2.879   4.259
    1C        C  692   2.714   2.939   4.380
    1C        C  693   2.754   2.882   4.503
    1C        C  694   2.629   3.889   2.057
    1C        C  695   2.518   3.703   2.175
    1C        C  696   2.571   3.834   2.172
    1C        C  697   2.500   3.636   2.298
    1C        C  698   2.516   3.712   2.416
    1C        C  699   2.479   3.504   2.542
    1C        C  700   2.499   3.643   2.538
    1C        C  701   2.488   3.432   2.664
    1C        C  702   2.498   3.508   2.783
    1C        C  703   2.524   3.300   2.908
    1C        C  704   2.499   3.439   2.906
    1C        C  705   2.548   3.234   3.031
    1C        C  706   2.530   3.303   3.153
    1C        C  707   2.598   3.104   3.275
    1C        C  708   2.552   3.238   3.276
    1C        C  709   2.633   3.045   3.398
    1C        C  710   2.610   3.110   3.521
    1C        C  711   2.718   2.936   3.649
    1C        C  712   2.637   3.052   3.646
    1C        C  713   2.759   2.880   3.772
    1C        C  714   2.713   2.932   3.895
    1C        C  715   2.759   2.879   4.018
    1C        C  716   2.450   3.498   2.057
    1C        C  717   2.487   3.634   2.057
    1C        C  718   2.460   3.422   2.177
    1C        C  719   2.477   3.496   2.297
    1C        C  720   2.515   3.293   2.420
    1C        C  721   2.481   3.430   2.422
    1C        C  722   2.540   3.227   2.542
    1C        C  723   2.523   3.295   2.664
    1C        C  724   2.586   3.095   2.789
    1C        C  725   2.537   3.227   2.787
    1C        C  726   2.622   3.033   2.911
    1C        C  727   2.596   3.101   3.032
    1C        C  728   2.704   2.918   3.157
    1C        C  729   2.629   3.038   3.154
    1C        C  730   2.754   2.870   3.279
    1C        C  731   2.714   2.930   3.401
    1C        C  732   2.757   2.879   3.526
    1C        C  733   2.484   3.198   2.068
    1C        C  734   2.484   3.281   2.182
    1C        C  735   2.583   3.086   2.303
    1C        C  736   2.524   3.216   2.302
    1C        C  737   2.616   3.025   2.425
    1C        C  738   2.590   3.095   2.545
    1C        C  739   2.701   2.915   2.668
    1C        C  740   2.623   3.033   2.668
    1C        C  741   2.741   2.854   2.789
    1C        C  742   2.700   2.915   2.910
    1C        C  743   2.748   2.865   3.033
    1C        C  744   2.539   3.071   2.072
    1C        C  745   2.685   2.899   2.186
    1C        C  746   2.606   3.016   2.183
    1C        C  747   2.730   2.841   2.307
    1C        C  748   2.691   2.905   2.426
    1C        C  749   2.740   2.852   2.548
    1C        C  750   2.729   2.837   2.068
    1C        C  751   3.641   2.312   1.969
    1C        O  752   3.670   2.196   2.008
    1C        O  753   3.679   2.342   1.837
    1C        C  754   4.613   3.061   1.957
    1C        O  755   4.563   3.036   1.844
    1C        O  756   4.751   3.040   1.973
    1C        C  757   4.450   4.217   1.959
    1C        O  758   4.534   4.304   1.994
    1C        O  759   4.423   4.205   1.822
    1C        C  760   3.598   4.676   1.950
    1C        O  761   3.537   4.778   1.991
    1C        O  762   3.605   4.675   1.810
    1C        C  763   2.859   4.514   1.973
    1C        O  764   2.901   4.528   1.855
    1C        O  765   2.778   4.620   2.015
    1C        C  766   2.326   3.469   1.980
    1C        O  767   2.329   3.466   1.854
    1C        O  768   2.208   3.530   2.024
    1C        C  769   4.699   3.585   5.052
    1C        O  770   4.686   3.518   5.158
    1C        O  771   4.833   3.600   5.014
    1C        C  772   4.283   4.444   5.032
    1C        O  773   4.288   4.425   5.157
    1C        O  774   4.400   4.505   4.987
    1C        C  775   4.144   2.504   5.058
    1C        O  776   4.241   2.443   5.004
    1C        O  777   4.180   2.549   5.186
    1C        C  778   2.870   4.542   5.045
    1C        O  779   2.810   4.644   5.002
    1C        O  780   2.927   4.543   5.173
    1C        C  781   2.473   3.036   5.062
    1C        O  782   2.384   2.964   5.010
    1C        O  783   2.496   3.004   5.195
    1C        C  784   2.400   3.996   5.045
    1C        O  785   2.302   4.065   5.008
    1C        O  786   2.412   3.993   5.185
    1C        C  787   2.946   2.453   1.983
    1C        O  788   2.968   2.478   1.861
    1C        O  789   2.845   2.362   2.012
    1C        C  790   3.164   2.353   5.036
    1C        O  791   3.132   2.245   4.979
    1C        O  792   3.131   2.347   5.172
    1C        H  793   4.294   3.017   5.060
    1C        H  794   4.211   2.787   5.065
    1C        H  795   4.542   3.124   5.031
    1C        H  796   4.510   3.373   5.062
    1C        H  797   4.588   3.825   5.021
    1C        H  798   4.384   3.955   5.047
    1C        H  799   4.289   4.171   5.047
    1C        H  800   4.042   4.540   5.022
    1C        H  801   3.822   4.621   5.025
    1C        H  802   3.588   4.632   5.040
    1C        H  803   3.398   4.489   5.041
    1C        H  804   3.158   4.501   5.051
    1C        H  805   3.896   2.462   5.054
    1C        H  806   3.675   2.458   5.073
    1C        H  807   3.021   2.574   5.069
    1C        H  808   3.438   2.489   5.073
    1C        H  809   2.894   2.756   5.076
    1C        H  810   2.674   2.867   5.066
    1C        H  811   2.521   3.294   5.075
    1C        H  812   2.476   3.506   5.071
    1C        H  813   2.539   3.737   5.065
    1C        H  814   2.566   4.194   5.026
    1C        H  815   2.772   4.299   5.053
    1C        H  816   2.691   2.873   1.975
    1C        H  817   2.794   2.651   2.001
    1C        H  818   3.196   2.401   1.997
    1C        H  819   3.422   2.443   1.978
    1C        H  820   3.849   2.515   1.969
    1C        H  821   4.057   2.626   1.967
    1C        H  822   4.258   2.716   1.967
    1C        H  823   4.359   2.928   1.965
    1C        H  824   4.530   3.312   1.964
    1C        H  825   4.502   3.514   1.957
    1C        H  826   4.520   3.748   1.958
    1C        H  827   3.812   4.544   1.956
    1C        H  828   3.931   4.334   1.955
    1C        H  829   4.167   4.252   1.947
    1C        H  830   4.520   3.980   1.976
    1C        H  831   2.676   3.818   1.993
    1C        H  832   2.705   4.065   1.962
    1C        H  833   2.693   4.331   1.999
    1C        H  834   3.336   4.553   1.962
    1C        H  835   3.175   4.356   1.966
    1C        H  836   2.527   3.012   1.983
    1C        H  837   2.443   3.233   1.976
    1C        H  838   2.466   3.695   1.972
    2V3OU   H29  839   2.801   3.543   1.570
    2V3OU   C27  840   2.776   3.500   1.671
    2V3OU   H27  841   2.724   3.570   1.740
    2V3OU   H28  842   2.722   3.402   1.663
    2V3OU   O11  843   2.904   3.468   1.726
    2V3OU   C15  844   2.923   3.391   1.839
    2V3OU   C13  845   3.052   3.368   1.891
    2V3OU   C14  846   3.073   3.264   1.982
    2V3OU   C16  847   2.967   3.182   2.019
    2V3OU    H6  848   2.989   3.094   2.080
    2V3OU   C12  849   3.208   3.227   2.030
    2V3OU    O2  850   3.235   3.126   2.098
    2V3OU   C10  851   3.322   3.309   1.985
    2V3OU    C8  852   3.454   3.267   1.999
    2V3OU   O10  853   3.486   3.154   2.067
    2V3OU   H26  854   3.406   3.117   2.108
    2V3OU    C6  855   3.562   3.345   1.949
    2V3OU    C5  856   3.538   3.465   1.882
    2V3OU    C4  857   3.701   3.290   1.949
    2V3OU    H4  858   3.719   3.226   2.040
    2V3OU    H5  859   3.711   3.226   1.857
    2V3OU    C2  860   3.810   3.397   1.955
    2V3OU    O6  861   3.801   3.482   2.070
    2V3OU   H21  862   3.762   3.565   2.038
    2V3OU    C3  863   3.779   3.491   1.839
    2V3OU    H2  864   3.857   3.571   1.828
    2V3OU    H3  865   3.780   3.434   1.743
    2V3OU   C25  866   3.944   3.323   1.945
    2V3OU    O7  867   3.996   3.301   1.836
    2V3OU   C26  868   4.028   3.284   2.066
    2V3OU   H22  869   4.063   3.377   2.117
    2V3OU   H23  870   4.118   3.226   2.033
    2V3OU    O8  871   3.958   3.209   2.163
    2V3OU   H24  872   3.920   3.268   2.230
    2V3OU    C1  873   3.647   3.564   1.851
    2V3OU    H1  874   3.624   3.619   1.755
    2V3OU    O3  875   3.654   3.654   1.963
    2V3OU   C19  876   3.618   3.791   1.947
    2V3OU    H9  877   3.525   3.806   1.885
    2V3OU    O4  878   3.716   3.853   1.867
    2V3OU   C20  879   3.844   3.872   1.927
    2V3OU   H10  880   3.882   3.766   1.932
    2V3OU   C24  881   3.611   3.850   2.088
    2V3OU   H16  882   3.537   3.791   2.149
    2V3OU   H17  883   3.568   3.951   2.065
    2V3OU   C23  884   3.746   3.872   2.156
    2V3OU   H15  885   3.793   3.770   2.175
    2V3OU    N1  886   3.735   3.950   2.278
    2V3OU   H19  887   3.802   3.920   2.346
    2V3OU   H20  888   3.645   3.937   2.317
    2V3OU   C21  889   3.847   3.945   2.061
    2V3OU   H11  890   3.949   3.928   2.106
    2V3OU    O5  891   3.822   4.085   2.059
    2V3OU   H18  892   3.782   4.102   2.146
    2V3OU   C22  893   3.910   3.947   1.812
    2V3OU   H12  894   3.855   4.043   1.792
    2V3OU   H13  895   3.904   3.886   1.718
    2V3OU   H14  896   4.018   3.962   1.838
    2V3OU   C11  897   3.159   3.466   1.871
    2V3OU    O1  898   3.136   3.582   1.830
    2V3OU    C9  899   3.297   3.423   1.905
    2V3OU    C7  900   3.402   3.501   1.858
    2V3OU    O9  901   3.383   3.610   1.775
    2V3OU   H25  902   3.289   3.631   1.777
    2V3OU   C17  903   2.815   3.313   1.885
    2V3OU    H7  904   2.717   3.338   1.846
    2V3OU   C18  905   2.838   3.210   1.976
    2V3OU    H8  906   2.753   3.142   1.995
    3SOL     OW  907   2.157   4.075   0.981
    3SOL    HW1  908   2.108   3.989   0.965
    3SOL    HW2  909   2.245   4.072   0.933
    4SOL     OW  910   0.129   6.000   1.945
    4SOL    HW1  911   0.189   6.003   1.865
    4SOL    HW2  912   0.048   5.946   1.924
    5SOL     OW  913   3.849   1.519   1.924
    5SOL    HW1  914   3.867   1.492   1.829
    5SOL    HW2  915   3.810   1.611   1.926
    6SOL     OW  916   3.550   1.996   2.124
    6SOL    HW1  917   3.521   2.032   2.213
    6SOL    HW2  918   3.621   2.055   2.086
    7SOL     OW  919   6.251   2.365   2.045
    7SOL    HW1  920   6.238   2.268   2.022
    7SOL    HW2  921   6.178   2.419   2.005
    8SOL     OW  922   2.314   6.456   5.121
    8SOL    HW1  923   2.303   6.425   5.027
    8SOL    HW2  924   2.379   6.531   5.124
    9SOL     OW  925   1.429   5.690   5.816
    9SOL    HW1  926   1.418   5.657   5.910
    9SOL    HW2  927   1.415   5.614   5.753
   10SOL     OW  928   0.112   4.457   5.961
   10SOL    HW1  929   0.205   4.442   5.992
   10SOL    HW2  930   0.113   4.497   5.869
   11SOL     OW  931   3.072   0.121   0.426
   11SOL    HW1  932   3.134   0.062   0.373
   11SOL    HW2  933   2.981   0.080   0.426
   12SOL     OW  934   4.562   6.146   3.121
   12SOL    HW1  935   4.477   6.114   3.077
   12SOL    HW2  936   4.594   6.076   3.185
   13SOL     OW  937   3.433   6.190   4.341
   13SOL    HW1  938   3.361   6.215   4.277
   13SOL    HW2  939   3.472   6.102   4.314
   14SOL     OW  940   3.544   5.927   6.143
   14SOL    HW1  941   3.593   5.840   6.135
   14SOL    HW2  942   3.509   5.936   6.236
   15SOL     OW  943   1.588   5.963   0.241
   15SOL    HW1  944   1.621   5.893   0.178
   15SOL    HW2  945   1.625   5.944   0.333
   16SOL     OW  946   6.664   2.167   5.676
   16SOL    HW1  947   6.580   2.136   5.631
   16SOL    HW2  948   6.705   2.240   5.622
   17SOL     OW  949   5.032   5.960   4.446
   17SOL    HW1  950   4.987   6.004   4.369
   17SOL    HW2  951   4.964   5.924   4.510
   18SOL     OW  952   3.005   2.316   6.346
   18SOL    HW1  953   3.053   2.305   6.433
   18SOL    HW2  954   3.072   2.335   6.274
   19SOL     OW  955   0.345   0.130   3.223
   19SOL    HW1  956   0.316   0.102   3.132
   19SOL    HW2  957   0.292   0.080   3.292
   20SOL     OW  958   3.277   0.919   4.161
   20SOL    HW1  959   3.308   1.006   4.198
   20SOL    HW2  960   3.314   0.907   4.068
   21SOL     OW  961   3.018   1.867   2.482
   21SOL    HW1  962   3.118   1.859   2.474
   21SOL    HW2  963   2.975   1.781   2.454
   22SOL     OW  964   1.898   0.582   6.950
   22SOL    HW1  965   1.803   0.608   6.934
   22SOL    HW2  966   1.927   0.518   6.879
   23SOL     OW  967   4.687   6.918   3.546
   23SOL    HW1  968   4.611   6.969   3.508
   23SOL    HW2  969   4.736   6.976   3.612
   24SOL     OW  970   5.214   1.305   4.457
   24SOL    HW1  971   5.209   1.305   4.556
   24SOL    HW2  972   5.209   1.399   4.423
   25SOL     OW  973   2.958   5.902   6.448
   25SOL    HW1  974   3.039   5.883   6.392
   25SOL    HW2  975   2.957   5.842   6.527
   26SOL     OW  976   6.202   1.130   1.535
   26SOL    HW1  977   6.119   1.184   1.522
   26SOL    HW2  978   6.270   1.155   1.466
   27SOL     OW  979   6.993   0.586   2.265
   27SOL    HW1  980   6.989   0.488   2.248
   27SOL    HW2  981   6.980   0.635   2.179
   28SOL     OW  982   4.730   0.687   6.841
   28SOL    HW1  983   4.638   0.711   6.810
   28SOL    HW2  984   4.781   0.770   6.863
   29SOL     OW  985   5.098   2.508   2.232
   29SOL    HW1  986   5.194   2.535   2.240
   29SOL    HW2  987   5.065   2.528   2.140
   30SOL     OW  988   2.604   6.999   5.808
   30SOL    HW1  989   2.664   0.002   5.884
   30SOL    HW2  990   2.658   6.970   5.729
   31SOL     OW  991   0.683   1.111   5.647
   31SOL    HW1  992   0.666   1.197   5.598
   31SOL    HW2  993   0.777   1.082   5.631
   32SOL     OW  994   0.454   2.753   2.940
   32SOL    HW1  995   0.545   2.732   2.975
   32SOL    HW2  996   0.399   2.793   3.013
   33SOL     OW  997   1.934   2.783   6.213
   33SOL    HW1  998   1.885   2.843   6.150
   33SOL    HW2  999   1.996   2.839   6.270
   34SOL     OW 1000   1.886   0.347   4.829
   34SOL    HW1 1001   1.826   0.420   4.859
   34SOL    HW2 1002   1.836   0.286   4.767
   35SOL     OW 1003   4.390   2.597   6.168
   35SOL    HW1 1004   4.417   2.693   6.163
   35SOL    HW2 1005   4.471   2.540   6.177
   36SOL     OW 1006   0.602   0.608   6.253
   36SOL    HW1 1007   0.589   0.703   6.222
   36SOL    HW2 1008   0.609   0.548   6.173
   37SOL     OW 1009   2.312   6.558   0.769
   37SOL    HW1 1010   2.275   6.568   0.862
   37SOL    HW2 1011   2.409   6.582   0.769
   38SOL     OW 1012   0.218   6.001   3.026
   38SOL    HW1 1013   0.203   6.100   3.029
   38SOL    HW2 1014   0.205   5.969   2.932
   39SOL     OW 1015   6.356   4.164   6.331
   39SOL    HW1 1016   6.367   4.067   6.350
   39SOL    HW2 1017   6.401   4.217   6.403
   40SOL     OW 1018   6.637   2.407   2.308
   40SOL    HW1 1019   6.566   2.434   2.243
   40SOL    HW2 1020   6.669   2.487   2.358
   41SOL     OW 1021   1.575   6.410   4.138
   41SOL    HW1 1022   1.613   6.395   4.047
   41SOL    HW2 1023   1.475   6.403   4.133
   42SOL     OW 1024   2.906   6.779   5.847
   42SOL    HW1 1025   2.871   6.866   5.881
   42SOL    HW2 1026   3.002   6.769   5.873
   43SOL     OW 1027   5.937   5.735   6.201
   43SOL    HW1 1028   5.933   5.717   6.299
   43SOL    HW2 1029   6.022   5.698   6.164
   44SOL     OW 1030   6.818   2.621   6.443
   44SOL    HW1 1031   6.770   2.709   6.444
   44SOL    HW2 1032   6.751   2.547   6.435
   45SOL     OW 1033   3.631   0.205   2.817
   45SOL    HW1 1034   3.566   0.239   2.884
   45SOL    HW2 1035   3.661   0.113   2.843
   46SOL     OW 1036   0.858   3.503   4.455
   46SOL    HW1 1037   0.932   3.511   4.387
   46SOL    HW2 1038   0.819   3.593   4.471
   47SOL     OW 1039   6.398   3.177   3.899
   47SOL    HW1 1040   6.478   3.231   3.872
   47SOL    HW2 1041   6.392   3.096   3.841
   48SOL     OW 1042   0.941   2.224   5.267
   48SOL    HW1 1043   0.865   2.159   5.270
   48SOL    HW2 1044   0.971   2.236   5.173
   49SOL     OW 1045   4.795   4.024   1.789
   49SOL    HW1 1046   4.747   4.104   1.753
   49SOL    HW2 1047   4.834   4.046   1.878
   50SOL     OW 1048   6.848   3.049   4.748
   50SOL    HW1 1049   6.887   3.021   4.836
   50SOL    HW2 1050   6.781   3.122   4.762
   51SOL     OW 1051   2.907   5.606   2.718
   51SOL    HW1 1052   2.970   5.530   2.730
   51SOL    HW2 1053   2.900   5.628   2.620
   52SOL     OW 1054   3.686   1.661   3.420
   52SOL    HW1 1055   3.680   1.704   3.330
   52SOL    HW2 1056   3.758   1.707   3.473
   53SOL     OW 1057   4.508   0.605   3.634
   53SOL    HW1 1058   4.539   0.663   3.559
   53SOL    HW2 1059   4.584   0.551   3.668
   54SOL     OW 1060   2.692   5.075   6.319
   54SOL    HW1 1061   2.648   5.162   6.298
   54SOL    HW2 1062   2.754   5.050   6.244
   55SOL     OW 1063   3.778   1.402   6.188
   55SOL    HW1 1064   3.799   1.493   6.153
   55SOL    HW2 1065   3.683   1.399   6.219
   56SOL     OW 1066   1.944   0.470   1.622
   56SOL    HW1 1067   2.000   0.506   1.548
   56SOL    HW2 1068   1.849   0.498   1.609
   57SOL     OW 1069   4.958   0.305   0.786
   57SOL    HW1 1070   5.003   0.354   0.861
   57SOL    HW2 1071   5.016   0.307   0.705
   58SOL     OW 1072   0.387   5.606   6.572
   58SOL    HW1 1073   0.324   5.534   6.601
   58SOL    HW2 1074   0.480   5.584   6.602
   59SOL     OW 1075   1.640   1.018   6.261
   59SOL    HW1 1076   1.713   1.003   6.328
   59SOL    HW2 1077   1.679   1.059   6.179
   60SOL     OW 1078   5.048   0.729   6.006
   60SOL    HW1 1079   5.052   0.668   6.085
   60SOL    HW2 1080   5.078   0.821   6.034
   61SOL     OW 1081   4.909   0.981   4.082
   61SOL    HW1 1082   4.846   0.904   4.076
   61SOL    HW2 1083   4.949   0.998   3.992
   62SOL     OW 1084   0.585   1.120   3.592
   62SOL    HW1 1085   0.665   1.149   3.644
   62SOL    HW2 1086   0.552   1.197   3.537
   63SOL     OW 1087   6.584   1.809   3.823
   63SOL    HW1 1088   6.657   1.779   3.762
   63SOL    HW2 1089   6.553   1.731   3.879
   64SOL     OW 1090   6.653   3.784   6.529
   64SOL    HW1 1091   6.566   3.747   6.496
   64SOL    HW2 1092   6.690   3.723   6.599
   65SOL     OW 1093   6.343   4.109   5.588
   65SOL    HW1 1094   6.406   4.154   5.524
   65SOL    HW2 1095   6.314   4.175   5.657
   66SOL     OW 1096   3.289   0.900   6.652
   66SOL    HW1 1097   3.206   0.857   6.616
   66SOL    HW2 1098   3.280   0.914   6.750
   67SOL     OW 1099   5.576   5.975   5.438
   67SOL    HW1 1100   5.657   5.970   5.496
   67SOL    HW2 1101   5.600   5.947   5.345
   68SOL     OW 1102   6.004   1.112   6.673
   68SOL    HW1 1103   5.961   1.022   6.680
   68SOL    HW2 1104   6.079   1.118   6.739
   69SOL     OW 1105   1.419   4.168   6.186
   69SOL    HW1 1106   1.466   4.080   6.176
   69SOL    HW2 1107   1.413   4.213   6.097
   70SOL     OW 1108   6.669   5.627   3.067
   70SOL    HW1 1109   6.664   5.565   2.988
   70SOL    HW2 1110   6.635   5.717   3.041
   71SOL     OW 1111   2.879   2.217   3.048
   71SOL    HW1 1112   2.852   2.296   3.104
   71SOL    HW2 1113   2.881   2.244   2.952
   72SOL     OW 1114   2.526   6.096   4.519
   72SOL    HW1 1115   2.586   6.019   4.540
   72SOL    HW2 1116   2.512   6.152   4.601
   73SOL     OW 1117   3.309   2.192   6.983
   73SOL    HW1 1118   3.313   2.245   6.899
   73SOL    HW2 1119   3.231   2.223   0.020
   74SOL     OW 1120   5.159   6.755   0.382
   74SOL    HW1 1121   5.250   6.754   0.340
   74SOL    HW2 1122   5.102   6.685   0.340
   75SOL     OW 1123   3.430   5.328   5.341
   75SOL    HW1 1124   3.438   5.403   5.275
   75SOL    HW2 1125   3.475   5.353   5.426
   76SOL     OW 1126   2.009   2.600   1.543
   76SOL    HW1 1127   2.070   2.521   1.534
   76SOL    HW2 1128   1.915   2.572   1.526
   77SOL     OW 1129   4.986   5.432   4.594
   77SOL    HW1 1130   4.933   5.373   4.532
   77SOL    HW2 1131   5.030   5.375   4.663
   78SOL     OW 1132   0.049   6.743   6.469
   78SOL    HW1 1133   0.017   6.828   6.425
   78SOL    HW2 1134   0.146   6.752   6.491
   79SOL     OW 1135   2.892   6.932   0.312
   79SOL    HW1 1136   2.941   6.864   0.367
   79SOL    HW2 1137   2.846   6.887   0.236
   80SOL     OW 1138   6.276   0.592   4.475
   80SOL    HW1 1139   6.223   0.564   4.395
   80SOL    HW2 1140   6.367   0.622   4.446
   81SOL     OW 1141   2.328   0.325   2.803
   81SOL    HW1 1142   2.314   0.316   2.901
   81SOL    HW2 1143   2.320   0.235   2.759
   82SOL     OW 1144   6.911   5.467   0.266
   82SOL    HW1 1145   6.998   5.451   0.218
   82SOL    HW2 1146   6.930   5.492   0.361
   83SOL     OW 1147   6.477   0.060   0.770
   83SOL    HW1 1148   6.516   7.007   0.828
   83SOL    HW2 1149   6.548   0.125   0.744
   84SOL     OW 1150   4.889   3.436   2.972
   84SOL    HW1 1151   4.888   3.357   2.911
   84SOL    HW2 1152   4.904   3.405   3.066
   85SOL     OW 1153   0.551   1.308   5.240
   85SOL    HW1 1154   0.508   1.339   5.155
   85SOL    HW2 1155   0.635   1.359   5.256
   86SOL     OW 1156   1.001   0.240   5.824
   86SOL    HW1 1157   1.018   0.144   5.846
   86SOL    HW2 1158   1.034   0.259   5.731
   87SOL     OW 1159   4.714   2.693   0.502
   87SOL    HW1 1160   4.621   2.656   0.505
   87SOL    HW2 1161   4.730   2.736   0.413
   88SOL     OW 1162   4.791   1.905   0.442
   88SOL    HW1 1163   4.882   1.947   0.444
   88SOL    HW2 1164   4.734   1.954   0.376
   89SOL     OW 1165   1.834   2.770   6.893
   89SOL    HW1 1166   1.868   2.769   6.987
   89SOL    HW2 1167   1.902   2.728   6.833
   90SOL     OW 1168   4.992   0.057   3.957
   90SOL    HW1 1169   4.979   6.989   4.005
   90SOL    HW2 1170   4.919   0.069   3.889
   91SOL     OW 1171   5.019   4.799   4.087
   91SOL    HW1 1172   4.955   4.801   4.164
   91SOL    HW2 1173   4.992   4.868   4.020
   92SOL     OW 1174   2.898   5.090   0.299
   92SOL    HW1 1175   2.956   5.107   0.379
   92SOL    HW2 1176   2.954   5.061   0.222
   93SOL     OW 1177   2.537   4.348   6.252
   93SOL    HW1 1178   2.564   4.439   6.285
   93SOL    HW2 1179   2.597   4.321   6.176
   94SOL     OW 1180   2.765   5.572   6.685
   94SOL    HW1 1181   2.852   5.588   6.638
   94SOL    HW2 1182   2.692   5.618   6.634
   95SOL     OW 1183   0.517   2.225   3.542
   95SOL    HW1 1184   0.453   2.174   3.484
   95SOL    HW2 1185   0.478   2.236   3.633
   96SOL     OW 1186   2.671   0.246   6.012
   96SOL    HW1 1187   2.715   0.173   5.961
   96SOL    HW2 1188   2.697   0.334   5.973
   97SOL     OW 1189   0.055   4.065   5.262
   97SOL    HW1 1190   0.006   4.110   5.187
   97SOL    HW2 1191   0.088   3.975   5.231
   98SOL     OW 1192   5.864   3.599   6.712
   98SOL    HW1 1193   5.936   3.668   6.701
   98SOL    HW2 1194   5.865   3.537   6.633
   99SOL     OW 1195   4.370   3.594   1.393
   99SOL    HW1 1196   4.413   3.516   1.348
   99SOL    HW2 1197   4.353   3.572   1.489
  100SOL     OW 1198   0.633   6.833   6.367
  100SOL    HW1 1199   0.656   6.785   6.452
  100SOL    HW2 1200   0.639   6.932   6.381
  101SOL     OW 1201   0.783   5.611   2.396
  101SOL    HW1 1202   0.841   5.642   2.472
  101SOL    HW2 1203   0.687   5.623   2.420
  102SOL     OW 1204   4.594   1.289   2.784
  102SOL    HW1 1205   4.576   1.375   2.737
  102SOL    HW2 1206   4.578   1.299   2.882
  103SOL     OW 1207   4.174   1.667   1.757
  103SOL    HW1 1208   4.094   1.615   1.728
  103SOL    HW2 1209   4.257   1.628   1.716
  104SOL     OW 1210   0.105   5.736   2.550
  104SOL    HW1 1211   0.137   5.641   2.557
  104SOL    HW2 1212   0.105   5.765   2.455
  105SOL     OW 1213   6.160   1.529   6.602
  105SOL    HW1 1214   6.144   1.597   6.530
  105SOL    HW2 1215   6.174   1.576   6.689
  106SOL     OW 1216   3.404   0.023   5.908
  106SOL    HW1 1217   3.309   0.053   5.900
  106SOL    HW2 1218   3.430   0.020   6.004
  107SOL     OW 1219   1.536   2.308   1.833
  107SOL    HW1 1220   1.526   2.407   1.843
  107SOL    HW2 1221   1.633   2.284   1.845
  108SOL     OW 1222   5.123   4.608   0.091
  108SOL    HW1 1223   5.086   4.530   0.040
  108SOL    HW2 1224   5.050   4.676   0.103
  109SOL     OW 1225   0.481   0.262   1.014
  109SOL    HW1 1226   0.504   0.233   0.921
  109SOL    HW2 1227   0.563   0.296   1.060
  110SOL     OW 1228   4.179   6.350   5.416
  110SOL    HW1 1229   4.240   6.367   5.339
  110SOL    HW2 1230   4.105   6.417   5.416
  111SOL     OW 1231   3.866   0.688   4.120
  111SOL    HW1 1232   3.939   0.670   4.187
  111SOL    HW2 1233   3.863   0.612   4.055
  112SOL     OW 1234   6.098   5.953   6.232
  112SOL    HW1 1235   6.110   5.983   6.327
  112SOL    HW2 1236   6.029   5.881   6.228
  113SOL     OW 1237   6.816   4.499   3.184
  113SOL    HW1 1238   6.831   4.454   3.272
  113SOL    HW2 1239   6.753   4.446   3.129
  114SOL     OW 1240   0.881   0.214   0.626
  114SOL    HW1 1241   0.815   0.159   0.677
  114SOL    HW2 1242   0.960   0.234   0.685
  115SOL     OW 1243   4.333   1.354   4.346
  115SOL    HW1 1244   4.353   1.257   4.363
  115SOL    HW2 1245   4.257   1.361   4.281
  116SOL     OW 1246   6.201   5.385   2.207
  116SOL    HW1 1247   6.165   5.328   2.133
  116SOL    HW2 1248   6.295   5.359   2.227
  117SOL     OW 1249   0.504   1.512   6.408
  117SOL    HW1 1250   0.454   1.459   6.341
  117SOL    HW2 1251   0.595   1.534   6.372
  118SOL     OW 1252   0.267   1.642   2.205
  118SOL    HW1 1253   0.208   1.655   2.126
  118SOL    HW2 1254   0.362   1.655   2.178
  119SOL     OW 1255   0.778   2.454   6.687
  119SOL    HW1 1256   0.767   2.355   6.682
  119SOL    HW2 1257   0.814   2.480   6.776
  120SOL     OW 1258   6.986   6.644   0.963
  120SOL    HW1 1259   6.931   6.721   0.997
  120SOL    HW2 1260   6.989   6.573   1.033
  121SOL     OW 1261   2.616   3.608   0.214
  121SOL    HW1 1262   2.587   3.601   0.119
  121SOL    HW2 1263   2.651   3.699   0.232
  122SOL     OW 1264   1.372   4.304   5.951
  122SOL    HW1 1265   1.395   4.394   5.988
  122SOL    HW2 1266   1.331   4.314   5.860
  123SOL     OW 1267   0.466   1.806   1.645
  123SOL    HW1 1268   0.500   1.721   1.686
  123SOL    HW2 1269   0.544   1.865   1.623
  124SOL     OW 1270   5.395   3.419   0.232
  124SOL    HW1 1271   5.406   3.504   0.284
  124SOL    HW2 1272   5.463   3.415   0.160
  125SOL     OW 1273   2.343   1.647   2.837
  125SOL    HW1 1274   2.293   1.564   2.862
  125SOL    HW2 1275   2.404   1.627   2.760
  126SOL     OW 1276   2.825   4.926   0.913
  126SOL    HW1 1277   2.900   4.860   0.917
  126SOL    HW2 1278   2.755   4.900   0.980
  127SOL     OW 1279   0.178   4.839   6.234
  127SOL    HW1 1280   0.099   4.796   6.190
  127SOL    HW2 1281   0.253   4.774   6.238
  128SOL     OW 1282   4.279   2.822   1.628
  128SOL    HW1 1283   4.377   2.809   1.639
  128SOL    HW2 1284   4.247   2.774   1.546
  129SOL     OW 1285   4.270   3.779   5.731
  129SOL    HW1 1286   4.309   3.697   5.773
  129SOL    HW2 1287   4.171   3.776   5.736
  130SOL     OW 1288   0.664   0.769   4.304
  130SOL    HW1 1289   0.565   0.758   4.299
  130SOL    HW2 1290   0.708   0.681   4.289
  131SOL     OW 1291   4.850   0.925   2.350
  131SOL    HW1 1292   4.861   0.838   2.398
  131SOL    HW2 1293   4.874   1.001   2.411
  132SOL     OW 1294   1.836   3.225   0.646
  132SOL    HW1 1295   1.753   3.237   0.701
  132SOL    HW2 1296   1.834   3.288   0.568
  133SOL     OW 1297   5.591   6.823   3.376
  133SOL    HW1 1298   5.680   6.842   3.336
  133SOL    HW2 1299   5.524   6.808   3.304
  134SOL     OW 1300   5.902   2.649   2.975
  134SOL    HW1 1301   5.887   2.568   2.918
  134SOL    HW2 1302   5.817   2.702   2.980
  135SOL     OW 1303   5.237   2.413   2.651
  135SOL    HW1 1304   5.214   2.368   2.737
  135SOL    HW2 1305   5.239   2.512   2.665
  136SOL     OW 1306   4.499   4.133   0.073
  136SOL    HW1 1307   4.515   4.035   0.069
  136SOL    HW2 1308   4.414   4.152   0.122
  137SOL     OW 1309   4.052   0.303   5.472
  137SOL    HW1 1310   4.058   0.317   5.571
  137SOL    HW2 1311   4.116   0.230   5.445
  138SOL     OW 1312   0.499   4.868   4.424
  138SOL    HW1 1313   0.472   4.943   4.485
  138SOL    HW2 1314   0.557   4.804   4.474
  139SOL     OW 1315   2.314   6.012   5.140
  139SOL    HW1 1316   2.333   6.022   5.043
  139SOL    HW2 1317   2.298   5.916   5.162
  140SOL     OW 1318   6.821   5.696   4.175
  140SOL    HW1 1319   6.844   5.604   4.143
  140SOL    HW2 1320   6.854   5.708   4.269
  141SOL     OW 1321   0.177   1.890   5.319
  141SOL    HW1 1322   0.151   1.984   5.341
  141SOL    HW2 1323   0.113   1.852   5.252
  142SOL     OW 1324   2.078   6.068   1.048
  142SOL    HW1 1325   2.013   6.139   1.023
  142SOL    HW2 1326   2.105   6.018   0.966
  143SOL     OW 1327   5.502   4.666   2.153
  143SOL    HW1 1328   5.447   4.684   2.234
  143SOL    HW2 1329   5.449   4.610   2.089
  144SOL     OW 1330   1.893   6.566   6.176
  144SOL    HW1 1331   1.966   6.620   6.135
  144SOL    HW2 1332   1.805   6.599   6.144
  145SOL     OW 1333   1.027   4.967   0.809
  145SOL    HW1 1334   1.018   5.016   0.722
  145SOL    HW2 1335   0.940   4.926   0.834
  146SOL     OW 1336   4.281   6.560   6.187
  146SOL    HW1 1337   4.186   6.566   6.216
  146SOL    HW2 1338   4.341   6.589   6.262
  147SOL     OW 1339   6.191   2.666   0.320
  147SOL    HW1 1340   6.202   2.761   0.349
  147SOL    HW2 1341   6.258   2.644   0.249
  148SOL     OW 1342   0.352   4.921   5.801
  148SOL    HW1 1343   0.337   4.850   5.871
  148SOL    HW2 1344   0.291   4.903   5.723
  149SOL     OW 1345   2.991   1.308   4.060
  149SOL    HW1 1346   3.017   1.213   4.076
  149SOL    HW2 1347   3.071   1.367   4.068
  150SOL     OW 1348   6.437   5.058   6.169
  150SOL    HW1 1349   6.486   5.017   6.092
  150SOL    HW2 1350   6.402   5.147   6.142
  151SOL     OW 1351   3.621   2.373   1.307
  151SOL    HW1 1352   3.573   2.300   1.260
  151SOL    HW2 1353   3.702   2.336   1.353
  152SOL     OW 1354   1.776   0.989   4.427
  152SOL    HW1 1355   1.714   1.055   4.385
  152SOL    HW2 1356   1.806   1.023   4.516
  153SOL     OW 1357   2.821   7.001   1.888
  153SOL    HW1 1358   2.739   6.993   1.944
  153SOL    HW2 1359   2.845   0.079   1.877
  154SOL     OW 1360   0.079   3.129   2.374
  154SOL    HW1 1361   0.133   3.183   2.308
  154SOL    HW2 1362   7.001   3.133   2.349
  155SOL     OW 1363   0.415   1.557   3.514
  155SOL    HW1 1364   0.330   1.601   3.482
  155SOL    HW2 1365   0.489   1.579   3.451
  156SOL     OW 1366   6.752   1.578   1.491
  156SOL    HW1 1367   6.702   1.513   1.549
  156SOL    HW2 1368   6.845   1.589   1.525
  157SOL     OW 1369   5.928   3.245   1.975
  157SOL    HW1 1370   5.932   3.191   1.890
  157SOL    HW2 1371   6.020   3.264   2.007
  158SOL     OW 1372   2.815   0.154   2.159
  158SOL    HW1 1373   2.875   0.083   2.195
  158SOL    HW2 1374   2.864   0.209   2.092
  159SOL     OW 1375   4.769   4.705   1.074
  159SOL    HW1 1376   4.757   4.688   0.976
  159SOL    HW2 1377   4.679   4.718   1.116
  160SOL     OW 1378   6.739   4.760   6.395
  160SOL    HW1 1379   6.804   4.797   6.329
  160SOL    HW2 1380   6.650   4.805   6.383
  161SOL     OW 1381   1.726   4.756   4.689
  161SOL    HW1 1382   1.701   4.835   4.744
  161SOL    HW2 1383   1.642   4.712   4.655
  162SOL     OW 1384   4.120   6.527   0.464
  162SOL    HW1 1385   4.209   6.573   0.460
  162SOL    HW2 1386   4.128   6.436   0.424
  163SOL     OW 1387   4.510   5.798   1.457
  163SOL    HW1 1388   4.544   5.776   1.549
  163SOL    HW2 1389   4.587   5.815   1.396
  164SOL     OW 1390   6.793   3.796   1.498
  164SOL    HW1 1391   6.868   3.858   1.523
  164SOL    HW2 1392   6.795   3.716   1.558
  165SOL     OW 1393   5.115   3.166   1.289
  165SOL    HW1 1394   5.056   3.086   1.302
  165SOL    HW2 1395   5.153   3.164   1.196
  166SOL     OW 1396   6.943   5.033   3.670
  166SOL    HW1 1397   6.939   4.960   3.738
  166SOL    HW2 1398   6.859   5.088   3.674
  167SOL     OW 1399   6.084   1.944   0.585
  167SOL    HW1 1400   6.127   1.895   0.661
  167SOL    HW2 1401   5.998   1.983   0.615
  168SOL     OW 1402   2.750   3.840   0.745
  168SOL    HW1 1403   2.703   3.928   0.754
  168SOL    HW2 1404   2.846   3.851   0.772
  169SOL     OW 1405   3.728   0.099   1.932
  169SOL    HW1 1406   3.647   0.079   1.876
  169SOL    HW2 1407   3.714   0.186   1.979
  170SOL     OW 1408   0.510   1.862   3.982
  170SOL    HW1 1409   0.492   1.894   4.075
  170SOL    HW2 1410   0.497   1.763   3.978
  171SOL     OW 1411   3.489   4.098   0.147
  171SOL    HW1 1412   3.483   4.193   0.117
  171SOL    HW2 1413   3.575   4.085   0.196
  172SOL     OW 1414   5.811   1.339   4.395
  172SOL    HW1 1415   5.782   1.320   4.301
  172SOL    HW2 1416   5.783   1.431   4.421
  173SOL     OW 1417   6.452   0.363   4.548
  173SOL    HW1 1418   6.440   0.456   4.583
  173SOL    HW2 1419   6.491   0.305   4.619
  174SOL     OW 1420   2.775   5.465   3.568
  174SOL    HW1 1421   2.784   5.466   3.668
  174SOL    HW2 1422   2.781   5.558   3.533
  175SOL     OW 1423   2.114   0.044   1.793
  175SOL    HW1 1424   2.148   0.059   1.886
  175SOL    HW2 1425   2.041   6.994   1.795
  176SOL     OW 1426   1.878   3.932   0.761
  176SOL    HW1 1427   1.940   3.910   0.836
  176SOL    HW2 1428   1.931   3.951   0.678
  177SOL     OW 1429   5.508   2.775   2.882
  177SOL    HW1 1430   5.558   2.738   2.803
  177SOL    HW2 1431   5.471   2.865   2.859
  178SOL     OW 1432   4.800   3.543   6.150
  178SOL    HW1 1433   4.878   3.580   6.100
  178SOL    HW2 1434   4.751   3.617   6.195
  179SOL     OW 1435   2.811   1.510   6.295
  179SOL    HW1 1436   2.768   1.595   6.265
  179SOL    HW2 1437   2.883   1.531   6.362
  180SOL     OW 1438   1.257   1.037   6.517
  180SOL    HW1 1439   1.327   0.991   6.462
  180SOL    HW2 1440   1.209   0.969   6.573
  181SOL     OW 1441   3.463   1.433   0.013
  181SOL    HW1 1442   3.456   1.459   6.936
  181SOL    HW2 1443   3.383   1.379   0.040
  182SOL     OW 1444   4.169   2.260   4.547
  182SOL    HW1 1445   4.245   2.264   4.611
  182SOL    HW2 1446   4.176   2.336   4.482
  183SOL     OW 1447   3.577   0.871   2.766
  183SOL    HW1 1448   3.521   0.947   2.800
  183SOL    HW2 1449   3.539   0.785   2.800
  184SOL     OW 1450   1.473   5.620   3.729
  184SOL    HW1 1451   1.497   5.661   3.641
  184SOL    HW2 1452   1.439   5.691   3.790
  185SOL     OW 1453   1.592   2.539   6.231
  185SOL    HW1 1454   1.648   2.555   6.149
  185SOL    HW2 1455   1.577   2.441   6.243
  186SOL     OW 1456   6.702   0.737   3.535
  186SOL    HW1 1457   6.773   0.794   3.575
  186SOL    HW2 1458   6.718   0.641   3.560
  187SOL     OW 1459   5.137   1.223   3.159
  187SOL    HW1 1460   5.127   1.167   3.241
  187SOL    HW2 1461   5.212   1.187   3.103
  188SOL     OW 1462   6.141   2.532   3.060
  188SOL    HW1 1463   6.058   2.556   3.009
  188SOL    HW2 1464   6.168   2.608   3.118
  189SOL     OW 1465   1.661   5.220   2.800
  189SOL    HW1 1466   1.708   5.253   2.882
  189SOL    HW2 1467   1.635   5.298   2.742
  190SOL     OW 1468   3.730   1.339   5.288
  190SOL    HW1 1469   3.706   1.402   5.362
  190SOL    HW2 1470   3.655   1.336   5.222
  191SOL     OW 1471   5.814   5.415   6.553
  191SOL    HW1 1472   5.800   5.428   6.651
  191SOL    HW2 1473   5.852   5.325   6.536
  192SOL     OW 1474   0.293   6.520   2.032
  192SOL    HW1 1475   0.339   6.443   1.988
  192SOL    HW2 1476   0.234   6.566   1.966
  193SOL     OW 1477   5.056   2.541   6.060
  193SOL    HW1 1478   5.154   2.553   6.071
  193SOL    HW2 1479   5.018   2.619   6.010
  194SOL     OW 1480   3.607   0.880   3.107
  194SOL    HW1 1481   3.700   0.843   3.105
  194SOL    HW2 1482   3.584   0.918   3.018
  195SOL     OW 1483   1.590   6.181   3.901
  195SOL    HW1 1484   1.573   6.125   3.981
  195SOL    HW2 1485   1.521   6.161   3.831
  196SOL     OW 1486   2.638   2.623   0.007
  196SOL    HW1 1487   2.715   2.677   6.992
  196SOL    HW2 1488   2.565   2.623   6.957
  197SOL     OW 1489   2.405   1.660   1.309
  197SOL    HW1 1490   2.494   1.704   1.297
  197SOL    HW2 1491   2.415   1.583   1.372
  198SOL     OW 1492   4.386   0.951   2.974
  198SOL    HW1 1493   4.352   1.044   2.965
  198SOL    HW2 1494   4.486   0.951   2.969
  199SOL     OW 1495   1.533   2.649   3.945
  199SOL    HW1 1496   1.540   2.603   3.857
  199SOL    HW2 1497   1.436   2.662   3.969
  200SOL     OW 1498   0.523   2.702   1.150
  200SOL    HW1 1499   0.592   2.694   1.223
  200SOL    HW2 1500   0.556   2.765   1.080
  201SOL     OW 1501   0.373   0.265   6.265
  201SOL    HW1 1502   0.377   0.347   6.321
  201SOL    HW2 1503   0.466   0.235   6.243
  202SOL     OW 1504   4.610   0.955   6.513
  202SOL    HW1 1505   4.523   0.951   6.561
  202SOL    HW2 1506   4.617   0.877   6.450
  203SOL     OW 1507   6.209   2.478   5.551
  203SOL    HW1 1508   6.244   2.410   5.615
  203SOL    HW2 1509   6.178   2.432   5.467
  204SOL     OW 1510   0.630   0.177   5.652
  204SOL    HW1 1511   0.704   0.126   5.697
  204SOL    HW2 1512   0.663   0.212   5.564
  205SOL     OW 1513   1.564   2.178   3.033
  205SOL    HW1 1514   1.593   2.083   3.023
  205SOL    HW2 1515   1.464   2.183   3.037
  206SOL     OW 1516   0.524   3.342   1.645
  206SOL    HW1 1517   0.523   3.311   1.740
  206SOL    HW2 1518   0.482   3.273   1.587
  207SOL     OW 1519   5.493   1.364   2.899
  207SOL    HW1 1520   5.500   1.431   2.973
  207SOL    HW2 1521   5.425   1.394   2.833
  208SOL     OW 1522   6.828   4.325   5.517
  208SOL    HW1 1523   6.897   4.254   5.502
  208SOL    HW2 1524   6.819   4.342   5.615
  209SOL     OW 1525   6.533   4.517   2.412
  209SOL    HW1 1526   6.578   4.437   2.452
  209SOL    HW2 1527   6.443   4.529   2.453
  210SOL     OW 1528   4.213   2.026   0.338
  210SOL    HW1 1529   4.180   2.032   0.432
  210SOL    HW2 1530   4.272   2.104   0.318
  211SOL     OW 1531   1.155   0.051   2.628
  211SOL    HW1 1532   1.227   0.038   2.696
  211SOL    HW2 1533   1.074   7.016   2.655
  212SOL     OW 1534   1.447   3.921   2.647
  212SOL    HW1 1535   1.419   4.012   2.616
  212SOL    HW2 1536   1.540   3.902   2.614
  213SOL     OW 1537   1.952   5.792   0.630
  213SOL    HW1 1538   1.963   5.824   0.536
  213SOL    HW2 1539   2.017   5.840   0.689
  214SOL     OW 1540   3.888   5.385   2.300
  214SOL    HW1 1541   3.865   5.421   2.210
  214SOL    HW2 1542   3.855   5.290   2.308
  215SOL     OW 1543   2.519   4.349   1.177
  215SOL    HW1 1544   2.525   4.432   1.121
  215SOL    HW2 1545   2.446   4.358   1.244
  216SOL     OW 1546   0.988   0.468   2.579
  216SOL    HW1 1547   0.897   0.483   2.539
  216SOL    HW2 1548   1.016   0.373   2.566
  217SOL     OW 1549   1.333   2.562   5.299
  217SOL    HW1 1550   1.345   2.505   5.380
  217SOL    HW2 1551   1.422   2.580   5.257
  218SOL     OW 1552   1.049   1.951   4.724
  218SOL    HW1 1553   1.100   2.013   4.664
  218SOL    HW2 1554   1.038   1.862   4.679
  219SOL     OW 1555   4.494   0.721   0.599
  219SOL    HW1 1556   4.428   0.679   0.661
  219SOL    HW2 1557   4.447   0.753   0.517
  220SOL     OW 1558   2.704   0.402   0.810
  220SOL    HW1 1559   2.721   0.304   0.824
  220SOL    HW2 1560   2.777   0.455   0.854
  221SOL     OW 1561   6.004   4.775   1.388
  221SOL    HW1 1562   5.972   4.749   1.297
  221SOL    HW2 1563   6.060   4.702   1.426
  222SOL     OW 1564   1.359   4.353   6.609
  222SOL    HW1 1565   1.344   4.447   6.640
  222SOL    HW2 1566   1.351   4.291   6.687
  223SOL     OW 1567   0.353   2.653   4.910
  223SOL    HW1 1568   0.253   2.643   4.903
  223SOL    HW2 1569   0.383   2.725   4.848
  224SOL     OW 1570   3.568   2.087   5.943
  224SOL    HW1 1571   3.655   2.040   5.929
  224SOL    HW2 1572   3.496   2.019   5.958
  225SOL     OW 1573   4.245   3.393   5.767
  225SOL    HW1 1574   4.188   3.342   5.832
  225SOL    HW2 1575   4.297   3.462   5.816
  226SOL     OW 1576   0.847   1.683   6.174
  226SOL    HW1 1577   0.914   1.643   6.236
  226SOL    HW2 1578   0.764   1.628   6.173
  227SOL     OW 1579   2.414   4.558   2.732
  227SOL    HW1 1580   2.385   4.463   2.746
  227SOL    HW2 1581   2.492   4.578   2.790
  228SOL     OW 1582   2.240   0.921   3.185
  228SOL    HW1 1583   2.222   0.997   3.122
  228SOL    HW2 1584   2.153   0.893   3.227
  229SOL     OW 1585   5.223   4.937   6.478
  229SOL    HW1 1586   5.284   5.000   6.528
  229SOL    HW2 1587   5.190   4.982   6.395
  230SOL     OW 1588   4.330   6.203   4.866
  230SOL    HW1 1589   4.247   6.187   4.812
  230SOL    HW2 1590   4.408   6.215   4.805
  231SOL     OW 1591   5.475   1.471   6.676
  231SOL    HW1 1592   5.510   1.494   6.766
  231SOL    HW2 1593   5.464   1.554   6.621
  232SOL     OW 1594   6.842   3.059   6.404
  232SOL    HW1 1595   6.795   2.979   6.440
  232SOL    HW2 1596   6.778   3.136   6.402
  233SOL     OW 1597   3.358   2.107   3.557
  233SOL    HW1 1598   3.261   2.082   3.548
  233SOL    HW2 1599   3.400   2.111   3.467
  234SOL     OW 1600   6.005   0.862   6.325
  234SOL    HW1 1601   6.032   0.952   6.293
  234SOL    HW2 1602   6.030   0.793   6.257
  235SOL     OW 1603   5.297   3.314   2.364
  235SOL    HW1 1604   5.235   3.349   2.293
  235SOL    HW2 1605   5.392   3.330   2.337
  236SOL     OW 1606   5.025   3.272   7.000
  236SOL    HW1 1607   5.069   3.200   0.035
  236SOL    HW2 1608   5.040   3.360   0.026
  237SOL     OW 1609   0.164   4.439   2.020
  237SOL    HW1 1610   0.131   4.348   1.999
  237SOL    HW2 1611   0.254   4.432   2.065
  238SOL     OW 1612   6.482   1.192   0.717
  238SOL    HW1 1613   6.389   1.188   0.681
  238SOL    HW2 1614   6.499   1.114   0.776
  239SOL     OW 1615   0.766   3.988   0.464
  239SOL    HW1 1616   0.810   4.042   0.392
  239SOL    HW2 1617   0.820   3.995   0.548
  240SOL     OW 1618   0.385   2.894   3.441
  240SOL    HW1 1619   0.353   2.988   3.451
  240SOL    HW2 1620   0.410   2.858   3.531
  241SOL     OW 1621   2.521   2.563   4.328
  241SOL    HW1 1622   2.602   2.536   4.276
  241SOL    HW2 1623   2.467   2.628   4.275
  242SOL     OW 1624   3.375   3.737   3.267
  242SOL    HW1 1625   3.286   3.725   3.312
  242SOL    HW2 1626   3.382   3.830   3.232
  243SOL     OW 1627   4.546   2.047   6.976
  243SOL    HW1 1628   4.472   1.981   6.979
  243SOL    HW2 1629   4.632   1.999   6.957
  244SOL     OW 1630   5.937   3.579   6.202
  244SOL    HW1 1631   5.863   3.622   6.149
  244SOL    HW2 1632   6.025   3.600   6.160
  245SOL     OW 1633   4.122   1.896   3.938
  245SOL    HW1 1634   4.216   1.871   3.914
  245SOL    HW2 1635   4.103   1.988   3.904
  246SOL     OW 1636   4.992   1.952   3.134
  246SOL    HW1 1637   5.022   1.878   3.074
  246SOL    HW2 1638   4.965   2.031   3.079
  247SOL     OW 1639   2.743   1.872   0.884
  247SOL    HW1 1640   2.700   1.899   0.798
  247SOL    HW2 1641   2.766   1.775   0.882
  248SOL     OW 1642   2.101   0.795   2.806
  248SOL    HW1 1643   2.018   0.770   2.756
  248SOL    HW2 1644   2.119   0.893   2.795
  249SOL     OW 1645   5.027   6.832   5.229
  249SOL    HW1 1646   5.121   6.853   5.253
  249SOL    HW2 1647   4.975   6.809   5.312
  250SOL     OW 1648   4.078   3.599   0.921
  250SOL    HW1 1649   4.000   3.579   0.862
  250SOL    HW2 1650   4.052   3.584   1.017
  251SOL     OW 1651   4.684   3.296   5.300
  251SOL    HW1 1652   4.599   3.244   5.311
  251SOL    HW2 1653   4.665   3.383   5.255
  252SOL     OW 1654   6.063   0.036   5.535
  252SOL    HW1 1655   6.114   6.978   5.496
  252SOL    HW2 1656   5.986   0.059   5.476
  253SOL     OW 1657   3.693   4.925   6.109
  253SOL    HW1 1658   3.718   4.904   6.204
  253SOL    HW2 1659   3.727   5.017   6.086
  254SOL     OW 1660   6.793   2.078   3.673
  254SOL    HW1 1661   6.693   2.081   3.661
  254SOL    HW2 1662   6.816   2.112   3.764
  255SOL     OW 1663   1.524   4.545   5.969
  255SOL    HW1 1664   1.533   4.590   5.881
  255SOL    HW2 1665   1.596   4.475   5.979
  256SOL     OW 1666   5.559   3.282   5.997
  256SOL    HW1 1667   5.582   3.284   6.094
  256SOL    HW2 1668   5.603   3.359   5.950
  257SOL     OW 1669   5.411   6.776   2.807
  257SOL    HW1 1670   5.382   6.684   2.781
  257SOL    HW2 1671   5.459   6.818   2.730
  258SOL     OW 1672   2.545   3.867   5.602
  258SOL    HW1 1673   2.554   3.767   5.605
  258SOL    HW2 1674   2.577   3.900   5.514
  259SOL     OW 1675   5.647   1.080   1.886
  259SOL    HW1 1676   5.588   1.083   1.966
  259SOL    HW2 1677   5.591   1.087   1.803
  260SOL     OW 1678   3.786   5.478   3.169
  260SOL    HW1 1679   3.882   5.457   3.152
  260SOL    HW2 1680   3.751   5.535   3.095
  261SOL     OW 1681   5.596   4.479   1.487
  261SOL    HW1 1682   5.645   4.492   1.402
  261SOL    HW2 1683   5.563   4.385   1.493
  262SOL     OW 1684   1.628   4.045   0.834
  262SOL    HW1 1685   1.704   3.983   0.815
  262SOL    HW2 1686   1.565   4.000   0.898
  263SOL     OW 1687   1.502   0.615   4.434
  263SOL    HW1 1688   1.481   0.529   4.387
  263SOL    HW2 1689   1.577   0.601   4.498
  264SOL     OW 1690   6.423   2.656   0.624
  264SOL    HW1 1691   6.339   2.630   0.575
  264SOL    HW2 1692   6.455   2.744   0.590
  265SOL     OW 1693   6.150   6.389   2.810
  265SOL    HW1 1694   6.244   6.355   2.815
  265SOL    HW2 1695   6.100   6.339   2.739
  266SOL     OW 1696   4.699   2.780   5.862
  266SOL    HW1 1697   4.624   2.717   5.843
  266SOL    HW2 1698   4.663   2.872   5.876
  267SOL     OW 1699   1.004   1.382   5.224
  267SOL    HW1 1700   1.019   1.366   5.126
  267SOL    HW2 1701   0.935   1.454   5.236
  268SOL     OW 1702   3.000   1.111   6.256
  268SOL    HW1 1703   2.939   1.178   6.300
  268SOL    HW2 1704   3.088   1.111   6.303
  269SOL     OW 1705   2.591   3.203   0.380
  269SOL    HW1 1706   2.527   3.165   0.313
  269SOL    HW2 1707   2.649   3.272   0.336
  270SOL     OW 1708   0.487   6.196   0.299
  270SOL    HW1 1709   0.566   6.173   0.356
  270SOL    HW2 1710   0.517   6.251   0.221
  271SOL     OW 1711   0.215   1.850   6.721
  271SOL    HW1 1712   0.212   1.859   6.820
  271SOL    HW2 1713   0.129   1.883   6.682
  272SOL     OW 1714   3.837   6.319   3.887
  272SOL    HW1 1715   3.925   6.322   3.840
  272SOL    HW2 1716   3.842   6.253   3.962
  273SOL     OW 1717   1.671   4.774   5.139
  273SOL    HW1 1718   1.758   4.759   5.186
  273SOL    HW2 1719   1.688   4.818   5.050
  274SOL     OW 1720   3.340   1.185   3.081
  274SOL    HW1 1721   3.332   1.277   3.044
  274SOL    HW2 1722   3.393   1.187   3.166
  275SOL     OW 1723   6.730   6.347   2.768
  275SOL    HW1 1724   6.673   6.336   2.687
  275SOL    HW2 1725   6.673   6.359   2.848
  276SOL     OW 1726   0.232   6.739   3.605
  276SOL    HW1 1727   0.293   6.813   3.577
  276SOL    HW2 1728   0.149   6.741   3.550
  277SOL     OW 1729   1.890   3.724   6.946
  277SOL    HW1 1730   1.906   3.800   6.882
  277SOL    HW2 1731   1.909   3.637   6.900
  278SOL     OW 1732   0.163   3.299   2.638
  278SOL    HW1 1733   0.070   3.315   2.671
  278SOL    HW2 1734   0.162   3.288   2.539
  279SOL     OW 1735   5.277   3.030   4.148
  279SOL    HW1 1736   5.213   2.969   4.100
  279SOL    HW2 1737   5.358   2.979   4.175
  280SOL     OW 1738   2.655   5.403   1.537
  280SOL    HW1 1739   2.705   5.489   1.525
  280SOL    HW2 1740   2.663   5.372   1.632
  281SOL     OW 1741   2.103   4.661   1.527
  281SOL    HW1 1742   2.004   4.650   1.516
  281SOL    HW2 1743   2.139   4.583   1.578
  282SOL     OW 1744   2.914   1.233   5.368
  282SOL    HW1 1745   2.835   1.182   5.402
  282SOL    HW2 1746   2.939   1.200   5.277
  283SOL     OW 1747   5.646   2.445   6.617
  283SOL    HW1 1748   5.675   2.391   6.538
  283SOL    HW2 1749   5.612   2.534   6.586
  284SOL     OW 1750   1.463   3.431   4.220
  284SOL    HW1 1751   1.396   3.503   4.198
  284SOL    HW2 1752   1.555   3.469   4.217
  285SOL     OW 1753   5.547   4.696   4.191
  285SOL    HW1 1754   5.551   4.596   4.186
  285SOL    HW2 1755   5.554   4.734   4.099
  286SOL     OW 1756   3.407   4.085   6.847
  286SOL    HW1 1757   3.331   4.103   6.784
  286SOL    HW2 1758   3.491   4.126   6.810
  287SOL     OW 1759   1.583   3.216   1.167
  287SOL    HW1 1760   1.622   3.304   1.194
  287SOL    HW2 1761   1.555   3.166   1.249
  288SOL     OW 1762   4.087   1.647   6.136
  288SOL    HW1 1763   3.992   1.677   6.127
  288SOL    HW2 1764   4.127   1.688   6.218
  289SOL     OW 1765   1.790   4.270   5.245
  289SOL    HW1 1766   1.731   4.346   5.218
  289SOL    HW2 1767   1.736   4.202   5.294
  290SOL     OW 1768   6.811   1.611   5.202
  290SOL    HW1 1769   6.849   1.565   5.282
  290SOL    HW2 1770   6.881   1.669   5.160
  291SOL     OW 1771   0.773   1.234   3.754
  291SOL    HW1 1772   0.811   1.200   3.840
  291SOL    HW2 1773   0.738   1.327   3.768
  292SOL     OW 1774   2.075   1.054   3.483
  292SOL    HW1 1775   2.002   1.066   3.415
  292SOL    HW2 1776   2.163   1.076   3.442
  293SOL     OW 1777   4.685   5.931   3.269
  293SOL    HW1 1778   4.755   5.927   3.340
  293SOL    HW2 1779   4.597   5.903   3.307
  294SOL     OW 1780   5.636   6.257   6.962
  294SOL    HW1 1781   5.605   6.201   0.021
  294SOL    HW2 1782   5.619   6.207   6.877
  295SOL     OW 1783   4.246   0.404   2.968
  295SOL    HW1 1784   4.165   0.345   2.959
  295SOL    HW2 1785   4.226   0.479   3.031
  296SOL     OW 1786   3.410   1.749   2.932
  296SOL    HW1 1787   3.353   1.667   2.942
  296SOL    HW2 1788   3.425   1.790   3.021
  297SOL     OW 1789   2.261   4.301   3.119
  297SOL    HW1 1790   2.298   4.223   3.168
  297SOL    HW2 1791   2.163   4.307   3.135
  298SOL     OW 1792   6.008   5.720   0.895
  298SOL    HW1 1793   6.075   5.747   0.826
  298SOL    HW2 1794   5.957   5.801   0.925
  299SOL     OW 1795   6.320   2.423   4.831
  299SOL    HW1 1796   6.308   2.522   4.829
  299SOL    HW2 1797   6.233   2.379   4.808
  300SOL     OW 1798   6.817   0.664   3.260
  300SOL    HW1 1799   6.728   0.693   3.295
  300SOL    HW2 1800   6.874   0.744   3.242
  301SOL     OW 1801   5.788   3.630   6.965
  301SOL    HW1 1802   5.786   3.610   6.867
  301SOL    HW2 1803   5.757   3.724   6.979
  302SOL     OW 1804   0.718   0.720   3.776
  302SOL    HW1 1805   0.656   0.782   3.728
  302SOL    HW2 1806   0.744   0.645   3.715
  303SOL     OW 1807   5.132   0.965   2.569
  303SOL    HW1 1808   5.139   0.988   2.666
  303SOL    HW2 1809   5.222   0.943   2.533
  304SOL     OW 1810   2.084   0.280   3.102
  304SOL    HW1 1811   2.175   0.320   3.114
  304SOL    HW2 1812   2.084   0.186   3.137
  305SOL     OW 1813   0.986   3.850   6.829
  305SOL    HW1 1814   0.939   3.764   6.846
  305SOL    HW2 1815   1.085   3.836   6.832
  306SOL     OW 1816   2.021   1.069   4.013
  306SOL    HW1 1817   2.009   0.973   3.988
  306SOL    HW2 1818   2.058   1.074   4.106
  307SOL     OW 1819   4.609   0.344   1.228
  307SOL    HW1 1820   4.621   0.291   1.312
  307SOL    HW2 1821   4.609   0.282   1.150
  308SOL     OW 1822   0.907   6.294   3.298
  308SOL    HW1 1823   0.927   6.198   3.281
  308SOL    HW2 1824   0.966   6.328   3.372
  309SOL     OW 1825   3.789   4.550   5.328
  309SOL    HW1 1826   3.691   4.536   5.347
  309SOL    HW2 1827   3.812   4.505   5.241
  310SOL     OW 1828   0.160   6.699   5.856
  310SOL    HW1 1829   0.157   6.783   5.910
  310SOL    HW2 1830   0.093   6.634   5.892
  311SOL     OW 1831   0.133   5.546   1.469
  311SOL    HW1 1832   0.143   5.623   1.532
  311SOL    HW2 1833   0.216   5.491   1.470
  312SOL     OW 1834   4.826   1.545   5.059
  312SOL    HW1 1835   4.917   1.522   5.023
  312SOL    HW2 1836   4.830   1.547   5.159
  313SOL     OW 1837   2.185   4.251   1.806
  313SOL    HW1 1838   2.125   4.193   1.752
  313SOL    HW2 1839   2.165   4.237   1.903
  314SOL     OW 1840   3.317   5.597   0.819
  314SOL    HW1 1841   3.258   5.638   0.750
  314SOL    HW2 1842   3.284   5.621   0.910
  315SOL     OW 1843   0.771   2.755   3.572
  315SOL    HW1 1844   0.763   2.825   3.501
  315SOL    HW2 1845   0.681   2.714   3.589
  316SOL     OW 1846   2.272   2.958   4.059
  316SOL    HW1 1847   2.243   3.052   4.042
  316SOL    HW2 1848   2.281   2.910   3.972
  317SOL     OW 1849   0.130   1.286   0.188
  317SOL    HW1 1850   0.222   1.312   0.217
  317SOL    HW2 1851   0.079   1.368   0.161
  318SOL     OW 1852   1.634   4.495   0.673
  318SOL    HW1 1853   1.721   4.521   0.632
  318SOL    HW2 1854   1.559   4.527   0.614
  319SOL     OW 1855   0.912   6.886   1.389
  319SOL    HW1 1856   0.824   6.847   1.360
  319SOL    HW2 1857   0.981   6.814   1.395
  320SOL     OW 1858   6.363   3.322   0.816
  320SOL    HW1 1859   6.355   3.234   0.864
  320SOL    HW2 1860   6.411   3.387   0.875
  321SOL     OW 1861   1.529   2.295   2.134
  321SOL    HW1 1862   1.465   2.218   2.134
  321SOL    HW2 1863   1.621   2.262   2.156
  322SOL     OW 1864   3.757   2.890   5.061
  322SOL    HW1 1865   3.815   2.837   4.999
  322SOL    HW2 1866   3.684   2.934   5.009
  323SOL     OW 1867   0.280   4.402   0.864
  323SOL    HW1 1868   0.304   4.366   0.774
  323SOL    HW2 1869   0.260   4.499   0.857
  324SOL     OW 1870   1.249   2.859   4.757
  324SOL    HW1 1871   1.283   2.951   4.772
  324SOL    HW2 1872   1.189   2.833   4.833
  325SOL     OW 1873   1.856   2.949   1.684
  325SOL    HW1 1874   1.919   2.876   1.708
  325SOL    HW2 1875   1.762   2.921   1.708
  326SOL     OW 1876   1.887   6.840   6.653
  326SOL    HW1 1877   1.914   6.762   6.597
  326SOL    HW2 1878   1.806   6.884   6.613
  327SOL     OW 1879   6.622   4.741   4.952
  327SOL    HW1 1880   6.701   4.680   4.953
  327SOL    HW2 1881   6.639   4.818   4.891
  328SOL     OW 1882   4.307   4.915   2.433
  328SOL    HW1 1883   4.355   4.901   2.346
  328SOL    HW2 1884   4.214   4.877   2.425
  329SOL     OW 1885   3.177   3.410   3.214
  329SOL    HW1 1886   3.246   3.338   3.216
  329SOL    HW2 1887   3.174   3.450   3.122
  330SOL     OW 1888   3.471   6.630   1.506
  330SOL    HW1 1889   3.537   6.701   1.481
  330SOL    HW2 1890   3.445   6.641   1.602
  331SOL     OW 1891   4.631   5.622   5.962
  331SOL    HW1 1892   4.681   5.705   5.988
  331SOL    HW2 1893   4.534   5.642   5.959
  332SOL     OW 1894   3.171   1.536   4.013
  332SOL    HW1 1895   3.089   1.568   3.967
  332SOL    HW2 1896   3.222   1.614   4.050
  333SOL     OW 1897   3.822   6.529   5.936
  333SOL    HW1 1898   3.835   6.430   5.929
  333SOL    HW2 1899   3.831   6.570   5.846
  334SOL     OW 1900   3.542   6.759   2.495
  334SOL    HW1 1901   3.457   6.751   2.548
  334SOL    HW2 1902   3.526   6.727   2.402
  335SOL     OW 1903   3.611   5.494   3.598
  335SOL    HW1 1904   3.548   5.419   3.617
  335SOL    HW2 1905   3.700   5.455   3.570
  336SOL     OW 1906   3.028   1.001   3.426
  336SOL    HW1 1907   3.030   0.915   3.375
  336SOL    HW2 1908   2.957   0.996   3.497
  337SOL     OW 1909   0.512   3.603   1.757
  337SOL    HW1 1910   0.524   3.535   1.684
  337SOL    HW2 1911   0.563   3.575   1.838
  338SOL     OW 1912   3.037   3.079   1.395
  338SOL    HW1 1913   2.943   3.092   1.428
  338SOL    HW2 1914   3.100   3.080   1.473
  339SOL     OW 1915   4.095   6.988   3.154
  339SOL    HW1 1916   4.058   6.911   3.205
  339SOL    HW2 1917   4.022   0.014   3.104
  340SOL     OW 1918   5.237   4.319   4.621
  340SOL    HW1 1919   5.271   4.307   4.528
  340SOL    HW2 1920   5.276   4.403   4.659
  341SOL     OW 1921   5.285   5.686   3.936
  341SOL    HW1 1922   5.358   5.753   3.926
  341SOL    HW2 1923   5.322   5.593   3.927
  342SOL     OW 1924   5.863   4.990   0.401
  342SOL    HW1 1925   5.803   4.920   0.441
  342SOL    HW2 1926   5.816   5.035   0.325
  343SOL     OW 1927   3.789   6.597   1.754
  343SOL    HW1 1928   3.739   6.683   1.767
  343SOL    HW2 1929   3.735   6.521   1.789
  344SOL     OW 1930   1.881   5.421   0.497
  344SOL    HW1 1931   1.817   5.358   0.542
  344SOL    HW2 1932   1.949   5.453   0.563
  345SOL     OW 1933   1.094   0.330   5.591
  345SOL    HW1 1934   1.062   0.267   5.520
  345SOL    HW2 1935   1.125   0.415   5.549
  346SOL     OW 1936   1.251   0.280   2.964
  346SOL    HW1 1937   1.242   0.364   2.910
  346SOL    HW2 1938   1.248   0.303   3.061
  347SOL     OW 1939   5.672   0.023   6.467
  347SOL    HW1 1940   5.623   0.082   6.402
  347SOL    HW2 1941   5.631   0.031   6.558
  348SOL     OW 1942   3.663   5.151   1.297
  348SOL    HW1 1943   3.732   5.201   1.245
  348SOL    HW2 1944   3.598   5.216   1.337
  349SOL     OW 1945   0.411   4.372   2.759
  349SOL    HW1 1946   0.466   4.432   2.817
  349SOL    HW2 1947   0.322   4.415   2.741
  350SOL     OW 1948   3.945   3.435   1.562
  350SOL    HW1 1949   3.889   3.517   1.562
  350SOL    HW2 1950   3.963   3.407   1.657
  351SOL     OW 1951   2.592   1.650   0.394
  351SOL    HW1 1952   2.578   1.679   0.489
  351SOL    HW2 1953   2.690   1.640   0.377
  352SOL     OW 1954   3.205   0.467   5.791
  352SOL    HW1 1955   3.274   0.395   5.787
  352SOL    HW2 1956   3.179   0.493   5.698
  353SOL     OW 1957   1.709   6.050   0.813
  353SOL    HW1 1958   1.701   5.958   0.850
  353SOL    HW2 1959   1.761   6.047   0.728
  354SOL     OW 1960   4.081   1.853   6.965
  354SOL    HW1 1961   4.037   1.828   6.879
  354SOL    HW2 1962   4.027   1.818   0.023
  355SOL     OW 1963   6.658   3.333   2.556
  355SOL    HW1 1964   6.672   3.354   2.459
  355SOL    HW2 1965   6.743   3.296   2.594
  356SOL     OW 1966   4.466   4.700   4.255
  356SOL    HW1 1967   4.530   4.628   4.230
  356SOL    HW2 1968   4.420   4.734   4.172
  357SOL     OW 1969   0.590   5.664   5.247
  357SOL    HW1 1970   0.627   5.743   5.296
  357SOL    HW2 1971   0.535   5.609   5.309
  358SOL     OW 1972   6.063   0.151   1.416
  358SOL    HW1 1973   6.104   0.149   1.325
  358SOL    HW2 1974   6.107   0.221   1.471
  359SOL     OW 1975   1.364   2.410   2.681
  359SOL    HW1 1976   1.340   2.336   2.618
  359SOL    HW2 1977   1.461   2.433   2.668
  360SOL     OW 1978   4.497   6.927   6.859
  360SOL    HW1 1979   4.583   6.973   6.840
  360SOL    HW2 1980   4.441   6.984   6.920
  361SOL     OW 1981   5.431   5.774   3.214
  361SOL    HW1 1982   5.418   5.871   3.238
  361SOL    HW2 1983   5.397   5.717   3.289
  362SOL     OW 1984   2.608   4.078   0.808
  362SOL    HW1 1985   2.604   4.106   0.712
  362SOL    HW2 1986   2.551   4.140   0.863
  363SOL     OW 1987   4.476   5.138   4.344
  363SOL    HW1 1988   4.521   5.073   4.406
  363SOL    HW2 1989   4.531   5.221   4.339
  364SOL     OW 1990   1.182   5.536   5.479
  364SOL    HW1 1991   1.190   5.475   5.400
  364SOL    HW2 1992   1.263   5.529   5.536
  365SOL     OW 1993   5.439   6.131   2.487
  365SOL    HW1 1994   5.507   6.134   2.414
  365SOL    HW2 1995   5.359   6.080   2.456
  366SOL     OW 1996   6.241   1.214   6.823
  366SOL    HW1 1997   6.250   1.133   6.881
  366SOL    HW2 1998   6.196   1.287   6.875
  367SOL     OW 1999   5.588   3.408   1.268
  367SOL    HW1 2000   5.496   3.446   1.265
  367SOL    HW2 2001   5.648   3.462   1.209
  368SOL     OW 2002   1.455   4.524   5.404
  368SOL    HW1 2003   1.366   4.567   5.389
  368SOL    HW2 2004   1.527   4.582   5.367
  369SOL     OW 2005   0.280   4.305   1.689
  369SOL    HW1 2006   0.374   4.296   1.656
  369SOL    HW2 2007   0.260   4.401   1.706
  370SOL     OW 2008   2.630   1.053   5.987
  370SOL    HW1 2009   2.556   1.085   5.928
  370SOL    HW2 2010   2.715   1.100   5.964
  371SOL     OW 2011   3.073   3.087   0.075
  371SOL    HW1 2012   3.109   3.174   0.109
  371SOL    HW2 2013   2.988   3.064   0.123
  372SOL     OW 2014   6.586   6.723   6.041
  372SOL    HW1 2015   6.494   6.754   6.018
  372SOL    HW2 2016   6.652   6.794   6.017
  373SOL     OW 2017   0.329   6.252   0.756
  373SOL    HW1 2018   0.317   6.321   0.685
  373SOL    HW2 2019   0.355   6.297   0.842
  374SOL     OW 2020   3.424   0.101   2.078
  374SOL    HW1 2021   3.521   0.124   2.065
  374SOL    HW2 2022   3.371   0.184   2.090
  375SOL     OW 2023   6.646   4.744   3.272
  375SOL    HW1 2024   6.697   4.683   3.211
  375SOL    HW2 2025   6.571   4.693   3.315
  376SOL     OW 2026   1.690   2.466   4.075
  376SOL    HW1 2027   1.782   2.499   4.098
  376SOL    HW2 2028   1.632   2.543   4.051
  377SOL     OW 2029   4.877   2.120   2.970
  377SOL    HW1 2030   4.904   2.101   2.875
  377SOL    HW2 2031   4.803   2.187   2.970
  378SOL     OW 2032   4.511   3.370   5.656
  378SOL    HW1 2033   4.531   3.457   5.613
  378SOL    HW2 2034   4.412   3.363   5.674
  379SOL     OW 2035   5.868   3.910   1.325
  379SOL    HW1 2036   5.867   3.896   1.226
  379SOL    HW2 2037   5.776   3.896   1.361
  380SOL     OW 2038   1.710   1.679   1.284
  380SOL    HW1 2039   1.704   1.777   1.266
  380SOL    HW2 2040   1.791   1.661   1.341
  381SOL     OW 2041   3.315   4.457   1.197
  381SOL    HW1 2042   3.221   4.460   1.162
  381SOL    HW2 2043   3.379   4.459   1.120
  382SOL     OW 2044   3.221   5.804   0.344
  382SOL    HW1 2045   3.135   5.753   0.347
  382SOL    HW2 2046   3.298   5.741   0.352
  383SOL     OW 2047   6.295   2.255   0.145
  383SOL    HW1 2048   6.385   2.268   0.187
  383SOL    HW2 2049   6.225   2.292   0.206
  384SOL     OW 2050   1.001   5.214   4.965
  384SOL    HW1 2051   0.968   5.127   5.002
  384SOL    HW2 2052   0.926   5.261   4.919
  385SOL     OW 2053   4.586   6.267   0.408
  385SOL    HW1 2054   4.617   6.178   0.374
  385SOL    HW2 2055   4.503   6.255   0.462
  386SOL     OW 2056   3.964   6.538   5.410
  386SOL    HW1 2057   3.886   6.492   5.368
  386SOL    HW2 2058   4.001   6.606   5.346
  387SOL     OW 2059   0.351   0.413   5.205
  387SOL    HW1 2060   0.447   0.419   5.235
  387SOL    HW2 2061   0.346   0.353   5.125
  388SOL     OW 2062   0.126   2.140   5.419
  388SOL    HW1 2063   0.140   2.168   5.514
  388SOL    HW2 2064   0.106   2.220   5.363
  389SOL     OW 2065   4.385   4.760   1.508
  389SOL    HW1 2066   4.331   4.725   1.584
  389SOL    HW2 2067   4.332   4.828   1.457
  390SOL     OW 2068   3.497   1.661   0.344
  390SOL    HW1 2069   3.563   1.602   0.391
  390SOL    HW2 2070   3.522   1.669   0.247
  391SOL     OW 2071   3.103   3.889   6.267
  391SOL    HW1 2072   3.141   3.980   6.282
  391SOL    HW2 2073   3.010   3.897   6.231
  392SOL     OW 2074   1.551   3.924   2.279
  392SOL    HW1 2075   1.621   3.947   2.347
  392SOL    HW2 2076   1.474   3.987   2.287
  393SOL     OW 2077   0.972   4.503   1.160
  393SOL    HW1 2078   0.940   4.472   1.250
  393SOL    HW2 2079   1.072   4.504   1.158
  394SOL     OW 2080   6.441   1.643   6.485
  394SOL    HW1 2081   6.372   1.571   6.483
  394SOL    HW2 2082   6.517   1.618   6.426
  395SOL     OW 2083   5.450   4.764   1.594
  395SOL    HW1 2084   5.381   4.770   1.522
  395SOL    HW2 2085   5.512   4.688   1.575
  396SOL     OW 2086   2.749   1.717   2.706
  396SOL    HW1 2087   2.811   1.686   2.634
  396SOL    HW2 2088   2.655   1.716   2.671
  397SOL     OW 2089   4.182   1.371   5.410
  397SOL    HW1 2090   4.100   1.315   5.398
  397SOL    HW2 2091   4.163   1.464   5.377
  398SOL     OW 2092   2.480   0.639   4.828
  398SOL    HW1 2093   2.428   0.721   4.802
  398SOL    HW2 2094   2.569   0.667   4.864
  399SOL     OW 2095   5.597   6.270   3.908
  399SOL    HW1 2096   5.513   6.279   3.854
  399SOL    HW2 2097   5.598   6.180   3.953
  400SOL     OW 2098   6.288   0.285   5.184
  400SOL    HW1 2099   6.343   0.341   5.123
  400SOL    HW2 2100   6.212   0.245   5.133
  401SOL     OW 2101   6.866   5.541   5.647
  401SOL    HW1 2102   6.899   5.626   5.606
  401SOL    HW2 2103   6.927   5.513   5.721
  402SOL     OW 2104   6.855   0.362   2.498
  402SOL    HW1 2105   6.916   0.301   2.449
  402SOL    HW2 2106   6.889   0.376   2.591
  403SOL     OW 2107   2.854   1.171   5.967
  403SOL    HW1 2108   2.908   1.143   5.888
  403SOL    HW2 2109   2.857   1.270   5.977
  404SOL     OW 2110   3.986   4.995   4.714
  404SOL    HW1 2111   4.020   4.967   4.624
  404SOL    HW2 2112   4.041   4.952   4.785
  405SOL     OW 2113   2.690   4.723   3.447
  405SOL    HW1 2114   2.789   4.713   3.444
  405SOL    HW2 2115   2.666   4.810   3.491
  406SOL     OW 2116   0.289   5.184   5.700
  406SOL    HW1 2117   0.209   5.210   5.755
  406SOL    HW2 2118   0.325   5.098   5.735
  407SOL     OW 2119   1.801   2.950   4.456
  407SOL    HW1 2120   1.883   2.920   4.408
  407SOL    HW2 2121   1.725   2.956   4.391
  408SOL     OW 2122   3.120   1.390   3.571
  408SOL    HW1 2123   3.068   1.342   3.642
  408SOL    HW2 2124   3.200   1.434   3.613
  409SOL     OW 2125   1.180   3.648   2.328
  409SOL    HW1 2126   1.211   3.560   2.293
  409SOL    HW2 2127   1.089   3.638   2.367
  410SOL     OW 2128   1.957   1.978   1.278
  410SOL    HW1 2129   1.976   2.075   1.297
  410SOL    HW2 2130   2.011   1.921   1.340
  411SOL     OW 2131   0.645   2.035   1.586
  411SOL    HW1 2132   0.725   2.021   1.527
  411SOL    HW2 2133   0.599   2.120   1.560
  412SOL     OW 2134   1.654   4.793   1.813
  412SOL    HW1 2135   1.676   4.703   1.775
  412SOL    HW2 2136   1.678   4.864   1.746
  413SOL     OW 2137   4.676   5.105   2.801
  413SOL    HW1 2138   4.637   5.192   2.771
  413SOL    HW2 2139   4.776   5.108   2.791
  414SOL     OW 2140   2.577   6.275   3.570
  414SOL    HW1 2141   2.493   6.328   3.570
  414SOL    HW2 2142   2.639   6.310   3.640
  415SOL     OW 2143   6.423   0.505   0.527
  415SOL    HW1 2144   6.365   0.425   0.517
  415SOL    HW2 2145   6.448   0.541   0.437
  416SOL     OW 2146   4.948   3.279   4.671
  416SOL    HW1 2147   4.944   3.286   4.571
  416SOL    HW2 2148   4.914   3.364   4.712
  417SOL     OW 2149   3.755   2.136   6.652
  417SOL    HW1 2150   3.697   2.199   6.600
  417SOL    HW2 2151   3.851   2.159   6.636
  418SOL     OW 2152   3.985   6.378   4.683
  418SOL    HW1 2153   3.991   6.386   4.584
  418SOL    HW2 2154   4.028   6.457   4.726
  419SOL     OW 2155   1.009   0.029   1.867
  419SOL    HW1 2156   0.924   0.022   1.919
  419SOL    HW2 2157   1.055   6.960   1.865
  420SOL     OW 2158   5.753   1.158   6.173
  420SOL    HW1 2159   5.696   1.228   6.130
  420SOL    HW2 2160   5.785   1.093   6.104
  421SOL     OW 2161   5.433   3.373   2.799
  421SOL    HW1 2162   5.336   3.378   2.778
  421SOL    HW2 2163   5.450   3.296   2.860
  422SOL     OW 2164   5.026   3.280   1.758
  422SOL    HW1 2165   4.989   3.190   1.739
  422SOL    HW2 2166   4.955   3.337   1.800
  423SOL     OW 2167   3.423   1.339   5.952
  423SOL    HW1 2168   3.400   1.418   5.895
  423SOL    HW2 2169   3.364   1.262   5.927
  424SOL     OW 2170   1.048   4.102   3.079
  424SOL    HW1 2171   1.137   4.120   3.037
  424SOL    HW2 2172   0.980   4.085   3.007
  425SOL     OW 2173   2.509   0.562   5.353
  425SOL    HW1 2174   2.606   0.554   5.333
  425SOL    HW2 2175   2.491   0.651   5.395
  426SOL     OW 2176   2.300   2.717   4.225
  426SOL    HW1 2177   2.294   2.791   4.159
  426SOL    HW2 2178   2.260   2.746   4.312
  427SOL     OW 2179   3.677   2.012   3.341
  427SOL    HW1 2180   3.699   1.918   3.315
  427SOL    HW2 2181   3.704   2.074   3.268
  428SOL     OW 2182   2.691   1.422   6.063
  428SOL    HW1 2183   2.743   1.440   6.146
  428SOL    HW2 2184   2.611   1.367   6.084
  429SOL     OW 2185   1.322   6.060   4.119
  429SOL    HW1 2186   1.414   6.080   4.151
  429SOL    HW2 2187   1.326   5.986   4.051
  430SOL     OW 2188   1.107   0.112   3.428
  430SOL    HW1 2189   1.105   0.065   3.339
  430SOL    HW2 2190   1.154   0.055   3.495
  431SOL     OW 2191   2.920   1.677   1.872
  431SOL    HW1 2192   2.820   1.680   1.877
  431SOL    HW2 2193   2.958   1.752   1.927
  432SOL     OW 2194   4.342   2.006   1.908
  432SOL    HW1 2195   4.394   2.090   1.895
  432SOL    HW2 2196   4.308   1.974   1.819
  433SOL     OW 2197   2.287   6.058   0.258
  433SOL    HW1 2198   2.343   6.074   0.339
  433SOL    HW2 2199   2.284   6.142   0.203
  434SOL     OW 2200   4.092   5.909   3.664
  434SOL    HW1 2201   4.007   5.956   3.641
  434SOL    HW2 2202   4.169   5.971   3.651
  435SOL     OW 2203   3.255   1.461   6.299
  435SOL    HW1 2204   3.239   1.421   6.390
  435SOL    HW2 2205   3.245   1.560   6.304
  436SOL     OW 2206   5.057   6.881   2.876
  436SOL    HW1 2207   5.139   6.838   2.912
  436SOL    HW2 2208   5.071   6.980   2.870
  437SOL     OW 2209   6.593   0.375   5.051
  437SOL    HW1 2210   6.591   0.335   4.960
  437SOL    HW2 2211   6.565   0.471   5.046
  438SOL     OW 2212   0.486   4.136   2.842
  438SOL    HW1 2213   0.443   4.210   2.792
  438SOL    HW2 2214   0.417   4.068   2.868
  439SOL     OW 2215   5.984   0.543   3.534
  439SOL    HW1 2216   5.917   0.535   3.461
  439SOL    HW2 2217   6.001   0.454   3.575
  440SOL     OW 2218   4.666   1.101   0.450
  440SOL    HW1 2219   4.737   1.100   0.379
  440SOL    HW2 2220   4.596   1.032   0.429
  441SOL     OW 2221   6.843   4.149   2.928
  441SOL    HW1 2222   6.941   4.166   2.938
  441SOL    HW2 2223   6.794   4.236   2.933
  442SOL     OW 2224   5.805   3.333   6.270
  442SOL    HW1 2225   5.823   3.368   6.362
  442SOL    HW2 2226   5.864   3.381   6.204
  443SOL     OW 2227   4.950   3.340   2.564
  443SOL    HW1 2228   4.928   3.417   2.504
  443SOL    HW2 2229   4.937   3.254   2.514
  444SOL     OW 2230   4.176   0.891   1.409
  444SOL    HW1 2231   4.155   0.904   1.312
  444SOL    HW2 2232   4.181   0.980   1.455
  445SOL     OW 2233   1.151   5.472   2.457
  445SOL    HW1 2234   1.081   5.538   2.483
  445SOL    HW2 2235   1.175   5.416   2.537
  446SOL     OW 2236   5.563   6.980   1.397
  446SOL    HW1 2237   5.657   6.948   1.385
  446SOL    HW2 2238   5.506   6.945   1.323
  447SOL     OW 2239   6.679   4.477   0.802
  447SOL    HW1 2240   6.667   4.396   0.745
  447SOL    HW2 2241   6.595   4.533   0.799
  448SOL     OW 2242   2.757   6.361   3.136
  448SOL    HW1 2243   2.842   6.319   3.167
  448SOL    HW2 2244   2.728   6.430   3.201
  449SOL     OW 2245   1.967   3.803   4.625
  449SOL    HW1 2246   1.901   3.729   4.640
  449SOL    HW2 2247   2.022   3.816   4.708
  450SOL     OW 2248   0.911   5.132   3.498
  450SOL    HW1 2249   0.977   5.107   3.568
  450SOL    HW2 2250   0.857   5.051   3.473
  451SOL     OW 2251   0.575   2.425   2.479
  451SOL    HW1 2252   0.608   2.349   2.423
  451SOL    HW2 2253   0.498   2.395   2.535
  452SOL     OW 2254   5.143   5.798   2.488
  452SOL    HW1 2255   5.206   5.869   2.456
  452SOL    HW2 2256   5.073   5.781   2.419
  453SOL     OW 2257   3.540   0.579   6.864
  453SOL    HW1 2258   3.597   0.593   6.783
  453SOL    HW2 2259   3.585   0.513   6.925
  454SOL     OW 2260   6.801   3.678   6.738
  454SOL    HW1 2261   6.879   3.703   6.681
  454SOL    HW2 2262   6.806   3.581   6.761
  455SOL     OW 2263   5.868   4.711   6.465
  455SOL    HW1 2264   5.909   4.760   6.542
  455SOL    HW2 2265   5.938   4.655   6.420
  456SOL     OW 2266   3.285   0.486   2.292
  456SOL    HW1 2267   3.380   0.473   2.321
  456SOL    HW2 2268   3.256   0.579   2.312
  457SOL     OW 2269   2.630   0.598   0.048
  457SOL    HW1 2270   2.569   0.609   0.127
  457SOL    HW2 2271   2.575   0.588   6.984
  458SOL     OW 2272   2.896   1.153   3.207
  458SOL    HW1 2273   2.899   1.156   3.307
  458SOL    HW2 2274   2.980   1.111   3.173
  459SOL     OW 2275   3.022   0.542   3.633
  459SOL    HW1 2276   3.085   0.532   3.556
  459SOL    HW2 2277   3.059   0.609   3.697
  460SOL     OW 2278   0.951   1.609   5.433
  460SOL    HW1 2279   0.930   1.703   5.405
  460SOL    HW2 2280   1.024   1.610   5.501
  461SOL     OW 2281   0.663   4.881   6.254
  461SOL    HW1 2282   0.701   4.916   6.339
  461SOL    HW2 2283   0.589   4.940   6.223
  462SOL     OW 2284   2.951   3.885   4.614
  462SOL    HW1 2285   2.882   3.910   4.681
  462SOL    HW2 2286   2.979   3.790   4.628
  463SOL     OW 2287   5.584   6.878   2.647
  463SOL    HW1 2288   5.643   6.798   2.644
  463SOL    HW2 2289   5.631   6.956   2.605
  464SOL     OW 2290   3.839   5.549   5.868
  464SOL    HW1 2291   3.841   5.614   5.792
  464SOL    HW2 2292   3.825   5.456   5.832
  465SOL     OW 2293   0.793   3.598   0.226
  465SOL    HW1 2294   0.833   3.514   0.262
  465SOL    HW2 2295   0.846   3.676   0.258
  466SOL     OW 2296   4.107   5.591   4.796
  466SOL    HW1 2297   4.017   5.626   4.769
  466SOL    HW2 2298   4.134   5.517   4.734
  467SOL     OW 2299   6.448   0.132   1.454
  467SOL    HW1 2300   6.419   0.212   1.402
  467SOL    HW2 2301   6.384   0.116   1.529
  468SOL     OW 2302   3.683   0.313   6.838
  468SOL    HW1 2303   3.637   0.288   6.753
  468SOL    HW2 2304   3.782   0.303   6.827
  469SOL     OW 2305   2.995   5.035   5.937
  469SOL    HW1 2306   2.935   5.110   5.965
  469SOL    HW2 2307   2.939   4.958   5.907
  470SOL     OW 2308   2.071   4.815   2.833
  470SOL    HW1 2309   2.016   4.854   2.907
  470SOL    HW2 2310   2.117   4.889   2.783
  471SOL     OW 2311   2.237   2.436   4.400
  471SOL    HW1 2312   2.296   2.506   4.358
  471SOL    HW2 2313   2.148   2.475   4.421
  472SOL     OW 2314   5.749   3.655   6.463
  472SOL    HW1 2315   5.781   3.738   6.509
  472SOL    HW2 2316   5.820   3.620   6.402
  473SOL     OW 2317   6.794   3.026   1.849
  473SOL    HW1 2318   6.801   2.966   1.929
  473SOL    HW2 2319   6.839   3.113   1.869
  474SOL     OW 2320   5.165   6.359   3.595
  474SOL    HW1 2321   5.143   6.416   3.516
  474SOL    HW2 2322   5.138   6.406   3.679
  475SOL     OW 2323   6.198   1.812   0.802
  475SOL    HW1 2324   6.225   1.871   0.878
  475SOL    HW2 2325   6.172   1.722   0.836
  476SOL     OW 2326   0.792   4.656   1.455
  476SOL    HW1 2327   0.771   4.664   1.553
  476SOL    HW2 2328   0.876   4.707   1.435
  477SOL     OW 2329   1.575   4.585   3.799
  477SOL    HW1 2330   1.591   4.487   3.790
  477SOL    HW2 2331   1.506   4.602   3.870
  478SOL     OW 2332   4.847   6.174   1.731
  478SOL    HW1 2333   4.873   6.187   1.827
  478SOL    HW2 2334   4.840   6.076   1.712
  479SOL     OW 2335   3.530   3.817   3.502
  479SOL    HW1 2336   3.467   3.749   3.542
  479SOL    HW2 2337   3.613   3.820   3.557
  480SOL     OW 2338   1.748   0.229   3.064
  480SOL    HW1 2339   1.836   0.190   3.037
  480SOL    HW2 2340   1.680   0.156   3.071
  481SOL     OW 2341   0.073   6.888   0.877
  481SOL    HW1 2342   0.173   6.887   0.881
  481SOL    HW2 2343   0.039   6.795   0.865
  482SOL     OW 2344   4.317   5.460   1.627
  482SOL    HW1 2345   4.410   5.438   1.599
  482SOL    HW2 2346   4.286   5.542   1.579
  483SOL     OW 2347   5.160   2.000   3.475
  483SOL    HW1 2348   5.180   2.088   3.519
  483SOL    HW2 2349   5.063   1.995   3.454
  484SOL     OW 2350   2.125   4.410   4.602
  484SOL    HW1 2351   2.148   4.481   4.536
  484SOL    HW2 2352   2.205   4.390   4.659
  485SOL     OW 2353   5.265   3.412   1.864
  485SOL    HW1 2354   5.341   3.350   1.843
  485SOL    HW2 2355   5.186   3.389   1.807
  486SOL     OW 2356   5.934   6.244   6.457
  486SOL    HW1 2357   5.989   6.289   6.386
  486SOL    HW2 2358   5.985   6.245   6.543
  487SOL     OW 2359   6.756   6.776   5.507
  487SOL    HW1 2360   6.824   6.709   5.476
  487SOL    HW2 2361   6.799   6.866   5.513
  488SOL     OW 2362   1.531   6.295   3.027
  488SOL    HW1 2363   1.581   6.209   3.043
  488SOL    HW2 2364   1.582   6.371   3.067
  489SOL     OW 2365   1.166   6.147   6.179
  489SOL    HW1 2366   1.155   6.186   6.271
  489SOL    HW2 2367   1.180   6.220   6.113
  490SOL     OW 2368   1.155   3.927   5.106
  490SOL    HW1 2369   1.237   3.925   5.049
  490SOL    HW2 2370   1.123   3.834   5.122
  491SOL     OW 2371   0.730   2.471   0.581
  491SOL    HW1 2372   0.829   2.478   0.568
  491SOL    HW2 2373   0.703   2.375   0.577
  492SOL     OW 2374   1.934   2.368   5.731
  492SOL    HW1 2375   1.848   2.419   5.730
  492SOL    HW2 2376   2.009   2.429   5.706
  493SOL     OW 2377   2.190   5.639   4.798
  493SOL    HW1 2378   2.240   5.558   4.767
  493SOL    HW2 2379   2.097   5.636   4.764
  494SOL     OW 2380   2.744   6.324   5.002
  494SOL    HW1 2381   2.747   6.400   4.938
  494SOL    HW2 2382   2.675   6.341   5.072
  495SOL     OW 2383   3.596   4.465   6.146
  495SOL    HW1 2384   3.685   4.455   6.102
  495SOL    HW2 2385   3.544   4.536   6.098
  496SOL     OW 2386   5.142   1.778   2.936
  496SOL    HW1 2387   5.149   1.679   2.928
  496SOL    HW2 2388   5.231   1.815   2.964
  497SOL     OW 2389   3.617   1.999   0.259
  497SOL    HW1 2390   3.707   2.037   0.238
  497SOL    HW2 2391   3.628   1.921   0.322
  498SOL     OW 2392   0.919   6.664   1.695
  498SOL    HW1 2393   0.884   6.570   1.700
  498SOL    HW2 2394   0.925   6.702   1.787
  499SOL     OW 2395   2.790   6.126   6.390
  499SOL    HW1 2396   2.886   6.121   6.417
  499SOL    HW2 2397   2.746   6.037   6.404
  500SOL     OW 2398   6.095   2.380   0.321
  500SOL    HW1 2399   6.130   2.463   0.278
  500SOL    HW2 2400   6.084   2.396   0.419
  501SOL     OW 2401   0.911   0.548   3.979
  501SOL    HW1 2402   0.907   0.585   4.072
  501SOL    HW2 2403   0.965   0.609   3.921
  502SOL     OW 2404   2.147   4.933   6.737
  502SOL    HW1 2405   2.149   4.905   6.833
  502SOL    HW2 2406   2.240   4.940   6.703
  503SOL     OW 2407   3.765   4.726   6.856
  503SOL    HW1 2408   3.793   4.674   6.775
  503SOL    HW2 2409   3.665   4.726   6.862
  504SOL     OW 2410   6.034   6.332   2.059
  504SOL    HW1 2411   6.128   6.322   2.091
  504SOL    HW2 2412   6.015   6.429   2.042
  505SOL     OW 2413   4.800   6.845   5.083
  505SOL    HW1 2414   4.890   6.863   5.124
  505SOL    HW2 2415   4.742   6.797   5.149
  506SOL     OW 2416   4.168   5.101   3.065
  506SOL    HW1 2417   4.083   5.112   3.013
  506SOL    HW2 2418   4.229   5.038   3.016
  507SOL     OW 2419   3.287   0.899   0.589
  507SOL    HW1 2420   3.227   0.831   0.546
  507SOL    HW2 2421   3.244   0.931   0.673
  508SOL     OW 2422   6.935   4.474   3.442
  508SOL    HW1 2423   6.986   4.503   3.523
  508SOL    HW2 2424   6.998   4.436   3.374
  509SOL     OW 2425   4.719   6.771   6.045
  509SOL    HW1 2426   4.635   6.824   6.029
  509SOL    HW2 2427   4.795   6.834   6.061
  510SOL     OW 2428   0.071   3.730   0.126
  510SOL    HW1 2429   6.999   3.721   0.086
  510SOL    HW2 2430   0.070   3.802   0.195
  511SOL     OW 2431   0.847   1.848   0.476
  511SOL    HW1 2432   0.807   1.781   0.539
  511SOL    HW2 2433   0.844   1.812   0.383
  512SOL     OW 2434   6.799   2.592   5.863
  512SOL    HW1 2435   6.794   2.654   5.785
  512SOL    HW2 2436   6.837   2.640   5.942
  513SOL     OW 2437   5.593   0.623   2.626
  513SOL    HW1 2438   5.569   0.527   2.623
  513SOL    HW2 2439   5.643   0.643   2.710
  514SOL     OW 2440   6.292   6.458   4.158
  514SOL    HW1 2441   6.234   6.386   4.196
  514SOL    HW2 2442   6.235   6.525   4.110
  515SOL     OW 2443   3.776   0.332   5.858
  515SOL    HW1 2444   3.799   0.263   5.927
  515SOL    HW2 2445   3.751   0.286   5.772
  516SOL     OW 2446   2.356   5.863   1.631
  516SOL    HW1 2447   2.390   5.904   1.715
  516SOL    HW2 2448   2.382   5.919   1.553
  517SOL     OW 2449   3.495   5.822   1.585
  517SOL    HW1 2450   3.498   5.840   1.684
  517SOL    HW2 2451   3.478   5.725   1.569
  518SOL     OW 2452   2.083   3.396   3.814
  518SOL    HW1 2453   2.052   3.348   3.732
  518SOL    HW2 2454   2.144   3.336   3.867
  519SOL     OW 2455   0.304   6.936   2.803
  519SOL    HW1 2456   0.250   6.897   2.728
  519SOL    HW2 2457   0.244   6.992   2.860
  520SOL     OW 2458   0.943   3.381   0.293
  520SOL    HW1 2459   0.979   3.356   0.203
  520SOL    HW2 2460   1.010   3.359   0.364
  521SOL     OW 2461   6.300   5.651   4.709
  521SOL    HW1 2462   6.296   5.750   4.700
  521SOL    HW2 2463   6.373   5.625   4.772
  522SOL     OW 2464   3.793   3.676   1.481
  522SOL    HW1 2465   3.867   3.743   1.476
  522SOL    HW2 2466   3.714   3.709   1.429
  523SOL     OW 2467   0.702   6.688   1.354
  523SOL    HW1 2468   0.660   6.621   1.294
  523SOL    HW2 2469   0.711   6.649   1.446
  524SOL     OW 2470   0.051   1.917   1.657
  524SOL    HW1 2471   0.050   1.881   1.750
  524SOL    HW2 2472   6.977   1.926   1.623
  525SOL     OW 2473   1.600   3.370   5.802
  525SOL    HW1 2474   1.675   3.423   5.764
  525SOL    HW2 2475   1.608   3.368   5.902
  526SOL     OW 2476   2.679   6.699   4.260
  526SOL    HW1 2477   2.747   6.659   4.322
  526SOL    HW2 2478   2.701   6.675   4.166
  527SOL     OW 2479   0.677   1.519   0.316
  527SOL    HW1 2480   0.607   1.571   0.268
  527SOL    HW2 2481   0.719   1.453   0.254
  528SOL     OW 2482   6.757   3.470   4.131
  528SOL    HW1 2483   6.711   3.386   4.158
  528SOL    HW2 2484   6.856   3.454   4.126
  529SOL     OW 2485   1.742   0.570   6.271
  529SOL    HW1 2486   1.790   0.599   6.189
  529SOL    HW2 2487   1.720   0.650   6.327
  530SOL     OW 2488   4.164   3.828   0.654
  530SOL    HW1 2489   4.198   3.908   0.705
  530SOL    HW2 2490   4.227   3.752   0.667
  531SOL     OW 2491   1.531   0.570   1.312
  531SOL    HW1 2492   1.515   0.532   1.220
  531SOL    HW2 2493   1.610   0.632   1.309
  532SOL     OW 2494   2.359   2.421   0.617
  532SOL    HW1 2495   2.451   2.442   0.584
  532SOL    HW2 2496   2.320   2.346   0.562
  533SOL     OW 2497   3.802   0.515   3.925
  533SOL    HW1 2498   3.833   0.500   3.831
  533SOL    HW2 2499   3.768   0.429   3.962
  534SOL     OW 2500   1.100   5.225   1.366
  534SOL    HW1 2501   1.150   5.164   1.428
  534SOL    HW2 2502   1.121   5.320   1.389
  535SOL     OW 2503   5.327   3.835   3.789
  535SOL    HW1 2504   5.332   3.736   3.803
  535SOL    HW2 2505   5.254   3.873   3.846
  536SOL     OW 2506   6.809   6.431   2.274
  536SOL    HW1 2507   6.871   6.379   2.334
  536SOL    HW2 2508   6.715   6.422   2.309
  537SOL     OW 2509   3.287   1.409   4.446
  537SOL    HW1 2510   3.384   1.432   4.458
  537SOL    HW2 2511   3.277   1.347   4.367
  538SOL     OW 2512   2.841   4.496   5.661
  538SOL    HW1 2513   2.772   4.556   5.701
  538SOL    HW2 2514   2.821   4.482   5.564
  539SOL     OW 2515   1.200   0.213   0.198
  539SOL    HW1 2516   1.111   0.238   0.161
  539SOL    HW2 2517   1.188   0.161   0.282
  540SOL     OW 2518   0.366   0.448   4.507
  540SOL    HW1 2519   0.360   0.367   4.449
  540SOL    HW2 2520   0.365   0.530   4.450
  541SOL     OW 2521   4.637   5.993   4.247
  541SOL    HW1 2522   4.553   6.023   4.293
  541SOL    HW2 2523   4.714   6.003   4.309
  542SOL     OW 2524   3.237   0.263   6.407
  542SOL    HW1 2525   3.329   0.287   6.378
  542SOL    HW2 2526   3.174   0.274   6.330
  543SOL     OW 2527   5.898   2.015   4.203
  543SOL    HW1 2528   5.805   2.052   4.196
  543SOL    HW2 2529   5.922   2.001   4.299
  544SOL     OW 2530   1.228   4.282   1.160
  544SOL    HW1 2531   1.279   4.285   1.246
  544SOL    HW2 2532   1.231   4.372   1.117
  545SOL     OW 2533   6.091   1.817   1.342
  545SOL    HW1 2534   6.026   1.796   1.415
  545SOL    HW2 2535   6.049   1.798   1.254
  546SOL     OW 2536   0.901   3.869   2.361
  546SOL    HW1 2537   0.906   3.843   2.264
  546SOL    HW2 2538   0.812   3.844   2.398
  547SOL     OW 2539   3.710   1.040   6.120
  547SOL    HW1 2540   3.614   1.065   6.117
  547SOL    HW2 2541   3.738   1.008   6.029
  548SOL     OW 2542   3.098   2.885   6.890
  548SOL    HW1 2543   3.182   2.882   6.836
  548SOL    HW2 2544   3.103   2.960   6.956
  549SOL     OW 2545   6.373   2.177   1.356
  549SOL    HW1 2546   6.283   2.203   1.322
  549SOL    HW2 2547   6.378   2.078   1.367
  550SOL     OW 2548   0.176   5.497   3.284
  550SOL    HW1 2549   0.090   5.509   3.236
  550SOL    HW2 2550   0.197   5.581   3.335
  551SOL     OW 2551   6.255   1.054   0.650
  551SOL    HW1 2552   6.157   1.041   0.638
  551SOL    HW2 2553   6.304   1.012   0.574
  552SOL     OW 2554   5.908   5.339   5.490
  552SOL    HW1 2555   5.880   5.329   5.394
  552SOL    HW2 2556   5.982   5.406   5.495
  553SOL     OW 2557   3.299   0.671   5.472
  553SOL    HW1 2558   3.288   0.716   5.561
  553SOL    HW2 2559   3.244   0.587   5.470
  554SOL     OW 2560   5.842   5.968   0.936
  554SOL    HW1 2561   5.756   5.971   0.884
  554SOL    HW2 2562   5.886   6.058   0.933
  555SOL     OW 2563   2.053   4.446   5.950
  555SOL    HW1 2564   1.957   4.430   5.927
  555SOL    HW2 2565   2.088   4.370   6.004
  556SOL     OW 2566   5.219   0.987   3.652
  556SOL    HW1 2567   5.235   1.081   3.682
  556SOL    HW2 2568   5.269   0.924   3.712
  557SOL     OW 2569   6.744   4.753   6.662
  557SOL    HW1 2570   6.737   4.739   6.563
  557SOL    HW2 2571   6.839   4.738   6.691
  558SOL     OW 2572   3.310   3.788   2.337
  558SOL    HW1 2573   3.280   3.878   2.371
  558SOL    HW2 2574   3.391   3.759   2.388
  559SOL     OW 2575   6.312   6.413   5.819
  559SOL    HW1 2576   6.404   6.394   5.785
  559SOL    HW2 2577   6.284   6.504   5.790
  560SOL     OW 2578   6.193   3.273   2.568
  560SOL    HW1 2579   6.155   3.330   2.496
  560SOL    HW2 2580   6.199   3.178   2.536
  561SOL     OW 2581   0.967   3.078   6.639
  561SOL    HW1 2582   0.970   3.139   6.559
  561SOL    HW2 2583   1.059   3.054   6.667
  562SOL     OW 2584   4.000   0.694   5.457
  562SOL    HW1 2585   3.916   0.691   5.402
  562SOL    HW2 2586   3.984   0.652   5.546
  563SOL     OW 2587   1.673   1.722   4.369
  563SOL    HW1 2588   1.590   1.684   4.328
  563SOL    HW2 2589   1.752   1.668   4.342
  564SOL     OW 2590   0.104   2.105   5.059
  564SOL    HW1 2591   0.005   2.120   5.058
  564SOL    HW2 2592   0.129   2.052   5.140
  565SOL     OW 2593   3.679   3.229   3.698
  565SOL    HW1 2594   3.610   3.167   3.660
  565SOL    HW2 2595   3.767   3.181   3.703
  566SOL     OW 2596   3.101   6.497   2.949
  566SOL    HW1 2597   3.086   6.466   2.855
  566SOL    HW2 2598   3.121   6.418   3.007
  567SOL     OW 2599   2.265   3.006   6.523
  567SOL    HW1 2600   2.340   3.068   6.546
  567SOL    HW2 2601   2.227   2.967   6.606
  568SOL     OW 2602   6.851   6.577   0.456
  568SOL    HW1 2603   6.831   6.660   0.509
  568SOL    HW2 2604   6.938   6.588   0.408
  569SOL     OW 2605   6.664   1.786   0.327
  569SOL    HW1 2606   6.609   1.703   0.323
  569SOL    HW2 2607   6.617   1.855   0.381
  570SOL     OW 2608   2.703   0.483   5.884
  570SOL    HW1 2609   2.765   0.561   5.889
  570SOL    HW2 2610   2.640   0.495   5.807
  571SOL     OW 2611   2.735   5.083   2.171
  571SOL    HW1 2612   2.694   5.031   2.097
  571SOL    HW2 2613   2.833   5.093   2.154
  572SOL     OW 2614   2.163   6.617   3.907
  572SOL    HW1 2615   2.166   6.692   3.973
  572SOL    HW2 2616   2.255   6.597   3.875
  573SOL     OW 2617   6.885   1.386   5.617
  573SOL    HW1 2618   6.810   1.321   5.615
  573SOL    HW2 2619   6.971   1.339   5.637
  574SOL     OW 2620   2.783   1.925   5.745
  574SOL    HW1 2621   2.686   1.930   5.770
  574SOL    HW2 2622   2.829   2.010   5.773
  575SOL     OW 2623   3.004   3.838   0.804
  575SOL    HW1 2624   3.056   3.765   0.758
  575SOL    HW2 2625   3.068   3.899   0.850
  576SOL     OW 2626   2.263   3.033   3.166
  576SOL    HW1 2627   2.176   2.996   3.133
  576SOL    HW2 2628   2.334   3.017   3.098
  577SOL     OW 2629   0.821   1.541   2.106
  577SOL    HW1 2630   0.826   1.444   2.084
  577SOL    HW2 2631   0.773   1.553   2.193
  578SOL     OW 2632   2.115   5.863   6.468
  578SOL    HW1 2633   2.138   5.894   6.376
  578SOL    HW2 2634   2.057   5.931   6.512
  579SOL     OW 2635   2.254   4.740   1.871
  579SOL    HW1 2636   2.211   4.802   1.805
  579SOL    HW2 2637   2.297   4.665   1.822
  580SOL     OW 2638   4.227   5.262   5.177
  580SOL    HW1 2639   4.314   5.212   5.174
  580SOL    HW2 2640   4.244   5.358   5.156
  581SOL     OW 2641   1.671   2.783   4.144
  581SOL    HW1 2642   1.618   2.770   4.060
  581SOL    HW2 2643   1.733   2.706   4.156
  582SOL     OW 2644   5.371   5.086   3.193
  582SOL    HW1 2645   5.323   5.039   3.267
  582SOL    HW2 2646   5.438   5.150   3.232
  583SOL     OW 2647   3.428   5.154   5.826
  583SOL    HW1 2648   3.431   5.236   5.883
  583SOL    HW2 2649   3.337   5.113   5.832
  584SOL     OW 2650   4.491   0.735   6.727
  584SOL    HW1 2651   4.436   0.670   6.675
  584SOL    HW2 2652   4.441   0.820   6.738
  585SOL     OW 2653   2.386   6.768   1.120
  585SOL    HW1 2654   2.320   6.766   1.195
  585SOL    HW2 2655   2.473   6.730   1.152
  586SOL     OW 2656   4.517   6.928   0.905
  586SOL    HW1 2657   4.611   6.937   0.873
  586SOL    HW2 2658   4.505   6.983   0.988
  587SOL     OW 2659   5.249   2.256   2.132
  587SOL    HW1 2660   5.333   2.223   2.174
  587SOL    HW2 2661   5.228   2.347   2.166
  588SOL     OW 2662   0.946   5.612   2.079
  588SOL    HW1 2663   0.945   5.550   2.157
  588SOL    HW2 2664   1.028   5.668   2.081
  589SOL     OW 2665   3.689   6.252   1.410
  589SOL    HW1 2666   3.613   6.285   1.467
  589SOL    HW2 2667   3.681   6.153   1.400
  590SOL     OW 2668   4.919   1.732   0.211
  590SOL    HW1 2669   4.912   1.632   0.208
  590SOL    HW2 2670   4.888   1.765   0.300
  591SOL     OW 2671   4.160   6.153   4.647
  591SOL    HW1 2672   4.130   6.144   4.552
  591SOL    HW2 2673   4.115   6.232   4.689
  592SOL     OW 2674   4.449   2.525   4.458
  592SOL    HW1 2675   4.510   2.548   4.535
  592SOL    HW2 2676   4.502   2.522   4.374
  593SOL     OW 2677   3.382   1.526   5.540
  593SOL    HW1 2678   3.479   1.546   5.553
  593SOL    HW2 2679   3.366   1.501   5.444
  594SOL     OW 2680   6.077   0.873   1.834
  594SOL    HW1 2681   6.040   0.839   1.748
  594SOL    HW2 2682   6.137   0.951   1.816
  595SOL     OW 2683   5.181   6.012   2.801
  595SOL    HW1 2684   5.214   5.934   2.855
  595SOL    HW2 2685   5.252   6.082   2.795
  596SOL     OW 2686   6.772   4.027   3.915
  596SOL    HW1 2687   6.841   4.052   3.847
  596SOL    HW2 2688   6.817   4.013   4.004
  597SOL     OW 2689   2.758   0.242   6.520
  597SOL    HW1 2690   2.762   0.288   6.431
  597SOL    HW2 2691   2.786   0.147   6.509
  598SOL     OW 2692   3.270   2.948   4.350
  598SOL    HW1 2693   3.270   2.936   4.449
  598SOL    HW2 2694   3.206   3.020   4.324
  599SOL     OW 2695   1.179   5.755   2.064
  599SOL    HW1 2696   1.220   5.684   2.008
  599SOL    HW2 2697   1.144   5.828   2.005
  600SOL     OW 2698   6.955   4.077   4.988
  600SOL    HW1 2699   7.008   4.011   4.936
  600SOL    HW2 2700   6.861   4.044   4.997
  601SOL     OW 2701   1.374   0.726   5.092
  601SOL    HW1 2702   1.277   0.701   5.098
  601SOL    HW2 2703   1.419   0.706   5.179
  602SOL     OW 2704   2.856   6.108   4.129
  602SOL    HW1 2705   2.925   6.050   4.172
  602SOL    HW2 2706   2.765   6.074   4.151
  603SOL     OW 2707   1.915   1.159   5.453
  603SOL    HW1 2708   1.945   1.254   5.466
  603SOL    HW2 2709   1.868   1.127   5.535
  604SOL     OW 2710   6.450   2.464   1.806
  604SOL    HW1 2711   6.368   2.441   1.754
  604SOL    HW2 2712   6.527   2.409   1.774
  605SOL     OW 2713   6.984   5.304   2.606
  605SOL    HW1 2714   6.995   5.206   2.622
  605SOL    HW2 2715   6.893   5.322   2.570
  606SOL     OW 2716   3.726   0.173   4.745
  606SOL    HW1 2717   3.659   0.165   4.819
  606SOL    HW2 2718   3.775   0.260   4.754
  607SOL     OW 2719   1.208   4.661   6.360
  607SOL    HW1 2720   1.276   4.656   6.287
  607SOL    HW2 2721   1.117   4.646   6.321
  608SOL     OW 2722   3.400   0.705   5.207
  608SOL    HW1 2723   3.388   0.677   5.302
  608SOL    HW2 2724   3.343   0.647   5.148
  609SOL     OW 2725   3.967   2.662   1.638
  609SOL    HW1 2726   3.962   2.756   1.673
  609SOL    HW2 2727   4.023   2.662   1.554
  610SOL     OW 2728   4.656   3.158   0.667
  610SOL    HW1 2729   4.613   3.213   0.739
  610SOL    HW2 2730   4.755   3.167   0.672
  611SOL     OW 2731   3.937   0.014   2.258
  611SOL    HW1 2732   4.012   0.072   2.289
  611SOL    HW2 2733   3.966   6.982   2.177
  612SOL     OW 2734   3.943   4.533   6.170
  612SOL    HW1 2735   3.995   4.474   6.108
  612SOL    HW2 2736   3.905   4.609   6.118
  613SOL     OW 2737   4.173   5.511   5.393
  613SOL    HW1 2738   4.225   5.436   5.434
  613SOL    HW2 2739   4.197   5.521   5.297
  614SOL     OW 2740   5.163   5.850   5.912
  614SOL    HW1 2741   5.166   5.754   5.885
  614SOL    HW2 2742   5.255   5.881   5.935
  615SOL     OW 2743   0.189   5.018   1.131
  615SOL    HW1 2744   0.217   5.113   1.144
  615SOL    HW2 2745   0.162   4.980   1.219
  616SOL     OW 2746   5.914   3.185   3.299
  616SOL    HW1 2747   5.927   3.134   3.384
  616SOL    HW2 2748   5.823   3.227   3.300
  617SOL     OW 2749   2.169   4.906   6.199
  617SOL    HW1 2750   2.125   4.839   6.139
  617SOL    HW2 2751   2.101   4.970   6.233
  618SOL     OW 2752   1.322   1.268   2.384
  618SOL    HW1 2753   1.413   1.296   2.353
  618SOL    HW2 2754   1.321   1.256   2.483
  619SOL     OW 2755   0.954   1.580   6.426
  619SOL    HW1 2756   0.922   1.500   6.476
  619SOL    HW2 2757   1.042   1.609   6.462
  620SOL     OW 2758   4.937   3.440   0.403
  620SOL    HW1 2759   4.846   3.460   0.438
  620SOL    HW2 2760   5.006   3.473   0.468
  621SOL     OW 2761   0.553   4.604   1.299
  621SOL    HW1 2762   0.467   4.622   1.347
  621SOL    HW2 2763   0.630   4.620   1.361
  622SOL     OW 2764   2.134   1.628   0.420
  622SOL    HW1 2765   2.203   1.611   0.491
  622SOL    HW2 2766   2.047   1.587   0.448
  623SOL     OW 2767   0.618   4.624   6.367
  623SOL    HW1 2768   0.628   4.718   6.335
  623SOL    HW2 2769   0.629   4.620   6.466
  624SOL     OW 2770   0.756   2.651   2.744
  624SOL    HW1 2771   0.724   2.669   2.837
  624SOL    HW2 2772   0.851   2.682   2.735
  625SOL     OW 2773   2.668   1.456   2.472
  625SOL    HW1 2774   2.609   1.409   2.406
  625SOL    HW2 2775   2.750   1.490   2.426
  626SOL     OW 2776   2.435   6.515   4.388
  626SOL    HW1 2777   2.397   6.423   4.395
  626SOL    HW2 2778   2.366   6.582   4.416
  627SOL     OW 2779   5.297   0.664   0.315
  627SOL    HW1 2780   5.383   0.697   0.277
  627SOL    HW2 2781   5.282   0.705   0.405
  628SOL     OW 2782   4.768   3.978   3.945
  628SOL    HW1 2783   4.768   4.036   4.027
  628SOL    HW2 2784   4.795   4.032   3.866
  629SOL     OW 2785   0.693   7.002   0.998
  629SOL    HW1 2786   0.689   7.007   1.098
  629SOL    HW2 2787   0.690   6.907   0.968
  630SOL     OW 2788   4.398   1.559   1.091
  630SOL    HW1 2789   4.476   1.574   1.152
  630SOL    HW2 2790   4.412   1.610   1.006
  631SOL     OW 2791   2.358   7.010   5.440
  631SOL    HW1 2792   2.409   0.067   5.401
  631SOL    HW2 2793   2.305   0.024   5.518
  632SOL     OW 2794   2.354   1.236   1.008
  632SOL    HW1 2795   2.265   1.265   1.045
  632SOL    HW2 2796   2.358   1.136   1.005
  633SOL     OW 2797   2.812   7.008   5.971
  633SOL    HW1 2798   2.796   0.013   6.067
  633SOL    HW2 2799   2.894   0.036   5.938
  634SOL     OW 2800   3.858   5.724   0.961
  634SOL    HW1 2801   3.791   5.760   0.895
  634SOL    HW2 2802   3.948   5.761   0.941
  635SOL     OW 2803   2.791   6.838   2.755
  635SOL    HW1 2804   2.868   6.820   2.693
  635SOL    HW2 2805   2.810   6.796   2.844
  636SOL     OW 2806   4.914   4.976   6.710
  636SOL    HW1 2807   4.973   4.908   6.668
  636SOL    HW2 2808   4.900   5.053   6.647
  637SOL     OW 2809   4.891   4.627   1.364
  637SOL    HW1 2810   4.821   4.567   1.325
  637SOL    HW2 2811   4.980   4.603   1.327
  638SOL     OW 2812   4.863   1.404   1.801
  638SOL    HW1 2813   4.918   1.486   1.785
  638SOL    HW2 2814   4.859   1.386   1.899
  639SOL     OW 2815   4.092   4.751   2.388
  639SOL    HW1 2816   4.140   4.673   2.345
  639SOL    HW2 2817   4.018   4.781   2.328
  640SOL     OW 2818   3.232   4.146   5.331
  640SOL    HW1 2819   3.177   4.104   5.403
  640SOL    HW2 2820   3.194   4.235   5.307
  641SOL     OW 2821   0.041   5.988   5.088
  641SOL    HW1 2822   0.104   5.980   5.011
  641SOL    HW2 2823   0.083   6.045   5.159
  642SOL     OW 2824   0.388   5.070   4.927
  642SOL    HW1 2825   0.365   4.973   4.936
  642SOL    HW2 2826   0.438   5.100   5.008
  643SOL     OW 2827   6.253   5.204   5.935
  643SOL    HW1 2828   6.275   5.268   6.009
  643SOL    HW2 2829   6.168   5.232   5.891
  644SOL     OW 2830   0.593   6.810   2.431
  644SOL    HW1 2831   0.546   6.775   2.512
  644SOL    HW2 2832   0.614   6.907   2.444
  645SOL     OW 2833   5.876   2.531   3.792
  645SOL    HW1 2834   5.928   2.549   3.875
  645SOL    HW2 2835   5.938   2.506   3.718
  646SOL     OW 2836   1.581   1.314   4.809
  646SOL    HW1 2837   1.557   1.220   4.832
  646SOL    HW2 2838   1.609   1.318   4.713
  647SOL     OW 2839   6.055   3.044   0.294
  647SOL    HW1 2840   6.135   3.035   0.353
  647SOL    HW2 2841   6.003   2.959   0.296
  648SOL     OW 2842   6.072   4.125   2.004
  648SOL    HW1 2843   6.034   4.129   2.096
  648SOL    HW2 2844   6.171   4.141   2.008
  649SOL     OW 2845   3.824   4.582   0.825
  649SOL    HW1 2846   3.809   4.668   0.873
  649SOL    HW2 2847   3.793   4.506   0.883
  650SOL     OW 2848   4.907   4.255   0.621
  650SOL    HW1 2849   4.996   4.277   0.581
  650SOL    HW2 2850   4.859   4.190   0.561
  651SOL     OW 2851   1.037   6.016   0.455
  651SOL    HW1 2852   0.987   6.075   0.519
  651SOL    HW2 2853   1.086   5.945   0.507
  652SOL     OW 2854   4.459   1.213   2.450
  652SOL    HW1 2855   4.439   1.277   2.377
  652SOL    HW2 2856   4.374   1.183   2.493
  653SOL     OW 2857   3.733   4.860   3.948
  653SOL    HW1 2858   3.658   4.795   3.932
  653SOL    HW2 2859   3.782   4.835   4.031
  654SOL     OW 2860   0.020   5.042   6.804
  654SOL    HW1 2861   0.086   4.971   6.779
  654SOL    HW2 2862   6.977   5.059   6.727
  655SOL     OW 2863   0.879   0.593   0.875
  655SOL    HW1 2864   0.826   0.556   0.798
  655SOL    HW2 2865   0.934   0.520   0.916
  656SOL     OW 2866   2.372   6.447   2.123
  656SOL    HW1 2867   2.456   6.501   2.118
  656SOL    HW2 2868   2.306   6.494   2.181
  657SOL     OW 2869   3.480   1.303   0.687
  657SOL    HW1 2870   3.473   1.273   0.592
  657SOL    HW2 2871   3.542   1.381   0.693
  658SOL     OW 2872   3.047   3.640   6.581
  658SOL    HW1 2873   3.106   3.629   6.660
  658SOL    HW2 2874   2.996   3.556   6.564
  659SOL     OW 2875   3.246   6.747   6.982
  659SOL    HW1 2876   3.178   6.815   6.956
  659SOL    HW2 2877   3.258   6.746   0.062
  660SOL     OW 2878   3.517   5.474   2.739
  660SOL    HW1 2879   3.585   5.402   2.754
  660SOL    HW2 2880   3.559   5.563   2.755
  661SOL     OW 2881   4.574   5.362   2.757
  661SOL    HW1 2882   4.564   5.384   2.660
  661SOL    HW2 2883   4.529   5.433   2.811
  662SOL     OW 2884   3.501   1.326   6.205
  662SOL    HW1 2885   3.441   1.398   6.240
  662SOL    HW2 2886   3.495   1.323   6.106
  663SOL     OW 2887   2.275   4.933   5.297
  663SOL    HW1 2888   2.291   4.834   5.297
  663SOL    HW2 2889   2.311   4.972   5.382
  664SOL     OW 2890   6.892   0.613   6.902
  664SOL    HW1 2891   6.900   0.658   6.813
  664SOL    HW2 2892   6.817   0.547   6.899
  665SOL     OW 2893   2.343   5.465   3.224
  665SOL    HW1 2894   2.291   5.519   3.159
  665SOL    HW2 2895   2.312   5.370   3.221
  666SOL     OW 2896   3.680   0.721   1.783
  666SOL    HW1 2897   3.649   0.637   1.737
  666SOL    HW2 2898   3.771   0.706   1.822
  667SOL     OW 2899   1.148   6.136   2.159
  667SOL    HW1 2900   1.066   6.137   2.215
  667SOL    HW2 2901   1.123   6.157   2.064
  668SOL     OW 2902   5.474   4.003   6.373
  668SOL    HW1 2903   5.525   4.006   6.287
  668SOL    HW2 2904   5.428   3.915   6.383
  669SOL     OW 2905   5.116   1.083   2.814
  669SOL    HW1 2906   5.045   1.151   2.832
  669SOL    HW2 2907   5.200   1.109   2.862
  670SOL     OW 2908   1.509   2.084   3.695
  670SOL    HW1 2909   1.456   2.080   3.780
  670SOL    HW2 2910   1.545   2.176   3.682
  671SOL     OW 2911   2.397   6.345   1.372
  671SOL    HW1 2912   2.344   6.277   1.321
  671SOL    HW2 2913   2.487   6.355   1.329
  672SOL     OW 2914   0.780   6.815   2.205
  672SOL    HW1 2915   0.716   6.805   2.281
  672SOL    HW2 2916   0.768   6.740   2.140
  673SOL     OW 2917   5.359   6.873   0.748
  673SOL    HW1 2918   5.276   6.928   0.753
  673SOL    HW2 2919   5.408   6.893   0.663
  674SOL     OW 2920   0.061   0.481   5.056
  674SOL    HW1 2921   0.135   0.498   4.991
  674SOL    HW2 2922   0.096   0.489   5.149
  675SOL     OW 2923   6.345   2.729   2.511
  675SOL    HW1 2924   6.324   2.796   2.582
  675SOL    HW2 2925   6.264   2.674   2.492
  676SOL     OW 2926   2.105   4.697   5.500
  676SOL    HW1 2927   2.194   4.733   5.527
  676SOL    HW2 2928   2.083   4.616   5.554
  677SOL     OW 2929   4.537   1.028   1.213
  677SOL    HW1 2930   4.586   1.068   1.136
  677SOL    HW2 2931   4.603   0.992   1.279
  678SOL     OW 2932   2.271   4.235   5.549
  678SOL    HW1 2933   2.334   4.209   5.476
  678SOL    HW2 2934   2.180   4.200   5.529
  679SOL     OW 2935   4.842   1.851   4.985
  679SOL    HW1 2936   4.920   1.830   5.044
  679SOL    HW2 2937   4.782   1.772   4.979
  680SOL     OW 2938   5.137   6.759   4.337
  680SOL    HW1 2939   5.236   6.753   4.323
  680SOL    HW2 2940   5.098   6.667   4.333
  681SOL     OW 2941   4.880   5.623   1.918
  681SOL    HW1 2942   4.946   5.645   1.990
  681SOL    HW2 2943   4.916   5.653   1.830
  682SOL     OW 2944   0.935   0.592   2.985
  682SOL    HW1 2945   0.982   0.656   3.047
  682SOL    HW2 2946   1.002   0.536   2.937
  683SOL     OW 2947   4.246   3.828   1.348
  683SOL    HW1 2948   4.159   3.853   1.390
  683SOL    HW2 2949   4.286   3.751   1.397
  684SOL     OW 2950   6.529   0.068   5.979
  684SOL    HW1 2951   6.486   0.121   5.906
  684SOL    HW2 2952   6.595   0.125   6.028
  685SOL     OW 2953   3.640   0.467   3.135
  685SOL    HW1 2954   3.639   0.423   3.224
  685SOL    HW2 2955   3.725   0.445   3.087
  686SOL     OW 2956   4.038   1.447   4.455
  686SOL    HW1 2957   4.051   1.436   4.357
  686SOL    HW2 2958   4.057   1.361   4.502
  687SOL     OW 2959   1.208   2.064   4.486
  687SOL    HW1 2960   1.302   2.098   4.487
  687SOL    HW2 2961   1.187   2.024   4.397
  688SOL     OW 2962   6.656   1.484   6.815
  688SOL    HW1 2963   6.657   1.508   6.912
  688SOL    HW2 2964   6.633   1.565   6.761
  689SOL     OW 2965   1.660   5.193   5.706
  689SOL    HW1 2966   1.658   5.167   5.610
  689SOL    HW2 2967   1.684   5.113   5.762
  690SOL     OW 2968   6.001   3.685   2.516
  690SOL    HW1 2969   5.961   3.668   2.606
  690SOL    HW2 2970   5.931   3.722   2.455
  691SOL     OW 2971   4.112   1.903   6.612
  691SOL    HW1 2972   4.197   1.860   6.643
  691SOL    HW2 2973   4.034   1.859   6.656
  692SOL     OW 2974   2.861   1.447   5.097
  692SOL    HW1 2975   2.919   1.406   5.167
  692SOL    HW2 2976   2.906   1.438   5.008
  693SOL     OW 2977   5.120   6.167   3.401
  693SOL    HW1 2978   5.130   6.235   3.474
  693SOL    HW2 2979   5.152   6.206   3.314
  694SOL     OW 2980   4.292   5.759   4.955
  694SOL    HW1 2981   4.242   5.778   5.039
  694SOL    HW2 2982   4.229   5.723   4.886
  695SOL     OW 2983   3.032   6.649   4.018
  695SOL    HW1 2984   3.073   6.615   4.103
  695SOL    HW2 2985   2.937   6.675   4.035
  696SOL     OW 2986   5.153   4.127   2.985
  696SOL    HW1 2987   5.204   4.212   2.993
  696SOL    HW2 2988   5.155   4.095   2.891
  697SOL     OW 2989   0.495   4.958   2.367
  697SOL    HW1 2990   0.529   4.940   2.460
  697SOL    HW2 2991   0.424   4.891   2.344
  698SOL     OW 2992   5.403   6.887   1.210
  698SOL    HW1 2993   5.354   6.860   1.294
  698SOL    HW2 2994   5.347   6.952   1.159
  699SOL     OW 2995   3.043   2.022   0.691
  699SOL    HW1 2996   2.945   2.042   0.693
  699SOL    HW2 2997   3.076   2.021   0.597
  700SOL     OW 2998   3.366   0.016   2.970
  700SOL    HW1 2999   3.379   0.110   2.937
  700SOL    HW2 3000   3.442   7.010   3.029
  701SOL     OW 3001   6.088   5.060   1.388
  701SOL    HW1 3002   6.062   4.966   1.410
  701SOL    HW2 3003   6.014   5.122   1.411
  702SOL     OW 3004   2.875   1.089   4.328
  702SOL    HW1 3005   2.819   1.128   4.401
  702SOL    HW2 3006   2.972   1.103   4.350
  703SOL     OW 3007   3.262   2.583   6.166
  703SOL    HW1 3008   3.301   2.673   6.148
  703SOL    HW2 3009   3.199   2.559   6.093
  704SOL     OW 3010   1.835   3.120   6.055
  704SOL    HW1 3011   1.755   3.180   6.047
  704SOL    HW2 3012   1.853   3.101   6.151
  705SOL     OW 3013   6.899   5.985   4.425
  705SOL    HW1 3014   6.810   6.021   4.454
  705SOL    HW2 3015   6.907   5.889   4.453
  706SOL     OW 3016   4.605   1.245   5.052
  706SOL    HW1 3017   4.675   1.219   4.986
  706SOL    HW2 3018   4.536   1.173   5.057
  707SOL     OW 3019   3.237   4.998   3.432
  707SOL    HW1 3020   3.191   4.954   3.355
  707SOL    HW2 3021   3.335   4.996   3.417
  708SOL     OW 3022   3.282   1.098   3.466
  708SOL    HW1 3023   3.187   1.067   3.472
  708SOL    HW2 3024   3.335   1.033   3.411
  709SOL     OW 3025   2.302   0.187   1.524
  709SOL    HW1 3026   2.210   0.185   1.564
  709SOL    HW2 3027   2.369   0.173   1.596
  710SOL     OW 3028   4.531   2.808   1.698
  710SOL    HW1 3029   4.559   2.896   1.738
  710SOL    HW2 3030   4.581   2.793   1.613
  711SOL     OW 3031   0.294   2.255   6.018
  711SOL    HW1 3032   0.322   2.165   5.983
  711SOL    HW2 3033   0.231   2.244   6.094
  712SOL     OW 3034   4.768   2.814   0.741
  712SOL    HW1 3035   4.859   2.837   0.773
  712SOL    HW2 3036   4.774   2.777   0.648
  713SOL     OW 3037   4.123   2.741   5.337
  713SOL    HW1 3038   4.138   2.667   5.271
  713SOL    HW2 3039   4.061   2.809   5.298
  714SOL     OW 3040   5.711   4.739   3.410
  714SOL    HW1 3041   5.758   4.819   3.372
  714SOL    HW2 3042   5.776   4.664   3.422
  715SOL     OW 3043   6.499   5.241   5.794
  715SOL    HW1 3044   6.517   5.332   5.756
  715SOL    HW2 3045   6.411   5.241   5.841
  716SOL     OW 3046   2.020   1.030   2.678
  716SOL    HW1 3047   2.026   1.119   2.633
  716SOL    HW2 3048   1.939   0.982   2.647
  717SOL     OW 3049   5.696   4.836   3.980
  717SOL    HW1 3050   5.679   4.802   3.888
  717SOL    HW2 3051   5.735   4.928   3.975
  718SOL     OW 3052   4.714   1.916   4.169
  718SOL    HW1 3053   4.800   1.940   4.216
  718SOL    HW2 3054   4.720   1.945   4.074
  719SOL     OW 3055   6.012   0.589   2.773
  719SOL    HW1 3056   5.983   0.656   2.841
  719SOL    HW2 3057   6.028   0.501   2.817
  720SOL     OW 3058   1.865   1.161   0.367
  720SOL    HW1 3059   1.809   1.173   0.449
  720SOL    HW2 3060   1.839   1.075   0.322
  721SOL     OW 3061   7.001   2.409   2.826
  721SOL    HW1 3062   7.015   2.443   2.733
  721SOL    HW2 3063   0.069   2.410   2.875
  722SOL     OW 3064   4.091   0.046   6.793
  722SOL    HW1 3065   4.180   0.090   6.798
  722SOL    HW2 3066   4.089   6.986   6.855
  723SOL     OW 3067   2.457   6.055   3.983
  723SOL    HW1 3068   2.535   6.099   3.940
  723SOL    HW2 3069   2.434   5.972   3.933
  724SOL     OW 3070   0.893   0.862   3.955
  724SOL    HW1 3071   0.828   0.810   3.900
  724SOL    HW2 3072   0.924   0.805   4.031
  725SOL     OW 3073   1.983   4.451   2.006
  725SOL    HW1 3074   1.926   4.379   1.967
  725SOL    HW2 3075   2.073   4.414   2.028
  726SOL     OW 3076   2.113   5.123   0.693
  726SOL    HW1 3077   2.023   5.152   0.725
  726SOL    HW2 3078   2.178   5.125   0.770
  727SOL     OW 3079   4.701   5.178   5.802
  727SOL    HW1 3080   4.638   5.109   5.839
  727SOL    HW2 3081   4.651   5.261   5.778
  728SOL     OW 3082   0.002   3.085   4.989
  728SOL    HW1 3083   0.046   3.013   5.043
  728SOL    HW2 3084   0.054   3.170   4.998
  729SOL     OW 3085   0.448   3.615   1.386
  729SOL    HW1 3086   0.467   3.659   1.298
  729SOL    HW2 3087   0.534   3.595   1.433
  730SOL     OW 3088   4.792   0.718   2.552
  730SOL    HW1 3089   4.870   0.656   2.552
  730SOL    HW2 3090   4.815   0.801   2.602
  731SOL     OW 3091   4.333   4.543   6.889
  731SOL    HW1 3092   4.418   4.594   6.875
  731SOL    HW2 3093   4.304   4.502   6.803
  732SOL     OW 3094   4.793   1.575   2.993
  732SOL    HW1 3095   4.766   1.650   3.054
  732SOL    HW2 3096   4.815   1.494   3.047
  733SOL     OW 3097   6.385   6.410   3.345
  733SOL    HW1 3098   6.449   6.455   3.407
  733SOL    HW2 3099   6.332   6.342   3.396
  734SOL     OW 3100   5.946   5.633   2.779
  734SOL    HW1 3101   5.908   5.649   2.688
  734SOL    HW2 3102   6.046   5.631   2.773
  735SOL     OW 3103   5.243   0.665   2.027
  735SOL    HW1 3104   5.239   0.743   1.964
  735SOL    HW2 3105   5.335   0.659   2.067
  736SOL     OW 3106   1.385   1.664   4.275
  736SOL    HW1 3107   1.299   1.616   4.266
  736SOL    HW2 3108   1.419   1.689   4.184
  737SOL     OW 3109   5.150   1.423   6.202
  737SOL    HW1 3110   5.100   1.346   6.241
  737SOL    HW2 3111   5.126   1.433   6.105
  738SOL     OW 3112   2.716   4.287   1.444
  738SOL    HW1 3113   2.723   4.220   1.370
  738SOL    HW2 3114   2.736   4.243   1.532
  739SOL     OW 3115   3.031   6.773   4.642
  739SOL    HW1 3116   3.013   6.825   4.725
  739SOL    HW2 3117   3.100   6.703   4.660
  740SOL     OW 3118   5.827   2.384   2.914
  740SOL    HW1 3119   5.822   2.336   2.827
  740SOL    HW2 3120   5.736   2.390   2.955
  741SOL     OW 3121   2.723   0.687   3.508
  741SOL    HW1 3122   2.721   0.786   3.517
  741SOL    HW2 3123   2.728   0.645   3.599
  742SOL     OW 3124   1.619   0.142   1.325
  742SOL    HW1 3125   1.661   0.053   1.304
  742SOL    HW2 3126   1.690   0.206   1.354
  743SOL     OW 3127   1.041   6.095   3.743
  743SOL    HW1 3128   0.966   6.063   3.685
  743SOL    HW2 3129   1.063   6.025   3.811
  744SOL     OW 3130   5.395   1.235   0.445
  744SOL    HW1 3131   5.376   1.208   0.350
  744SOL    HW2 3132   5.367   1.330   0.458
  745SOL     OW 3133   2.148   5.541   5.078
  745SOL    HW1 3134   2.169   5.581   4.989
  745SOL    HW2 3135   2.050   5.518   5.082
  746SOL     OW 3136   5.564   4.697   5.848
  746SOL    HW1 3137   5.548   4.615   5.794
  746SOL    HW2 3138   5.645   4.684   5.906
  747SOL     OW 3139   5.723   5.366   3.093
  747SOL    HW1 3140   5.763   5.454   3.119
  747SOL    HW2 3141   5.759   5.338   3.004
  748SOL     OW 3142   5.339   5.661   2.608
  748SOL    HW1 3143   5.267   5.723   2.578
  748SOL    HW2 3144   5.322   5.634   2.703
  749SOL     OW 3145   5.124   4.147   3.559
  749SOL    HW1 3146   5.100   4.176   3.466
  749SOL    HW2 3147   5.211   4.188   3.585
  750SOL     OW 3148   2.641   1.737   1.923
  750SOL    HW1 3149   2.544   1.715   1.931
  750SOL    HW2 3150   2.655   1.799   1.845
  751SOL     OW 3151   4.843   0.995   0.262
  751SOL    HW1 3152   4.903   0.915   0.271
  751SOL    HW2 3153   4.764   0.971   0.205
  752SOL     OW 3154   3.089   2.551   5.357
  752SOL    HW1 3155   2.990   2.563   5.361
  752SOL    HW2 3156   3.111   2.480   5.290
  753SOL     OW 3157   3.827   4.099   4.805
  753SOL    HW1 3158   3.837   4.059   4.714
  753SOL    HW2 3159   3.870   4.190   4.806
  754SOL     OW 3160   5.331   0.709   6.538
  754SOL    HW1 3161   5.275   0.712   6.456
  754SOL    HW2 3162   5.410   0.769   6.526
  755SOL     OW 3163   3.756   4.363   5.724
  755SOL    HW1 3164   3.696   4.283   5.714
  755SOL    HW2 3165   3.808   4.376   5.640
  756SOL     OW 3166   2.438   5.192   6.502
  756SOL    HW1 3167   2.486   5.227   6.422
  756SOL    HW2 3168   2.396   5.267   6.552
  757SOL     OW 3169   1.982   6.931   2.408
  757SOL    HW1 3170   1.987   6.992   2.487
  757SOL    HW2 3171   1.896   6.945   2.360
  758SOL     OW 3172   3.429   1.706   3.992
  758SOL    HW1 3173   3.366   1.729   4.066
  758SOL    HW2 3174   3.416   1.769   3.916
  759SOL     OW 3175   0.523   3.063   4.495
  759SOL    HW1 3176   0.551   2.967   4.490
  759SOL    HW2 3177   0.551   3.111   4.412
  760SOL     OW 3178   6.808   6.528   3.958
  760SOL    HW1 3179   6.750   6.505   4.036
  760SOL    HW2 3180   6.903   6.503   3.978
  761SOL     OW 3181   4.565   4.272   5.561
  761SOL    HW1 3182   4.544   4.212   5.638
  761SOL    HW2 3183   4.496   4.259   5.489
  762SOL     OW 3184   2.697   5.914   4.615
  762SOL    HW1 3185   2.704   5.923   4.714
  762SOL    HW2 3186   2.715   5.819   4.589
  763SOL     OW 3187   5.813   0.919   6.511
  763SOL    HW1 3188   5.888   0.918   6.445
  763SOL    HW2 3189   5.769   1.009   6.510
  764SOL     OW 3190   5.169   6.632   5.068
  764SOL    HW1 3191   5.119   6.692   5.131
  764SOL    HW2 3192   5.266   6.633   5.092
  765SOL     OW 3193   0.549   6.533   0.516
  765SOL    HW1 3194   0.517   6.547   0.610
  765SOL    HW2 3195   0.641   6.572   0.506
  766SOL     OW 3196   1.745   2.561   5.363
  766SOL    HW1 3197   1.758   2.558   5.264
  766SOL    HW2 3198   1.666   2.505   5.388
  767SOL     OW 3199   0.438   6.564   4.260
  767SOL    HW1 3200   0.382   6.588   4.340
  767SOL    HW2 3201   0.516   6.509   4.290
  768SOL     OW 3202   2.522   5.988   2.330
  768SOL    HW1 3203   2.499   6.001   2.426
  768SOL    HW2 3204   2.481   6.061   2.276
  769SOL     OW 3205   3.016   2.016   5.057
  769SOL    HW1 3206   3.049   1.967   5.138
  769SOL    HW2 3207   3.076   2.093   5.038
  770SOL     OW 3208   1.755   4.459   4.602
  770SOL    HW1 3209   1.750   4.535   4.668
  770SOL    HW2 3210   1.843   4.413   4.611
  771SOL     OW 3211   1.218   5.774   3.313
  771SOL    HW1 3212   1.289   5.704   3.310
  771SOL    HW2 3213   1.128   5.730   3.313
  772SOL     OW 3214   5.223   4.771   6.812
  772SOL    HW1 3215   5.175   4.735   6.891
  772SOL    HW2 3216   5.242   4.869   6.826
  773SOL     OW 3217   0.973   3.299   3.553
  773SOL    HW1 3218   0.992   3.274   3.458
  773SOL    HW2 3219   1.046   3.264   3.612
  774SOL     OW 3220   2.277   0.732   3.448
  774SOL    HW1 3221   2.197   0.778   3.409
  774SOL    HW2 3222   2.343   0.711   3.375
  775SOL     OW 3223   2.218   4.053   4.261
  775SOL    HW1 3224   2.258   4.023   4.175
  775SOL    HW2 3225   2.170   3.976   4.304
  776SOL     OW 3226   2.357   6.322   6.306
  776SOL    HW1 3227   2.313   6.390   6.248
  776SOL    HW2 3228   2.293   6.293   6.378
  777SOL     OW 3229   1.998   3.874   6.726
  777SOL    HW1 3230   1.964   3.966   6.705
  777SOL    HW2 3231   2.094   3.879   6.753
  778SOL     OW 3232   3.087   6.940   1.560
  778SOL    HW1 3233   3.090   0.008   1.511
  778SOL    HW2 3234   3.006   6.936   1.618
  779SOL     OW 3235   0.434   1.918   2.580
  779SOL    HW1 3236   0.525   1.934   2.619
  779SOL    HW2 3237   0.431   1.954   2.486
  780SOL     OW 3238   1.133   1.612   5.645
  780SOL    HW1 3239   1.138   1.598   5.744
  780SOL    HW2 3240   1.225   1.609   5.607
  781SOL     OW 3241   0.678   3.875   0.798
  781SOL    HW1 3242   0.761   3.905   0.751
  781SOL    HW2 3243   0.667   3.926   0.883
  782SOL     OW 3244   1.635   3.739   5.969
  782SOL    HW1 3245   1.680   3.780   5.889
  782SOL    HW2 3246   1.702   3.721   6.040
  783SOL     OW 3247   5.562   4.465   6.879
  783SOL    HW1 3248   5.551   4.564   6.868
  783SOL    HW2 3249   5.638   4.434   6.821
  784SOL     OW 3250   3.289   6.377   0.741
  784SOL    HW1 3251   3.226   6.341   0.809
  784SOL    HW2 3252   3.246   6.453   0.692
  785SOL     OW 3253   0.513   0.250   4.685
  785SOL    HW1 3254   0.423   0.290   4.671
  785SOL    HW2 3255   0.566   0.308   4.748
  786SOL     OW 3256   6.631   1.015   3.289
  786SOL    HW1 3257   6.717   1.005   3.339
  786SOL    HW2 3258   6.561   1.049   3.350
  787SOL     OW 3259   2.702   0.056   0.431
  787SOL    HW1 3260   2.781   0.021   0.381
  787SOL    HW2 3261   2.621   0.052   0.373
  788SOL     OW 3262   3.740   3.418   1.007
  788SOL    HW1 3263   3.815   3.421   1.073
  788SOL    HW2 3264   3.716   3.323   0.988
  789SOL     OW 3265   4.600   5.352   1.515
  789SOL    HW1 3266   4.636   5.395   1.597
  789SOL    HW2 3267   4.662   5.281   1.484
  790SOL     OW 3268   0.725   2.784   2.467
  790SOL    HW1 3269   0.695   2.878   2.479
  790SOL    HW2 3270   0.721   2.737   2.555
  791SOL     OW 3271   2.915   5.316   5.059
  791SOL    HW1 3272   2.898   5.252   4.985
  791SOL    HW2 3273   2.949   5.402   5.022
  792SOL     OW 3274   1.118   1.266   1.112
  792SOL    HW1 3275   1.019   1.252   1.108
  792SOL    HW2 3276   1.159   1.240   1.025
  793SOL     OW 3277   3.657   5.951   4.072
  793SOL    HW1 3278   3.684   5.860   4.041
  793SOL    HW2 3279   3.587   5.988   4.011
  794SOL     OW 3280   3.406   3.274   3.371
  794SOL    HW1 3281   3.454   3.362   3.362
  794SOL    HW2 3282   3.472   3.200   3.363
  795SOL     OW 3283   4.034   0.165   6.292
  795SOL    HW1 3284   4.017   0.262   6.276
  795SOL    HW2 3285   4.092   0.154   6.373
  796SOL     OW 3286   1.571   3.456   6.862
  796SOL    HW1 3287   1.497   3.436   6.798
  796SOL    HW2 3288   1.640   3.383   6.858
  797SOL     OW 3289   4.938   6.817   1.018
  797SOL    HW1 3290   4.859   6.800   1.077
  797SOL    HW2 3291   4.954   6.916   1.012
  798SOL     OW 3292   3.939   6.747   0.297
  798SOL    HW1 3293   4.008   6.819   0.286
  798SOL    HW2 3294   3.976   6.673   0.352
  799SOL     OW 3295   1.275   2.116   6.693
  799SOL    HW1 3296   1.198   2.167   6.731
  799SOL    HW2 3297   1.349   2.113   6.761
  800SOL     OW 3298   6.342   2.295   1.603
  800SOL    HW1 3299   6.352   2.230   1.679
  800SOL    HW2 3300   6.343   2.245   1.516
  801SOL     OW 3301   1.837   5.394   5.445
  801SOL    HW1 3302   1.926   5.362   5.479
  801SOL    HW2 3303   1.850   5.437   5.356
  802SOL     OW 3304   5.682   2.542   6.961
  802SOL    HW1 3305   5.590   2.578   6.973
  802SOL    HW2 3306   5.726   2.533   0.032
  803SOL     OW 3307   2.657   1.129   5.418
  803SOL    HW1 3308   2.650   1.227   5.436
  803SOL    HW2 3309   2.569   1.095   5.386
  804SOL     OW 3310   6.417   0.400   1.732
  804SOL    HW1 3311   6.500   0.423   1.783
  804SOL    HW2 3312   6.407   0.301   1.727
  805SOL     OW 3313   3.473   0.417   3.393
  805SOL    HW1 3314   3.381   0.446   3.366
  805SOL    HW2 3315   3.515   0.489   3.449
  806SOL     OW 3316   1.551   6.498   5.109
  806SOL    HW1 3317   1.539   6.460   5.201
  806SOL    HW2 3318   1.534   6.596   5.110
  807SOL     OW 3319   0.560   6.468   5.689
  807SOL    HW1 3320   0.460   6.473   5.697
  807SOL    HW2 3321   0.597   6.418   5.768
  808SOL     OW 3322   5.495   2.797   0.151
  808SOL    HW1 3323   5.576   2.851   0.127
  808SOL    HW2 3324   5.428   2.855   0.197
  809SOL     OW 3325   1.213   5.031   0.318
  809SOL    HW1 3326   1.256   4.969   0.252
  809SOL    HW2 3327   1.191   4.980   0.402
  810SOL     OW 3328   3.018   3.638   0.202
  810SOL    HW1 3329   3.110   3.653   0.166
  810SOL    HW2 3330   2.961   3.598   0.131
  811SOL     OW 3331   5.513   4.523   4.497
  811SOL    HW1 3332   5.585   4.544   4.430
  811SOL    HW2 3333   5.425   4.515   4.450
  812SOL     OW 3334   0.703   2.477   1.938
  812SOL    HW1 3335   0.732   2.398   1.884
  812SOL    HW2 3336   0.610   2.503   1.913
  813SOL     OW 3337   1.548   1.811   4.998
  813SOL    HW1 3338   1.526   1.884   4.934
  813SOL    HW2 3339   1.622   1.755   4.961
  814SOL     OW 3340   1.102   5.499   3.447
  814SOL    HW1 3341   1.124   5.464   3.539
  814SOL    HW2 3342   1.066   5.425   3.391
  815SOL     OW 3343   4.886   2.376   3.863
  815SOL    HW1 3344   4.942   2.298   3.892
  815SOL    HW2 3345   4.793   2.365   3.899
  816SOL     OW 3346   5.211   3.648   0.016
  816SOL    HW1 3347   5.249   3.716   0.078
  816SOL    HW2 3348   5.197   3.562   0.065
  817SOL     OW 3349   1.063   4.875   0.000
  817SOL    HW1 3350   1.015   4.789   7.006
  817SOL    HW2 3351   1.159   4.864   6.993
  818SOL     OW 3352   6.154   2.513   3.917
  818SOL    HW1 3353   6.236   2.489   3.864
  818SOL    HW2 3354   6.176   2.515   4.014
  819SOL     OW 3355   5.138   2.739   2.082
  819SOL    HW1 3356   5.187   2.810   2.031
  819SOL    HW2 3357   5.041   2.745   2.063
  820SOL     OW 3358   2.514   1.845   5.326
  820SOL    HW1 3359   2.597   1.859   5.380
  820SOL    HW2 3360   2.489   1.748   5.330
  821SOL     OW 3361   5.560   3.785   5.205
  821SOL    HW1 3362   5.495   3.820   5.138
  821SOL    HW2 3363   5.584   3.691   5.181
  822SOL     OW 3364   0.485   4.395   3.575
  822SOL    HW1 3365   0.415   4.366   3.640
  822SOL    HW2 3366   0.501   4.321   3.509
  823SOL     OW 3367   0.744   3.573   5.740
  823SOL    HW1 3368   0.701   3.527   5.662
  823SOL    HW2 3369   0.839   3.543   5.749
  824SOL     OW 3370   5.636   1.224   5.206
  824SOL    HW1 3371   5.649   1.256   5.112
  824SOL    HW2 3372   5.707   1.262   5.264
  825SOL     OW 3373   6.898   5.876   1.142
  825SOL    HW1 3374   6.992   5.901   1.117
  825SOL    HW2 3375   6.900   5.791   1.195
  826SOL     OW 3376   3.675   1.170   5.557
  826SOL    HW1 3377   3.625   1.165   5.644
  826SOL    HW2 3378   3.610   1.175   5.482
  827SOL     OW 3379   3.319   3.838   4.168
  827SOL    HW1 3380   3.363   3.813   4.082
  827SOL    HW2 3381   3.221   3.853   4.152
  828SOL     OW 3382   5.974   5.564   4.913
  828SOL    HW1 3383   5.920   5.596   4.835
  828SOL    HW2 3384   6.056   5.517   4.880
  829SOL     OW 3385   3.306   3.032   2.576
  829SOL    HW1 3386   3.251   2.996   2.651
  829SOL    HW2 3387   3.382   3.085   2.612
  830SOL     OW 3388   6.674   4.767   0.027
  830SOL    HW1 3389   6.618   4.732   0.101
  830SOL    HW2 3390   6.615   4.811   6.978
  831SOL     OW 3391   5.556   6.391   1.086
  831SOL    HW1 3392   5.588   6.376   1.180
  831SOL    HW2 3393   5.609   6.464   1.044
  832SOL     OW 3394   3.321   2.075   4.916
  832SOL    HW1 3395   3.260   2.006   4.878
  832SOL    HW2 3396   3.270   2.159   4.935
  833SOL     OW 3397   1.894   3.083   6.309
  833SOL    HW1 3398   1.868   3.062   6.403
  833SOL    HW2 3399   1.985   3.047   6.291
  834SOL     OW 3400   4.740   3.554   6.587
  834SOL    HW1 3401   4.743   3.654   6.594
  834SOL    HW2 3402   4.832   3.520   6.566
  835SOL     OW 3403   1.082   0.106   4.615
  835SOL    HW1 3404   1.047   0.062   4.533
  835SOL    HW2 3405   1.157   0.168   4.591
  836SOL     OW 3406   3.082   1.218   5.052
  836SOL    HW1 3407   3.132   1.284   5.108
  836SOL    HW2 3408   3.146   1.150   5.015
  837SOL     OW 3409   1.701   0.639   0.560
  837SOL    HW1 3410   1.619   0.599   0.601
  837SOL    HW2 3411   1.735   0.713   0.617
  838SOL     OW 3412   1.905   5.651   3.590
  838SOL    HW1 3413   1.940   5.702   3.512
  838SOL    HW2 3414   1.956   5.677   3.672
  839SOL     OW 3415   1.656   1.631   1.017
  839SOL    HW1 3416   1.566   1.661   0.985
  839SOL    HW2 3417   1.657   1.631   1.117
  840SOL     OW 3418   5.226   5.863   0.396
  840SOL    HW1 3419   5.322   5.888   0.407
  840SOL    HW2 3420   5.192   5.897   0.309
  841SOL     OW 3421   3.598   4.954   5.837
  841SOL    HW1 3422   3.618   4.936   5.934
  841SOL    HW2 3423   3.540   5.035   5.830
  842SOL     OW 3424   3.257   0.333   0.196
  842SOL    HW1 3425   3.283   0.381   0.112
  842SOL    HW2 3426   3.180   0.381   0.239
  843SOL     OW 3427   1.435   1.674   2.073
  843SOL    HW1 3428   1.500   1.747   2.051
  843SOL    HW2 3429   1.450   1.597   2.011
  844SOL     OW 3430   6.334   6.807   1.004
  844SOL    HW1 3431   6.365   6.876   1.069
  844SOL    HW2 3432   6.242   6.829   0.972
  845SOL     OW 3433   3.420   1.720   2.638
  845SOL    HW1 3434   3.431   1.758   2.730
  845SOL    HW2 3435   3.445   1.623   2.638
  846SOL     OW 3436   2.845   1.828   0.226
  846SOL    HW1 3437   2.842   1.737   0.268
  846SOL    HW2 3438   2.855   1.897   0.297
  847SOL     OW 3439   2.433   4.364   1.452
  847SOL    HW1 3440   2.404   4.269   1.459
  847SOL    HW2 3441   2.533   4.369   1.452
  848SOL     OW 3442   6.873   6.415   6.338
  848SOL    HW1 3443   6.829   6.415   6.428
  848SOL    HW2 3444   6.908   6.324   6.318
  849SOL     OW 3445   5.889   4.087   0.437
  849SOL    HW1 3446   5.989   4.080   0.446
  849SOL    HW2 3447   5.859   4.178   0.464
  850SOL     OW 3448   0.085   0.635   5.622
  850SOL    HW1 3449   0.113   0.665   5.531
  850SOL    HW2 3450   7.008   0.609   5.620
  851SOL     OW 3451   6.465   3.157   6.139
  851SOL    HW1 3452   6.535   3.226   6.120
  851SOL    HW2 3453   6.466   3.134   6.236
  852SOL     OW 3454   6.964   3.705   2.040
  852SOL    HW1 3455   6.921   3.616   2.022
  852SOL    HW2 3456   6.985   3.750   1.954
  853SOL     OW 3457   2.111   3.745   0.079
  853SOL    HW1 3458   2.199   3.717   0.040
  853SOL    HW2 3459   2.040   3.740   0.009
  854SOL     OW 3460   5.770   6.469   6.963
  854SOL    HW1 3461   5.860   6.439   6.931
  854SOL    HW2 3462   5.710   6.390   6.974
  855SOL     OW 3463   5.952   1.029   0.621
  855SOL    HW1 3464   5.940   1.121   0.584
  855SOL    HW2 3465   5.964   0.964   0.546
  856SOL     OW 3466   2.229   6.497   6.976
  856SOL    HW1 3467   2.138   6.493   6.935
  856SOL    HW2 3468   2.245   6.587   7.016
  857SOL     OW 3469   6.606   5.114   4.233
  857SOL    HW1 3470   6.509   5.104   4.256
  857SOL    HW2 3471   6.630   5.211   4.232
  858SOL     OW 3472   3.606   3.398   0.308
  858SOL    HW1 3473   3.673   3.356   0.370
  858SOL    HW2 3474   3.570   3.481   0.350
  859SOL     OW 3475   4.271   0.067   5.052
  859SOL    HW1 3476   4.291   0.002   4.980
  859SOL    HW2 3477   4.321   0.042   5.135
  860SOL     OW 3478   5.444   3.055   5.821
  860SOL    HW1 3479   5.456   3.093   5.730
  860SOL    HW2 3480   5.484   3.117   5.889
  861SOL     OW 3481   2.121   6.217   2.686
  861SOL    HW1 3482   2.081   6.126   2.681
  861SOL    HW2 3483   2.107   6.265   2.600
  862SOL     OW 3484   2.057   4.181   3.637
  862SOL    HW1 3485   1.984   4.177   3.706
  862SOL    HW2 3486   2.102   4.092   3.631
  863SOL     OW 3487   0.398   0.703   6.651
  863SOL    HW1 3488   0.334   0.668   6.720
  863SOL    HW2 3489   0.489   0.665   6.669
  864SOL     OW 3490   5.000   0.264   5.265
  864SOL    HW1 3491   5.057   0.327   5.212
  864SOL    HW2 3492   4.941   0.212   5.204
  865SOL     OW 3493   1.547   5.740   4.643
  865SOL    HW1 3494   1.499   5.805   4.585
  865SOL    HW2 3495   1.645   5.759   4.639
  866SOL     OW 3496   2.386   6.484   1.822
  866SOL    HW1 3497   2.383   6.474   1.921
  866SOL    HW2 3498   2.437   6.566   1.798
  867SOL     OW 3499   5.628   2.142   7.018
  867SOL    HW1 3500   5.661   2.164   6.926
  867SOL    HW2 3501   5.649   2.217   0.061
  868SOL     OW 3502   6.685   2.115   1.908
  868SOL    HW1 3503   6.643   2.150   1.991
  868SOL    HW2 3504   6.716   2.021   1.924
  869SOL     OW 3505   0.125   3.860   3.662
  869SOL    HW1 3506   0.218   3.896   3.663
  869SOL    HW2 3507   0.124   3.770   3.707
  870SOL     OW 3508   3.230   5.189   1.481
  870SOL    HW1 3509   3.178   5.191   1.566
  870SOL    HW2 3510   3.213   5.102   1.434
  871SOL     OW 3511   4.687   1.660   3.394
  871SOL    HW1 3512   4.603   1.610   3.371
  871SOL    HW2 3513   4.758   1.594   3.420
  872SOL     OW 3514   6.784   2.813   4.474
  872SOL    HW1 3515   6.711   2.774   4.530
  872SOL    HW2 3516   6.765   2.795   4.377
  873SOL     OW 3517   4.304   6.649   5.943
  873SOL    HW1 3518   4.283   6.607   6.032
  873SOL    HW2 3519   4.389   6.610   5.908
  874SOL     OW 3520   5.657   3.760   0.722
  874SOL    HW1 3521   5.728   3.696   0.751
  874SOL    HW2 3522   5.682   3.800   0.634
  875SOL     OW 3523   4.979   5.563   1.064
  875SOL    HW1 3524   4.959   5.510   1.147
  875SOL    HW2 3525   4.930   5.523   0.986
  876SOL     OW 3526   0.364   5.773   2.014
  876SOL    HW1 3527   0.274   5.745   2.050
  876SOL    HW2 3528   0.395   5.854   2.065
  877SOL     OW 3529   3.076   4.265   6.979
  877SOL    HW1 3530   3.112   4.319   0.036
  877SOL    HW2 3531   3.144   4.197   6.951
  878SOL     OW 3532   3.695   6.974   4.003
  878SOL    HW1 3533   3.786   6.970   4.044
  878SOL    HW2 3534   3.661   6.882   3.989
  879SOL     OW 3535   4.641   0.372   0.214
  879SOL    HW1 3536   4.562   0.430   0.234
  879SOL    HW2 3537   4.722   0.408   0.261
  880SOL     OW 3538   2.944   3.340   3.308
  880SOL    HW1 3539   2.922   3.416   3.369
  880SOL    HW2 3540   3.037   3.350   3.273
  881SOL     OW 3541   4.775   2.242   5.548
  881SOL    HW1 3542   4.722   2.170   5.503
  881SOL    HW2 3543   4.791   2.217   5.643
  882SOL     OW 3544   1.174   3.223   5.264
  882SOL    HW1 3545   1.165   3.272   5.351
  882SOL    HW2 3546   1.163   3.125   5.279
  883SOL     OW 3547   3.399   0.272   2.648
  883SOL    HW1 3548   3.471   0.275   2.717
  883SOL    HW2 3549   3.316   0.315   2.684
  884SOL     OW 3550   4.778   2.877   4.963
  884SOL    HW1 3551   4.845   2.937   4.920
  884SOL    HW2 3552   4.766   2.903   5.059
  885SOL     OW 3553   2.972   1.433   5.876
  885SOL    HW1 3554   2.996   1.442   5.973
  885SOL    HW2 3555   2.944   1.522   5.841
  886SOL     OW 3556   3.607   0.849   0.193
  886SOL    HW1 3557   3.526   0.864   0.250
  886SOL    HW2 3558   3.579   0.843   0.097
  887SOL     OW 3559   4.011   0.814   3.593
  887SOL    HW1 3560   4.098   0.765   3.588
  887SOL    HW2 3561   3.949   0.778   3.523
  888SOL     OW 3562   0.761   0.930   2.992
  888SOL    HW1 3563   0.813   0.908   3.074
  888SOL    HW2 3564   0.707   0.851   2.964
  889SOL     OW 3565   0.848   4.098   6.848
  889SOL    HW1 3566   0.843   4.162   6.770
  889SOL    HW2 3567   0.912   4.024   6.826
  890SOL     OW 3568   2.022   5.703   3.849
  890SOL    HW1 3569   2.033   5.781   3.787
  890SOL    HW2 3570   1.950   5.723   3.915
  891SOL     OW 3571   5.011   5.072   0.789
  891SOL    HW1 3572   4.966   5.037   0.871
  891SOL    HW2 3573   5.098   5.113   0.815
  892SOL     OW 3574   2.419   4.082   5.752
  892SOL    HW1 3575   2.380   4.133   5.675
  892SOL    HW2 3576   2.482   4.013   5.717
  893SOL     OW 3577   2.396   6.141   2.837
  893SOL    HW1 3578   2.464   6.071   2.859
  893SOL    HW2 3579   2.328   6.145   2.910
  894SOL     OW 3580   1.417   3.667   1.595
  894SOL    HW1 3581   1.458   3.606   1.528
  894SOL    HW2 3582   1.424   3.627   1.686
  895SOL     OW 3583   0.502   5.294   3.144
  895SOL    HW1 3584   0.480   5.294   3.242
  895SOL    HW2 3585   0.544   5.381   3.119
  896SOL     OW 3586   6.544   5.372   0.089
  896SOL    HW1 3587   6.589   5.282   0.093
  896SOL    HW2 3588   6.550   5.408   7.015
  897SOL     OW 3589   5.123   0.848   0.483
  897SOL    HW1 3590   5.064   0.826   0.561
  897SOL    HW2 3591   5.079   0.819   0.398
  898SOL     OW 3592   3.267   5.552   2.830
  898SOL    HW1 3593   3.194   5.487   2.812
  898SOL    HW2 3594   3.349   5.526   2.779
  899SOL     OW 3595   0.904   5.177   6.182
  899SOL    HW1 3596   0.920   5.144   6.275
  899SOL    HW2 3597   0.927   5.105   6.117
  900SOL     OW 3598   5.794   6.755   6.919
  900SOL    HW1 3599   5.770   6.755   7.016
  900SOL    HW2 3600   5.793   6.661   6.885
  901SOL     OW 3601   2.028   0.596   2.584
  901SOL    HW1 3602   2.000   0.514   2.535
  901SOL    HW2 3603   2.081   0.655   2.524
  902SOL     OW 3604   6.269   3.536   0.406
  902SOL    HW1 3605   6.196   3.501   0.465
  902SOL    HW2 3606   6.353   3.543   0.459
  903SOL     OW 3607   0.344   2.495   6.700
  903SOL    HW1 3608   0.378   2.462   6.612
  903SOL    HW2 3609   0.295   2.422   6.747
  904SOL     OW 3610   3.024   2.096   3.533
  904SOL    HW1 3611   3.037   2.001   3.564
  904SOL    HW2 3612   2.926   2.113   3.520
  905SOL     OW 3613   5.684   2.479   0.244
  905SOL    HW1 3614   5.597   2.489   0.197
  905SOL    HW2 3615   5.691   2.549   0.315
  906SOL     OW 3616   0.523   2.019   5.915
  906SOL    HW1 3617   0.558   2.029   6.008
  906SOL    HW2 3618   0.509   1.922   5.894
  907SOL     OW 3619   4.870   3.800   6.988
  907SOL    HW1 3620   4.828   3.733   0.029
  907SOL    HW2 3621   4.952   3.760   6.946
  908SOL     OW 3622   2.817   4.782   2.245
  908SOL    HW1 3623   2.803   4.727   2.163
  908SOL    HW2 3624   2.776   4.872   2.233
  909SOL     OW 3625   4.209   5.243   6.465
  909SOL    HW1 3626   4.229   5.180   6.390
  909SOL    HW2 3627   4.276   5.317   6.465
  910SOL     OW 3628   2.569   2.890   1.399
  910SOL    HW1 3629   2.590   2.836   1.480
  910SOL    HW2 3630   2.644   2.883   1.334
  911SOL     OW 3631   1.725   5.845   6.069
  911SOL    HW1 3632   1.727   5.871   5.973
  911SOL    HW2 3633   1.778   5.911   6.123
  912SOL     OW 3634   5.271   3.159   3.469
  912SOL    HW1 3635   5.257   3.258   3.460
  912SOL    HW2 3636   5.240   3.113   3.386
  913SOL     OW 3637   5.366   6.361   3.321
  913SOL    HW1 3638   5.422   6.398   3.246
  913SOL    HW2 3639   5.301   6.430   3.351
  914SOL     OW 3640   2.602   0.263   6.740
  914SOL    HW1 3641   2.674   0.240   6.674
  914SOL    HW2 3642   2.643   0.295   6.825
  915SOL     OW 3643   6.120   5.249   0.582
  915SOL    HW1 3644   6.197   5.295   0.627
  915SOL    HW2 3645   6.132   5.253   0.483
  916SOL     OW 3646   0.952   2.519   2.549
  916SOL    HW1 3647   1.005   2.547   2.469
  916SOL    HW2 3648   0.886   2.591   2.572
  917SOL     OW 3649   0.300   6.797   0.471
  917SOL    HW1 3650   0.320   6.727   0.402
  917SOL    HW2 3651   0.272   6.881   0.425
  918SOL     OW 3652   2.093   6.372   0.933
  918SOL    HW1 3653   2.009   6.342   0.979
  918SOL    HW2 3654   2.131   6.451   0.980
  919SOL     OW 3655   5.809   1.695   3.390
  919SOL    HW1 3656   5.852   1.731   3.473
  919SOL    HW2 3657   5.878   1.655   3.330
  920SOL     OW 3658   2.760   4.688   1.425
  920SOL    HW1 3659   2.722   4.780   1.413
  920SOL    HW2 3660   2.753   4.662   1.521
  921SOL     OW 3661   5.243   5.579   4.459
  921SOL    HW1 3662   5.217   5.527   4.377
  921SOL    HW2 3663   5.213   5.674   4.448
  922SOL     OW 3664   3.662   3.617   4.160
  922SOL    HW1 3665   3.628   3.691   4.218
  922SOL    HW2 3666   3.586   3.577   4.110
  923SOL     OW 3667   2.088   2.710   5.379
  923SOL    HW1 3668   2.175   2.680   5.417
  923SOL    HW2 3669   2.032   2.629   5.359
  924SOL     OW 3670   6.616   4.013   2.063
  924SOL    HW1 3671   6.699   4.027   2.009
  924SOL    HW2 3672   6.629   4.053   2.154
  925SOL     OW 3673   6.126   1.630   0.266
  925SOL    HW1 3674   6.152   1.653   0.360
  925SOL    HW2 3675   6.090   1.536   0.264
  926SOL     OW 3676   0.642   1.918   2.135
  926SOL    HW1 3677   0.567   1.933   2.200
  926SOL    HW2 3678   0.710   1.990   2.145
  927SOL     OW 3679   5.546   3.908   3.996
  927SOL    HW1 3680   5.470   3.973   3.999
  927SOL    HW2 3681   5.592   3.914   3.907
  928SOL     OW 3682   3.181   5.975   6.670
  928SOL    HW1 3683   3.233   5.924   6.739
  928SOL    HW2 3684   3.200   5.938   6.579
  929SOL     OW 3685   6.455   1.394   6.199
  929SOL    HW1 3686   6.431   1.358   6.109
  929SOL    HW2 3687   6.424   1.489   6.207
  930SOL     OW 3688   4.830   5.169   6.154
  930SOL    HW1 3689   4.852   5.101   6.224
  930SOL    HW2 3690   4.912   5.222   6.132
  931SOL     OW 3691   6.451   2.444   3.436
  931SOL    HW1 3692   6.512   2.484   3.368
  931SOL    HW2 3693   6.486   2.355   3.464
  932SOL     OW 3694   3.875   0.566   3.419
  932SOL    HW1 3695   3.858   0.468   3.411
  932SOL    HW2 3696   3.792   0.616   3.395
  933SOL     OW 3697   1.652   4.959   2.927
  933SOL    HW1 3698   1.620   5.051   2.901
  933SOL    HW2 3699   1.740   4.941   2.884
  934SOL     OW 3700   2.038   5.309   6.413
  934SOL    HW1 3701   2.057   5.217   6.447
  934SOL    HW2 3702   2.100   5.330   6.337
  935SOL     OW 3703   5.626   3.621   3.400
  935SOL    HW1 3704   5.554   3.641   3.335
  935SOL    HW2 3705   5.591   3.564   3.474
  936SOL     OW 3706   1.866   0.615   6.035
  936SOL    HW1 3707   1.882   0.705   6.076
  936SOL    HW2 3708   1.908   0.611   5.945
  937SOL     OW 3709   4.583   0.853   5.402
  937SOL    HW1 3710   4.531   0.836   5.485
  937SOL    HW2 3711   4.676   0.883   5.426
  938SOL     OW 3712   6.891   5.438   4.113
  938SOL    HW1 3713   6.989   5.443   4.133
  938SOL    HW2 3714   6.878   5.409   4.018
  939SOL     OW 3715   0.275   7.015   5.243
  939SOL    HW1 3716   0.226   6.928   5.236
  939SOL    HW2 3717   0.210   0.071   5.230
  940SOL     OW 3718   2.132   4.861   0.602
  940SOL    HW1 3719   2.133   4.799   0.681
  940SOL    HW2 3720   2.081   4.944   0.625
  941SOL     OW 3721   3.829   0.127   6.480
  941SOL    HW1 3722   3.894   0.162   6.413
  941SOL    HW2 3723   3.784   0.045   6.443
  942SOL     OW 3724   0.269   5.619   0.764
  942SOL    HW1 3725   0.172   5.595   0.762
  942SOL    HW2 3726   0.285   5.684   0.838
  943SOL     OW 3727   2.954   4.924   2.433
  943SOL    HW1 3728   2.875   4.960   2.482
  943SOL    HW2 3729   2.922   4.867   2.357
  944SOL     OW 3730   0.850   6.656   4.235
  944SOL    HW1 3731   0.837   6.625   4.140
  944SOL    HW2 3732   0.843   6.577   4.296
  945SOL     OW 3733   0.949   5.758   5.637
  945SOL    HW1 3734   0.985   5.781   5.546
  945SOL    HW2 3735   0.967   5.662   5.657
  946SOL     OW 3736   4.820   4.372   4.048
  946SOL    HW1 3737   4.843   4.297   4.111
  946SOL    HW2 3738   4.892   4.381   3.979
  947SOL     OW 3739   3.820   4.116   3.896
  947SOL    HW1 3740   3.809   4.124   3.995
  947SOL    HW2 3741   3.901   4.062   3.876
  948SOL     OW 3742   4.841   1.689   2.482
  948SOL    HW1 3743   4.844   1.754   2.558
  948SOL    HW2 3744   4.793   1.606   2.512
  949SOL     OW 3745   3.360   6.627   6.774
  949SOL    HW1 3746   3.343   6.673   6.861
  949SOL    HW2 3747   3.364   6.528   6.789
  950SOL     OW 3748   6.974   6.278   2.444
  950SOL    HW1 3749   6.963   6.245   2.538
  950SOL    HW2 3750   7.015   6.205   2.388
  951SOL     OW 3751   1.492   0.346   3.432
  951SOL    HW1 3752   1.523   0.278   3.498
  951SOL    HW2 3753   1.568   0.375   3.375
  952SOL     OW 3754   4.011   1.802   1.946
  952SOL    HW1 3755   4.023   1.869   1.872
  952SOL    HW2 3756   4.063   1.719   1.925
  953SOL     OW 3757   0.021   5.299   4.907
  953SOL    HW1 3758   0.004   5.224   4.971
  953SOL    HW2 3759   0.109   5.285   4.862
  954SOL     OW 3760   4.924   5.542   2.634
  954SOL    HW1 3761   4.900   5.463   2.690
  954SOL    HW2 3762   4.985   5.513   2.560
  955SOL     OW 3763   0.995   4.584   6.713
  955SOL    HW1 3764   0.986   4.492   6.675
  955SOL    HW2 3765   1.090   4.613   6.709
  956SOL     OW 3766   6.348   0.419   1.025
  956SOL    HW1 3767   6.352   0.391   0.929
  956SOL    HW2 3768   6.397   0.506   1.036
  957SOL     OW 3769   6.271   2.228   3.739
  957SOL    HW1 3770   6.276   2.143   3.688
  957SOL    HW2 3771   6.208   2.291   3.695
  958SOL     OW 3772   5.680   6.868   2.261
  958SOL    HW1 3773   5.749   6.930   2.222
  958SOL    HW2 3774   5.705   6.846   2.355
  959SOL     OW 3775   3.521   6.743   3.963
  959SOL    HW1 3776   3.422   6.751   3.976
  959SOL    HW2 3777   3.551   6.651   3.988
  960SOL     OW 3778   0.986   0.372   0.082
  960SOL    HW1 3779   0.901   0.385   0.134
  960SOL    HW2 3780   0.987   0.435   0.004
  961SOL     OW 3781   3.369   6.467   3.219
  961SOL    HW1 3782   3.443   6.509   3.273
  961SOL    HW2 3783   3.396   6.463   3.123
  962SOL     OW 3784   6.513   6.877   5.422
  962SOL    HW1 3785   6.609   6.857   5.438
  962SOL    HW2 3786   6.485   6.954   5.480
  963SOL     OW 3787   4.789   2.413   1.274
  963SOL    HW1 3788   4.797   2.457   1.184
  963SOL    HW2 3789   4.704   2.441   1.317
  964SOL     OW 3790   5.120   3.973   5.332
  964SOL    HW1 3791   5.135   4.019   5.244
  964SOL    HW2 3792   5.025   3.943   5.338
  965SOL     OW 3793   5.582   2.406   2.984
  965SOL    HW1 3794   5.554   2.408   2.888
  965SOL    HW2 3795   5.500   2.404   3.042
  966SOL     OW 3796   5.090   2.077   3.939
  966SOL    HW1 3797   4.994   2.051   3.937
  966SOL    HW2 3798   5.140   2.022   3.871
  967SOL     OW 3799   4.625   4.307   6.145
  967SOL    HW1 3800   4.540   4.286   6.097
  967SOL    HW2 3801   4.701   4.304   6.080
  968SOL     OW 3802   4.008   0.092   1.624
  968SOL    HW1 3803   4.023   0.143   1.540
  968SOL    HW2 3804   3.956   0.148   1.689
  969SOL     OW 3805   3.437   4.557   5.782
  969SOL    HW1 3806   3.402   4.587   5.871
  969SOL    HW2 3807   3.400   4.617   5.711
  970SOL     OW 3808   5.862   0.483   6.073
  970SOL    HW1 3809   5.853   0.396   6.121
  970SOL    HW2 3810   5.804   0.552   6.117
  971SOL     OW 3811   6.166   4.002   2.986
  971SOL    HW1 3812   6.215   4.080   3.024
  971SOL    HW2 3813   6.070   4.007   3.013
  972SOL     OW 3814   0.106   2.600   1.039
  972SOL    HW1 3815   0.010   2.571   1.034
  972SOL    HW2 3816   0.165   2.522   1.017
  973SOL     OW 3817   6.709   3.988   6.074
  973SOL    HW1 3818   6.731   3.962   6.168
  973SOL    HW2 3819   6.791   3.982   6.017
  974SOL     OW 3820   6.997   4.541   4.572
  974SOL    HW1 3821   6.908   4.496   4.567
  974SOL    HW2 3822   7.009   4.583   4.661
  975SOL     OW 3823   2.193   0.116   2.045
  975SOL    HW1 3824   2.208   0.032   2.096
  975SOL    HW2 3825   2.109   0.159   2.076
  976SOL     OW 3826   6.396   4.469   1.893
  976SOL    HW1 3827   6.428   4.509   1.979
  976SOL    HW2 3828   6.472   4.468   1.828
  977SOL     OW 3829   0.477   1.357   2.635
  977SOL    HW1 3830   0.426   1.438   2.605
  977SOL    HW2 3831   0.573   1.381   2.646
  978SOL     OW 3832   5.563   2.624   2.130
  978SOL    HW1 3833   5.541   2.707   2.181
  978SOL    HW2 3834   5.538   2.544   2.184
  979SOL     OW 3835   6.639   3.391   0.236
  979SOL    HW1 3836   6.699   3.335   0.179
  979SOL    HW2 3837   6.647   3.362   0.332
  980SOL     OW 3838   3.540   1.419   5.111
  980SOL    HW1 3839   3.451   1.425   5.066
  980SOL    HW2 3840   3.597   1.496   5.082
  981SOL     OW 3841   6.555   6.905   5.003
  981SOL    HW1 3842   6.583   6.952   4.919
  981SOL    HW2 3843   6.527   6.973   5.071
  982SOL     OW 3844   0.208   1.425   5.324
  982SOL    HW1 3845   0.232   1.328   5.327
  982SOL    HW2 3846   0.222   1.461   5.232
  983SOL     OW 3847   0.763   3.479   3.601
  983SOL    HW1 3848   0.699   3.440   3.535
  983SOL    HW2 3849   0.850   3.431   3.595
  984SOL     OW 3850   1.722   1.537   2.705
  984SOL    HW1 3851   1.806   1.541   2.760
  984SOL    HW2 3852   1.744   1.553   2.609
  985SOL     OW 3853   5.961   3.449   4.225
  985SOL    HW1 3854   5.864   3.428   4.212
  985SOL    HW2 3855   5.971   3.538   4.269
  986SOL     OW 3856   5.390   4.393   1.230
  986SOL    HW1 3857   5.381   4.337   1.148
  986SOL    HW2 3858   5.406   4.334   1.309
  987SOL     OW 3859   5.740   4.992   3.615
  987SOL    HW1 3860   5.778   4.967   3.526
  987SOL    HW2 3861   5.653   5.039   3.602
  988SOL     OW 3862   3.297   4.082   1.510
  988SOL    HW1 3863   3.251   4.147   1.570
  988SOL    HW2 3864   3.231   4.015   1.476
  989SOL     OW 3865   0.260   1.904   1.215
  989SOL    HW1 3866   0.168   1.900   1.176
  989SOL    HW2 3867   0.255   1.882   1.312
  990SOL     OW 3868   3.765   0.299   3.402
  990SOL    HW1 3869   3.667   0.281   3.401
  990SOL    HW2 3870   3.815   0.213   3.410
  991SOL     OW 3871   0.118   4.155   4.102
  991SOL    HW1 3872   0.174   4.200   4.172
  991SOL    HW2 3873   0.042   4.215   4.076
  992SOL     OW 3874   0.817   2.786   1.236
  992SOL    HW1 3875   0.864   2.815   1.152
  992SOL    HW2 3876   0.735   2.842   1.249
  993SOL     OW 3877   2.121   5.447   0.978
  993SOL    HW1 3878   2.163   5.371   0.927
  993SOL    HW2 3879   2.033   5.470   0.936
  994SOL     OW 3880   3.145   6.769   0.890
  994SOL    HW1 3881   3.158   6.827   0.970
  994SOL    HW2 3882   3.228   6.768   0.835
  995SOL     OW 3883   5.203   3.708   5.338
  995SOL    HW1 3884   5.185   3.806   5.345
  995SOL    HW2 3885   5.119   3.661   5.308
  996SOL     OW 3886   3.642   6.177   5.504
  996SOL    HW1 3887   3.569   6.122   5.462
  996SOL    HW2 3888   3.651   6.153   5.600
  997SOL     OW 3889   1.597   6.117   4.162
  997SOL    HW1 3890   1.629   6.061   4.238
  997SOL    HW2 3891   1.624   6.213   4.176
  998SOL     OW 3892   5.537   0.205   6.323
  998SOL    HW1 3893   5.601   0.227   6.249
  998SOL    HW2 3894   5.519   0.288   6.376
  999SOL     OW 3895   4.861   3.539   2.051
  999SOL    HW1 3896   4.864   3.440   2.063
  999SOL    HW2 3897   4.836   3.561   1.957
 1000SOL     OW 3898   3.706   1.770   1.422
 1000SOL    HW1 3899   3.640   1.799   1.492
 1000SOL    HW2 3900   3.799   1.780   1.458
 1001SOL     OW 3901   2.791   0.047   2.499
 1001SOL    HW1 3902   2.806   6.980   2.548
 1001SOL    HW2 3903   2.841   0.045   2.413
 1002SOL     OW 3904   5.719   2.927   1.163
 1002SOL    HW1 3905   5.675   2.870   1.093
 1002SOL    HW2 3906   5.785   2.872   1.214
 1003SOL     OW 3907   0.924   5.910   2.393
 1003SOL    HW1 3908   0.957   5.818   2.373
 1003SOL    HW2 3909   0.824   5.911   2.391
 1004SOL     OW 3910   5.361   1.765   3.472
 1004SOL    HW1 3911   5.433   1.782   3.540
 1004SOL    HW2 3912   5.315   1.852   3.451
 1005SOL     OW 3913   1.516   4.990   4.371
 1005SOL    HW1 3914   1.420   5.009   4.388
 1005SOL    HW2 3915   1.548   5.043   4.293
 1006SOL     OW 3916   2.269   3.559   0.505
 1006SOL    HW1 3917   2.263   3.619   0.584
 1006SOL    HW2 3918   2.363   3.524   0.497
 1007SOL     OW 3919   4.772   1.957   6.528
 1007SOL    HW1 3920   4.805   1.954   6.434
 1007SOL    HW2 3921   4.698   1.890   6.539
 1008SOL     OW 3922   0.646   4.348   5.160
 1008SOL    HW1 3923   0.660   4.251   5.179
 1008SOL    HW2 3924   0.556   4.361   5.118
 1009SOL     OW 3925   6.328   5.148   5.549
 1009SOL    HW1 3926   6.335   5.233   5.496
 1009SOL    HW2 3927   6.401   5.145   5.617
 1010SOL     OW 3928   2.136   3.269   1.407
 1010SOL    HW1 3929   2.227   3.277   1.367
 1010SOL    HW2 3930   2.116   3.353   1.459
 1011SOL     OW 3931   0.784   4.922   2.769
 1011SOL    HW1 3932   0.839   4.838   2.769
 1011SOL    HW2 3933   0.832   4.994   2.820
 1012SOL     OW 3934   6.046   0.453   2.503
 1012SOL    HW1 3935   6.039   0.470   2.601
 1012SOL    HW2 3936   5.958   0.474   2.458
 1013SOL     OW 3937   7.006   0.968   6.300
 1013SOL    HW1 3938   6.939   0.978   6.374
 1013SOL    HW2 3939   6.971   1.014   6.218
 1014SOL     OW 3940   1.043   4.950   4.177
 1014SOL    HW1 3941   1.103   4.870   4.172
 1014SOL    HW2 3942   0.949   4.920   4.196
 1015SOL     OW 3943   3.564   0.203   6.192
 1015SOL    HW1 3944   3.658   0.196   6.160
 1015SOL    HW2 3945   3.527   0.111   6.207
 1016SOL     OW 3946   5.267   4.107   1.703
 1016SOL    HW1 3947   5.332   4.076   1.772
 1016SOL    HW2 3948   5.235   4.199   1.726
 1017SOL     OW 3949   2.176   1.509   2.482
 1017SOL    HW1 3950   2.160   1.580   2.551
 1017SOL    HW2 3951   2.144   1.421   2.517
 1018SOL     OW 3952   0.361   4.942   3.645
 1018SOL    HW1 3953   0.445   4.961   3.594
 1018SOL    HW2 3954   0.384   4.904   3.734
 1019SOL     OW 3955   0.147   5.023   0.681
 1019SOL    HW1 3956   0.081   4.964   0.635
 1019SOL    HW2 3957   0.192   4.971   0.753
 1020SOL     OW 3958   6.842   0.115   1.053
 1020SOL    HW1 3959   6.898   0.197   1.069
 1020SOL    HW2 3960   6.746   0.142   1.043
 1021SOL     OW 3961   6.067   5.999   1.864
 1021SOL    HW1 3962   5.967   5.998   1.859
 1021SOL    HW2 3963   6.105   5.971   1.776
 1022SOL     OW 3964   2.638   6.335   6.407
 1022SOL    HW1 3965   2.711   6.267   6.408
 1022SOL    HW2 3966   2.549   6.289   6.400
 1023SOL     OW 3967   0.178   1.645   3.457
 1023SOL    HW1 3968   0.125   1.716   3.411
 1023SOL    HW2 3969   0.116   1.576   3.495
 1024SOL     OW 3970   1.357   1.879   4.660
 1024SOL    HW1 3971   1.425   1.941   4.700
 1024SOL    HW2 3972   1.304   1.928   4.590
 1025SOL     OW 3973   4.758   3.605   0.149
 1025SOL    HW1 3974   4.824   3.541   0.188
 1025SOL    HW2 3975   4.665   3.572   0.168
 1026SOL     OW 3976   3.095   2.560   1.163
 1026SOL    HW1 3977   3.074   2.483   1.224
 1026SOL    HW2 3978   3.082   2.646   1.213
 1027SOL     OW 3979   1.095   6.685   1.389
 1027SOL    HW1 3980   1.056   6.598   1.417
 1027SOL    HW2 3981   1.183   6.699   1.434
 1028SOL     OW 3982   0.784   5.985   3.098
 1028SOL    HW1 3983   0.849   6.007   3.171
 1028SOL    HW2 3984   0.728   6.065   3.078
 1029SOL     OW 3985   1.370   1.925   5.578
 1029SOL    HW1 3986   1.403   1.832   5.560
 1029SOL    HW2 3987   1.281   1.938   5.535
 1030SOL     OW 3988   3.053   3.516   1.484
 1030SOL    HW1 3989   3.137   3.543   1.531
 1030SOL    HW2 3990   2.981   3.499   1.552
 1031SOL     OW 3991   3.618   3.448   1.511
 1031SOL    HW1 3992   3.684   3.520   1.487
 1031SOL    HW2 3993   3.571   3.416   1.429
 1032SOL     OW 3994   1.960   1.722   6.054
 1032SOL    HW1 3995   1.916   1.670   5.981
 1032SOL    HW2 3996   2.004   1.804   6.016
 1033SOL     OW 3997   0.894   6.217   2.271
 1033SOL    HW1 3998   0.933   6.302   2.235
 1033SOL    HW2 3999   0.801   6.233   2.303
 1034SOL     OW 4000   3.394   6.887   4.699
 1034SOL    HW1 4001   3.348   6.938   4.626
 1034SOL    HW2 4002   3.325   6.842   4.756
 1035SOL     OW 4003   0.396   1.412   5.898
 1035SOL    HW1 4004   0.472   1.348   5.887
 1035SOL    HW2 4005   0.429   1.506   5.884
 1036SOL     OW 4006   5.157   1.824   0.942
 1036SOL    HW1 4007   5.232   1.789   0.885
 1036SOL    HW2 4008   5.194   1.887   1.011
 1037SOL     OW 4009   1.721   2.637   2.881
 1037SOL    HW1 4010   1.720   2.545   2.919
 1037SOL    HW2 4011   1.755   2.633   2.787
 1038SOL     OW 4012   2.972   0.498   6.850
 1038SOL    HW1 4013   3.033   0.455   6.783
 1038SOL    HW2 4014   2.946   0.431   6.919
 1039SOL     OW 4015   3.747   3.477   3.770
 1039SOL    HW1 4016   3.736   3.532   3.687
 1039SOL    HW2 4017   3.736   3.380   3.749
 1040SOL     OW 4018   3.759   0.785   2.570
 1040SOL    HW1 4019   3.693   0.825   2.634
 1040SOL    HW2 4020   3.769   0.687   2.588
 1041SOL     OW 4021   6.441   6.219   5.590
 1041SOL    HW1 4022   6.436   6.276   5.507
 1041SOL    HW2 4023   6.499   6.264   5.658
 1042SOL     OW 4024   4.784   4.482   2.280
 1042SOL    HW1 4025   4.694   4.504   2.319
 1042SOL    HW2 4026   4.851   4.549   2.312
 1043SOL     OW 4027   3.167   1.503   3.329
 1043SOL    HW1 4028   3.263   1.482   3.310
 1043SOL    HW2 4029   3.133   1.442   3.401
 1044SOL     OW 4030   5.717   5.150   1.650
 1044SOL    HW1 4031   5.766   5.074   1.609
 1044SOL    HW2 4032   5.623   5.153   1.614
 1045SOL     OW 4033   2.413   0.660   3.944
 1045SOL    HW1 4034   2.390   0.657   3.847
 1045SOL    HW2 4035   2.505   0.697   3.956
 1046SOL     OW 4036   3.211   1.212   1.057
 1046SOL    HW1 4037   3.292   1.162   1.089
 1046SOL    HW2 4038   3.132   1.185   1.112
 1047SOL     OW 4039   3.520   6.598   3.467
 1047SOL    HW1 4040   3.456   6.610   3.542
 1047SOL    HW2 4041   3.491   6.653   3.389
 1048SOL     OW 4042   1.670   5.918   2.105
 1048SOL    HW1 4043   1.749   5.895   2.049
 1048SOL    HW2 4044   1.647   6.015   2.092
 1049SOL     OW 4045   3.962   7.007   5.191
 1049SOL    HW1 4046   3.996   6.976   5.102
 1049SOL    HW2 4047   4.038   0.018   5.248
 1050SOL     OW 4048   3.232   5.100   3.703
 1050SOL    HW1 4049   3.172   5.175   3.733
 1050SOL    HW2 4050   3.196   5.061   3.618
 1051SOL     OW 4051   0.029   0.083   0.427
 1051SOL    HW1 4052   0.107   0.039   0.383
 1051SOL    HW2 4053   6.991   0.126   0.357
 1052SOL     OW 4054   3.890   0.397   6.543
 1052SOL    HW1 4055   3.909   0.410   6.640
 1052SOL    HW2 4056   3.852   0.306   6.528
 1053SOL     OW 4057   6.058   3.428   2.361
 1053SOL    HW1 4058   6.060   3.414   2.262
 1053SOL    HW2 4059   6.051   3.526   2.380
 1054SOL     OW 4060   3.427   4.371   0.535
 1054SOL    HW1 4061   3.371   4.453   0.524
 1054SOL    HW2 4062   3.384   4.295   0.485
 1055SOL     OW 4063   4.437   5.941   6.737
 1055SOL    HW1 4064   4.366   6.006   6.764
 1055SOL    HW2 4065   4.430   5.859   6.793
 1056SOL     OW 4066   2.344   4.282   0.185
 1056SOL    HW1 4067   2.315   4.192   0.217
 1056SOL    HW2 4068   2.435   4.303   0.223
 1057SOL     OW 4069   3.553   2.057   1.587
 1057SOL    HW1 4070   3.481   2.118   1.619
 1057SOL    HW2 4071   3.640   2.081   1.631
 1058SOL     OW 4072   3.151   2.088   2.763
 1058SOL    HW1 4073   3.148   1.988   2.765
 1058SOL    HW2 4074   3.151   2.119   2.668
 1059SOL     OW 4075   2.476   5.985   1.406
 1059SOL    HW1 4076   2.541   5.996   1.480
 1059SOL    HW2 4077   2.519   5.936   1.330
 1060SOL     OW 4078   6.966   5.775   5.520
 1060SOL    HW1 4079   6.949   5.869   5.550
 1060SOL    HW2 4080   6.985   5.774   5.422
 1061SOL     OW 4081   0.098   4.160   0.792
 1061SOL    HW1 4082   0.066   4.091   0.727
 1061SOL    HW2 4083   0.026   4.180   0.857
 1062SOL     OW 4084   3.581   6.508   5.172
 1062SOL    HW1 4085   3.494   6.467   5.196
 1062SOL    HW2 4086   3.652   6.477   5.235
 1063SOL     OW 4087   1.426   6.631   5.785
 1063SOL    HW1 4088   1.486   6.579   5.846
 1063SOL    HW2 4089   1.420   6.584   5.696
 1064SOL     OW 4090   0.523   4.481   1.002
 1064SOL    HW1 4091   0.447   4.441   0.951
 1064SOL    HW2 4092   0.493   4.501   1.096
 1065SOL     OW 4093   3.834   0.400   4.384
 1065SOL    HW1 4094   3.819   0.307   4.420
 1065SOL    HW2 4095   3.757   0.458   4.411
 1066SOL     OW 4096   4.554   0.447   2.304
 1066SOL    HW1 4097   4.641   0.480   2.268
 1066SOL    HW2 4098   4.501   0.405   2.230
 1067SOL     OW 4099   2.743   1.306   0.125
 1067SOL    HW1 4100   2.785   1.326   0.036
 1067SOL    HW2 4101   2.655   1.352   0.131
 1068SOL     OW 4102   5.855   3.578   1.330
 1068SOL    HW1 4103   5.854   3.560   1.232
 1068SOL    HW2 4104   5.870   3.493   1.380
 1069SOL     OW 4105   6.516   4.529   1.178
 1069SOL    HW1 4106   6.482   4.437   1.197
 1069SOL    HW2 4107   6.446   4.596   1.202
 1070SOL     OW 4108   1.448   0.784   2.298
 1070SOL    HW1 4109   1.464   0.691   2.264
 1070SOL    HW2 4110   1.363   0.786   2.350
 1071SOL     OW 4111   6.987   2.532   4.897
 1071SOL    HW1 4112   6.994   2.554   4.994
 1071SOL    HW2 4113   0.048   2.478   4.869
 1072SOL     OW 4114   3.021   1.159   2.470
 1072SOL    HW1 4115   3.075   1.243   2.466
 1072SOL    HW2 4116   3.083   1.081   2.481
 1073SOL     OW 4117   5.234   2.091   3.201
 1073SOL    HW1 4118   5.250   2.135   3.290
 1073SOL    HW2 4119   5.151   2.036   3.205
 1074SOL     OW 4120   3.326   5.227   1.924
 1074SOL    HW1 4121   3.229   5.233   1.902
 1074SOL    HW2 4122   3.344   5.141   1.972
 1075SOL     OW 4123   5.861   2.432   5.223
 1075SOL    HW1 4124   5.777   2.379   5.219
 1075SOL    HW2 4125   5.924   2.391   5.289
 1076SOL     OW 4126   2.170   3.924   4.820
 1076SOL    HW1 4127   2.233   3.976   4.877
 1076SOL    HW2 4128   2.154   3.973   4.734
 1077SOL     OW 4129   6.703   0.490   0.173
 1077SOL    HW1 4130   6.697   0.514   0.076
 1077SOL    HW2 4131   6.704   0.390   0.183
 1078SOL     OW 4132   6.723   6.226   4.051
 1078SOL    HW1 4133   6.792   6.178   4.106
 1078SOL    HW2 4134   6.760   6.243   3.960
 1079SOL     OW 4135   1.007   5.678   2.565
 1079SOL    HW1 4136   0.981   5.645   2.656
 1079SOL    HW2 4137   1.046   5.770   2.573
 1080SOL     OW 4138   2.095   5.148   5.260
 1080SOL    HW1 4139   2.175   5.092   5.279
 1080SOL    HW2 4140   2.030   5.097   5.204
 1081SOL     OW 4141   6.004   5.793   4.390
 1081SOL    HW1 4142   5.982   5.867   4.453
 1081SOL    HW2 4143   5.927   5.730   4.383
 1082SOL     OW 4144   5.347   6.693   6.183
 1082SOL    HW1 4145   5.439   6.662   6.205
 1082SOL    HW2 4146   5.323   6.662   6.091
 1083SOL     OW 4147   5.308   4.263   0.984
 1083SOL    HW1 4148   5.244   4.339   0.990
 1083SOL    HW2 4149   5.269   4.191   0.926
 1084SOL     OW 4150   0.016   7.013   6.720
 1084SOL    HW1 4151   6.961   6.962   6.675
 1084SOL    HW2 4152   7.009   0.016   6.813
 1085SOL     OW 4153   2.147   3.831   4.051
 1085SOL    HW1 4154   2.130   3.795   4.143
 1085SOL    HW2 4155   2.113   3.766   3.983
 1086SOL     OW 4156   6.306   4.591   6.800
 1086SOL    HW1 4157   6.339   4.497   6.804
 1086SOL    HW2 4158   6.381   4.651   6.771
 1087SOL     OW 4159   1.831   0.760   5.452
 1087SOL    HW1 4160   1.929   0.770   5.436
 1087SOL    HW2 4161   1.815   0.742   5.549
 1088SOL     OW 4162   0.034   4.571   3.682
 1088SOL    HW1 4163   0.092   4.534   3.755
 1088SOL    HW2 4164   0.085   4.641   3.632
 1089SOL     OW 4165   6.307   4.843   4.800
 1089SOL    HW1 4166   6.347   4.926   4.762
 1089SOL    HW2 4167   6.380   4.781   4.829
 1090SOL     OW 4168   5.303   1.442   4.702
 1090SOL    HW1 4169   5.318   1.451   4.800
 1090SOL    HW2 4170   5.249   1.520   4.670
 1091SOL     OW 4171   2.193   3.114   3.440
 1091SOL    HW1 4172   2.221   3.051   3.512
 1091SOL    HW2 4173   2.250   3.100   3.359
 1092SOL     OW 4174   0.694   4.937   0.905
 1092SOL    HW1 4175   0.688   4.867   0.834
 1092SOL    HW2 4176   0.684   4.895   0.995
 1093SOL     OW 4177   2.195   6.617   1.010
 1093SOL    HW1 4178   2.107   6.663   1.021
 1093SOL    HW2 4179   2.265   6.669   1.059
 1094SOL     OW 4180   1.354   0.492   3.248
 1094SOL    HW1 4181   1.282   0.425   3.229
 1094SOL    HW2 4182   1.420   0.453   3.311
 1095SOL     OW 4183   0.023   3.023   0.034
 1095SOL    HW1 4184   0.120   3.044   0.049
 1095SOL    HW2 4185   7.002   2.988   0.119
 1096SOL     OW 4186   3.116   5.384   1.314
 1096SOL    HW1 4187   3.146   5.312   1.376
 1096SOL    HW2 4188   3.026   5.362   1.277
 1097SOL     OW 4189   2.400   5.127   3.794
 1097SOL    HW1 4190   2.482   5.080   3.826
 1097SOL    HW2 4191   2.423   5.220   3.767
 1098SOL     OW 4192   5.967   4.878   0.167
 1098SOL    HW1 4193   6.061   4.847   0.154
 1098SOL    HW2 4194   5.958   4.916   0.259
 1099SOL     OW 4195   4.583   1.367   6.381
 1099SOL    HW1 4196   4.671   1.369   6.333
 1099SOL    HW2 4197   4.540   1.457   6.377
 1100SOL     OW 4198   3.680   1.381   3.654
 1100SOL    HW1 4199   3.694   1.329   3.738
 1100SOL    HW2 4200   3.648   1.473   3.676
 1101SOL     OW 4201   5.787   3.286   5.530
 1101SOL    HW1 4202   5.811   3.189   5.535
 1101SOL    HW2 4203   5.716   3.299   5.461
 1102SOL     OW 4204   2.270   1.069   4.459
 1102SOL    HW1 4205   2.281   1.168   4.456
 1102SOL    HW2 4206   2.356   1.025   4.435
 1103SOL     OW 4207   3.082   0.531   6.406
 1103SOL    HW1 4208   3.067   0.602   6.475
 1103SOL    HW2 4209   3.132   0.454   6.447
 1104SOL     OW 4210   0.595   3.996   3.082
 1104SOL    HW1 4211   0.584   3.897   3.083
 1104SOL    HW2 4212   0.552   4.034   3.000
 1105SOL     OW 4213   5.046   1.411   4.951
 1105SOL    HW1 4214   5.012   1.342   4.887
 1105SOL    HW2 4215   5.073   1.367   5.036
 1106SOL     OW 4216   0.540   1.449   0.549
 1106SOL    HW1 4217   0.547   1.469   0.452
 1106SOL    HW2 4218   0.539   1.350   0.563
 1107SOL     OW 4219   0.736   1.029   6.781
 1107SOL    HW1 4220   0.799   1.021   6.704
 1107SOL    HW2 4221   0.644   1.045   6.747
 1108SOL     OW 4222   3.185   6.197   4.177
 1108SOL    HW1 4223   3.155   6.103   4.194
 1108SOL    HW2 4224   3.116   6.260   4.213
 1109SOL     OW 4225   5.213   1.546   4.343
 1109SOL    HW1 4226   5.118   1.573   4.359
 1109SOL    HW2 4227   5.248   1.591   4.261
 1110SOL     OW 4228   3.657   0.445   2.638
 1110SOL    HW1 4229   3.745   0.492   2.630
 1110SOL    HW2 4230   3.668   0.363   2.695
 1111SOL     OW 4231   4.722   3.796   6.275
 1111SOL    HW1 4232   4.627   3.787   6.304
 1111SOL    HW2 4233   4.781   3.804   6.356
 1112SOL     OW 4234   5.698   0.789   2.436
 1112SOL    HW1 4235   5.668   0.737   2.516
 1112SOL    HW2 4236   5.760   0.862   2.464
 1113SOL     OW 4237   6.269   4.461   2.515
 1113SOL    HW1 4238   6.177   4.492   2.490
 1113SOL    HW2 4239   6.263   4.374   2.563
 1114SOL     OW 4240   4.473   2.604   5.841
 1114SOL    HW1 4241   4.395   2.656   5.877
 1114SOL    HW2 4242   4.447   2.508   5.831
 1115SOL     OW 4243   2.905   3.957   6.031
 1115SOL    HW1 4244   2.845   3.935   5.954
 1115SOL    HW2 4245   2.996   3.978   5.996
 1116SOL     OW 4246   4.847   0.860   6.345
 1116SOL    HW1 4247   4.840   0.956   6.375
 1116SOL    HW2 4248   4.850   0.801   6.426
 1117SOL     OW 4249   1.248   2.655   1.538
 1117SOL    HW1 4250   1.293   2.675   1.451
 1117SOL    HW2 4251   1.258   2.558   1.560
 1118SOL     OW 4252   3.215   5.148   0.119
 1118SOL    HW1 4253   3.249   5.152   0.213
 1118SOL    HW2 4254   3.162   5.064   0.107
 1119SOL     OW 4255   4.044   5.024   3.693
 1119SOL    HW1 4256   4.093   5.098   3.739
 1119SOL    HW2 4257   4.066   5.024   3.595
 1120SOL     OW 4258   6.762   5.640   0.829
 1120SOL    HW1 4259   6.744   5.658   0.733
 1120SOL    HW2 4260   6.735   5.720   0.883
 1121SOL     OW 4261   0.770   4.588   4.248
 1121SOL    HW1 4262   0.729   4.585   4.157
 1121SOL    HW2 4263   0.781   4.495   4.283
 1122SOL     OW 4264   5.761   2.574   1.968
 1122SOL    HW1 4265   5.765   2.651   1.904
 1122SOL    HW2 4266   5.691   2.592   2.037
 1123SOL     OW 4267   4.241   2.156   3.142
 1123SOL    HW1 4268   4.305   2.096   3.190
 1123SOL    HW2 4269   4.150   2.113   3.140
 1124SOL     OW 4270   1.982   2.778   4.657
 1124SOL    HW1 4271   2.041   2.856   4.677
 1124SOL    HW2 4272   1.887   2.809   4.654
 1125SOL     OW 4273   1.397   3.803   4.329
 1125SOL    HW1 4274   1.401   3.900   4.305
 1125SOL    HW2 4275   1.488   3.762   4.319
 1126SOL     OW 4276   4.360   5.732   5.362
 1126SOL    HW1 4277   4.304   5.814   5.371
 1126SOL    HW2 4278   4.304   5.651   5.379
 1127SOL     OW 4279   5.309   5.510   3.376
 1127SOL    HW1 4280   5.357   5.463   3.301
 1127SOL    HW2 4281   5.362   5.500   3.460
 1128SOL     OW 4282   6.266   1.379   3.483
 1128SOL    HW1 4283   6.296   1.462   3.530
 1128SOL    HW2 4284   6.196   1.402   3.415
 1129SOL     OW 4285   1.832   0.252   1.062
 1129SOL    HW1 4286   1.838   0.326   0.994
 1129SOL    HW2 4287   1.924   0.215   1.078
 1130SOL     OW 4288   2.179   5.017   3.085
 1130SOL    HW1 4289   2.147   5.025   3.179
 1130SOL    HW2 4290   2.235   5.096   3.062
 1131SOL     OW 4291   1.167   6.706   4.026
 1131SOL    HW1 4292   1.213   6.687   3.939
 1131SOL    HW2 4293   1.190   6.634   4.092
 1132SOL     OW 4294   4.119   1.323   2.949
 1132SOL    HW1 4295   4.163   1.260   2.885
 1132SOL    HW2 4296   4.137   1.293   3.043
 1133SOL     OW 4297   1.053   6.653   5.205
 1133SOL    HW1 4298   1.129   6.639   5.268
 1133SOL    HW2 4299   0.973   6.684   5.257
 1134SOL     OW 4300   4.590   0.197   1.491
 1134SOL    HW1 4301   4.531   0.122   1.520
 1134SOL    HW2 4302   4.629   0.243   1.571
 1135SOL     OW 4303   1.817   6.184   3.453
 1135SOL    HW1 4304   1.794   6.275   3.486
 1135SOL    HW2 4305   1.871   6.191   3.370
 1136SOL     OW 4306   2.924   5.699   2.142
 1136SOL    HW1 4307   3.004   5.708   2.202
 1136SOL    HW2 4308   2.841   5.722   2.193
 1137SOL     OW 4309   0.398   5.822   6.398
 1137SOL    HW1 4310   0.390   5.744   6.460
 1137SOL    HW2 4311   0.478   5.811   6.340
 1138SOL     OW 4312   2.166   2.826   5.064
 1138SOL    HW1 4313   2.242   2.890   5.072
 1138SOL    HW2 4314   2.192   2.737   5.101
 1139SOL     OW 4315   2.861   4.856   4.169
 1139SOL    HW1 4316   2.898   4.789   4.105
 1139SOL    HW2 4317   2.931   4.881   4.236
 1140SOL     OW 4318   1.948   1.080   2.053
 1140SOL    HW1 4319   1.849   1.082   2.037
 1140SOL    HW2 4320   1.968   1.124   2.140
 1141SOL     OW 4321   6.039   4.765   6.031
 1141SOL    HW1 4322   6.118   4.780   6.090
 1141SOL    HW2 4323   6.066   4.710   5.951
 1142SOL     OW 4324   2.293   0.048   3.225
 1142SOL    HW1 4325   2.345   6.982   3.230
 1142SOL    HW2 4326   2.339   0.118   3.280
 1143SOL     OW 4327   0.841   3.896   1.825
 1143SOL    HW1 4328   0.882   3.832   1.759
 1143SOL    HW2 4329   0.746   3.913   1.800
 1144SOL     OW 4330   5.353   4.630   1.912
 1144SOL    HW1 4331   5.369   4.565   1.838
 1144SOL    HW2 4332   5.347   4.723   1.874
 1145SOL     OW 4333   0.942   1.702   0.238
 1145SOL    HW1 4334   1.003   1.641   0.289
 1145SOL    HW2 4335   0.896   1.649   0.167
 1146SOL     OW 4336   0.565   1.072   1.678
 1146SOL    HW1 4337   0.536   1.002   1.743
 1146SOL    HW2 4338   0.662   1.090   1.690
 1147SOL     OW 4339   3.271   6.160   1.231
 1147SOL    HW1 4340   3.218   6.194   1.154
 1147SOL    HW2 4341   3.338   6.093   1.200
 1148SOL     OW 4342   3.930   6.467   2.120
 1148SOL    HW1 4343   4.002   6.414   2.164
 1148SOL    HW2 4344   3.893   6.534   2.185
 1149SOL     OW 4345   5.589   2.182   1.707
 1149SOL    HW1 4346   5.687   2.198   1.721
 1149SOL    HW2 4347   5.542   2.269   1.693
 1150SOL     OW 4348   1.131   4.347   6.866
 1150SOL    HW1 4349   1.086   4.341   6.776
 1150SOL    HW2 4350   1.093   4.277   6.926
 1151SOL     OW 4351   6.525   5.016   3.751
 1151SOL    HW1 4352   6.574   4.963   3.682
 1151SOL    HW2 4353   6.591   5.067   3.806
 1152SOL     OW 4354   4.831   0.919   6.912
 1152SOL    HW1 4355   4.841   0.978   6.832
 1152SOL    HW2 4356   4.752   0.948   6.966
 1153SOL     OW 4357   6.395   6.806   1.417
 1153SOL    HW1 4358   6.405   6.708   1.435
 1153SOL    HW2 4359   6.480   6.853   1.439
 1154SOL     OW 4360   1.379   3.166   2.214
 1154SOL    HW1 4361   1.372   3.204   2.121
 1154SOL    HW2 4362   1.474   3.174   2.246
 1155SOL     OW 4363   2.604   6.643   4.583
 1155SOL    HW1 4364   2.560   6.589   4.511
 1155SOL    HW2 4365   2.573   6.738   4.577
 1156SOL     OW 4366   3.907   1.635   4.953
 1156SOL    HW1 4367   3.967   1.598   4.883
 1156SOL    HW2 4368   3.962   1.675   5.026
 1157SOL     OW 4369   4.089   0.416   5.834
 1157SOL    HW1 4370   4.088   0.319   5.810
 1157SOL    HW2 4371   4.000   0.457   5.812
 1158SOL     OW 4372   5.971   5.711   3.148
 1158SOL    HW1 4373   5.958   5.658   3.064
 1158SOL    HW2 4374   5.883   5.723   3.194
 1159SOL     OW 4375   6.876   6.083   2.704
 1159SOL    HW1 4376   6.848   6.170   2.745
 1159SOL    HW2 4377   6.802   6.017   2.712
 1160SOL     OW 4378   4.502   0.161   0.705
 1160SOL    HW1 4379   4.452   0.235   0.658
 1160SOL    HW2 4380   4.487   0.075   0.656
 1161SOL     OW 4381   6.849   5.876   0.251
 1161SOL    HW1 4382   6.780   5.814   0.215
 1161SOL    HW2 4383   6.924   5.884   0.185
 1162SOL     OW 4384   2.036   3.056   5.327
 1162SOL    HW1 4385   2.100   2.981   5.345
 1162SOL    HW2 4386   1.986   3.077   5.411
 1163SOL     OW 4387   6.147   4.519   1.736
 1163SOL    HW1 4388   6.124   4.422   1.726
 1163SOL    HW2 4389   6.224   4.529   1.800
 1164SOL     OW 4390   4.960   1.956   4.297
 1164SOL    HW1 4391   5.032   2.012   4.256
 1164SOL    HW2 4392   4.921   2.004   4.375
 1165SOL     OW 4393   4.112   6.330   3.511
 1165SOL    HW1 4394   4.174   6.295   3.441
 1165SOL    HW2 4395   4.017   6.316   3.482
 1166SOL     OW 4396   2.455   6.359   6.944
 1166SOL    HW1 4397   2.538   6.409   6.968
 1166SOL    HW2 4398   2.392   6.420   6.895
 1167SOL     OW 4399   5.497   4.086   2.387
 1167SOL    HW1 4400   5.486   4.050   2.480
 1167SOL    HW2 4401   5.450   4.174   2.380
 1168SOL     OW 4402   5.854   2.582   2.532
 1168SOL    HW1 4403   5.849   2.637   2.448
 1168SOL    HW2 4404   5.948   2.581   2.565
 1169SOL     OW 4405   5.371   0.793   5.465
 1169SOL    HW1 4406   5.315   0.804   5.547
 1169SOL    HW2 4407   5.373   0.696   5.439
 1170SOL     OW 4408   5.087   6.917   3.187
 1170SOL    HW1 4409   5.036   6.860   3.251
 1170SOL    HW2 4410   5.023   6.965   3.127
 1171SOL     OW 4411   1.501   0.551   0.713
 1171SOL    HW1 4412   1.538   0.459   0.704
 1171SOL    HW2 4413   1.405   0.546   0.740
 1172SOL     OW 4414   6.692   3.771   0.321
 1172SOL    HW1 4415   6.622   3.710   0.359
 1172SOL    HW2 4416   6.736   3.727   0.242
 1173SOL     OW 4417   2.932   1.254   1.364
 1173SOL    HW1 4418   2.914   1.339   1.415
 1173SOL    HW2 4419   3.030   1.239   1.359
 1174SOL     OW 4420   3.599   3.762   1.341
 1174SOL    HW1 4421   3.526   3.759   1.409
 1174SOL    HW2 4422   3.569   3.712   1.259
 1175SOL     OW 4423   4.077   3.016   5.551
 1175SOL    HW1 4424   4.062   3.114   5.551
 1175SOL    HW2 4425   4.005   2.971   5.499
 1176SOL     OW 4426   5.009   3.601   5.954
 1176SOL    HW1 4427   5.039   3.637   5.866
 1176SOL    HW2 4428   5.054   3.513   5.971
 1177SOL     OW 4429   6.494   2.061   4.707
 1177SOL    HW1 4430   6.396   2.054   4.727
 1177SOL    HW2 4431   6.536   2.125   4.771
 1178SOL     OW 4432   3.020   4.681   0.297
 1178SOL    HW1 4433   3.007   4.671   0.198
 1178SOL    HW2 4434   3.048   4.774   0.318
 1179SOL     OW 4435   2.468   5.715   0.261
 1179SOL    HW1 4436   2.479   5.771   0.343
 1179SOL    HW2 4437   2.471   5.618   0.285
 1180SOL     OW 4438   3.180   5.922   0.971
 1180SOL    HW1 4439   3.249   5.993   0.959
 1180SOL    HW2 4440   3.089   5.960   0.953
 1181SOL     OW 4441   0.493   5.673   6.960
 1181SOL    HW1 4442   0.545   5.713   6.885
 1181SOL    HW2 4443   0.399   5.708   6.958
 1182SOL     OW 4444   3.649   5.641   3.010
 1182SOL    HW1 4445   3.624   5.738   3.002
 1182SOL    HW2 4446   3.706   5.615   2.932
 1183SOL     OW 4447   1.515   4.349   6.924
 1183SOL    HW1 4448   1.482   4.271   6.871
 1183SOL    HW2 4449   1.438   4.390   6.974
 1184SOL     OW 4450   1.005   0.219   4.867
 1184SOL    HW1 4451   1.059   0.300   4.888
 1184SOL    HW2 4452   1.039   0.177   4.783
 1185SOL     OW 4453   6.877   0.998   6.566
 1185SOL    HW1 4454   6.900   0.901   6.561
 1185SOL    HW2 4455   6.929   1.040   6.640
 1186SOL     OW 4456   4.892   5.685   4.245
 1186SOL    HW1 4457   4.952   5.749   4.197
 1186SOL    HW2 4458   4.833   5.639   4.179
 1187SOL     OW 4459   6.841   0.145   6.332
 1187SOL    HW1 4460   6.905   0.206   6.286
 1187SOL    HW2 4461   6.780   0.198   6.390
 1188SOL     OW 4462   2.812   6.319   4.645
 1188SOL    HW1 4463   2.882   6.376   4.689
 1188SOL    HW2 4464   2.855   6.236   4.610
 1189SOL     OW 4465   6.498   3.380   2.993
 1189SOL    HW1 4466   6.470   3.352   2.902
 1189SOL    HW2 4467   6.493   3.480   3.000
 1190SOL     OW 4468   1.967   5.803   3.108
 1190SOL    HW1 4469   1.965   5.721   3.166
 1190SOL    HW2 4470   2.016   5.876   3.155
 1191SOL     OW 4471   4.064   5.423   3.352
 1191SOL    HW1 4472   4.113   5.509   3.340
 1191SOL    HW2 4473   4.123   5.357   3.397
 1192SOL     OW 4474   3.463   5.796   3.279
 1192SOL    HW1 4475   3.492   5.701   3.277
 1192SOL    HW2 4476   3.364   5.801   3.263
 1193SOL     OW 4477   5.808   4.664   4.415
 1193SOL    HW1 4478   5.811   4.755   4.373
 1193SOL    HW2 4479   5.883   4.655   4.480
 1194SOL     OW 4480   5.327   0.260   1.325
 1194SOL    HW1 4481   5.298   0.347   1.285
 1194SOL    HW2 4482   5.247   0.209   1.357
 1195SOL     OW 4483   6.240   5.035   1.754
 1195SOL    HW1 4484   6.176   4.968   1.791
 1195SOL    HW2 4485   6.248   5.112   1.818
 1196SOL     OW 4486   0.068   6.432   3.581
 1196SOL    HW1 4487   0.163   6.433   3.552
 1196SOL    HW2 4488   0.059   6.479   3.669
 1197SOL     OW 4489   3.290   0.978   6.921
 1197SOL    HW1 4490   3.387   0.996   6.904
 1197SOL    HW2 4491   3.279   0.947   7.016
 1198SOL     OW 4492   1.159   2.534   1.071
 1198SOL    HW1 4493   1.241   2.480   1.094
 1198SOL    HW2 4494   1.090   2.521   1.142
 1199SOL     OW 4495   4.794   5.165   1.506
 1199SOL    HW1 4496   4.831   5.148   1.597
 1199SOL    HW2 4497   4.787   5.079   1.456
 1200SOL     OW 4498   3.225   3.254   2.821
 1200SOL    HW1 4499   3.292   3.266   2.748
 1200SOL    HW2 4500   3.157   3.187   2.793
 1201SOL     OW 4501   1.467   1.072   4.894
 1201SOL    HW1 4502   1.379   1.025   4.889
 1201SOL    HW2 4503   1.525   1.027   4.961
 1202SOL     OW 4504   1.276   5.468   6.690
 1202SOL    HW1 4505   1.361   5.511   6.660
 1202SOL    HW2 4506   1.215   5.457   6.612
 1203SOL     OW 4507   4.813   5.883   6.290
 1203SOL    HW1 4508   4.802   5.976   6.257
 1203SOL    HW2 4509   4.864   5.829   6.223
 1204SOL     OW 4510   2.437   0.426   1.435
 1204SOL    HW1 4511   2.381   0.350   1.468
 1204SOL    HW2 4512   2.462   0.485   1.512
 1205SOL     OW 4513   5.026   3.995   1.619
 1205SOL    HW1 4514   4.958   4.010   1.691
 1205SOL    HW2 4515   5.117   4.011   1.656
 1206SOL     OW 4516   3.552   2.928   4.644
 1206SOL    HW1 4517   3.531   2.885   4.732
 1206SOL    HW2 4518   3.515   3.021   4.642
 1207SOL     OW 4519   2.818   6.840   1.654
 1207SOL    HW1 4520   2.817   6.906   1.729
 1207SOL    HW2 4521   2.741   6.857   1.593
 1208SOL     OW 4522   3.255   3.978   0.107
 1208SOL    HW1 4523   3.344   4.023   0.102
 1208SOL    HW2 4524   3.219   3.966   0.014
 1209SOL     OW 4525   3.754   0.318   5.447
 1209SOL    HW1 4526   3.728   0.399   5.396
 1209SOL    HW2 4527   3.853   0.319   5.464
 1210SOL     OW 4528   2.664   6.703   3.691
 1210SOL    HW1 4529   2.713   6.625   3.653
 1210SOL    HW2 4530   2.725   6.782   3.697
 1211SOL     OW 4531   1.197   3.763   0.918
 1211SOL    HW1 4532   1.283   3.753   0.868
 1211SOL    HW2 4533   1.152   3.848   0.892
 1212SOL     OW 4534   0.430   0.045   6.534
 1212SOL    HW1 4535   0.466   7.004   6.606
 1212SOL    HW2 4536   0.341   0.009   6.503
 1213SOL     OW 4537   5.928   2.771   0.280
 1213SOL    HW1 4538   6.002   2.721   0.325
 1213SOL    HW2 4539   5.935   2.758   0.181
 1214SOL     OW 4540   0.013   1.985   1.085
 1214SOL    HW1 4541   0.003   2.002   0.987
 1214SOL    HW2 4542   0.009   2.072   1.134
 1215SOL     OW 4543   1.805   4.596   4.086
 1215SOL    HW1 4544   1.842   4.567   4.174
 1215SOL    HW2 4545   1.830   4.530   4.016
 1216SOL     OW 4546   4.211   0.393   0.138
 1216SOL    HW1 4547   4.166   0.473   0.098
 1216SOL    HW2 4548   4.169   0.310   0.101
 1217SOL     OW 4549   2.103   4.449   0.493
 1217SOL    HW1 4550   2.046   4.463   0.575
 1217SOL    HW2 4551   2.087   4.524   0.429
 1218SOL     OW 4552   1.071   5.148   4.025
 1218SOL    HW1 4553   1.163   5.145   3.987
 1218SOL    HW2 4554   1.060   5.075   4.093
 1219SOL     OW 4555   4.749   6.227   2.073
 1219SOL    HW1 4556   4.682   6.273   2.131
 1219SOL    HW2 4557   4.708   6.146   2.033
 1220SOL     OW 4558   1.331   5.146   3.200
 1220SOL    HW1 4559   1.343   5.231   3.150
 1220SOL    HW2 4560   1.415   5.092   3.196
 1221SOL     OW 4561   5.211   3.338   5.448
 1221SOL    HW1 4562   5.178   3.344   5.542
 1221SOL    HW2 4563   5.190   3.248   5.411
 1222SOL     OW 4564   6.166   6.677   6.557
 1222SOL    HW1 4565   6.264   6.682   6.577
 1222SOL    HW2 4566   6.125   6.767   6.573
 1223SOL     OW 4567   3.857   0.204   0.224
 1223SOL    HW1 4568   3.898   0.211   0.315
 1223SOL    HW2 4569   3.810   0.116   0.215
 1224SOL     OW 4570   2.450   0.189   1.181
 1224SOL    HW1 4571   2.466   0.256   1.109
 1224SOL    HW2 4572   2.421   0.236   1.264
 1225SOL     OW 4573   3.373   4.304   5.942
 1225SOL    HW1 4574   3.428   4.228   5.908
 1225SOL    HW2 4575   3.424   4.390   5.931
 1226SOL     OW 4576   2.222   4.610   1.270
 1226SOL    HW1 4577   2.216   4.643   1.364
 1226SOL    HW2 4578   2.289   4.664   1.220
 1227SOL     OW 4579   6.911   3.424   6.735
 1227SOL    HW1 4580   6.933   3.343   6.680
 1227SOL    HW2 4581   6.972   3.428   6.814
 1228SOL     OW 4582   3.799   2.842   6.265
 1228SOL    HW1 4583   3.894   2.868   6.285
 1228SOL    HW2 4584   3.768   2.775   6.332
 1229SOL     OW 4585   4.618   4.685   6.888
 1229SOL    HW1 4586   4.717   4.690   6.904
 1229SOL    HW2 4587   4.596   4.730   6.801
 1230SOL     OW 4588   4.146   0.545   3.922
 1230SOL    HW1 4589   4.213   0.539   3.996
 1230SOL    HW2 4590   4.056   0.516   3.956
 1231SOL     OW 4591   2.034   3.778   5.032
 1231SOL    HW1 4592   2.089   3.824   4.963
 1231SOL    HW2 4593   2.060   3.812   5.123
 1232SOL     OW 4594   1.079   2.699   5.342
 1232SOL    HW1 4595   1.010   2.647   5.292
 1232SOL    HW2 4596   1.170   2.664   5.318
 1233SOL     OW 4597   1.258   2.751   5.690
 1233SOL    HW1 4598   1.306   2.826   5.645
 1233SOL    HW2 4599   1.227   2.685   5.621
 1234SOL     OW 4600   6.907   4.198   4.498
 1234SOL    HW1 4601   6.974   4.123   4.493
 1234SOL    HW2 4602   6.861   4.195   4.586
 1235SOL     OW 4603   6.469   5.474   2.755
 1235SOL    HW1 4604   6.445   5.413   2.679
 1235SOL    HW2 4605   6.520   5.423   2.824
 1236SOL     OW 4606   5.022   1.061   6.527
 1236SOL    HW1 4607   5.096   1.002   6.558
 1236SOL    HW2 4608   4.947   1.057   6.592
 1237SOL     OW 4609   2.584   4.591   6.402
 1237SOL    HW1 4610   2.652   4.663   6.389
 1237SOL    HW2 4611   2.495   4.633   6.420
 1238SOL     OW 4612   2.064   1.027   1.174
 1238SOL    HW1 4613   2.138   1.027   1.241
 1238SOL    HW2 4614   2.042   0.933   1.148
 1239SOL     OW 4615   6.822   6.199   6.646
 1239SOL    HW1 4616   6.779   6.290   6.639
 1239SOL    HW2 4617   6.850   6.169   6.555
 1240SOL     OW 4618   5.462   6.066   1.605
 1240SOL    HW1 4619   5.523   6.017   1.542
 1240SOL    HW2 4620   5.453   6.161   1.574
 1241SOL     OW 4621   6.429   3.281   4.524
 1241SOL    HW1 4622   6.356   3.272   4.592
 1241SOL    HW2 4623   6.404   3.231   4.441
 1242SOL     OW 4624   1.435   3.334   0.385
 1242SOL    HW1 4625   1.414   3.382   0.470
 1242SOL    HW2 4626   1.497   3.389   0.330
 1243SOL     OW 4627   1.932   5.380   5.188
 1243SOL    HW1 4628   2.003   5.313   5.212
 1243SOL    HW2 4629   1.870   5.340   5.121
 1244SOL     OW 4630   0.506   0.766   3.261
 1244SOL    HW1 4631   0.485   0.792   3.167
 1244SOL    HW2 4632   0.456   0.825   3.324
 1245SOL     OW 4633   3.312   3.505   6.601
 1245SOL    HW1 4634   3.340   3.539   6.512
 1245SOL    HW2 4635   3.387   3.516   6.666
 1246SOL     OW 4636   2.574   7.010   1.996
 1246SOL    HW1 4637   2.489   7.001   1.944
 1246SOL    HW2 4638   2.553   7.015   2.094
 1247SOL     OW 4639   3.207   6.738   6.561
 1247SOL    HW1 4640   3.234   6.834   6.549
 1247SOL    HW2 4641   3.245   6.704   6.647
 1248SOL     OW 4642   1.673   6.073   3.104
 1248SOL    HW1 4643   1.691   5.984   3.061
 1248SOL    HW2 4644   1.760   6.114   3.133
 1249SOL     OW 4645   6.074   3.404   3.333
 1249SOL    HW1 4646   6.079   3.406   3.433
 1249SOL    HW2 4647   6.007   3.336   3.304
 1250SOL     OW 4648   1.365   4.907   3.785
 1250SOL    HW1 4649   1.342   4.842   3.712
 1250SOL    HW2 4650   1.396   4.856   3.865
 1251SOL     OW 4651   4.047   0.760   4.658
 1251SOL    HW1 4652   4.022   0.668   4.629
 1251SOL    HW2 4653   4.131   0.789   4.610
 1252SOL     OW 4654   3.389   3.484   5.990
 1252SOL    HW1 4655   3.339   3.564   5.956
 1252SOL    HW2 4656   3.471   3.514   6.039
 1253SOL     OW 4657   3.573   5.443   2.447
 1253SOL    HW1 4658   3.592   5.443   2.546
 1253SOL    HW2 4659   3.656   5.471   2.398
 1254SOL     OW 4660   6.342   2.231   3.154
 1254SOL    HW1 4661   6.243   2.246   3.151
 1254SOL    HW2 4662   6.385   2.306   3.203
 1255SOL     OW 4663   0.385   0.262   5.780
 1255SOL    HW1 4664   0.475   0.243   5.740
 1255SOL    HW2 4665   0.325   0.299   5.710
 1256SOL     OW 4666   6.238   0.145   2.830
 1256SOL    HW1 4667   6.241   0.227   2.774
 1256SOL    HW2 4668   6.331   0.119   2.857
 1257SOL     OW 4669   6.972   0.595   3.487
 1257SOL    HW1 4670   6.932   0.637   3.405
 1257SOL    HW2 4671   6.901   0.579   3.555
 1258SOL     OW 4672   0.734   6.735   3.125
 1258SOL    HW1 4673   0.678   6.775   3.053
 1258SOL    HW2 4674   0.690   6.751   3.214
 1259SOL     OW 4675   3.993   1.662   5.358
 1259SOL    HW1 4676   4.089   1.666   5.386
 1259SOL    HW2 4677   3.983   1.700   5.266
 1260SOL     OW 4678   0.981   1.060   6.938
 1260SOL    HW1 4679   0.897   1.029   6.895
 1260SOL    HW2 4680   0.971   1.054   0.019
 1261SOL     OW 4681   0.427   5.083   0.561
 1261SOL    HW1 4682   0.448   5.134   0.477
 1261SOL    HW2 4683   0.328   5.077   0.572
 1262SOL     OW 4684   5.115   5.659   2.085
 1262SOL    HW1 4685   5.204   5.689   2.052
 1262SOL    HW2 4686   5.127   5.611   2.172
 1263SOL     OW 4687   0.912   2.308   3.094
 1263SOL    HW1 4688   0.952   2.359   3.018
 1263SOL    HW2 4689   0.972   2.315   3.174
 1264SOL     OW 4690   1.087   3.051   5.584
 1264SOL    HW1 4691   1.184   3.027   5.579
 1264SOL    HW2 4692   1.061   3.065   5.680
 1265SOL     OW 4693   5.936   5.859   5.216
 1265SOL    HW1 4694   5.974   5.892   5.130
 1265SOL    HW2 4695   5.984   5.901   5.292
 1266SOL     OW 4696   1.476   0.603   4.848
 1266SOL    HW1 4697   1.557   0.653   4.816
 1266SOL    HW2 4698   1.433   0.654   4.923
 1267SOL     OW 4699   4.793   0.536   2.233
 1267SOL    HW1 4700   4.858   0.612   2.240
 1267SOL    HW2 4701   4.825   0.472   2.163
 1268SOL     OW 4702   4.110   2.405   5.380
 1268SOL    HW1 4703   4.170   2.427   5.457
 1268SOL    HW2 4704   4.144   2.449   5.297
 1269SOL     OW 4705   6.002   2.416   3.592
 1269SOL    HW1 4706   6.079   2.455   3.542
 1269SOL    HW2 4707   5.931   2.386   3.528
 1270SOL     OW 4708   1.510   4.362   2.485
 1270SOL    HW1 4709   1.509   4.436   2.552
 1270SOL    HW2 4710   1.551   4.394   2.400
 1271SOL     OW 4711   1.780   1.374   1.606
 1271SOL    HW1 4712   1.771   1.276   1.624
 1271SOL    HW2 4713   1.690   1.414   1.590
 1272SOL     OW 4714   6.731   4.196   0.119
 1272SOL    HW1 4715   6.800   4.264   0.141
 1272SOL    HW2 4716   6.744   4.164   0.026
 1273SOL     OW 4717   1.257   4.329   5.107
 1273SOL    HW1 4718   1.351   4.316   5.075
 1273SOL    HW2 4719   1.247   4.421   5.145
 1274SOL     OW 4720   0.792   4.990   2.277
 1274SOL    HW1 4721   0.708   4.998   2.331
 1274SOL    HW2 4722   0.839   4.905   2.301
 1275SOL     OW 4723   3.266   0.528   3.028
 1275SOL    HW1 4724   3.270   0.569   3.119
 1275SOL    HW2 4725   3.189   0.565   2.977
 1276SOL     OW 4726   5.226   4.542   4.424
 1276SOL    HW1 4727   5.216   4.635   4.388
 1276SOL    HW2 4728   5.150   4.485   4.392
 1277SOL     OW 4729   6.968   5.783   6.661
 1277SOL    HW1 4730   6.979   5.874   6.701
 1277SOL    HW2 4731   6.981   5.788   6.562
 1278SOL     OW 4732   1.250   6.025   3.023
 1278SOL    HW1 4733   1.192   6.011   3.103
 1278SOL    HW2 4734   1.242   6.119   2.992
 1279SOL     OW 4735   3.195   2.463   6.548
 1279SOL    HW1 4736   3.281   2.438   6.503
 1279SOL    HW2 4737   3.189   2.563   6.553
 1280SOL     OW 4738   3.048   1.552   3.080
 1280SOL    HW1 4739   2.997   1.635   3.103
 1280SOL    HW2 4740   3.100   1.522   3.160
 1281SOL     OW 4741   3.853   6.166   4.096
 1281SOL    HW1 4742   3.792   6.091   4.073
 1281SOL    HW2 4743   3.852   6.180   4.195
 1282SOL     OW 4744   6.862   2.894   0.592
 1282SOL    HW1 4745   6.837   2.808   0.637
 1282SOL    HW2 4746   6.953   2.923   0.621
 1283SOL     OW 4747   5.788   3.550   5.100
 1283SOL    HW1 4748   5.742   3.543   5.188
 1283SOL    HW2 4749   5.738   3.497   5.032
 1284SOL     OW 4750   4.069   1.588   1.307
 1284SOL    HW1 4751   4.073   1.662   1.240
 1284SOL    HW2 4752   3.994   1.526   1.283
 1285SOL     OW 4753   3.211   1.323   4.705
 1285SOL    HW1 4754   3.269   1.241   4.708
 1285SOL    HW2 4755   3.212   1.361   4.612
 1286SOL     OW 4756   4.777   2.323   2.002
 1286SOL    HW1 4757   4.777   2.269   2.086
 1286SOL    HW2 4758   4.867   2.315   1.958
 1287SOL     OW 4759   6.656   4.420   4.822
 1287SOL    HW1 4760   6.689   4.446   4.732
 1287SOL    HW2 4761   6.716   4.459   4.892
 1288SOL     OW 4762   4.441   3.906   6.749
 1288SOL    HW1 4763   4.439   3.835   6.819
 1288SOL    HW2 4764   4.494   3.984   6.782
 1289SOL     OW 4765   0.028   0.537   1.744
 1289SOL    HW1 4766   0.109   0.525   1.686
 1289SOL    HW2 4767   6.985   0.460   1.729
 1290SOL     OW 4768   1.175   0.258   6.834
 1290SOL    HW1 4769   1.122   0.302   6.761
 1290SOL    HW2 4770   1.124   0.265   6.920
 1291SOL     OW 4771   6.269   4.765   2.726
 1291SOL    HW1 4772   6.326   4.761   2.645
 1291SOL    HW2 4773   6.268   4.676   2.771
 1292SOL     OW 4774   1.042   6.189   1.914
 1292SOL    HW1 4775   1.072   6.135   1.836
 1292SOL    HW2 4776   0.970   6.140   1.962
 1293SOL     OW 4777   2.699   1.252   6.674
 1293SOL    HW1 4778   2.678   1.228   6.579
 1293SOL    HW2 4779   2.651   1.337   6.698
 1294SOL     OW 4780   2.019   4.149   5.556
 1294SOL    HW1 4781   2.045   4.054   5.541
 1294SOL    HW2 4782   1.925   4.154   5.589
 1295SOL     OW 4783   0.052   3.386   1.220
 1295SOL    HW1 4784   0.066   3.309   1.157
 1295SOL    HW2 4785   0.140   3.411   1.261
 1296SOL     OW 4786   5.364   6.680   5.911
 1296SOL    HW1 4787   5.430   6.628   5.856
 1296SOL    HW2 4788   5.356   6.773   5.873
 1297SOL     OW 4789   0.184   0.609   2.450
 1297SOL    HW1 4790   0.181   0.708   2.460
 1297SOL    HW2 4791   0.098   0.577   2.409
 1298SOL     OW 4792   5.714   5.579   2.373
 1298SOL    HW1 4793   5.795   5.609   2.423
 1298SOL    HW2 4794   5.640   5.562   2.438
 1299SOL     OW 4795   2.067   3.319   4.274
 1299SOL    HW1 4796   2.083   3.229   4.314
 1299SOL    HW2 4797   2.030   3.381   4.343
 1300SOL     OW 4798   2.075   4.358   1.435
 1300SOL    HW1 4799   2.149   4.382   1.498
 1300SOL    HW2 4800   2.014   4.437   1.423
 1301SOL     OW 4801   1.022   0.838   1.839
 1301SOL    HW1 4802   0.933   0.880   1.855
 1301SOL    HW2 4803   1.010   0.740   1.819
 1302SOL     OW 4804   5.347   6.210   6.146
 1302SOL    HW1 4805   5.316   6.289   6.200
 1302SOL    HW2 4806   5.387   6.241   6.060
 1303SOL     OW 4807   4.601   6.834   1.669
 1303SOL    HW1 4808   4.624   6.737   1.657
 1303SOL    HW2 4809   4.603   6.857   1.766
 1304SOL     OW 4810   0.696   0.810   1.185
 1304SOL    HW1 4811   0.745   0.889   1.148
 1304SOL    HW2 4812   0.672   0.827   1.281
 1305SOL     OW 4813   5.536   4.061   0.141
 1305SOL    HW1 4814   5.520   4.152   0.179
 1305SOL    HW2 4815   5.454   4.031   0.091
 1306SOL     OW 4816   1.437   5.177   4.825
 1306SOL    HW1 4817   1.344   5.150   4.802
 1306SOL    HW2 4818   1.461   5.261   4.778
 1307SOL     OW 4819   2.028   2.690   3.849
 1307SOL    HW1 4820   2.026   2.612   3.912
 1307SOL    HW2 4821   1.966   2.673   3.773
 1308SOL     OW 4822   6.676   5.335   6.046
 1308SOL    HW1 4823   6.707   5.384   6.127
 1308SOL    HW2 4824   6.603   5.271   6.072
 1309SOL     OW 4825   5.331   4.410   6.500
 1309SOL    HW1 4826   5.385   4.336   6.539
 1309SOL    HW2 4827   5.265   4.443   6.568
 1310SOL     OW 4828   1.230   3.666   4.137
 1310SOL    HW1 4829   1.277   3.648   4.051
 1310SOL    HW2 4830   1.295   3.702   4.204
 1311SOL     OW 4831   6.941   5.850   0.521
 1311SOL    HW1 4832   0.001   5.905   0.547
 1311SOL    HW2 4833   6.931   5.850   0.422
 1312SOL     OW 4834   1.789   0.740   5.716
 1312SOL    HW1 4835   1.757   0.646   5.721
 1312SOL    HW2 4836   1.769   0.787   5.802
 1313SOL     OW 4837   6.446   4.806   2.917
 1313SOL    HW1 4838   6.375   4.833   2.853
 1313SOL    HW2 4839   6.534   4.801   2.870
 1314SOL     OW 4840   2.831   1.745   4.831
 1314SOL    HW1 4841   2.911   1.695   4.865
 1314SOL    HW2 4842   2.752   1.723   4.889
 1315SOL     OW 4843   5.729   0.446   4.234
 1315SOL    HW1 4844   5.764   0.356   4.208
 1315SOL    HW2 4845   5.805   0.509   4.250
 1316SOL     OW 4846   4.172   0.656   4.926
 1316SOL    HW1 4847   4.155   0.688   4.833
 1316SOL    HW2 4848   4.245   0.588   4.925
 1317SOL     OW 4849   3.083   3.325   5.340
 1317SOL    HW1 4850   3.097   3.360   5.248
 1317SOL    HW2 4851   3.036   3.237   5.336
 1318SOL     OW 4852   2.169   2.707   6.931
 1318SOL    HW1 4853   2.160   2.608   6.930
 1318SOL    HW2 4854   2.159   2.741   0.006
 1319SOL     OW 4855   6.724   6.263   0.755
 1319SOL    HW1 4856   6.690   6.266   0.661
 1319SOL    HW2 4857   6.802   6.324   0.765
 1320SOL     OW 4858   3.654   3.051   6.202
 1320SOL    HW1 4859   3.708   2.972   6.233
 1320SOL    HW2 4860   3.606   3.027   6.118
 1321SOL     OW 4861   5.665   2.001   6.228
 1321SOL    HW1 4862   5.703   2.093   6.213
 1321SOL    HW2 4863   5.620   1.970   6.144
 1322SOL     OW 4864   3.215   1.406   6.557
 1322SOL    HW1 4865   3.204   1.504   6.572
 1322SOL    HW2 4866   3.175   1.356   6.635
 1323SOL     OW 4867   3.414   0.236   0.499
 1323SOL    HW1 4868   3.349   0.310   0.515
 1323SOL    HW2 4869   3.373   0.149   0.526
 1324SOL     OW 4870   1.313   3.532   7.002
 1324SOL    HW1 4871   1.307   3.553   0.081
 1324SOL    HW2 4872   1.408   3.514   6.978
 1325SOL     OW 4873   2.278   5.926   6.241
 1325SOL    HW1 4874   2.240   6.009   6.202
 1325SOL    HW2 4875   2.365   5.947   6.286
 1326SOL     OW 4876   4.735   4.128   4.163
 1326SOL    HW1 4877   4.767   4.101   4.254
 1326SOL    HW2 4878   4.636   4.143   4.165
 1327SOL     OW 4879   0.406   6.522   0.748
 1327SOL    HW1 4880   0.309   6.547   0.747
 1327SOL    HW2 4881   0.462   6.604   0.755
 1328SOL     OW 4882   1.016   3.508   5.711
 1328SOL    HW1 4883   1.062   3.564   5.780
 1328SOL    HW2 4884   1.062   3.420   5.704
 1329SOL     OW 4885   0.278   2.487   3.688
 1329SOL    HW1 4886   0.242   2.395   3.704
 1329SOL    HW2 4887   0.210   2.555   3.716
 1330SOL     OW 4888   6.587   2.341   0.871
 1330SOL    HW1 4889   6.516   2.399   0.832
 1330SOL    HW2 4890   6.544   2.275   0.934
 1331SOL     OW 4891   4.234   1.947   2.497
 1331SOL    HW1 4892   4.291   1.977   2.421
 1331SOL    HW2 4893   4.185   1.864   2.471
 1332SOL     OW 4894   2.108   0.713   0.670
 1332SOL    HW1 4895   2.075   0.636   0.615
 1332SOL    HW2 4896   2.067   0.798   0.636
 1333SOL     OW 4897   3.387   4.015   3.127
 1333SOL    HW1 4898   3.462   4.051   3.071
 1333SOL    HW2 4899   3.306   4.001   3.070
 1334SOL     OW 4900   6.619   1.542   2.857
 1334SOL    HW1 4901   6.659   1.633   2.862
 1334SOL    HW2 4902   6.608   1.515   2.761
 1335SOL     OW 4903   1.828   4.295   1.811
 1335SOL    HW1 4904   1.881   4.262   1.733
 1335SOL    HW2 4905   1.757   4.228   1.834
 1336SOL     OW 4906   3.698   0.554   5.342
 1336SOL    HW1 4907   3.675   0.629   5.404
 1336SOL    HW2 4908   3.689   0.586   5.247
 1337SOL     OW 4909   6.043   1.592   3.572
 1337SOL    HW1 4910   6.062   1.541   3.489
 1337SOL    HW2 4911   6.113   1.663   3.584
 1338SOL     OW 4912   5.855   4.373   4.491
 1338SOL    HW1 4913   5.924   4.398   4.559
 1338SOL    HW2 4914   5.824   4.456   4.443
 1339SOL     OW 4915   0.445   0.315   6.699
 1339SOL    HW1 4916   0.470   0.246   6.632
 1339SOL    HW2 4917   0.353   0.296   6.733
 1340SOL     OW 4918   5.111   1.537   1.483
 1340SOL    HW1 4919   5.185   1.541   1.415
 1340SOL    HW2 4920   5.148   1.510   1.572
 1341SOL     OW 4921   4.391   6.934   6.492
 1341SOL    HW1 4922   4.397   6.869   6.417
 1341SOL    HW2 4923   4.441   7.017   6.469
 1342SOL     OW 4924   3.348   5.882   0.666
 1342SOL    HW1 4925   3.375   5.904   0.760
 1342SOL    HW2 4926   3.340   5.966   0.613
 1343SOL     OW 4927   5.462   5.354   2.924
 1343SOL    HW1 4928   5.547   5.407   2.927
 1343SOL    HW2 4929   5.483   5.256   2.931
 1344SOL     OW 4930   6.658   0.086   4.509
 1344SOL    HW1 4931   6.583   0.049   4.455
 1344SOL    HW2 4932   6.745   0.058   4.469
 1345SOL     OW 4933   0.448   5.332   1.850
 1345SOL    HW1 4934   0.502   5.416   1.849
 1345SOL    HW2 4935   0.495   5.262   1.797
 1346SOL     OW 4936   2.366   4.846   5.538
 1346SOL    HW1 4937   2.453   4.806   5.566
 1346SOL    HW2 4938   2.341   4.919   5.601
 1347SOL     OW 4939   1.428   0.398   6.871
 1347SOL    HW1 4940   1.331   0.373   6.873
 1347SOL    HW2 4941   1.460   0.400   6.776
 1348SOL     OW 4942   0.196   6.170   5.245
 1348SOL    HW1 4943   0.176   6.115   5.326
 1348SOL    HW2 4944   0.123   6.236   5.231
 1349SOL     OW 4945   5.370   4.136   3.998
 1349SOL    HW1 4946   5.283   4.093   3.972
 1349SOL    HW2 4947   5.351   4.224   4.043
 1350SOL     OW 4948   3.281   3.755   0.254
 1350SOL    HW1 4949   3.281   3.838   0.198
 1350SOL    HW2 4950   3.223   3.770   0.335
 1351SOL     OW 4951   6.618   2.641   4.655
 1351SOL    HW1 4952   6.543   2.586   4.618
 1351SOL    HW2 4953   6.663   2.592   4.730
 1352SOL     OW 4954   6.909   0.165   2.743
 1352SOL    HW1 4955   6.885   0.069   2.758
 1352SOL    HW2 4956   6.906   0.186   2.645
 1353SOL     OW 4957   0.669   1.724   1.311
 1353SOL    HW1 4958   0.605   1.670   1.365
 1353SOL    HW2 4959   0.717   1.788   1.371
 1354SOL     OW 4960   6.043   4.208   2.374
 1354SOL    HW1 4961   6.111   4.244   2.310
 1354SOL    HW2 4962   6.052   4.108   2.379
 1355SOL     OW 4963   6.297   3.208   4.787
 1355SOL    HW1 4964   6.349   3.275   4.840
 1355SOL    HW2 4965   6.206   3.244   4.767
 1356SOL     OW 4966   3.610   2.848   2.021
 1356SOL    HW1 4967   3.633   2.815   1.929
 1356SOL    HW2 4968   3.694   2.879   2.067
 1357SOL     OW 4969   6.771   3.282   5.386
 1357SOL    HW1 4970   6.733   3.190   5.380
 1357SOL    HW2 4971   6.773   3.310   5.482
 1358SOL     OW 4972   1.202   6.645   0.159
 1358SOL    HW1 4973   1.123   6.651   0.219
 1358SOL    HW2 4974   1.176   6.669   0.066
 1359SOL     OW 4975   6.416   4.415   1.480
 1359SOL    HW1 4976   6.350   4.478   1.440
 1359SOL    HW2 4977   6.380   4.322   1.475
 1360SOL     OW 4978   3.072   2.712   6.366
 1360SOL    HW1 4979   3.076   2.800   6.320
 1360SOL    HW2 4980   3.157   2.662   6.350
 1361SOL     OW 4981   0.080   4.016   4.474
 1361SOL    HW1 4982   0.175   4.017   4.443
 1361SOL    HW2 4983   0.049   3.922   4.486
 1362SOL     OW 4984   3.541   2.800   2.335
 1362SOL    HW1 4985   3.590   2.745   2.267
 1362SOL    HW2 4986   3.454   2.829   2.297
 1363SOL     OW 4987   0.437   5.507   5.420
 1363SOL    HW1 4988   0.480   5.530   5.507
 1363SOL    HW2 4989   0.339   5.490   5.434
 1364SOL     OW 4990   4.464   4.452   0.558
 1364SOL    HW1 4991   4.560   4.448   0.587
 1364SOL    HW2 4992   4.452   4.528   0.495
 1365SOL     OW 4993   0.619   3.530   6.504
 1365SOL    HW1 4994   0.622   3.501   6.600
 1365SOL    HW2 4995   0.677   3.469   6.449
 1366SOL     OW 4996   2.182   0.359   5.011
 1366SOL    HW1 4997   2.137   0.310   4.937
 1366SOL    HW2 4998   2.280   0.367   4.991
 1367SOL     OW 4999   2.298   0.956   2.581
 1367SOL    HW1 5000   2.212   0.950   2.633
 1367SOL    HW2 5001   2.372   0.984   2.642
 1368SOL     OW 5002   6.198   6.742   4.606
 1368SOL    HW1 5003   6.255   6.820   4.581
 1368SOL    HW2 5004   6.251   6.677   4.661
 1369SOL     OW 5005   0.782   0.693   3.289
 1369SOL    HW1 5006   0.684   0.706   3.281
 1369SOL    HW2 5007   0.819   0.754   3.359
 1370SOL     OW 5008   3.046   1.126   1.789
 1370SOL    HW1 5009   3.039   1.214   1.836
 1370SOL    HW2 5010   3.121   1.073   1.829
 1371SOL     OW 5011   3.502   0.615   6.100
 1371SOL    HW1 5012   3.444   0.690   6.131
 1371SOL    HW2 5013   3.446   0.533   6.087
 1372SOL     OW 5014   2.732   1.841   2.165
 1372SOL    HW1 5015   2.705   1.791   2.082
 1372SOL    HW2 5016   2.650   1.870   2.214
 1373SOL     OW 5017   0.849   5.968   1.020
 1373SOL    HW1 5018   0.875   5.898   1.087
 1373SOL    HW2 5019   0.780   6.028   1.060
 1374SOL     OW 5020   4.405   2.253   0.327
 1374SOL    HW1 5021   4.468   2.253   0.249
 1374SOL    HW2 5022   4.382   2.348   0.351
 1375SOL     OW 5023   6.988   4.117   5.804
 1375SOL    HW1 5024   6.966   4.209   5.836
 1375SOL    HW2 5025   6.943   4.101   5.716
 1376SOL     OW 5026   4.766   2.941   2.688
 1376SOL    HW1 5027   4.744   2.845   2.674
 1376SOL    HW2 5028   4.760   2.990   2.601
 1377SOL     OW 5029   0.140   5.508   5.119
 1377SOL    HW1 5030   0.147   5.440   5.192
 1377SOL    HW2 5031   0.079   5.474   5.048
 1378SOL     OW 5032   1.384   2.622   6.959
 1378SOL    HW1 5033   1.427   2.600   0.028
 1378SOL    HW2 5034   1.453   2.655   6.895
 1379SOL     OW 5035   3.796   6.285   2.861
 1379SOL    HW1 5036   3.786   6.194   2.819
 1379SOL    HW2 5037   3.723   6.299   2.927
 1380SOL     OW 5038   6.600   6.811   2.755
 1380SOL    HW1 5039   6.698   6.797   2.768
 1380SOL    HW2 5040   6.577   6.906   2.773
 1381SOL     OW 5041   6.584   1.668   0.720
 1381SOL    HW1 5042   6.543   1.738   0.662
 1381SOL    HW2 5043   6.559   1.685   0.816
 1382SOL     OW 5044   5.273   4.386   6.202
 1382SOL    HW1 5045   5.341   4.360   6.271
 1382SOL    HW2 5046   5.182   4.388   6.245
 1383SOL     OW 5047   2.600   6.986   0.696
 1383SOL    HW1 5048   2.520   0.016   0.730
 1383SOL    HW2 5049   2.625   0.001   0.606
 1384SOL     OW 5050   2.794   2.260   2.449
 1384SOL    HW1 5051   2.832   2.242   2.358
 1384SOL    HW2 5052   2.747   2.348   2.448
 1385SOL     OW 5053   6.869   3.324   3.358
 1385SOL    HW1 5054   6.810   3.314   3.278
 1385SOL    HW2 5055   6.817   3.302   3.441
 1386SOL     OW 5056   2.169   2.212   4.278
 1386SOL    HW1 5057   2.086   2.158   4.292
 1386SOL    HW2 5058   2.160   2.299   4.325
 1387SOL     OW 5059   2.526   0.099   5.083
 1387SOL    HW1 5060   2.477   0.172   5.036
 1387SOL    HW2 5061   2.480   0.012   5.065
 1388SOL     OW 5062   6.345   0.961   4.195
 1388SOL    HW1 5063   6.383   1.050   4.171
 1388SOL    HW2 5064   6.277   0.934   4.127
 1389SOL     OW 5065   5.875   0.172   4.370
 1389SOL    HW1 5066   5.829   0.096   4.417
 1389SOL    HW2 5067   5.887   0.248   4.433
 1390SOL     OW 5068   4.794   2.307   2.583
 1390SOL    HW1 5069   4.713   2.348   2.542
 1390SOL    HW2 5070   4.871   2.315   2.519
 1391SOL     OW 5071   4.849   0.743   4.269
 1391SOL    HW1 5072   4.775   0.810   4.270
 1391SOL    HW2 5073   4.918   0.771   4.203
 1392SOL     OW 5074   4.548   5.568   6.668
 1392SOL    HW1 5075   4.617   5.514   6.716
 1392SOL    HW2 5076   4.588   5.654   6.637
 1393SOL     OW 5077   6.057   0.832   6.782
 1393SOL    HW1 5078   5.979   0.872   6.830
 1393SOL    HW2 5079   6.109   0.775   6.846
 1394SOL     OW 5080   4.564   6.776   4.027
 1394SOL    HW1 5081   4.623   6.825   4.091
 1394SOL    HW2 5082   4.529   6.839   3.958
 1395SOL     OW 5083   1.457   4.940   2.141
 1395SOL    HW1 5084   1.534   4.920   2.202
 1395SOL    HW2 5085   1.410   5.023   2.171
 1396SOL     OW 5086   2.077   1.588   4.002
 1396SOL    HW1 5087   2.155   1.596   4.064
 1396SOL    HW2 5088   2.063   1.674   3.954
 1397SOL     OW 5089   0.183   4.839   4.487
 1397SOL    HW1 5090   0.282   4.855   4.481
 1397SOL    HW2 5091   0.166   4.747   4.522
 1398SOL     OW 5092   0.470   0.801   0.767
 1398SOL    HW1 5093   0.488   0.741   0.689
 1398SOL    HW2 5094   0.376   0.836   0.761
 1399SOL     OW 5095   4.405   0.527   0.302
 1399SOL    HW1 5096   4.381   0.566   0.390
 1399SOL    HW2 5097   4.325   0.481   0.262
 1400SOL     OW 5098   6.189   6.862   5.358
 1400SOL    HW1 5099   6.265   6.911   5.315
 1400SOL    HW2 5100   6.137   6.813   5.288
 1401SOL     OW 5101   5.278   0.427   3.272
 1401SOL    HW1 5102   5.186   0.389   3.278
 1401SOL    HW2 5103   5.345   0.356   3.289
 1402SOL     OW 5104   0.045   4.741   2.086
 1402SOL    HW1 5105   0.030   4.739   2.185
 1402SOL    HW2 5106   0.067   4.649   2.054
 1403SOL     OW 5107   3.435   2.990   6.384
 1403SOL    HW1 5108   3.376   3.063   6.350
 1403SOL    HW2 5109   3.522   2.991   6.335
 1404SOL     OW 5110   4.371   6.644   0.459
 1404SOL    HW1 5111   4.394   6.736   0.491
 1404SOL    HW2 5112   4.438   6.615   0.391
 1405SOL     OW 5113   1.257   3.816   1.185
 1405SOL    HW1 5114   1.203   3.888   1.228
 1405SOL    HW2 5115   1.212   3.787   1.100
 1406SOL     OW 5116   2.332   2.930   1.026
 1406SOL    HW1 5117   2.363   2.993   0.955
 1406SOL    HW2 5118   2.248   2.965   1.068
 1407SOL     OW 5119   0.330   3.166   0.908
 1407SOL    HW1 5120   0.326   3.072   0.873
 1407SOL    HW2 5121   0.247   3.185   0.961
 1408SOL     OW 5122   5.950   6.220   0.897
 1408SOL    HW1 5123   5.866   6.273   0.905
 1408SOL    HW2 5124   6.023   6.263   0.951
 1409SOL     OW 5125   6.236   1.700   5.663
 1409SOL    HW1 5126   6.328   1.687   5.626
 1409SOL    HW2 5127   6.176   1.628   5.629
 1410SOL     OW 5128   4.063   1.442   5.967
 1410SOL    HW1 5129   4.075   1.517   6.032
 1410SOL    HW2 5130   3.966   1.427   5.950
 1411SOL     OW 5131   3.581   4.983   0.184
 1411SOL    HW1 5132   3.566   5.058   0.249
 1411SOL    HW2 5133   3.522   4.906   0.209
 1412SOL     OW 5134   2.031   3.253   0.299
 1412SOL    HW1 5135   2.053   3.350   0.299
 1412SOL    HW2 5136   2.109   3.200   0.333
 1413SOL     OW 5137   1.410   1.608   5.500
 1413SOL    HW1 5138   1.452   1.623   5.411
 1413SOL    HW2 5139   1.401   1.509   5.517
 1414SOL     OW 5140   1.370   4.198   2.639
 1414SOL    HW1 5141   1.407   4.263   2.572
 1414SOL    HW2 5142   1.284   4.233   2.675
 1415SOL     OW 5143   2.107   1.875   4.541
 1415SOL    HW1 5144   2.206   1.874   4.527
 1415SOL    HW2 5145   2.065   1.800   4.490
 1416SOL     OW 5146   4.095   0.249   4.657
 1416SOL    HW1 5147   4.088   0.227   4.755
 1416SOL    HW2 5148   4.085   0.165   4.604
 1417SOL     OW 5149   3.365   2.825   6.074
 1417SOL    HW1 5150   3.397   2.831   5.979
 1417SOL    HW2 5151   3.311   2.906   6.096
 1418SOL     OW 5152   3.177   4.537   6.281
 1418SOL    HW1 5153   3.209   4.479   6.356
 1418SOL    HW2 5154   3.166   4.481   6.199
 1419SOL     OW 5155   2.512   4.847   2.363
 1419SOL    HW1 5156   2.490   4.909   2.288
 1419SOL    HW2 5157   2.430   4.797   2.390
 1420SOL     OW 5158   2.693   6.237   2.872
 1420SOL    HW1 5159   2.719   6.281   2.957
 1420SOL    HW2 5160   2.645   6.302   2.813
 1421SOL     OW 5161   1.145   4.715   5.905
 1421SOL    HW1 5162   1.094   4.766   5.835
 1421SOL    HW2 5163   1.086   4.642   5.942
 1422SOL     OW 5164   1.932   3.820   6.060
 1422SOL    HW1 5165   2.003   3.766   6.014
 1422SOL    HW2 5166   1.878   3.761   6.119
 1423SOL     OW 5167   4.789   0.648   4.850
 1423SOL    HW1 5168   4.747   0.563   4.881
 1423SOL    HW2 5169   4.731   0.726   4.877
 1424SOL     OW 5170   6.600   2.865   6.999
 1424SOL    HW1 5171   6.515   2.915   6.980
 1424SOL    HW2 5172   6.678   2.924   6.983
 1425SOL     OW 5173   4.849   6.236   3.220
 1425SOL    HW1 5174   4.850   6.185   3.306
 1425SOL    HW2 5175   4.919   6.201   3.158
 1426SOL     OW 5176   3.553   2.293   0.337
 1426SOL    HW1 5177   3.484   2.362   0.320
 1426SOL    HW2 5178   3.544   2.219   0.271
 1427SOL     OW 5179   1.535   1.010   4.186
 1427SOL    HW1 5180   1.631   1.018   4.158
 1427SOL    HW2 5181   1.479   0.986   4.107
 1428SOL     OW 5182   1.171   3.116   3.712
 1428SOL    HW1 5183   1.124   3.127   3.800
 1428SOL    HW2 5184   1.226   3.033   3.714
 1429SOL     OW 5185   5.976   1.161   1.323
 1429SOL    HW1 5186   5.960   1.195   1.230
 1429SOL    HW2 5187   5.990   1.062   1.320
 1430SOL     OW 5188   1.765   3.694   4.118
 1430SOL    HW1 5189   1.861   3.670   4.133
 1430SOL    HW2 5190   1.744   3.689   4.020
 1431SOL     OW 5191   2.208   1.178   6.520
 1431SOL    HW1 5192   2.206   1.078   6.526
 1431SOL    HW2 5193   2.211   1.217   6.612
 1432SOL     OW 5194   2.988   0.485   2.337
 1432SOL    HW1 5195   3.085   0.463   2.340
 1432SOL    HW2 5196   2.960   0.526   2.424
 1433SOL     OW 5197   2.434   0.028   3.788
 1433SOL    HW1 5198   2.469   7.018   3.877
 1433SOL    HW2 5199   2.395   6.968   3.741
 1434SOL     OW 5200   0.254   3.412   0.753
 1434SOL    HW1 5201   0.279   3.347   0.825
 1434SOL    HW2 5202   0.177   3.468   0.784
 1435SOL     OW 5203   1.260   6.765   3.718
 1435SOL    HW1 5204   1.332   6.725   3.661
 1435SOL    HW2 5205   1.302   6.810   3.797
 1436SOL     OW 5206   5.325   1.808   6.740
 1436SOL    HW1 5207   5.347   1.905   6.738
 1436SOL    HW2 5208   5.370   1.762   6.663
 1437SOL     OW 5209   3.610   0.649   5.818
 1437SOL    HW1 5210   3.639   0.627   5.911
 1437SOL    HW2 5211   3.513   0.672   5.818
 1438SOL     OW 5212   2.617   0.375   1.979
 1438SOL    HW1 5213   2.635   0.377   2.078
 1438SOL    HW2 5214   2.523   0.344   1.963
 1439SOL     OW 5215   0.370   4.968   0.082
 1439SOL    HW1 5216   0.399   4.879   0.047
 1439SOL    HW2 5217   0.357   4.963   0.181
 1440SOL     OW 5218   3.726   3.286   3.130
 1440SOL    HW1 5219   3.758   3.373   3.094
 1440SOL    HW2 5220   3.721   3.218   3.057
 1441SOL     OW 5221   6.117   2.818   3.799
 1441SOL    HW1 5222   6.026   2.844   3.768
 1441SOL    HW2 5223   6.111   2.736   3.857
 1442SOL     OW 5224   5.550   5.165   0.704
 1442SOL    HW1 5225   5.568   5.255   0.744
 1442SOL    HW2 5226   5.627   5.104   0.723
 1443SOL     OW 5227   0.429   2.912   3.175
 1443SOL    HW1 5228   0.391   2.923   3.267
 1443SOL    HW2 5229   0.517   2.958   3.170
 1444SOL     OW 5230   4.676   1.097   3.816
 1444SOL    HW1 5231   4.758   1.056   3.855
 1444SOL    HW2 5232   4.611   1.025   3.792
 1445SOL     OW 5233   6.507   1.998   0.786
 1445SOL    HW1 5234   6.537   1.924   0.845
 1445SOL    HW2 5235   6.424   2.040   0.823
 1446SOL     OW 5236   4.315   0.660   1.401
 1446SOL    HW1 5237   4.370   0.693   1.324
 1446SOL    HW2 5238   4.242   0.726   1.420
 1447SOL     OW 5239   6.017   1.000   5.711
 1447SOL    HW1 5240   5.937   0.992   5.653
 1447SOL    HW2 5241   6.070   0.915   5.708
 1448SOL     OW 5242   5.416   0.749   6.792
 1448SOL    HW1 5243   5.366   0.752   6.706
 1448SOL    HW2 5244   5.428   0.842   6.827
 1449SOL     OW 5245   4.180   5.809   1.203
 1449SOL    HW1 5246   4.085   5.836   1.192
 1449SOL    HW2 5247   4.194   5.767   1.292
 1450SOL     OW 5248   5.603   2.800   3.432
 1450SOL    HW1 5249   5.703   2.796   3.427
 1450SOL    HW2 5250   5.573   2.895   3.436
 1451SOL     OW 5251   1.736   6.813   3.005
 1451SOL    HW1 5252   1.683   6.898   3.008
 1451SOL    HW2 5253   1.688   6.746   2.948
 1452SOL     OW 5254   4.398   1.060   5.033
 1452SOL    HW1 5255   4.389   0.976   5.087
 1452SOL    HW2 5256   4.309   1.105   5.025
 1453SOL     OW 5257   5.296   4.534   5.208
 1453SOL    HW1 5258   5.209   4.536   5.158
 1453SOL    HW2 5259   5.371   4.549   5.143
 1454SOL     OW 5260   4.226   3.843   1.006
 1454SOL    HW1 5261   4.173   3.765   0.973
 1454SOL    HW2 5262   4.322   3.833   0.979
 1455SOL     OW 5263   2.000   2.747   1.760
 1455SOL    HW1 5264   2.010   2.687   1.681
 1455SOL    HW2 5265   1.939   2.705   1.828
 1456SOL     OW 5266   6.497   6.014   3.782
 1456SOL    HW1 5267   6.503   5.963   3.696
 1456SOL    HW2 5268   6.547   5.965   3.853
 1457SOL     OW 5269   1.550   0.632   2.969
 1457SOL    HW1 5270   1.523   0.667   3.059
 1457SOL    HW2 5271   1.471   0.632   2.908
 1458SOL     OW 5272   6.074   5.273   6.903
 1458SOL    HW1 5273   6.049   5.180   6.930
 1458SOL    HW2 5274   6.086   5.329   6.985
 1459SOL     OW 5275   2.287   0.230   0.489
 1459SOL    HW1 5276   2.305   0.242   0.587
 1459SOL    HW2 5277   2.200   0.183   0.477
 1460SOL     OW 5278   1.214   6.998   0.043
 1460SOL    HW1 5279   1.298   6.943   0.049
 1460SOL    HW2 5280   1.220   0.055   0.108
 1461SOL     OW 5281   5.442   5.182   1.561
 1461SOL    HW1 5282   5.442   5.169   1.462
 1461SOL    HW2 5283   5.353   5.155   1.598
 1462SOL     OW 5284   5.440   0.737   6.129
 1462SOL    HW1 5285   5.370   0.730   6.057
 1462SOL    HW2 5286   5.452   0.832   6.155
 1463SOL     OW 5287   0.530   1.363   4.971
 1463SOL    HW1 5288   0.535   1.265   4.950
 1463SOL    HW2 5289   0.621   1.403   4.962
 1464SOL     OW 5290   0.470   6.365   0.968
 1464SOL    HW1 5291   0.448   6.425   0.891
 1464SOL    HW2 5292   0.528   6.414   1.033
 1465SOL     OW 5293   0.319   6.873   4.792
 1465SOL    HW1 5294   0.236   6.817   4.784
 1465SOL    HW2 5295   0.366   6.875   4.704
 1466SOL     OW 5296   5.649   5.275   3.805
 1466SOL    HW1 5297   5.594   5.212   3.750
 1466SOL    HW2 5298   5.701   5.224   3.873
 1467SOL     OW 5299   0.279   2.634   3.410
 1467SOL    HW1 5300   0.292   2.732   3.395
 1467SOL    HW2 5301   0.257   2.617   3.506
 1468SOL     OW 5302   5.712   5.703   3.281
 1468SOL    HW1 5303   5.724   5.755   3.365
 1468SOL    HW2 5304   5.625   5.728   3.238
 1469SOL     OW 5305   0.364   1.365   2.995
 1469SOL    HW1 5306   0.279   1.342   3.043
 1469SOL    HW2 5307   0.412   1.280   2.973
 1470SOL     OW 5308   6.892   0.991   3.382
 1470SOL    HW1 5309   6.932   0.916   3.330
 1470SOL    HW2 5310   6.939   0.999   3.470
 1471SOL     OW 5311   0.160   0.259   6.784
 1471SOL    HW1 5312   0.119   0.264   6.693
 1471SOL    HW2 5313   0.088   0.248   6.853
 1472SOL     OW 5314   4.439   0.458   5.178
 1472SOL    HW1 5315   4.476   0.366   5.187
 1472SOL    HW2 5316   4.340   0.453   5.166
 1473SOL     OW 5317   6.186   4.137   3.928
 1473SOL    HW1 5318   6.092   4.107   3.912
 1473SOL    HW2 5319   6.195   4.169   4.022
 1474SOL     OW 5320   4.696   5.648   3.517
 1474SOL    HW1 5321   4.624   5.651   3.448
 1474SOL    HW2 5322   4.777   5.605   3.479
 1475SOL     OW 5323   0.275   0.975   2.868
 1475SOL    HW1 5324   0.186   1.020   2.866
 1475SOL    HW2 5325   0.323   0.991   2.781
 1476SOL     OW 5326   6.591   1.800   1.696
 1476SOL    HW1 5327   6.634   1.715   1.728
 1476SOL    HW2 5328   6.513   1.822   1.754
 1477SOL     OW 5329   2.537   5.997   3.613
 1477SOL    HW1 5330   2.566   6.091   3.597
 1477SOL    HW2 5331   2.588   5.959   3.690
 1478SOL     OW 5332   6.708   4.600   1.486
 1478SOL    HW1 5333   6.665   4.580   1.574
 1478SOL    HW2 5334   6.794   4.549   1.479
 1479SOL     OW 5335   1.758   5.339   0.734
 1479SOL    HW1 5336   1.814   5.258   0.750
 1479SOL    HW2 5337   1.765   5.401   0.813
 1480SOL     OW 5338   2.621   0.992   0.052
 1480SOL    HW1 5339   2.671   1.016   6.987
 1480SOL    HW2 5340   2.603   1.074   0.105
 1481SOL     OW 5341   6.383   2.135   6.357
 1481SOL    HW1 5342   6.376   2.164   6.261
 1481SOL    HW2 5343   6.440   2.053   6.363
 1482SOL     OW 5344   5.743   0.655   6.469
 1482SOL    HW1 5345   5.738   0.645   6.370
 1482SOL    HW2 5346   5.796   0.736   6.493
 1483SOL     OW 5347   5.950   2.034   6.487
 1483SOL    HW1 5348   5.978   1.968   6.417
 1483SOL    HW2 5349   6.031   2.080   6.523
 1484SOL     OW 5350   6.281   6.121   2.985
 1484SOL    HW1 5351   6.215   6.047   2.973
 1484SOL    HW2 5352   6.253   6.179   3.061
 1485SOL     OW 5353   5.259   3.123   3.738
 1485SOL    HW1 5354   5.283   3.029   3.760
 1485SOL    HW2 5355   5.255   3.134   3.639
 1486SOL     OW 5356   4.758   2.142   2.218
 1486SOL    HW1 5357   4.854   2.152   2.244
 1486SOL    HW2 5358   4.702   2.127   2.300
 1487SOL     OW 5359   6.350   1.473   5.212
 1487SOL    HW1 5360   6.390   1.459   5.121
 1487SOL    HW2 5361   6.420   1.458   5.282
 1488SOL     OW 5362   3.929   2.133   3.151
 1488SOL    HW1 5363   3.847   2.142   3.095
 1488SOL    HW2 5364   3.930   2.043   3.195
 1489SOL     OW 5365   4.019   6.038   4.881
 1489SOL    HW1 5366   3.924   6.044   4.910
 1489SOL    HW2 5367   4.039   6.111   4.816
 1490SOL     OW 5368   2.061   2.886   0.553
 1490SOL    HW1 5369   2.128   2.812   0.549
 1490SOL    HW2 5370   2.034   2.901   0.648
 1491SOL     OW 5371   0.481   2.945   4.904
 1491SOL    HW1 5372   0.406   2.963   4.840
 1491SOL    HW2 5373   0.509   3.031   4.947
 1492SOL     OW 5374   5.373   2.453   2.280
 1492SOL    HW1 5375   5.366   2.501   2.367
 1492SOL    HW2 5376   5.446   2.385   2.284
 1493SOL     OW 5377   4.957   0.885   4.684
 1493SOL    HW1 5378   4.945   0.810   4.620
 1493SOL    HW2 5379   4.985   0.849   4.773
 1494SOL     OW 5380   4.920   3.110   5.774
 1494SOL    HW1 5381   4.933   3.086   5.678
 1494SOL    HW2 5382   4.826   3.141   5.788
 1495SOL     OW 5383   2.099   3.181   2.794
 1495SOL    HW1 5384   2.140   3.092   2.813
 1495SOL    HW2 5385   2.106   3.239   2.875
 1496SOL     OW 5386   0.864   0.887   2.351
 1496SOL    HW1 5387   0.932   0.857   2.285
 1496SOL    HW2 5388   0.780   0.913   2.302
 1497SOL     OW 5389   5.484   5.255   5.252
 1497SOL    HW1 5390   5.417   5.328   5.258
 1497SOL    HW2 5391   5.448   5.182   5.193
 1498SOL     OW 5392   2.383   6.249   0.620
 1498SOL    HW1 5393   2.421   6.339   0.599
 1498SOL    HW2 5394   2.438   6.179   0.575
 1499SOL     OW 5395   0.271   4.369   5.484
 1499SOL    HW1 5396   0.254   4.356   5.386
 1499SOL    HW2 5397   0.321   4.291   5.520
 1500SOL     OW 5398   4.763   0.050   5.937
 1500SOL    HW1 5399   4.774   0.149   5.930
 1500SOL    HW2 5400   4.727   0.014   5.851
 1501SOL     OW 5401   3.802   6.920   6.282
 1501SOL    HW1 5402   3.884   6.885   6.326
 1501SOL    HW2 5403   3.724   6.862   6.305
 1502SOL     OW 5404   6.454   6.236   6.935
 1502SOL    HW1 5405   6.434   6.186   6.851
 1502SOL    HW2 5406   6.481   6.172   7.006
 1503SOL     OW 5407   3.250   3.387   5.757
 1503SOL    HW1 5408   3.260   3.293   5.723
 1503SOL    HW2 5409   3.318   3.404   5.828
 1504SOL     OW 5410   2.296   5.818   4.469
 1504SOL    HW1 5411   2.204   5.786   4.445
 1504SOL    HW2 5412   2.306   5.913   4.440
 1505SOL     OW 5413   4.914   5.392   0.491
 1505SOL    HW1 5414   4.991   5.349   0.536
 1505SOL    HW2 5415   4.926   5.491   0.490
 1506SOL     OW 5416   0.595   5.958   3.845
 1506SOL    HW1 5417   0.545   5.878   3.877
 1506SOL    HW2 5418   0.693   5.936   3.841
 1507SOL     OW 5419   1.836   1.726   6.761
 1507SOL    HW1 5420   1.899   1.791   6.718
 1507SOL    HW2 5421   1.749   1.728   6.712
 1508SOL     OW 5422   5.314   0.197   0.291
 1508SOL    HW1 5423   5.224   0.155   0.301
 1508SOL    HW2 5424   5.385   0.127   0.296
 1509SOL     OW 5425   4.855   2.241   0.398
 1509SOL    HW1 5426   4.925   2.176   0.368
 1509SOL    HW2 5427   4.896   2.330   0.414
 1510SOL     OW 5428   6.839   1.512   3.848
 1510SOL    HW1 5429   6.864   1.606   3.825
 1510SOL    HW2 5430   6.913   1.469   3.899
 1511SOL     OW 5431   1.914   2.580   0.773
 1511SOL    HW1 5432   1.929   2.518   0.850
 1511SOL    HW2 5433   1.936   2.674   0.802
 1512SOL     OW 5434   6.437   0.465   2.147
 1512SOL    HW1 5435   6.376   0.529   2.194
 1512SOL    HW2 5436   6.432   0.375   2.190
 1513SOL     OW 5437   3.550   1.186   2.247
 1513SOL    HW1 5438   3.511   1.106   2.202
 1513SOL    HW2 5439   3.603   1.239   2.182
 1514SOL     OW 5440   4.650   1.692   4.962
 1514SOL    HW1 5441   4.705   1.613   4.988
 1514SOL    HW2 5442   4.587   1.666   4.889
 1515SOL     OW 5443   0.307   4.261   4.294
 1515SOL    HW1 5444   0.249   4.299   4.366
 1515SOL    HW2 5445   0.379   4.327   4.271
 1516SOL     OW 5446   0.797   1.674   1.076
 1516SOL    HW1 5447   0.766   1.701   1.168
 1516SOL    HW2 5448   0.741   1.598   1.044
 1517SOL     OW 5449   3.984   5.709   3.308
 1517SOL    HW1 5450   3.931   5.701   3.392
 1517SOL    HW2 5451   3.967   5.629   3.250
 1518SOL     OW 5452   0.707   4.782   1.131
 1518SOL    HW1 5453   0.693   4.875   1.166
 1518SOL    HW2 5454   0.649   4.719   1.182
 1519SOL     OW 5455   6.694   4.752   0.536
 1519SOL    HW1 5456   6.664   4.829   0.480
 1519SOL    HW2 5457   6.733   4.787   0.621
 1520SOL     OW 5458   1.390   3.344   3.019
 1520SOL    HW1 5459   1.336   3.400   2.955
 1520SOL    HW2 5460   1.487   3.350   2.994
 1521SOL     OW 5461   2.496   3.994   6.372
 1521SOL    HW1 5462   2.587   3.955   6.382
 1521SOL    HW2 5463   2.433   3.925   6.337
 1522SOL     OW 5464   6.098   2.455   6.417
 1522SOL    HW1 5465   6.143   2.432   6.330
 1522SOL    HW2 5466   6.097   2.374   6.476
 1523SOL     OW 5467   0.283   1.915   0.932
 1523SOL    HW1 5468   0.276   1.928   1.031
 1523SOL    HW2 5469   0.366   1.864   0.910
 1524SOL     OW 5470   6.959   0.756   2.638
 1524SOL    HW1 5471   0.009   0.823   2.609
 1524SOL    HW2 5472   6.944   0.765   2.736
 1525SOL     OW 5473   4.630   2.016   6.101
 1525SOL    HW1 5474   4.607   1.933   6.051
 1525SOL    HW2 5475   4.593   2.010   6.194
 1526SOL     OW 5476   7.009   2.393   1.444
 1526SOL    HW1 5477   6.915   2.365   1.463
 1526SOL    HW2 5478   0.051   2.350   1.511
 1527SOL     OW 5479   2.993   1.457   5.518
 1527SOL    HW1 5480   2.967   1.372   5.472
 1527SOL    HW2 5481   2.911   1.504   5.551
 1528SOL     OW 5482   5.389   6.065   3.580
 1528SOL    HW1 5483   5.306   6.051   3.634
 1528SOL    HW2 5484   5.407   6.163   3.571
 1529SOL     OW 5485   3.034   0.496   5.995
 1529SOL    HW1 5486   2.963   0.562   5.969
 1529SOL    HW2 5487   3.096   0.481   5.919
 1530SOL     OW 5488   4.025   6.493   1.878
 1530SOL    HW1 5489   4.003   6.491   1.976
 1530SOL    HW2 5490   3.944   6.521   1.826
 1531SOL     OW 5491   6.993   6.930   4.723
 1531SOL    HW1 5492   0.007   6.839   4.751
 1531SOL    HW2 5493   0.032   6.966   4.650
 1532SOL     OW 5494   3.186   1.848   5.227
 1532SOL    HW1 5495   3.201   1.804   5.316
 1532SOL    HW2 5496   3.259   1.914   5.210
 1533SOL     OW 5497   5.946   2.687   0.020
 1533SOL    HW1 5498   5.978   2.593   0.007
 1533SOL    HW2 5499   5.869   2.705   6.979
 1534SOL     OW 5500   0.394   6.623   1.497
 1534SOL    HW1 5501   0.343   6.560   1.439
 1534SOL    HW2 5502   0.385   6.716   1.461
 1535SOL     OW 5503   4.885   5.251   4.436
 1535SOL    HW1 5504   4.808   5.296   4.390
 1535SOL    HW2 5505   4.938   5.200   4.369
 1536SOL     OW 5506   2.630   6.014   4.235
 1536SOL    HW1 5507   2.568   6.036   4.159
 1536SOL    HW2 5508   2.599   6.061   4.318
 1537SOL     OW 5509   1.604   5.311   4.469
 1537SOL    HW1 5510   1.586   5.286   4.374
 1537SOL    HW2 5511   1.521   5.345   4.512
 1538SOL     OW 5512   2.558   5.627   6.486
 1538SOL    HW1 5513   2.533   5.569   6.564
 1538SOL    HW2 5514   2.509   5.596   6.405
 1539SOL     OW 5515   3.367   4.785   1.746
 1539SOL    HW1 5516   3.368   4.843   1.827
 1539SOL    HW2 5517   3.433   4.710   1.757
 1540SOL     OW 5518   0.978   6.456   4.409
 1540SOL    HW1 5519   0.893   6.435   4.456
 1540SOL    HW2 5520   1.051   6.472   4.477
 1541SOL     OW 5521   5.244   2.399   1.194
 1541SOL    HW1 5522   5.238   2.480   1.251
 1541SOL    HW2 5523   5.323   2.344   1.223
 1542SOL     OW 5524   0.999   6.582   0.742
 1542SOL    HW1 5525   1.071   6.625   0.796
 1542SOL    HW2 5526   0.957   6.650   0.682
 1543SOL     OW 5527   3.038   3.962   4.359
 1543SOL    HW1 5528   2.998   3.924   4.443
 1543SOL    HW2 5529   3.111   4.025   4.383
 1544SOL     OW 5530   3.512   4.155   2.900
 1544SOL    HW1 5531   3.512   4.232   2.836
 1544SOL    HW2 5532   3.591   4.097   2.882
 1545SOL     OW 5533   5.627   0.273   4.664
 1545SOL    HW1 5534   5.649   0.202   4.731
 1545SOL    HW2 5535   5.704   0.285   4.601
 1546SOL     OW 5536   1.006   6.587   6.075
 1546SOL    HW1 5537   1.059   6.591   6.160
 1546SOL    HW2 5538   0.932   6.653   6.079
 1547SOL     OW 5539   3.585   5.915   6.970
 1547SOL    HW1 5540   3.541   5.876   0.031
 1547SOL    HW2 5541   3.567   5.857   6.890
 1548SOL     OW 5542   5.591   3.912   4.821
 1548SOL    HW1 5543   5.667   3.852   4.846
 1548SOL    HW2 5544   5.511   3.891   4.878
 1549SOL     OW 5545   6.801   1.626   1.231
 1549SOL    HW1 5546   6.767   1.548   1.178
 1549SOL    HW2 5547   6.774   1.615   1.327
 1550SOL     OW 5548   2.306   5.883   4.729
 1550SOL    HW1 5549   2.323   5.862   4.633
 1550SOL    HW2 5550   2.254   5.808   4.771
 1551SOL     OW 5551   1.921   2.583   0.310
 1551SOL    HW1 5552   1.858   2.562   0.235
 1551SOL    HW2 5553   1.875   2.567   0.397
 1552SOL     OW 5554   0.787   0.716   0.457
 1552SOL    HW1 5555   0.702   0.700   0.506
 1552SOL    HW2 5556   0.854   0.646   0.481
 1553SOL     OW 5557   5.998   1.164   6.389
 1553SOL    HW1 5558   5.986   1.124   6.479
 1553SOL    HW2 5559   5.916   1.146   6.333
 1554SOL     OW 5560   3.093   1.879   1.518
 1554SOL    HW1 5561   3.054   1.960   1.561
 1554SOL    HW2 5562   3.125   1.816   1.589
 1555SOL     OW 5563   3.950   1.224   5.479
 1555SOL    HW1 5564   3.851   1.237   5.486
 1555SOL    HW2 5565   3.973   1.132   5.508
 1556SOL     OW 5566   3.770   1.338   0.875
 1556SOL    HW1 5567   3.712   1.382   0.807
 1556SOL    HW2 5568   3.840   1.284   0.829
 1557SOL     OW 5569   1.761   2.499   0.544
 1557SOL    HW1 5570   1.754   2.403   0.518
 1557SOL    HW2 5571   1.828   2.509   0.618
 1558SOL     OW 5572   6.202   2.986   6.326
 1558SOL    HW1 5573   6.200   3.072   6.378
 1558SOL    HW2 5574   6.217   3.006   6.230
 1559SOL     OW 5575   2.121   4.421   3.517
 1559SOL    HW1 5576   2.124   4.365   3.599
 1559SOL    HW2 5577   2.123   4.518   3.542
 1560SOL     OW 5578   4.284   1.452   1.390
 1560SOL    HW1 5579   4.223   1.515   1.343
 1560SOL    HW2 5580   4.268   1.358   1.357
 1561SOL     OW 5581   6.165   5.820   1.220
 1561SOL    HW1 5582   6.187   5.820   1.318
 1561SOL    HW2 5583   6.130   5.730   1.194
 1562SOL     OW 5584   3.832   6.675   2.275
 1562SOL    HW1 5585   3.817   6.733   2.355
 1562SOL    HW2 5586   3.835   6.733   2.193
 1563SOL     OW 5587   4.086   2.200   3.877
 1563SOL    HW1 5588   4.098   2.215   3.975
 1563SOL    HW2 5589   4.168   2.231   3.828
 1564SOL     OW 5590   1.606   2.334   3.301
 1564SOL    HW1 5591   1.541   2.287   3.241
 1564SOL    HW2 5592   1.682   2.370   3.246
 1565SOL     OW 5593   3.902   1.047   4.374
 1565SOL    HW1 5594   3.982   1.069   4.430
 1565SOL    HW2 5595   3.923   1.062   4.277
 1566SOL     OW 5596   4.517   4.584   3.243
 1566SOL    HW1 5597   4.422   4.610   3.263
 1566SOL    HW2 5598   4.542   4.506   3.301
 1567SOL     OW 5599   4.811   0.110   5.103
 1567SOL    HW1 5600   4.722   0.157   5.111
 1567SOL    HW2 5601   4.805   0.040   5.032
 1568SOL     OW 5602   2.281   5.778   2.256
 1568SOL    HW1 5603   2.357   5.716   2.272
 1568SOL    HW2 5604   2.230   5.792   2.341
 1569SOL     OW 5605   3.174   0.232   3.232
 1569SOL    HW1 5606   3.108   0.232   3.308
 1569SOL    HW2 5607   3.127   0.208   3.147
 1570SOL     OW 5608   3.611   6.470   6.830
 1570SOL    HW1 5609   3.683   6.456   6.898
 1570SOL    HW2 5610   3.525   6.434   6.866
 1571SOL     OW 5611   0.905   2.126   4.892
 1571SOL    HW1 5612   0.939   2.054   4.832
 1571SOL    HW2 5613   0.838   2.182   4.843
 1572SOL     OW 5614   1.976   5.238   1.773
 1572SOL    HW1 5615   1.948   5.219   1.867
 1572SOL    HW2 5616   1.990   5.336   1.761
 1573SOL     OW 5617   5.132   5.488   0.815
 1573SOL    HW1 5618   5.209   5.475   0.878
 1573SOL    HW2 5619   5.131   5.583   0.784
 1574SOL     OW 5620   0.011   3.545   3.428
 1574SOL    HW1 5621   6.966   3.487   3.377
 1574SOL    HW2 5622   6.985   3.632   3.450
 1575SOL     OW 5623   6.919   1.382   0.448
 1575SOL    HW1 5624   6.913   1.477   0.480
 1575SOL    HW2 5625   7.011   1.347   0.464
 1576SOL     OW 5626   0.503   0.254   2.102
 1576SOL    HW1 5627   0.548   0.342   2.121
 1576SOL    HW2 5628   0.484   0.207   2.188
 1577SOL     OW 5629   4.215   5.970   5.311
 1577SOL    HW1 5630   4.149   5.982   5.384
 1577SOL    HW2 5631   4.249   6.059   5.281
 1578SOL     OW 5632   4.817   1.349   0.767
 1578SOL    HW1 5633   4.912   1.318   0.765
 1578SOL    HW2 5634   4.809   1.429   0.827
 1579SOL     OW 5635   1.630   2.618   1.405
 1579SOL    HW1 5636   1.670   2.539   1.358
 1579SOL    HW2 5637   1.679   2.636   1.490
 1580SOL     OW 5638   3.255   3.632   2.695
 1580SOL    HW1 5639   3.245   3.533   2.703
 1580SOL    HW2 5640   3.165   3.675   2.695
 1581SOL     OW 5641   6.247   4.186   5.868
 1581SOL    HW1 5642   6.327   4.246   5.860
 1581SOL    HW2 5643   6.167   4.241   5.889
 1582SOL     OW 5644   4.279   6.489   5.190
 1582SOL    HW1 5645   4.209   6.559   5.205
 1582SOL    HW2 5646   4.348   6.524   5.127
 1583SOL     OW 5647   1.221   6.333   5.229
 1583SOL    HW1 5648   1.206   6.321   5.327
 1583SOL    HW2 5649   1.258   6.248   5.190
 1584SOL     OW 5650   0.333   5.248   7.013
 1584SOL    HW1 5651   0.369   5.162   0.030
 1584SOL    HW2 5652   0.360   5.257   6.917
 1585SOL     OW 5653   4.166   6.393   3.068
 1585SOL    HW1 5654   4.120   6.411   3.155
 1585SOL    HW2 5655   4.142   6.302   3.036
 1586SOL     OW 5656   2.957   4.798   3.513
 1586SOL    HW1 5657   2.931   4.867   3.445
 1586SOL    HW2 5658   3.053   4.774   3.501
 1587SOL     OW 5659   2.164   6.132   6.106
 1587SOL    HW1 5660   2.095   6.199   6.080
 1587SOL    HW2 5661   2.233   6.125   6.034
 1588SOL     OW 5662   5.662   0.761   2.885
 1588SOL    HW1 5663   5.744   0.730   2.933
 1588SOL    HW2 5664   5.582   0.752   2.945
 1589SOL     OW 5665   5.980   4.556   3.969
 1589SOL    HW1 5666   6.029   4.640   3.991
 1589SOL    HW2 5667   5.922   4.529   4.046
 1590SOL     OW 5668   6.487   2.498   3.729
 1590SOL    HW1 5669   6.458   2.504   3.633
 1590SOL    HW2 5670   6.586   2.509   3.735
 1591SOL     OW 5671   1.062   6.723   1.962
 1591SOL    HW1 5672   1.065   6.623   1.964
 1591SOL    HW2 5673   1.061   6.758   2.056
 1592SOL     OW 5674   0.187   4.133   6.561
 1592SOL    HW1 5675   0.140   4.111   6.475
 1592SOL    HW2 5676   0.186   4.052   6.620
 1593SOL     OW 5677   3.031   0.418   0.324
 1593SOL    HW1 5678   3.052   0.338   0.380
 1593SOL    HW2 5679   2.967   0.477   0.373
 1594SOL     OW 5680   5.962   0.597   2.188
 1594SOL    HW1 5681   5.975   0.510   2.140
 1594SOL    HW2 5682   5.889   0.586   2.256
 1595SOL     OW 5683   0.165   3.938   6.760
 1595SOL    HW1 5684   0.124   3.981   6.840
 1595SOL    HW2 5685   0.217   3.857   6.788
 1596SOL     OW 5686   4.979   4.681   2.629
 1596SOL    HW1 5687   5.032   4.665   2.712
 1596SOL    HW2 5688   4.902   4.741   2.649
 1597SOL     OW 5689   3.988   6.410   6.653
 1597SOL    HW1 5690   4.084   6.440   6.656
 1597SOL    HW2 5691   3.952   6.405   6.746
 1598SOL     OW 5692   2.021   5.287   0.289
 1598SOL    HW1 5693   1.957   5.211   0.278
 1598SOL    HW2 5694   1.974   5.363   0.335
 1599SOL     OW 5695   4.859   4.997   3.602
 1599SOL    HW1 5696   4.842   5.091   3.631
 1599SOL    HW2 5697   4.956   4.986   3.579
 1600SOL     OW 5698   4.526   0.285   2.518
 1600SOL    HW1 5699   4.531   0.341   2.600
 1600SOL    HW2 5700   4.524   0.344   2.437
 1601SOL     OW 5701   6.482   6.807   4.564
 1601SOL    HW1 5702   6.528   6.762   4.640
 1601SOL    HW2 5703   6.524   6.779   4.478
 1602SOL     OW 5704   3.817   5.082   3.845
 1602SOL    HW1 5705   3.782   4.993   3.872
 1602SOL    HW2 5706   3.890   5.070   3.778
 1603SOL     OW 5707   3.134   5.776   2.766
 1603SOL    HW1 5708   3.048   5.799   2.813
 1603SOL    HW2 5709   3.176   5.697   2.809
 1604SOL     OW 5710   4.146   5.453   2.186
 1604SOL    HW1 5711   4.068   5.449   2.250
 1604SOL    HW2 5712   4.228   5.482   2.236
 1605SOL     OW 5713   4.527   5.591   1.105
 1605SOL    HW1 5714   4.545   5.507   1.157
 1605SOL    HW2 5715   4.558   5.670   1.157
 1606SOL     OW 5716   3.712   6.578   4.570
 1606SOL    HW1 5717   3.680   6.506   4.508
 1606SOL    HW2 5718   3.722   6.541   4.662
 1607SOL     OW 5719   4.495   5.945   2.637
 1607SOL    HW1 5720   4.456   5.900   2.718
 1607SOL    HW2 5721   4.581   5.988   2.662
 1608SOL     OW 5722   6.193   0.950   3.286
 1608SOL    HW1 5723   6.099   0.962   3.256
 1608SOL    HW2 5724   6.205   0.859   3.325
 1609SOL     OW 5725   3.813   6.416   0.028
 1609SOL    HW1 5726   3.881   6.367   6.993
 1609SOL    HW2 5727   3.840   6.512   0.038
 1610SOL     OW 5728   5.154   0.135   0.585
 1610SOL    HW1 5729   5.250   0.157   0.598
 1610SOL    HW2 5730   5.138   0.105   0.491
 1611SOL     OW 5731   0.866   4.088   1.481
 1611SOL    HW1 5732   0.938   4.095   1.412
 1611SOL    HW2 5733   0.907   4.092   1.572
 1612SOL     OW 5734   3.809   6.808   2.047
 1612SOL    HW1 5735   3.884   6.873   2.034
 1612SOL    HW2 5736   3.746   6.815   1.970
 1613SOL     OW 5737   6.927   5.563   2.259
 1613SOL    HW1 5738   6.871   5.553   2.341
 1613SOL    HW2 5739   6.877   5.528   2.180
 1614SOL     OW 5740   6.559   2.206   6.117
 1614SOL    HW1 5741   6.591   2.119   6.155
 1614SOL    HW2 5742   6.627   2.242   6.054
 1615SOL     OW 5743   1.367   4.983   6.428
 1615SOL    HW1 5744   1.421   4.900   6.411
 1615SOL    HW2 5745   1.282   4.979   6.375
 1616SOL     OW 5746   2.186   1.497   4.686
 1616SOL    HW1 5747   2.246   1.577   4.681
 1616SOL    HW2 5748   2.090   1.527   4.685
 1617SOL     OW 5749   5.683   6.016   3.252
 1617SOL    HW1 5750   5.708   5.992   3.345
 1617SOL    HW2 5751   5.584   6.035   3.247
 1618SOL     OW 5752   2.828   5.226   2.757
 1618SOL    HW1 5753   2.778   5.282   2.691
 1618SOL    HW2 5754   2.768   5.204   2.834
 1619SOL     OW 5755   1.307   5.274   6.389
 1619SOL    HW1 5756   1.356   5.189   6.412
 1619SOL    HW2 5757   1.367   5.352   6.405
 1620SOL     OW 5758   3.802   5.489   6.273
 1620SOL    HW1 5759   3.893   5.450   6.269
 1620SOL    HW2 5760   3.737   5.421   6.307
 1621SOL     OW 5761   5.078   6.480   0.821
 1621SOL    HW1 5762   5.065   6.480   0.921
 1621SOL    HW2 5763   5.051   6.391   0.785
 1622SOL     OW 5764   0.325   4.012   4.399
 1622SOL    HW1 5765   0.379   3.946   4.347
 1622SOL    HW2 5766   0.336   4.103   4.360
 1623SOL     OW 5767   0.756   1.741   3.755
 1623SOL    HW1 5768   0.795   1.754   3.664
 1623SOL    HW2 5769   0.750   1.829   3.802
 1624SOL     OW 5770   4.146   1.443   1.050
 1624SOL    HW1 5771   4.227   1.493   1.080
 1624SOL    HW2 5772   4.099   1.495   0.978
 1625SOL     OW 5773   1.075   5.657   0.913
 1625SOL    HW1 5774   1.012   5.579   0.912
 1625SOL    HW2 5775   1.163   5.629   0.872
 1626SOL     OW 5776   2.945   1.953   1.129
 1626SOL    HW1 5777   2.876   1.939   1.058
 1626SOL    HW2 5778   2.993   2.039   1.113
 1627SOL     OW 5779   4.288   1.652   4.149
 1627SOL    HW1 5780   4.363   1.585   4.149
 1627SOL    HW2 5781   4.211   1.616   4.097
 1628SOL     OW 5782   5.365   6.827   0.174
 1628SOL    HW1 5783   5.408   6.736   0.172
 1628SOL    HW2 5784   5.297   6.833   0.101
 1629SOL     OW 5785   2.004   0.900   3.694
 1629SOL    HW1 5786   1.956   0.824   3.650
 1629SOL    HW2 5787   2.037   0.964   3.625
 1630SOL     OW 5788   0.279   3.356   0.088
 1630SOL    HW1 5789   0.227   3.406   0.157
 1630SOL    HW2 5790   0.374   3.386   0.091
 1631SOL     OW 5791   6.855   3.190   0.309
 1631SOL    HW1 5792   6.877   3.264   0.373
 1631SOL    HW2 5793   6.910   3.110   0.330
 1632SOL     OW 5794   6.646   4.702   2.657
 1632SOL    HW1 5795   6.588   4.770   2.611
 1632SOL    HW2 5796   6.712   4.665   2.591
 1633SOL     OW 5797   5.130   3.232   3.970
 1633SOL    HW1 5798   5.137   3.162   4.041
 1633SOL    HW2 5799   5.168   3.196   3.884
 1634SOL     OW 5800   5.237   0.896   4.100
 1634SOL    HW1 5801   5.223   0.978   4.155
 1634SOL    HW2 5802   5.157   0.836   4.107
 1635SOL     OW 5803   3.332   5.965   4.148
 1635SOL    HW1 5804   3.404   5.952   4.216
 1635SOL    HW2 5805   3.344   6.054   4.104
 1636SOL     OW 5806   5.863   6.557   1.348
 1636SOL    HW1 5807   5.888   6.618   1.273
 1636SOL    HW2 5808   5.942   6.502   1.374
 1637SOL     OW 5809   0.234   0.489   2.213
 1637SOL    HW1 5810   0.274   0.545   2.139
 1637SOL    HW2 5811   0.220   0.547   2.294
 1638SOL     OW 5812   6.844   2.903   2.091
 1638SOL    HW1 5813   6.886   2.830   2.144
 1638SOL    HW2 5814   6.828   2.982   2.150
 1639SOL     OW 5815   4.868   2.605   2.356
 1639SOL    HW1 5816   4.941   2.555   2.309
 1639SOL    HW2 5817   4.786   2.606   2.299
 1640SOL     OW 5818   6.343   0.168   0.229
 1640SOL    HW1 5819   6.345   0.068   0.234
 1640SOL    HW2 5820   6.334   0.196   0.134
 1641SOL     OW 5821   6.354   2.461   2.736
 1641SOL    HW1 5822   6.405   2.521   2.798
 1641SOL    HW2 5823   6.320   2.383   2.788
 1642SOL     OW 5824   5.769   2.136   5.696
 1642SOL    HW1 5825   5.671   2.126   5.680
 1642SOL    HW2 5826   5.807   2.048   5.725
 1643SOL     OW 5827   2.597   5.529   3.892
 1643SOL    HW1 5828   2.588   5.610   3.950
 1643SOL    HW2 5829   2.694   5.507   3.881
 1644SOL     OW 5830   5.971   3.061   1.161
 1644SOL    HW1 5831   5.943   3.046   1.256
 1644SOL    HW2 5832   6.027   3.143   1.155
 1645SOL     OW 5833   2.038   0.828   5.712
 1645SOL    HW1 5834   1.941   0.812   5.728
 1645SOL    HW2 5835   2.075   0.755   5.655
 1646SOL     OW 5836   1.336   5.610   1.173
 1646SOL    HW1 5837   1.363   5.703   1.147
 1646SOL    HW2 5838   1.283   5.612   1.258
 1647SOL     OW 5839   6.070   2.717   4.138
 1647SOL    HW1 5840   6.101   2.804   4.175
 1647SOL    HW2 5841   5.972   2.706   4.155
 1648SOL     OW 5842   5.363   6.304   1.281
 1648SOL    HW1 5843   5.421   6.352   1.215
 1648SOL    HW2 5844   5.293   6.366   1.316
 1649SOL     OW 5845   3.058   6.840   3.606
 1649SOL    HW1 5846   2.997   6.918   3.594
 1649SOL    HW2 5847   3.012   6.770   3.660
 1650SOL     OW 5848   2.783   4.778   6.346
 1650SOL    HW1 5849   2.882   4.777   6.361
 1650SOL    HW2 5850   2.748   4.871   6.362
 1651SOL     OW 5851   1.270   2.932   3.901
 1651SOL    HW1 5852   1.279   2.840   3.939
 1651SOL    HW2 5853   1.352   2.986   3.922
 1652SOL     OW 5854   0.371   2.521   1.281
 1652SOL    HW1 5855   0.433   2.593   1.251
 1652SOL    HW2 5856   0.374   2.514   1.381
 1653SOL     OW 5857   6.809   4.681   3.774
 1653SOL    HW1 5858   6.905   4.658   3.754
 1653SOL    HW2 5859   6.756   4.598   3.787
 1654SOL     OW 5860   0.566   3.235   1.921
 1654SOL    HW1 5861   0.578   3.137   1.937
 1654SOL    HW2 5862   0.565   3.283   2.009
 1655SOL     OW 5863   6.788   6.633   4.621
 1655SOL    HW1 5864   6.828   6.556   4.672
 1655SOL    HW2 5865   6.811   6.624   4.524
 1656SOL     OW 5866   1.559   4.761   4.242
 1656SOL    HW1 5867   1.538   4.834   4.307
 1656SOL    HW2 5868   1.657   4.759   4.224
 1657SOL     OW 5869   1.362   0.160   4.988
 1657SOL    HW1 5870   1.266   0.178   5.010
 1657SOL    HW2 5871   1.419   0.181   5.067
 1658SOL     OW 5872   6.325   6.945   6.821
 1658SOL    HW1 5873   6.406   6.964   6.877
 1658SOL    HW2 5874   6.254   7.012   6.843
 1659SOL     OW 5875   4.986   6.910   6.374
 1659SOL    HW1 5876   4.976   6.941   6.279
 1659SOL    HW2 5877   4.896   6.896   6.414
 1660SOL     OW 5878   1.933   0.168   2.131
 1660SOL    HW1 5879   1.916   0.115   2.214
 1660SOL    HW2 5880   1.881   0.254   2.135
 1661SOL     OW 5881   4.109   4.743   3.000
 1661SOL    HW1 5882   4.012   4.768   2.989
 1661SOL    HW2 5883   4.146   4.714   2.911
 1662SOL     OW 5884   0.312   0.797   4.984
 1662SOL    HW1 5885   0.322   0.703   4.954
 1662SOL    HW2 5886   0.385   0.853   4.945
 1663SOL     OW 5887   4.334   5.082   1.196
 1663SOL    HW1 5888   4.410   5.085   1.261
 1663SOL    HW2 5889   4.351   5.146   1.121
 1664SOL     OW 5890   1.589   0.021   5.574
 1664SOL    HW1 5891   1.552   0.114   5.582
 1664SOL    HW2 5892   1.549   6.996   5.493
 1665SOL     OW 5893   2.128   3.782   0.358
 1665SOL    HW1 5894   2.147   3.714   0.428
 1665SOL    HW2 5895   2.129   3.739   0.268
 1666SOL     OW 5896   5.632   6.611   6.213
 1666SOL    HW1 5897   5.680   6.589   6.128
 1666SOL    HW2 5898   5.603   6.526   6.257
 1667SOL     OW 5899   0.856   6.579   1.094
 1667SOL    HW1 5900   0.907   6.610   1.174
 1667SOL    HW2 5901   0.915   6.523   1.036
 1668SOL     OW 5902   5.927   4.310   3.452
 1668SOL    HW1 5903   5.909   4.275   3.361
 1668SOL    HW2 5904   5.910   4.409   3.453
 1669SOL     OW 5905   6.383   3.653   5.290
 1669SOL    HW1 5906   6.404   3.638   5.387
 1669SOL    HW2 5907   6.344   3.744   5.278
 1670SOL     OW 5908   1.939   4.876   5.626
 1670SOL    HW1 5909   1.903   4.936   5.555
 1670SOL    HW2 5910   1.989   4.800   5.584
 1671SOL     OW 5911   5.956   1.902   1.048
 1671SOL    HW1 5912   6.050   1.934   1.049
 1671SOL    HW2 5913   5.954   1.806   1.021
 1672SOL     OW 5914   1.012   3.420   6.855
 1672SOL    HW1 5915   0.945   3.346   6.864
 1672SOL    HW2 5916   0.993   3.490   6.924
 1673SOL     OW 5917   2.615   1.565   4.720
 1673SOL    HW1 5918   2.565   1.541   4.803
 1673SOL    HW2 5919   2.646   1.660   4.726
 1674SOL     OW 5920   4.685   2.029   3.200
 1674SOL    HW1 5921   4.750   2.104   3.213
 1674SOL    HW2 5922   4.624   2.051   3.124
 1675SOL     OW 5923   5.130   0.707   1.056
 1675SOL    HW1 5924   5.045   0.739   1.098
 1675SOL    HW2 5925   5.189   0.786   1.037
 1676SOL     OW 5926   1.749   1.436   3.056
 1676SOL    HW1 5927   1.692   1.356   3.036
 1676SOL    HW2 5928   1.716   1.481   3.139
 1677SOL     OW 5929   3.698   4.104   3.662
 1677SOL    HW1 5930   3.745   4.119   3.749
 1677SOL    HW2 5931   3.712   4.009   3.633
 1678SOL     OW 5932   1.124   0.190   0.806
 1678SOL    HW1 5933   1.143   0.109   0.751
 1678SOL    HW2 5934   1.101   0.162   0.899
 1679SOL     OW 5935   1.543   2.129   5.539
 1679SOL    HW1 5936   1.486   2.047   5.533
 1679SOL    HW2 5937   1.639   2.106   5.524
 1680SOL     OW 5938   5.164   2.673   3.595
 1680SOL    HW1 5939   5.236   2.605   3.582
 1680SOL    HW2 5940   5.100   2.640   3.664
 1681SOL     OW 5941   1.840   6.044   3.698
 1681SOL    HW1 5942   1.776   6.081   3.764
 1681SOL    HW2 5943   1.818   6.078   3.606
 1682SOL     OW 5944   2.843   0.061   5.369
 1682SOL    HW1 5945   2.833   6.991   5.415
 1682SOL    HW2 5946   2.940   0.082   5.357
 1683SOL     OW 5947   6.294   5.075   2.496
 1683SOL    HW1 5948   6.304   5.087   2.397
 1683SOL    HW2 5949   6.199   5.091   2.522
 1684SOL     OW 5950   2.721   4.540   1.666
 1684SOL    HW1 5951   2.719   4.454   1.616
 1684SOL    HW2 5952   2.787   4.535   1.740
 1685SOL     OW 5953   0.553   0.666   5.332
 1685SOL    HW1 5954   0.627   0.600   5.345
 1685SOL    HW2 5955   0.553   0.731   5.409
 1686SOL     OW 5956   4.677   5.854   3.017
 1686SOL    HW1 5957   4.699   5.891   3.107
 1686SOL    HW2 5958   4.762   5.834   2.968
 1687SOL     OW 5959   6.188   3.815   2.786
 1687SOL    HW1 5960   6.188   3.871   2.868
 1687SOL    HW2 5961   6.094   3.791   2.761
 1688SOL     OW 5962   2.216   1.826   3.650
 1688SOL    HW1 5963   2.281   1.841   3.576
 1688SOL    HW2 5964   2.259   1.847   3.738
 1689SOL     OW 5965   5.213   0.589   1.516
 1689SOL    HW1 5966   5.286   0.637   1.564
 1689SOL    HW2 5967   5.129   0.592   1.571
 1690SOL     OW 5968   0.730   3.809   4.494
 1690SOL    HW1 5969   0.729   3.770   4.586
 1690SOL    HW2 5970   0.790   3.889   4.493
 1691SOL     OW 5971   4.761   2.924   5.220
 1691SOL    HW1 5972   4.813   2.851   5.264
 1691SOL    HW2 5973   4.703   2.970   5.288
 1692SOL     OW 5974   5.833   5.461   1.385
 1692SOL    HW1 5975   5.792   5.519   1.314
 1692SOL    HW2 5976   5.794   5.369   1.379
 1693SOL     OW 5977   5.452   6.856   5.059
 1693SOL    HW1 5978   5.395   6.837   5.139
 1693SOL    HW2 5979   5.395   6.888   4.984
 1694SOL     OW 5980   4.802   0.965   5.527
 1694SOL    HW1 5981   4.900   0.964   5.547
 1694SOL    HW2 5982   4.750   0.963   5.612
 1695SOL     OW 5983   3.764   0.836   6.319
 1695SOL    HW1 5984   3.833   0.791   6.262
 1695SOL    HW2 5985   3.752   0.931   6.287
 1696SOL     OW 5986   4.372   6.242   0.572
 1696SOL    HW1 5987   4.356   6.329   0.617
 1696SOL    HW2 5988   4.293   6.218   0.515
 1697SOL     OW 5989   5.914   2.402   1.298
 1697SOL    HW1 5990   5.818   2.387   1.325
 1697SOL    HW2 5991   5.954   2.474   1.355
 1698SOL     OW 5992   3.874   1.046   1.688
 1698SOL    HW1 5993   3.913   1.139   1.690
 1698SOL    HW2 5994   3.779   1.051   1.659
 1699SOL     OW 5995   2.433   0.267   0.058
 1699SOL    HW1 5996   2.512   0.290   0.001
 1699SOL    HW2 5997   2.351   0.310   0.020
 1700SOL     OW 5998   5.989   3.207   2.942
 1700SOL    HW1 5999   5.896   3.181   2.970
 1700SOL    HW2 6000   5.983   3.280   2.873
 1701SOL     OW 6001   0.062   5.536   4.552
 1701SOL    HW1 6002   0.157   5.514   4.529
 1701SOL    HW2 6003   0.013   5.453   4.577
 1702SOL     OW 6004   2.259   2.495   5.778
 1702SOL    HW1 6005   2.248   2.480   5.680
 1702SOL    HW2 6006   2.349   2.536   5.795
 1703SOL     OW 6007   3.307   2.136   0.512
 1703SOL    HW1 6008   3.386   2.140   0.451
 1703SOL    HW2 6009   3.323   2.195   0.591
 1704SOL     OW 6010   2.481   2.128   0.992
 1704SOL    HW1 6011   2.516   2.134   1.085
 1704SOL    HW2 6012   2.411   2.057   0.987
 1705SOL     OW 6013   4.310   1.793   0.668
 1705SOL    HW1 6014   4.274   1.779   0.575
 1705SOL    HW2 6015   4.319   1.704   0.713
 1706SOL     OW 6016   4.334   2.539   0.329
 1706SOL    HW1 6017   4.403   2.580   0.269
 1706SOL    HW2 6018   4.253   2.515   0.275
 1707SOL     OW 6019   4.452   2.092   2.184
 1707SOL    HW1 6020   4.414   2.005   2.153
 1707SOL    HW2 6021   4.491   2.081   2.275
 1708SOL     OW 6022   3.583   5.292   1.733
 1708SOL    HW1 6023   3.500   5.255   1.774
 1708SOL    HW2 6024   3.637   5.217   1.695
 1709SOL     OW 6025   4.566   5.903   0.832
 1709SOL    HW1 6026   4.527   5.978   0.885
 1709SOL    HW2 6027   4.644   5.937   0.779
 1710SOL     OW 6028   3.679   5.232   3.012
 1710SOL    HW1 6029   3.607   5.180   3.057
 1710SOL    HW2 6030   3.708   5.307   3.072
 1711SOL     OW 6031   3.752   4.830   6.352
 1711SOL    HW1 6032   3.711   4.739   6.341
 1711SOL    HW2 6033   3.804   4.833   6.437
 1712SOL     OW 6034   0.015   1.823   3.318
 1712SOL    HW1 6035   6.938   1.794   3.319
 1712SOL    HW2 6036   0.022   1.912   3.274
 1713SOL     OW 6037   3.924   0.839   2.900
 1713SOL    HW1 6038   3.992   0.778   2.859
 1713SOL    HW2 6039   3.872   0.884   2.827
 1714SOL     OW 6040   3.398   3.208   0.301
 1714SOL    HW1 6041   3.475   3.267   0.323
 1714SOL    HW2 6042   3.431   3.122   0.262
 1715SOL     OW 6043   1.633   6.660   2.833
 1715SOL    HW1 6044   1.556   6.605   2.799
 1715SOL    HW2 6045   1.674   6.710   2.757
 1716SOL     OW 6046   4.494   0.288   3.127
 1716SOL    HW1 6047   4.421   0.231   3.088
 1716SOL    HW2 6048   4.461   0.382   3.136
 1717SOL     OW 6049   3.770   6.362   5.315
 1717SOL    HW1 6050   3.718   6.294   5.367
 1717SOL    HW2 6051   3.824   6.315   5.245
 1718SOL     OW 6052   1.446   3.115   1.392
 1718SOL    HW1 6053   1.527   3.103   1.449
 1718SOL    HW2 6054   1.364   3.109   1.449
 1719SOL     OW 6055   1.074   5.079   2.042
 1719SOL    HW1 6056   1.134   5.081   2.122
 1719SOL    HW2 6057   1.123   5.117   1.963
 1720SOL     OW 6058   6.764   2.596   5.567
 1720SOL    HW1 6059   6.856   2.607   5.530
 1720SOL    HW2 6060   6.722   2.686   5.581
 1721SOL     OW 6061   2.299   1.681   1.003
 1721SOL    HW1 6062   2.334   1.704   1.094
 1721SOL    HW2 6063   2.202   1.659   1.009
 1722SOL     OW 6064   2.668   2.259   2.785
 1722SOL    HW1 6065   2.640   2.169   2.818
 1722SOL    HW2 6066   2.756   2.252   2.738
 1723SOL     OW 6067   5.231   3.109   0.120
 1723SOL    HW1 6068   5.188   3.030   0.165
 1723SOL    HW2 6069   5.299   3.078   0.055
 1724SOL     OW 6070   6.936   2.402   1.031
 1724SOL    HW1 6071   6.979   2.346   1.102
 1724SOL    HW2 6072   6.858   2.451   1.069
 1725SOL     OW 6073   1.673   5.769   0.085
 1725SOL    HW1 6074   1.642   5.784   7.010
 1725SOL    HW2 6075   1.697   5.673   0.098
 1726SOL     OW 6076   5.372   4.258   3.640
 1726SOL    HW1 6077   5.471   4.263   3.624
 1726SOL    HW2 6078   5.346   4.326   3.707
 1727SOL     OW 6079   3.355   2.914   3.125
 1727SOL    HW1 6080   3.303   2.999   3.121
 1727SOL    HW2 6081   3.379   2.893   3.219
 1728SOL     OW 6082   4.679   2.237   4.299
 1728SOL    HW1 6083   4.726   2.193   4.376
 1728SOL    HW2 6084   4.581   2.221   4.306
 1729SOL     OW 6085   1.917   3.877   2.317
 1729SOL    HW1 6086   2.015   3.874   2.333
 1729SOL    HW2 6087   1.879   3.784   2.323
 1730SOL     OW 6088   2.675   4.737   5.585
 1730SOL    HW1 6089   2.625   4.700   5.506
 1730SOL    HW2 6090   2.770   4.754   5.559
 1731SOL     OW 6091   5.949   4.264   4.191
 1731SOL    HW1 6092   6.046   4.245   4.206
 1731SOL    HW2 6093   5.937   4.362   4.174
 1732SOL     OW 6094   1.579   3.968   6.219
 1732SOL    HW1 6095   1.587   4.002   6.313
 1732SOL    HW2 6096   1.666   3.981   6.172
 1733SOL     OW 6097   2.405   3.936   7.012
 1733SOL    HW1 6098   2.379   3.988   6.931
 1733SOL    HW2 6099   2.367   3.980   0.075
 1734SOL     OW 6100   0.003   2.944   1.066
 1734SOL    HW1 6101   6.944   2.883   1.077
 1734SOL    HW2 6102   0.087   2.891   1.058
 1735SOL     OW 6103   3.723   5.260   5.802
 1735SOL    HW1 6104   3.630   5.222   5.799
 1735SOL    HW2 6105   3.767   5.247   5.714
 1736SOL     OW 6106   4.855   2.822   1.027
 1736SOL    HW1 6107   4.926   2.878   0.985
 1736SOL    HW2 6108   4.778   2.815   0.964
 1737SOL     OW 6109   4.536   1.481   5.481
 1737SOL    HW1 6110   4.572   1.422   5.554
 1737SOL    HW2 6111   4.532   1.575   5.513
 1738SOL     OW 6112   1.584   3.201   4.607
 1738SOL    HW1 6113   1.501   3.150   4.586
 1738SOL    HW2 6114   1.657   3.173   4.544
 1739SOL     OW 6115   5.570   0.198   4.322
 1739SOL    HW1 6116   5.591   0.161   4.231
 1739SOL    HW2 6117   5.655   0.219   4.370
 1740SOL     OW 6118   6.190   2.935   4.275
 1740SOL    HW1 6119   6.283   2.948   4.242
 1740SOL    HW2 6120   6.148   3.023   4.295
 1741SOL     OW 6121   1.089   2.321   4.445
 1741SOL    HW1 6122   1.121   2.227   4.460
 1741SOL    HW2 6123   1.092   2.371   4.531
 1742SOL     OW 6124   6.125   6.394   6.303
 1742SOL    HW1 6125   6.191   6.386   6.228
 1742SOL    HW2 6126   6.173   6.418   6.387
 1743SOL     OW 6127   1.355   0.932   3.064
 1743SOL    HW1 6128   1.362   1.015   3.120
 1743SOL    HW2 6129   1.402   0.857   3.109
 1744SOL     OW 6130   3.733   1.815   4.502
 1744SOL    HW1 6131   3.640   1.851   4.506
 1744SOL    HW2 6132   3.764   1.813   4.407
 1745SOL     OW 6133   6.831   6.574   1.551
 1745SOL    HW1 6134   6.835   6.475   1.561
 1745SOL    HW2 6135   6.750   6.599   1.497
 1746SOL     OW 6136   1.825   4.254   3.888
 1746SOL    HW1 6137   1.833   4.175   3.949
 1746SOL    HW2 6138   1.896   4.320   3.911
 1747SOL     OW 6139   3.902   0.007   2.674
 1747SOL    HW1 6140   3.911   6.979   2.761
 1747SOL    HW2 6141   3.848   6.970   2.611
 1748SOL     OW 6142   6.691   2.347   4.598
 1748SOL    HW1 6143   6.663   2.402   4.677
 1748SOL    HW2 6144   6.627   2.363   4.522
 1749SOL     OW 6145   1.776   4.885   0.872
 1749SOL    HW1 6146   1.829   4.810   0.911
 1749SOL    HW2 6147   1.705   4.913   0.936
 1750SOL     OW 6148   3.937   6.892   5.559
 1750SOL    HW1 6149   3.863   6.842   5.515
 1750SOL    HW2 6150   3.904   6.981   5.589
 1751SOL     OW 6151   5.359   2.946   5.119
 1751SOL    HW1 6152   5.372   2.934   5.218
 1751SOL    HW2 6153   5.286   3.012   5.103
 1752SOL     OW 6154   6.796   0.770   1.486
 1752SOL    HW1 6155   6.867   0.800   1.550
 1752SOL    HW2 6156   6.809   0.673   1.465
 1753SOL     OW 6157   6.296   1.609   1.569
 1753SOL    HW1 6158   6.294   1.697   1.617
 1753SOL    HW2 6159   6.343   1.621   1.481
 1754SOL     OW 6160   3.239   5.718   4.576
 1754SOL    HW1 6161   3.237   5.686   4.670
 1754SOL    HW2 6162   3.204   5.647   4.515
 1755SOL     OW 6163   6.580   6.648   4.786
 1755SOL    HW1 6164   6.602   6.712   4.859
 1755SOL    HW2 6165   6.663   6.628   4.733
 1756SOL     OW 6166   5.016   6.685   5.678
 1756SOL    HW1 6167   5.041   6.779   5.701
 1756SOL    HW2 6168   5.089   6.623   5.704
 1757SOL     OW 6169   2.296   4.607   5.294
 1757SOL    HW1 6170   2.209   4.629   5.338
 1757SOL    HW2 6171   2.289   4.520   5.246
 1758SOL     OW 6172   1.699   6.374   4.620
 1758SOL    HW1 6173   1.638   6.416   4.553
 1758SOL    HW2 6174   1.664   6.390   4.712
 1759SOL     OW 6175   1.614   6.905   6.977
 1759SOL    HW1 6176   1.575   6.960   0.032
 1759SOL    HW2 6177   1.699   6.947   6.947
 1760SOL     OW 6178   6.169   1.059   4.647
 1760SOL    HW1 6179   6.122   0.974   4.673
 1760SOL    HW2 6180   6.107   1.136   4.660
 1761SOL     OW 6181   5.976   1.673   2.010
 1761SOL    HW1 6182   5.896   1.714   2.054
 1761SOL    HW2 6183   6.004   1.592   2.061
 1762SOL     OW 6184   0.308   1.724   6.024
 1762SOL    HW1 6185   0.234   1.723   5.957
 1762SOL    HW2 6186   0.309   1.637   6.074
 1763SOL     OW 6187   1.014   3.509   4.196
 1763SOL    HW1 6188   1.092   3.567   4.173
 1763SOL    HW2 6189   1.039   3.413   4.185
 1764SOL     OW 6190   0.909   5.532   2.828
 1764SOL    HW1 6191   0.875   5.463   2.764
 1764SOL    HW2 6192   0.889   5.503   2.922
 1765SOL     OW 6193   5.307   3.076   2.496
 1765SOL    HW1 6194   5.246   3.004   2.463
 1765SOL    HW2 6195   5.301   3.155   2.435
 1766SOL     OW 6196   4.798   4.839   4.725
 1766SOL    HW1 6197   4.867   4.795   4.667
 1766SOL    HW2 6198   4.788   4.934   4.698
 1767SOL     OW 6199   0.935   4.652   2.565
 1767SOL    HW1 6200   0.985   4.729   2.527
 1767SOL    HW2 6201   0.936   4.576   2.500
 1768SOL     OW 6202   5.433   6.139   2.166
 1768SOL    HW1 6203   5.351   6.132   2.110
 1768SOL    HW2 6204   5.511   6.104   2.116
 1769SOL     OW 6205   4.993   0.374   6.813
 1769SOL    HW1 6206   5.019   0.460   6.770
 1769SOL    HW2 6207   5.042   0.364   6.900
 1770SOL     OW 6208   1.972   5.510   6.598
 1770SOL    HW1 6209   2.036   5.586   6.592
 1770SOL    HW2 6210   1.996   5.440   6.531
 1771SOL     OW 6211   1.137   3.648   5.912
 1771SOL    HW1 6212   1.235   3.665   5.914
 1771SOL    HW2 6213   1.089   3.729   5.946
 1772SOL     OW 6214   2.512   4.545   3.533
 1772SOL    HW1 6215   2.597   4.596   3.519
 1772SOL    HW2 6216   2.441   4.581   3.473
 1773SOL     OW 6217   0.840   6.709   5.376
 1773SOL    HW1 6218   0.745   6.739   5.385
 1773SOL    HW2 6219   0.882   6.706   5.467
 1774SOL     OW 6220   4.929   5.739   0.860
 1774SOL    HW1 6221   4.836   5.706   0.841
 1774SOL    HW2 6222   4.956   5.709   0.952
 1775SOL     OW 6223   2.263   5.334   6.251
 1775SOL    HW1 6224   2.205   5.388   6.189
 1775SOL    HW2 6225   2.337   5.293   6.199
 1776SOL     OW 6226   4.779   1.687   5.797
 1776SOL    HW1 6227   4.853   1.729   5.743
 1776SOL    HW2 6228   4.817   1.644   5.878
 1777SOL     OW 6229   5.112   6.195   6.401
 1777SOL    HW1 6230   5.099   6.105   6.359
 1777SOL    HW2 6231   5.185   6.190   6.470
 1778SOL     OW 6232   6.064   6.588   3.980
 1778SOL    HW1 6233   6.043   6.683   3.958
 1778SOL    HW2 6234   5.979   6.539   3.998
 1779SOL     OW 6235   5.754   5.936   4.007
 1779SOL    HW1 6236   5.824   5.866   3.993
 1779SOL    HW2 6237   5.796   6.016   4.051
 1780SOL     OW 6238   1.577   5.785   4.925
 1780SOL    HW1 6239   1.610   5.877   4.905
 1780SOL    HW2 6240   1.532   5.748   4.843
 1781SOL     OW 6241   4.209   0.823   4.243
 1781SOL    HW1 6242   4.140   0.880   4.200
 1781SOL    HW2 6243   4.171   0.731   4.259
 1782SOL     OW 6244   1.334   1.763   2.568
 1782SOL    HW1 6245   1.237   1.772   2.594
 1782SOL    HW2 6246   1.389   1.747   2.650
 1783SOL     OW 6247   2.273   4.063   6.775
 1783SOL    HW1 6248   2.313   4.098   6.690
 1783SOL    HW2 6249   2.239   4.139   6.830
 1784SOL     OW 6250   2.900   6.983   1.152
 1784SOL    HW1 6251   2.963   6.924   1.103
 1784SOL    HW2 6252   2.942   7.014   1.238
 1785SOL     OW 6253   1.467   6.817   4.368
 1785SOL    HW1 6254   1.464   6.801   4.270
 1785SOL    HW2 6255   1.432   6.909   4.388
 1786SOL     OW 6256   1.059   6.373   0.581
 1786SOL    HW1 6257   1.140   6.418   0.545
 1786SOL    HW2 6258   1.018   6.430   0.653
 1787SOL     OW 6259   2.532   3.775   6.076
 1787SOL    HW1 6260   2.534   3.862   6.027
 1787SOL    HW2 6261   2.470   3.782   6.154
 1788SOL     OW 6262   4.487   3.668   0.918
 1788SOL    HW1 6263   4.562   3.616   0.878
 1788SOL    HW2 6264   4.521   3.725   0.992
 1789SOL     OW 6265   6.270   4.322   2.230
 1789SOL    HW1 6266   6.304   4.228   2.218
 1789SOL    HW2 6267   6.346   4.382   2.255
 1790SOL     OW 6268   2.458   2.685   4.569
 1790SOL    HW1 6269   2.459   2.661   4.666
 1790SOL    HW2 6270   2.496   2.609   4.516
 1791SOL     OW 6271   5.226   6.710   3.057
 1791SOL    HW1 6272   5.324   6.727   3.066
 1791SOL    HW2 6273   5.175   6.772   3.116
 1792SOL     OW 6274   0.321   1.179   5.331
 1792SOL    HW1 6275   0.356   1.180   5.425
 1792SOL    HW2 6276   0.396   1.200   5.268
 1793SOL     OW 6277   0.004   1.272   6.259
 1793SOL    HW1 6278   6.924   1.268   6.248
 1793SOL    HW2 6279   0.026   1.320   6.343
 1794SOL     OW 6280   1.381   0.126   6.488
 1794SOL    HW1 6281   1.345   0.106   6.580
 1794SOL    HW2 6282   1.345   0.060   6.423
 1795SOL     OW 6283   6.297   4.161   1.416
 1795SOL    HW1 6284   6.360   4.088   1.443
 1795SOL    HW2 6285   6.206   4.121   1.400
 1796SOL     OW 6286   1.099   0.469   6.473
 1796SOL    HW1 6287   1.069   0.561   6.449
 1796SOL    HW2 6288   1.089   0.409   6.393
 1797SOL     OW 6289   2.363   5.013   5.767
 1797SOL    HW1 6290   2.353   5.039   5.863
 1797SOL    HW2 6291   2.458   5.025   5.738
 1798SOL     OW 6292   3.255   3.742   4.720
 1798SOL    HW1 6293   3.220   3.654   4.686
 1798SOL    HW2 6294   3.182   3.790   4.767
 1799SOL     OW 6295   3.237   1.605   0.299
 1799SOL    HW1 6296   3.174   1.558   0.362
 1799SOL    HW2 6297   3.328   1.610   0.341
 1800SOL     OW 6298   5.705   3.519   4.739
 1800SOL    HW1 6299   5.619   3.509   4.691
 1800SOL    HW2 6300   5.764   3.440   4.721
 1801SOL     OW 6301   1.531   1.424   2.254
 1801SOL    HW1 6302   1.466   1.445   2.181
 1801SOL    HW2 6303   1.545   1.505   2.311
 1802SOL     OW 6304   6.938   4.888   3.903
 1802SOL    HW1 6305   6.985   4.843   3.978
 1802SOL    HW2 6306   6.897   4.820   3.843
 1803SOL     OW 6307   0.845   6.765   3.810
 1803SOL    HW1 6308   0.917   6.696   3.819
 1803SOL    HW2 6309   0.861   6.819   3.727
 1804SOL     OW 6310   2.345   3.159   5.767
 1804SOL    HW1 6311   2.287   3.101   5.710
 1804SOL    HW2 6312   2.299   3.246   5.785
 1805SOL     OW 6313   6.936   5.730   6.374
 1805SOL    HW1 6314   6.980   5.688   6.294
 1805SOL    HW2 6315   6.846   5.765   6.349
 1806SOL     OW 6316   0.101   1.585   1.991
 1806SOL    HW1 6317   0.158   1.568   1.911
 1806SOL    HW2 6318   0.054   1.500   2.017
 1807SOL     OW 6319   0.291   3.027   2.561
 1807SOL    HW1 6320   0.234   3.062   2.486
 1807SOL    HW2 6321   0.298   3.097   2.632
 1808SOL     OW 6322   5.021   2.351   5.866
 1808SOL    HW1 6323   5.015   2.404   5.951
 1808SOL    HW2 6324   4.966   2.394   5.795
 1809SOL     OW 6325   4.269   0.581   5.464
 1809SOL    HW1 6326   4.180   0.617   5.435
 1809SOL    HW2 6327   4.279   0.487   5.431
 1810SOL     OW 6328   0.095   0.162   4.236
 1810SOL    HW1 6329   0.073   0.172   4.139
 1810SOL    HW2 6330   0.194   0.157   4.247
 1811SOL     OW 6331   4.075   5.749   1.540
 1811SOL    HW1 6332   4.155   5.694   1.517
 1811SOL    HW2 6333   4.096   5.807   1.619
 1812SOL     OW 6334   4.589   6.549   5.932
 1812SOL    HW1 6335   4.650   6.470   5.936
 1812SOL    HW2 6336   4.625   6.621   5.991
 1813SOL     OW 6337   4.453   4.453   2.779
 1813SOL    HW1 6338   4.529   4.517   2.766
 1813SOL    HW2 6339   4.449   4.390   2.701
 1814SOL     OW 6340   0.117   6.330   0.116
 1814SOL    HW1 6341   0.152   6.356   0.026
 1814SOL    HW2 6342   0.031   6.280   0.105
 1815SOL     OW 6343   5.709   6.309   1.323
 1815SOL    HW1 6344   5.770   6.386   1.344
 1815SOL    HW2 6345   5.762   6.224   1.323
 1816SOL     OW 6346   4.113   5.331   5.711
 1816SOL    HW1 6347   4.073   5.418   5.681
 1816SOL    HW2 6348   4.079   5.257   5.653
 1817SOL     OW 6349   0.671   1.665   3.324
 1817SOL    HW1 6350   0.605   1.741   3.323
 1817SOL    HW2 6351   0.733   1.676   3.402
 1818SOL     OW 6352   2.234   0.515   0.847
 1818SOL    HW1 6353   2.301   0.513   0.773
 1818SOL    HW2 6354   2.160   0.579   0.824
 1819SOL     OW 6355   2.046   4.675   3.593
 1819SOL    HW1 6356   2.121   4.667   3.659
 1819SOL    HW2 6357   1.958   4.669   3.642
 1820SOL     OW 6358   3.269   6.962   5.262
 1820SOL    HW1 6359   3.278   6.973   5.163
 1820SOL    HW2 6360   3.322   6.882   5.291
 1821SOL     OW 6361   2.914   2.204   2.712
 1821SOL    HW1 6362   2.922   2.226   2.614
 1821SOL    HW2 6363   3.001   2.168   2.745
 1822SOL     OW 6364   6.979   2.731   2.256
 1822SOL    HW1 6365   0.034   2.664   2.253
 1822SOL    HW2 6366   6.931   2.724   2.343
 1823SOL     OW 6367   3.881   6.023   2.130
 1823SOL    HW1 6368   3.891   5.964   2.051
 1823SOL    HW2 6369   3.963   6.018   2.187
 1824SOL     OW 6370   4.332   3.063   1.728
 1824SOL    HW1 6371   4.316   2.975   1.684
 1824SOL    HW2 6372   4.414   3.058   1.786
 1825SOL     OW 6373   1.928   1.537   5.210
 1825SOL    HW1 6374   1.841   1.492   5.194
 1825SOL    HW2 6375   1.928   1.626   5.166
 1826SOL     OW 6376   3.457   2.277   1.725
 1826SOL    HW1 6377   3.540   2.325   1.755
 1826SOL    HW2 6378   3.411   2.331   1.654
 1827SOL     OW 6379   5.960   4.871   1.080
 1827SOL    HW1 6380   5.972   4.829   0.990
 1827SOL    HW2 6381   6.050   4.896   1.117
 1828SOL     OW 6382   1.621   2.835   4.973
 1828SOL    HW1 6383   1.631   2.865   4.878
 1828SOL    HW2 6384   1.709   2.840   5.019
 1829SOL     OW 6385   3.840   0.474   2.965
 1829SOL    HW1 6386   3.927   0.435   2.995
 1829SOL    HW2 6387   3.858   0.557   2.911
 1830SOL     OW 6388   4.798   0.220   4.797
 1830SOL    HW1 6389   4.798   0.172   4.709
 1830SOL    HW2 6390   4.885   0.266   4.809
 1831SOL     OW 6391   3.984   5.184   1.264
 1831SOL    HW1 6392   4.068   5.167   1.317
 1831SOL    HW2 6393   3.999   5.155   1.169
 1832SOL     OW 6394   2.256   3.149   0.497
 1832SOL    HW1 6395   2.347   3.176   0.529
 1832SOL    HW2 6396   2.254   3.051   0.479
 1833SOL     OW 6397   5.404   0.575   0.720
 1833SOL    HW1 6398   5.315   0.570   0.676
 1833SOL    HW2 6399   5.400   0.532   0.810
 1834SOL     OW 6400   1.569   2.851   5.982
 1834SOL    HW1 6401   1.541   2.943   5.953
 1834SOL    HW2 6402   1.543   2.838   6.077
 1835SOL     OW 6403   0.129   6.266   1.487
 1835SOL    HW1 6404   0.093   6.200   1.421
 1835SOL    HW2 6405   0.153   6.351   1.440
 1836SOL     OW 6406   4.978   2.731   1.761
 1836SOL    HW1 6407   4.936   2.685   1.683
 1836SOL    HW2 6408   5.066   2.687   1.782
 1837SOL     OW 6409   3.371   2.410   6.345
 1837SOL    HW1 6410   3.468   2.420   6.320
 1837SOL    HW2 6411   3.315   2.451   6.273
 1838SOL     OW 6412   6.114   0.673   1.100
 1838SOL    HW1 6413   6.018   0.652   1.118
 1838SOL    HW2 6414   6.134   0.659   1.003
 1839SOL     OW 6415   0.028   1.064   6.997
 1839SOL    HW1 6416   0.054   1.148   0.025
 1839SOL    HW2 6417   0.033   1.079   6.898
 1840SOL     OW 6418   4.525   6.485   3.505
 1840SOL    HW1 6419   4.477   6.570   3.527
 1840SOL    HW2 6420   4.579   6.498   3.422
 1841SOL     OW 6421   1.995   0.731   2.244
 1841SOL    HW1 6422   1.932   0.668   2.289
 1841SOL    HW2 6423   2.081   0.733   2.295
 1842SOL     OW 6424   1.401   5.684   0.333
 1842SOL    HW1 6425   1.432   5.593   0.308
 1842SOL    HW2 6426   1.476   5.749   0.319
 1843SOL     OW 6427   2.526   1.505   4.956
 1843SOL    HW1 6428   2.539   1.598   4.991
 1843SOL    HW2 6429   2.567   1.439   5.019
 1844SOL     OW 6430   6.018   2.219   6.031
 1844SOL    HW1 6431   5.975   2.274   5.959
 1844SOL    HW2 6432   6.097   2.269   6.067
 1845SOL     OW 6433   1.555   1.502   3.280
 1845SOL    HW1 6434   1.578   1.587   3.326
 1845SOL    HW2 6435   1.460   1.506   3.247
 1846SOL     OW 6436   4.330   1.826   2.233
 1846SOL    HW1 6437   4.278   1.830   2.148
 1846SOL    HW2 6438   4.356   1.732   2.253
 1847SOL     OW 6439   1.826   5.673   5.405
 1847SOL    HW1 6440   1.828   5.618   5.488
 1847SOL    HW2 6441   1.920   5.695   5.377
 1848SOL     OW 6442   2.901   6.031   3.393
 1848SOL    HW1 6443   2.941   6.122   3.387
 1848SOL    HW2 6444   2.858   6.008   3.305
 1849SOL     OW 6445   4.998   2.942   1.917
 1849SOL    HW1 6446   4.973   2.858   1.870
 1849SOL    HW2 6447   4.919   3.003   1.921
 1850SOL     OW 6448   4.957   1.336   1.231
 1850SOL    HW1 6449   5.040   1.379   1.193
 1850SOL    HW2 6450   4.880   1.352   1.169
 1851SOL     OW 6451   0.214   4.345   5.213
 1851SOL    HW1 6452   0.119   4.315   5.214
 1851SOL    HW2 6453   0.255   4.319   5.126
 1852SOL     OW 6454   0.159   0.069   3.003
 1852SOL    HW1 6455   0.082   0.007   3.014
 1852SOL    HW2 6456   0.125   0.161   2.983
 1853SOL     OW 6457   0.248   2.551   5.314
 1853SOL    HW1 6458   0.326   2.569   5.374
 1853SOL    HW2 6459   0.279   2.501   5.233
 1854SOL     OW 6460   0.654   6.976   3.358
 1854SOL    HW1 6461   0.564   6.987   3.314
 1854SOL    HW2 6462   0.708   0.039   3.343
 1855SOL     OW 6463   4.659   2.745   4.298
 1855SOL    HW1 6464   4.603   2.669   4.266
 1855SOL    HW2 6465   4.602   2.811   4.346
 1856SOL     OW 6466   3.703   2.802   0.897
 1856SOL    HW1 6467   3.722   2.860   0.977
 1856SOL    HW2 6468   3.747   2.842   0.817
 1857SOL     OW 6469   4.199   1.560   0.810
 1857SOL    HW1 6470   4.217   1.462   0.824
 1857SOL    HW2 6471   4.132   1.572   0.737
 1858SOL     OW 6472   4.576   2.575   3.895
 1858SOL    HW1 6473   4.522   2.554   3.813
 1858SOL    HW2 6474   4.645   2.644   3.873
 1859SOL     OW 6475   6.471   1.874   4.398
 1859SOL    HW1 6476   6.516   1.959   4.424
 1859SOL    HW2 6477   6.397   1.893   4.334
 1860SOL     OW 6478   1.712   1.682   4.809
 1860SOL    HW1 6479   1.805   1.664   4.779
 1860SOL    HW2 6480   1.651   1.681   4.730
 1861SOL     OW 6481   6.536   6.756   3.784
 1861SOL    HW1 6482   6.519   6.844   3.738
 1861SOL    HW2 6483   6.612   6.766   3.848
 1862SOL     OW 6484   2.870   5.583   5.971
 1862SOL    HW1 6485   2.936   5.647   6.010
 1862SOL    HW2 6486   2.810   5.631   5.907
 1863SOL     OW 6487   6.945   2.916   0.328
 1863SOL    HW1 6488   6.993   2.839   0.287
 1863SOL    HW2 6489   6.898   2.886   0.411
 1864SOL     OW 6490   4.040   5.547   2.719
 1864SOL    HW1 6491   3.945   5.542   2.747
 1864SOL    HW2 6492   4.085   5.459   2.735
 1865SOL     OW 6493   5.831   1.230   5.423
 1865SOL    HW1 6494   5.890   1.179   5.359
 1865SOL    HW2 6495   5.889   1.281   5.486
 1866SOL     OW 6496   1.076   5.105   3.703
 1866SOL    HW1 6497   1.011   5.042   3.746
 1866SOL    HW2 6498   1.144   5.132   3.771
 1867SOL     OW 6499   1.666   2.567   1.676
 1867SOL    HW1 6500   1.574   2.582   1.711
 1867SOL    HW2 6501   1.712   2.498   1.732
 1868SOL     OW 6502   5.744   3.747   6.065
 1868SOL    HW1 6503   5.819   3.745   5.998
 1868SOL    HW2 6504   5.670   3.689   6.032
 1869SOL     OW 6505   3.951   1.341   3.616
 1869SOL    HW1 6506   3.852   1.350   3.617
 1869SOL    HW2 6507   3.993   1.427   3.642
 1870SOL     OW 6508   0.169   5.830   4.563
 1870SOL    HW1 6509   0.120   5.753   4.521
 1870SOL    HW2 6510   0.155   5.828   4.662
 1871SOL     OW 6511   0.713   6.256   0.083
 1871SOL    HW1 6512   0.702   6.327   0.014
 1871SOL    HW2 6513   0.767   6.291   0.159
 1872SOL     OW 6514   2.874   2.793   1.534
 1872SOL    HW1 6515   2.838   2.711   1.489
 1872SOL    HW2 6516   2.950   2.767   1.594
 1873SOL     OW 6517   0.197   1.686   0.802
 1873SOL    HW1 6518   0.228   1.781   0.813
 1873SOL    HW2 6519   0.102   1.686   0.771
 1874SOL     OW 6520   0.589   6.014   6.982
 1874SOL    HW1 6521   0.591   5.964   0.050
 1874SOL    HW2 6522   0.621   6.108   6.997
 1875SOL     OW 6523   6.747   5.163   0.184
 1875SOL    HW1 6524   6.727   5.100   0.109
 1875SOL    HW2 6525   6.795   5.243   0.149
 1876SOL     OW 6526   0.221   6.127   0.262
 1876SOL    HW1 6527   0.317   6.147   0.280
 1876SOL    HW2 6528   0.189   6.182   0.184
 1877SOL     OW 6529   1.255   1.465   3.199
 1877SOL    HW1 6530   1.188   1.446   3.127
 1877SOL    HW2 6531   1.221   1.537   3.258
 1878SOL     OW 6532   6.435   3.590   3.933
 1878SOL    HW1 6533   6.479   3.676   3.957
 1878SOL    HW2 6534   6.417   3.537   4.016
 1879SOL     OW 6535   4.596   6.320   4.798
 1879SOL    HW1 6536   4.684   6.314   4.750
 1879SOL    HW2 6537   4.600   6.264   4.881
 1880SOL     OW 6538   0.140   1.771   4.200
 1880SOL    HW1 6539   0.174   1.864   4.186
 1880SOL    HW2 6540   0.190   1.727   4.275
 1881SOL     OW 6541   1.331   1.229   4.196
 1881SOL    HW1 6542   1.256   1.182   4.241
 1881SOL    HW2 6543   1.412   1.171   4.196
 1882SOL     OW 6544   1.890   5.848   6.902
 1882SOL    HW1 6545   1.825   5.773   6.909
 1882SOL    HW2 6546   1.892   5.899   6.989
 1883SOL     OW 6547   1.853   3.273   2.395
 1883SOL    HW1 6548   1.946   3.252   2.366
 1883SOL    HW2 6549   1.850   3.282   2.495
 1884SOL     OW 6550   3.170   1.433   0.091
 1884SOL    HW1 6551   3.169   1.506   0.158
 1884SOL    HW2 6552   3.076   1.412   0.063
 1885SOL     OW 6553   0.323   2.267   1.247
 1885SOL    HW1 6554   0.343   2.362   1.270
 1885SOL    HW2 6555   0.402   2.210   1.270
 1886SOL     OW 6556   2.734   2.417   6.394
 1886SOL    HW1 6557   2.720   2.417   6.493
 1886SOL    HW2 6558   2.831   2.398   6.374
 1887SOL     OW 6559   0.385   7.016   5.891
 1887SOL    HW1 6560   0.310   6.992   5.953
 1887SOL    HW2 6561   0.372   0.090   5.858
 1888SOL     OW 6562   2.293   1.888   5.715
 1888SOL    HW1 6563   2.344   1.954   5.659
 1888SOL    HW2 6564   2.260   1.814   5.657
 1889SOL     OW 6565   3.342   2.767   0.621
 1889SOL    HW1 6566   3.393   2.812   0.694
 1889SOL    HW2 6567   3.251   2.805   0.614
 1890SOL     OW 6568   6.417   5.806   6.278
 1890SOL    HW1 6569   6.366   5.780   6.360
 1890SOL    HW2 6570   6.353   5.819   6.202
 1891SOL     OW 6571   6.065   4.334   5.681
 1891SOL    HW1 6572   6.040   4.331   5.778
 1891SOL    HW2 6573   6.011   4.405   5.635
 1892SOL     OW 6574   4.117   6.161   1.828
 1892SOL    HW1 6575   4.107   6.254   1.795
 1892SOL    HW2 6576   4.185   6.159   1.902
 1893SOL     OW 6577   3.164   1.651   5.036
 1893SOL    HW1 6578   3.137   1.694   4.949
 1893SOL    HW2 6579   3.170   1.721   5.107
 1894SOL     OW 6580   3.858   3.850   1.028
 1894SOL    HW1 6581   3.870   3.821   0.933
 1894SOL    HW2 6582   3.947   3.870   1.069
 1895SOL     OW 6583   5.305   0.513   3.009
 1895SOL    HW1 6584   5.311   0.422   2.967
 1895SOL    HW2 6585   5.269   0.504   3.102
 1896SOL     OW 6586   6.608   1.140   5.849
 1896SOL    HW1 6587   6.673   1.159   5.924
 1896SOL    HW2 6588   6.526   1.195   5.862
 1897SOL     OW 6589   5.935   4.976   3.787
 1897SOL    HW1 6590   5.850   4.989   3.735
 1897SOL    HW2 6591   6.013   4.973   3.724
 1898SOL     OW 6592   5.965   5.804   0.188
 1898SOL    HW1 6593   5.900   5.773   0.120
 1898SOL    HW2 6594   5.917   5.845   0.265
 1899SOL     OW 6595   0.671   3.019   3.182
 1899SOL    HW1 6596   0.759   2.981   3.154
 1899SOL    HW2 6597   0.682   3.115   3.207
 1900SOL     OW 6598   2.300   6.188   0.884
 1900SOL    HW1 6599   2.227   6.255   0.895
 1900SOL    HW2 6600   2.334   6.191   0.790
 1901SOL     OW 6601   1.404   1.815   0.017
 1901SOL    HW1 6602   1.345   1.826   0.097
 1901SOL    HW2 6603   1.362   1.861   6.958
 1902SOL     OW 6604   1.727   2.893   5.270
 1902SOL    HW1 6605   1.815   2.891   5.223
 1902SOL    HW2 6606   1.688   2.801   5.272
 1903SOL     OW 6607   6.477   3.418   3.732
 1903SOL    HW1 6608   6.398   3.439   3.676
 1903SOL    HW2 6609   6.470   3.468   3.819
 1904SOL     OW 6610   0.099   6.784   4.250
 1904SOL    HW1 6611   0.097   6.691   4.287
 1904SOL    HW2 6612   0.173   6.793   4.183
 1905SOL     OW 6613   6.451   2.477   4.507
 1905SOL    HW1 6614   6.392   2.397   4.510
 1905SOL    HW2 6615   6.399   2.555   4.470
 1906SOL     OW 6616   2.454   6.874   0.257
 1906SOL    HW1 6617   2.434   6.800   0.193
 1906SOL    HW2 6618   2.471   6.958   0.207
 1907SOL     OW 6619   3.272   6.213   3.181
 1907SOL    HW1 6620   3.280   6.158   3.265
 1907SOL    HW2 6621   3.295   6.308   3.202
 1908SOL     OW 6622   4.759   1.294   0.005
 1908SOL    HW1 6623   4.830   1.306   6.954
 1908SOL    HW2 6624   4.781   1.348   0.086
 1909SOL     OW 6625   3.904   5.174   4.456
 1909SOL    HW1 6626   3.970   5.203   4.387
 1909SOL    HW2 6627   3.883   5.077   4.443
 1910SOL     OW 6628   5.046   2.235   5.414
 1910SOL    HW1 6629   5.009   2.172   5.346
 1910SOL    HW2 6630   4.991   2.230   5.497
 1911SOL     OW 6631   6.440   3.765   6.111
 1911SOL    HW1 6632   6.448   3.795   6.206
 1911SOL    HW2 6633   6.421   3.844   6.053
 1912SOL     OW 6634   3.620   6.413   3.766
 1912SOL    HW1 6635   3.594   6.472   3.842
 1912SOL    HW2 6636   3.696   6.355   3.794
 1913SOL     OW 6637   1.424   3.964   5.474
 1913SOL    HW1 6638   1.364   4.019   5.532
 1913SOL    HW2 6639   1.420   3.998   5.380
 1914SOL     OW 6640   4.216   1.601   5.704
 1914SOL    HW1 6641   4.265   1.644   5.779
 1914SOL    HW2 6642   4.151   1.534   5.740
 1915SOL     OW 6643   3.091   0.159   5.317
 1915SOL    HW1 6644   3.140   0.176   5.403
 1915SOL    HW2 6645   3.129   0.078   5.273
 1916SOL     OW 6646   4.094   6.739   1.378
 1916SOL    HW1 6647   4.112   6.820   1.434
 1916SOL    HW2 6648   4.045   6.671   1.432
 1917SOL     OW 6649   3.318   2.991   3.615
 1917SOL    HW1 6650   3.286   2.968   3.707
 1917SOL    HW2 6651   3.245   3.038   3.565
 1918SOL     OW 6652   6.050   6.860   3.772
 1918SOL    HW1 6653   6.066   6.925   3.845
 1918SOL    HW2 6654   5.951   6.846   3.760
 1919SOL     OW 6655   6.549   6.855   1.812
 1919SOL    HW1 6656   6.452   6.860   1.838
 1919SOL    HW2 6657   6.577   6.760   1.807
 1920SOL     OW 6658   6.925   5.723   4.459
 1920SOL    HW1 6659   6.832   5.698   4.488
 1920SOL    HW2 6660   6.991   5.661   4.502
 1921SOL     OW 6661   0.893   6.704   6.885
 1921SOL    HW1 6662   0.963   6.775   6.897
 1921SOL    HW2 6663   0.831   6.705   6.963
 1922SOL     OW 6664   3.443   4.522   0.981
 1922SOL    HW1 6665   3.366   4.561   0.929
 1922SOL    HW2 6666   3.512   4.593   0.996
 1923SOL     OW 6667   1.542   1.859   0.747
 1923SOL    HW1 6668   1.592   1.877   0.663
 1923SOL    HW2 6669   1.527   1.945   0.797
 1924SOL     OW 6670   0.844   4.849   1.710
 1924SOL    HW1 6671   0.775   4.888   1.648
 1924SOL    HW2 6672   0.838   4.895   1.799
 1925SOL     OW 6673   3.023   4.535   0.706
 1925SOL    HW1 6674   3.000   4.455   0.761
 1925SOL    HW2 6675   2.939   4.577   0.671
 1926SOL     OW 6676   0.604   0.142   3.614
 1926SOL    HW1 6677   0.662   0.174   3.539
 1926SOL    HW2 6678   0.657   0.084   3.675
 1927SOL     OW 6679   4.026   3.301   6.943
 1927SOL    HW1 6680   4.025   3.356   0.007
 1927SOL    HW2 6681   3.950   3.235   6.946
 1928SOL     OW 6682   6.192   4.827   5.633
 1928SOL    HW1 6683   6.175   4.873   5.546
 1928SOL    HW2 6684   6.253   4.884   5.688
 1929SOL     OW 6685   1.307   6.765   2.643
 1929SOL    HW1 6686   1.370   6.692   2.668
 1929SOL    HW2 6687   1.343   6.853   2.674
 1930SOL     OW 6688   5.475   4.159   6.587
 1930SOL    HW1 6689   5.567   4.149   6.625
 1930SOL    HW2 6690   5.463   4.096   6.511
 1931SOL     OW 6691   0.855   2.439   5.436
 1931SOL    HW1 6692   0.858   2.423   5.535
 1931SOL    HW2 6693   0.875   2.354   5.388
 1932SOL     OW 6694   5.913   3.287   1.591
 1932SOL    HW1 6695   5.995   3.280   1.647
 1932SOL    HW2 6696   5.833   3.261   1.646
 1933SOL     OW 6697   3.004   4.153   1.278
 1933SOL    HW1 6698   2.914   4.137   1.239
 1933SOL    HW2 6699   3.026   4.079   1.342
 1934SOL     OW 6700   0.829   5.883   4.835
 1934SOL    HW1 6701   0.882   5.802   4.808
 1934SOL    HW2 6702   0.762   5.857   4.904
 1935SOL     OW 6703   2.422   0.944   3.806
 1935SOL    HW1 6704   2.329   0.967   3.832
 1935SOL    HW2 6705   2.425   0.851   3.769
 1936SOL     OW 6706   6.355   5.737   5.345
 1936SOL    HW1 6707   6.442   5.763   5.302
 1936SOL    HW2 6708   6.338   5.640   5.328
 1937SOL     OW 6709   4.187   0.209   1.934
 1937SOL    HW1 6710   4.113   0.142   1.926
 1937SOL    HW2 6711   4.256   0.175   1.998
 1938SOL     OW 6712   5.144   0.765   3.497
 1938SOL    HW1 6713   5.076   0.706   3.542
 1938SOL    HW2 6714   5.165   0.842   3.556
 1939SOL     OW 6715   2.078   0.565   3.560
 1939SOL    HW1 6716   2.101   0.526   3.649
 1939SOL    HW2 6717   2.150   0.629   3.533
 1940SOL     OW 6718   6.797   5.559   6.606
 1940SOL    HW1 6719   6.846   5.480   6.570
 1940SOL    HW2 6720   6.861   5.635   6.619
 1941SOL     OW 6721   5.370   4.309   2.755
 1941SOL    HW1 6722   5.279   4.275   2.733
 1941SOL    HW2 6723   5.385   4.302   2.854
 1942SOL     OW 6724   6.112   5.372   2.765
 1942SOL    HW1 6725   6.030   5.414   2.804
 1942SOL    HW2 6726   6.190   5.389   2.826
 1943SOL     OW 6727   2.539   5.174   2.340
 1943SOL    HW1 6728   2.467   5.200   2.275
 1943SOL    HW2 6729   2.623   5.154   2.291
 1944SOL     OW 6730   6.688   1.240   1.498
 1944SOL    HW1 6731   6.784   1.265   1.512
 1944SOL    HW2 6732   6.629   1.315   1.528
 1945SOL     OW 6733   3.908   5.324   4.102
 1945SOL    HW1 6734   3.821   5.318   4.053
 1945SOL    HW2 6735   3.894   5.366   4.191
 1946SOL     OW 6736   1.605   0.733   0.298
 1946SOL    HW1 6737   1.542   0.799   0.339
 1946SOL    HW2 6738   1.641   0.672   0.369
 1947SOL     OW 6739   5.462   5.508   4.595
 1947SOL    HW1 6740   5.453   5.425   4.649
 1947SOL    HW2 6741   5.378   5.524   4.543
 1948SOL     OW 6742   5.755   4.786   4.739
 1948SOL    HW1 6743   5.682   4.821   4.679
 1948SOL    HW2 6744   5.836   4.843   4.729
 1949SOL     OW 6745   4.592   4.128   6.810
 1949SOL    HW1 6746   4.602   4.214   6.760
 1949SOL    HW2 6747   4.581   4.147   6.908
 1950SOL     OW 6748   3.243   3.677   6.348
 1950SOL    HW1 6749   3.203   3.667   6.439
 1950SOL    HW2 6750   3.199   3.752   6.300
 1951SOL     OW 6751   6.163   2.125   6.794
 1951SOL    HW1 6752   6.079   2.145   6.843
 1951SOL    HW2 6753   6.230   2.084   6.857
 1952SOL     OW 6754   3.949   2.043   6.151
 1952SOL    HW1 6755   3.907   1.997   6.229
 1952SOL    HW2 6756   3.941   2.142   6.161
 1953SOL     OW 6757   0.195   3.049   6.141
 1953SOL    HW1 6758   0.241   3.108   6.208
 1953SOL    HW2 6759   0.102   3.082   6.126
 1954SOL     OW 6760   3.408   2.094   3.884
 1954SOL    HW1 6761   3.457   2.113   3.969
 1954SOL    HW2 6762   3.359   2.176   3.855
 1955SOL     OW 6763   7.006   6.864   3.026
 1955SOL    HW1 6764   0.052   6.812   3.082
 1955SOL    HW2 6765   6.921   6.876   3.076
 1956SOL     OW 6766   5.567   5.902   2.588
 1956SOL    HW1 6767   5.587   5.997   2.565
 1956SOL    HW2 6768   5.513   5.860   2.515
 1957SOL     OW 6769   0.677   6.758   5.677
 1957SOL    HW1 6770   0.733   6.695   5.730
 1957SOL    HW2 6771   0.586   6.765   5.718
 1958SOL     OW 6772   5.327   3.549   5.801
 1958SOL    HW1 6773   5.294   3.461   5.835
 1958SOL    HW2 6774   5.251   3.613   5.793
 1959SOL     OW 6775   1.573   1.996   6.519
 1959SOL    HW1 6776   1.577   1.899   6.543
 1959SOL    HW2 6777   1.506   2.042   6.578
 1960SOL     OW 6778   5.452   5.675   1.105
 1960SOL    HW1 6779   5.427   5.685   1.201
 1960SOL    HW2 6780   5.434   5.760   1.056
 1961SOL     OW 6781   5.646   4.188   3.877
 1961SOL    HW1 6782   5.559   4.188   3.926
 1961SOL    HW2 6783   5.632   4.150   3.785
 1962SOL     OW 6784   0.375   6.397   3.541
 1962SOL    HW1 6785   0.347   6.303   3.560
 1962SOL    HW2 6786   0.400   6.442   3.626
 1963SOL     OW 6787   1.115   0.641   3.359
 1963SOL    HW1 6788   1.205   0.597   3.357
 1963SOL    HW2 6789   1.102   0.692   3.274
 1964SOL     OW 6790   5.515   3.636   2.790
 1964SOL    HW1 6791   5.615   3.638   2.800
 1964SOL    HW2 6792   5.483   3.542   2.802
 1965SOL     OW 6793   1.480   3.954   3.706
 1965SOL    HW1 6794   1.470   4.050   3.730
 1965SOL    HW2 6795   1.525   3.905   3.781
 1966SOL     OW 6796   6.374   5.384   5.425
 1966SOL    HW1 6797   6.439   5.412   5.495
 1966SOL    HW2 6798   6.424   5.361   5.341
 1967SOL     OW 6799   4.715   2.401   5.097
 1967SOL    HW1 6800   4.771   2.319   5.101
 1967SOL    HW2 6801   4.641   2.394   5.164
 1968SOL     OW 6802   3.067   5.975   6.066
 1968SOL    HW1 6803   3.075   6.057   6.010
 1968SOL    HW2 6804   3.101   5.994   6.158
 1969SOL     OW 6805   6.817   2.625   0.780
 1969SOL    HW1 6806   6.851   2.679   0.857
 1969SOL    HW2 6807   6.857   2.533   0.784
 1970SOL     OW 6808   1.491   0.703   4.043
 1970SOL    HW1 6809   1.497   0.657   3.955
 1970SOL    HW2 6810   1.503   0.802   4.030
 1971SOL     OW 6811   0.227   6.255   6.400
 1971SOL    HW1 6812   0.303   6.190   6.396
 1971SOL    HW2 6813   0.257   6.340   6.444
 1972SOL     OW 6814   0.634   4.710   3.859
 1972SOL    HW1 6815   0.541   4.745   3.870
 1972SOL    HW2 6816   0.699   4.786   3.864
 1973SOL     OW 6817   3.160   3.303   1.310
 1973SOL    HW1 6818   3.102   3.221   1.310
 1973SOL    HW2 6819   3.124   3.369   1.376
 1974SOL     OW 6820   5.396   0.794   3.734
 1974SOL    HW1 6821   5.399   0.705   3.690
 1974SOL    HW2 6822   5.432   0.787   3.827
 1975SOL     OW 6823   3.183   7.012   3.825
 1975SOL    HW1 6824   3.101   6.982   3.776
 1975SOL    HW2 6825   3.220   0.074   3.780
 1976SOL     OW 6826   0.744   5.796   0.596
 1976SOL    HW1 6827   0.683   5.717   0.607
 1976SOL    HW2 6828   0.818   5.772   0.534
 1977SOL     OW 6829   0.843   2.603   5.203
 1977SOL    HW1 6830   0.818   2.574   5.295
 1977SOL    HW2 6831   0.775   2.669   5.170
 1978SOL     OW 6832   6.729   1.945   4.581
 1978SOL    HW1 6833   6.662   2.015   4.604
 1978SOL    HW2 6834   6.731   1.875   4.652
 1979SOL     OW 6835   6.232   4.374   3.780
 1979SOL    HW1 6836   6.218   4.301   3.846
 1979SOL    HW2 6837   6.150   4.431   3.775
 1980SOL     OW 6838   4.219   0.456   1.543
 1980SOL    HW1 6839   4.281   0.429   1.616
 1980SOL    HW2 6840   4.258   0.534   1.493
 1981SOL     OW 6841   4.776   3.027   1.682
 1981SOL    HW1 6842   4.796   2.929   1.679
 1981SOL    HW2 6843   4.732   3.049   1.769
 1982SOL     OW 6844   5.286   6.173   4.460
 1982SOL    HW1 6845   5.353   6.168   4.534
 1982SOL    HW2 6846   5.199   6.133   4.490
 1983SOL     OW 6847   1.166   3.615   3.152
 1983SOL    HW1 6848   1.067   3.603   3.142
 1983SOL    HW2 6849   1.213   3.561   3.082
 1984SOL     OW 6850   4.090   0.831   6.284
 1984SOL    HW1 6851   4.103   0.769   6.207
 1984SOL    HW2 6852   4.058   0.920   6.251
 1985SOL     OW 6853   1.002   0.990   1.589
 1985SOL    HW1 6854   1.019   0.956   1.681
 1985SOL    HW2 6855   0.942   1.070   1.592
 1986SOL     OW 6856   2.062   1.762   6.406
 1986SOL    HW1 6857   1.979   1.730   6.360
 1986SOL    HW2 6858   2.037   1.811   6.490
 1987SOL     OW 6859   2.378   3.286   0.147
 1987SOL    HW1 6860   2.361   3.190   0.166
 1987SOL    HW2 6861   2.305   3.341   0.186
 1988SOL     OW 6862   4.272   3.980   0.453
 1988SOL    HW1 6863   4.354   4.025   0.489
 1988SOL    HW2 6864   4.258   3.893   0.500
 1989SOL     OW 6865   2.218   0.221   4.213
 1989SOL    HW1 6866   2.182   0.314   4.218
 1989SOL    HW2 6867   2.148   0.161   4.173
 1990SOL     OW 6868   2.994   0.794   1.493
 1990SOL    HW1 6869   3.088   0.782   1.524
 1990SOL    HW2 6870   2.976   0.892   1.480
 1991SOL     OW 6871   3.050   5.925   4.233
 1991SOL    HW1 6872   3.120   5.864   4.196
 1991SOL    HW2 6873   2.981   5.871   4.280
 1992SOL     OW 6874   2.280   6.500   5.444
 1992SOL    HW1 6875   2.207   6.455   5.495
 1992SOL    HW2 6876   2.261   6.598   5.438
 1993SOL     OW 6877   4.064   3.373   5.526
 1993SOL    HW1 6878   3.975   3.374   5.573
 1993SOL    HW2 6879   4.137   3.386   5.593
 1994SOL     OW 6880   6.490   2.493   2.110
 1994SOL    HW1 6881   6.407   2.448   2.076
 1994SOL    HW2 6882   6.562   2.487   2.041
 1995SOL     OW 6883   5.954   2.121   1.748
 1995SOL    HW1 6884   5.929   2.210   1.787
 1995SOL    HW2 6885   5.992   2.063   1.819
 1996SOL     OW 6886   3.132   4.448   0.409
 1996SOL    HW1 6887   3.083   4.528   0.375
 1996SOL    HW2 6888   3.107   4.432   0.505
 1997SOL     OW 6889   5.392   0.632   3.406
 1997SOL    HW1 6890   5.317   0.680   3.453
 1997SOL    HW2 6891   5.354   0.571   3.336
 1998SOL     OW 6892   3.057   4.378   5.324
 1998SOL    HW1 6893   3.081   4.448   5.391
 1998SOL    HW2 6894   3.012   4.420   5.246
 1999SOL     OW 6895   2.351   0.307   2.341
 1999SOL    HW1 6896   2.379   0.212   2.328
 1999SOL    HW2 6897   2.329   0.349   2.253
 2000SOL     OW 6898   3.833   1.576   4.606
 2000SOL    HW1 6899   3.915   1.551   4.555
 2000SOL    HW2 6900   3.796   1.662   4.569
 2001SOL     OW 6901   2.957   1.580   1.066
 2001SOL    HW1 6902   3.024   1.652   1.084
 2001SOL    HW2 6903   2.906   1.602   0.984
 2002SOL     OW 6904   1.845   5.416   5.758
 2002SOL    HW1 6905   1.793   5.453   5.835
 2002SOL    HW2 6906   1.790   5.347   5.710
 2003SOL     OW 6907   5.966   6.027   3.650
 2003SOL    HW1 6908   6.002   5.967   3.721
 2003SOL    HW2 6909   6.028   6.105   3.637
 2004SOL     OW 6910   2.787   0.817   5.661
 2004SOL    HW1 6911   2.697   0.861   5.662
 2004SOL    HW2 6912   2.852   0.877   5.614
 2005SOL     OW 6913   2.200   5.974   5.830
 2005SOL    HW1 6914   2.164   5.906   5.895
 2005SOL    HW2 6915   2.288   6.007   5.862
 2006SOL     OW 6916   4.354   5.127   4.078
 2006SOL    HW1 6917   4.395   5.098   3.992
 2006SOL    HW2 6918   4.414   5.099   4.154
 2007SOL     OW 6919   5.623   5.719   0.737
 2007SOL    HW1 6920   5.545   5.704   0.677
 2007SOL    HW2 6921   5.618   5.811   0.776
 2008SOL     OW 6922   6.924   6.052   4.155
 2008SOL    HW1 6923   6.918   6.015   4.248
 2008SOL    HW2 6924   0.001   6.059   4.129
 2009SOL     OW 6925   0.161   0.216   2.208
 2009SOL    HW1 6926   0.168   0.315   2.198
 2009SOL    HW2 6927   0.224   0.171   2.145
 2010SOL     OW 6928   1.138   0.604   0.542
 2010SOL    HW1 6929   1.062   0.552   0.504
 2010SOL    HW2 6930   1.169   0.671   0.474
 2011SOL     OW 6931   0.252   1.982   4.857
 2011SOL    HW1 6932   0.309   2.041   4.799
 2011SOL    HW2 6933   0.200   2.038   4.921
 2012SOL     OW 6934   1.189   4.045   0.488
 2012SOL    HW1 6935   1.133   4.128   0.499
 2012SOL    HW2 6936   1.268   4.050   0.549
 2013SOL     OW 6937   5.257   1.546   2.029
 2013SOL    HW1 6938   5.288   1.486   2.103
 2013SOL    HW2 6939   5.314   1.530   1.948
 2014SOL     OW 6940   2.310   5.276   2.986
 2014SOL    HW1 6941   2.366   5.245   2.910
 2014SOL    HW2 6942   2.256   5.355   2.958
 2015SOL     OW 6943   3.266   0.574   6.970
 2015SOL    HW1 6944   3.360   0.581   6.938
 2015SOL    HW2 6945   3.231   0.666   6.989
 2016SOL     OW 6946   0.824   5.118   4.325
 2016SOL    HW1 6947   0.753   5.078   4.267
 2016SOL    HW2 6948   0.881   5.179   4.270
 2017SOL     OW 6949   2.667   5.834   2.696
 2017SOL    HW1 6950   2.695   5.741   2.718
 2017SOL    HW2 6951   2.747   5.886   2.665
 2018SOL     OW 6952   0.372   5.432   6.339
 2018SOL    HW1 6953   0.377   5.520   6.387
 2018SOL    HW2 6954   0.334   5.363   6.400
 2019SOL     OW 6955   6.369   1.812   1.874
 2019SOL    HW1 6956   6.340   1.832   1.968
 2019SOL    HW2 6957   6.299   1.756   1.829
 2020SOL     OW 6958   2.548   5.685   3.042
 2020SOL    HW1 6959   2.487   5.609   3.019
 2020SOL    HW2 6960   2.501   5.748   3.104
 2021SOL     OW 6961   1.376   0.961   2.800
 2021SOL    HW1 6962   1.376   0.942   2.898
 2021SOL    HW2 6963   1.285   0.990   2.772
 2022SOL     OW 6964   1.985   4.108   1.682
 2022SOL    HW1 6965   2.012   4.064   1.596
 2022SOL    HW2 6966   1.966   4.038   1.751
 2023SOL     OW 6967   6.767   0.800   5.883
 2023SOL    HW1 6968   6.717   0.872   5.932
 2023SOL    HW2 6969   6.727   0.788   5.792
 2024SOL     OW 6970   5.634   1.173   3.617
 2024SOL    HW1 6971   5.702   1.141   3.684
 2024SOL    HW2 6972   5.634   1.273   3.615
 2025SOL     OW 6973   0.178   1.280   1.784
 2025SOL    HW1 6974   0.228   1.328   1.712
 2025SOL    HW2 6975   0.085   1.260   1.752
 2026SOL     OW 6976   2.113   1.333   5.151
 2026SOL    HW1 6977   2.160   1.371   5.072
 2026SOL    HW2 6978   2.039   1.394   5.179
 2027SOL     OW 6979   1.181   1.481   2.749
 2027SOL    HW1 6980   1.214   1.571   2.777
 2027SOL    HW2 6981   1.093   1.462   2.794
 2028SOL     OW 6982   3.874   2.954   0.175
 2028SOL    HW1 6983   3.877   2.960   0.275
 2028SOL    HW2 6984   3.852   3.044   0.137
 2029SOL     OW 6985   0.878   1.070   6.554
 2029SOL    HW1 6986   0.953   1.073   6.489
 2029SOL    HW2 6987   0.822   0.989   6.537
 2030SOL     OW 6988   1.522   1.726   3.495
 2030SOL    HW1 6989   1.600   1.723   3.557
 2030SOL    HW2 6990   1.532   1.805   3.433
 2031SOL     OW 6991   5.743   6.919   1.746
 2031SOL    HW1 6992   5.778   6.830   1.776
 2031SOL    HW2 6993   5.819   6.983   1.736
 2032SOL     OW 6994   4.751   6.723   1.410
 2032SOL    HW1 6995   4.840   6.759   1.439
 2032SOL    HW2 6996   4.699   6.693   1.490
 2033SOL     OW 6997   5.297   5.024   6.873
 2033SOL    HW1 6998   5.223   5.078   6.911
 2033SOL    HW2 6999   5.378   5.033   6.930
 2034SOL     OW 7000   2.017   6.938   2.990
 2034SOL    HW1 7001   2.075   6.918   2.911
 2034SOL    HW2 7002   1.933   6.884   2.984
 2035SOL     OW 7003   0.697   2.377   2.707
 2035SOL    HW1 7004   0.732   2.453   2.763
 2035SOL    HW2 7005   0.656   2.414   2.623
 2036SOL     OW 7006   1.052   4.854   0.518
 2036SOL    HW1 7007   0.977   4.901   0.566
 2036SOL    HW2 7008   1.030   4.847   0.421
 2037SOL     OW 7009   0.131   1.678   5.704
 2037SOL    HW1 7010   0.139   1.579   5.715
 2037SOL    HW2 7011   0.168   1.704   5.614
 2038SOL     OW 7012   0.180   1.254   4.676
 2038SOL    HW1 7013   0.251   1.184   4.662
 2038SOL    HW2 7014   0.090   1.212   4.673
 2039SOL     OW 7015   0.002   5.716   2.945
 2039SOL    HW1 7016   0.089   5.668   2.936
 2039SOL    HW2 7017   6.954   5.676   2.882
 2040SOL     OW 7018   4.155   3.417   4.768
 2040SOL    HW1 7019   4.100   3.415   4.851
 2040SOL    HW2 7020   4.247   3.383   4.787
 2041SOL     OW 7021   5.903   4.516   5.539
 2041SOL    HW1 7022   5.962   4.515   5.458
 2041SOL    HW2 7023   5.829   4.581   5.525
 2042SOL     OW 7024   4.670   5.695   0.571
 2042SOL    HW1 7025   4.660   5.629   0.645
 2042SOL    HW2 7026   4.628   5.659   0.488
 2043SOL     OW 7027   5.726   4.347   2.078
 2043SOL    HW1 7028   5.673   4.359   1.994
 2043SOL    HW2 7029   5.787   4.426   2.090
 2044SOL     OW 7030   6.236   6.974   1.568
 2044SOL    HW1 7031   6.298   6.923   1.507
 2044SOL    HW2 7032   6.170   0.006   1.513
 2045SOL     OW 7033   2.123   4.903   5.818
 2045SOL    HW1 7034   2.211   4.945   5.794
 2045SOL    HW2 7035   2.066   4.896   5.737
 2046SOL     OW 7036   6.101   0.033   4.897
 2046SOL    HW1 7037   6.028   6.992   4.864
 2046SOL    HW2 7038   6.063   0.099   4.963
 2047SOL     OW 7039   4.987   2.677   0.589
 2047SOL    HW1 7040   4.969   2.696   0.493
 2047SOL    HW2 7041   4.903   2.646   0.634
 2048SOL     OW 7042   4.681   0.578   6.183
 2048SOL    HW1 7043   4.662   0.661   6.235
 2048SOL    HW2 7044   4.635   0.500   6.226
 2049SOL     OW 7045   4.317   1.184   0.292
 2049SOL    HW1 7046   4.318   1.274   0.336
 2049SOL    HW2 7047   4.366   1.118   0.349
 2050SOL     OW 7048   5.761   3.064   4.066
 2050SOL    HW1 7049   5.854   3.027   4.062
 2050SOL    HW2 7050   5.722   3.046   4.156
 2051SOL     OW 7051   1.502   5.708   0.657
 2051SOL    HW1 7052   1.510   5.687   0.559
 2051SOL    HW2 7053   1.430   5.650   0.697
 2052SOL     OW 7054   1.342   2.568   6.664
 2052SOL    HW1 7055   1.269   2.614   6.615
 2052SOL    HW2 7056   1.345   2.600   6.759
 2053SOL     OW 7057   6.169   0.414   0.062
 2053SOL    HW1 7058   6.102   0.360   0.011
 2053SOL    HW2 7059   6.176   0.378   0.155
 2054SOL     OW 7060   5.754   2.641   0.466
 2054SOL    HW1 7061   5.805   2.585   0.531
 2054SOL    HW2 7062   5.817   2.702   0.417
 2055SOL     OW 7063   5.525   2.748   3.865
 2055SOL    HW1 7064   5.428   2.771   3.873
 2055SOL    HW2 7065   5.577   2.830   3.842
 2056SOL     OW 7066   2.497   1.011   3.204
 2056SOL    HW1 7067   2.404   0.976   3.190
 2056SOL    HW2 7068   2.513   1.024   3.302
 2057SOL     OW 7069   0.111   2.924   4.451
 2057SOL    HW1 7070   0.081   2.844   4.504
 2057SOL    HW2 7071   0.033   2.982   4.431
 2058SOL     OW 7072   6.960   1.899   2.538
 2058SOL    HW1 7073   0.007   1.833   2.501
 2058SOL    HW2 7074   6.878   1.900   2.479
 2059SOL     OW 7075   1.978   1.269   0.142
 2059SOL    HW1 7076   1.941   1.248   0.232
 2059SOL    HW2 7077   2.000   1.367   0.137
 2060SOL     OW 7078   0.408   4.390   2.191
 2060SOL    HW1 7079   0.481   4.416   2.128
 2060SOL    HW2 7080   0.444   4.324   2.257
 2061SOL     OW 7081   6.702   1.523   2.375
 2061SOL    HW1 7082   6.652   1.470   2.444
 2061SOL    HW2 7083   6.800   1.506   2.385
 2062SOL     OW 7084   5.108   0.381   2.621
 2062SOL    HW1 7085   5.075   0.462   2.572
 2062SOL    HW2 7086   5.094   0.300   2.564
 2063SOL     OW 7087   1.575   3.045   6.407
 2063SOL    HW1 7088   1.665   3.052   6.449
 2063SOL    HW2 7089   1.567   2.958   6.359
 2064SOL     OW 7090   1.065   2.371   6.569
 2064SOL    HW1 7091   1.108   2.353   6.657
 2064SOL    HW2 7092   1.082   2.466   6.542
 2065SOL     OW 7093   6.043   3.637   2.020
 2065SOL    HW1 7094   6.086   3.565   1.966
 2065SOL    HW2 7095   5.979   3.688   1.963
 2066SOL     OW 7096   6.983   0.247   4.798
 2066SOL    HW1 7097   6.921   0.272   4.873
 2066SOL    HW2 7098   6.986   0.147   4.789
 2067SOL     OW 7099   6.604   6.343   1.358
 2067SOL    HW1 7100   6.531   6.281   1.330
 2067SOL    HW2 7101   6.692   6.309   1.325
 2068SOL     OW 7102   2.161   1.619   5.363
 2068SOL    HW1 7103   2.079   1.611   5.308
 2068SOL    HW2 7104   2.149   1.570   5.450
 2069SOL     OW 7105   1.147   2.567   2.389
 2069SOL    HW1 7106   1.195   2.606   2.468
 2069SOL    HW2 7107   1.203   2.496   2.347
 2070SOL     OW 7108   1.345   1.613   2.942
 2070SOL    HW1 7109   1.340   1.517   2.972
 2070SOL    HW2 7110   1.281   1.668   2.996
 2071SOL     OW 7111   0.725   0.057   4.369
 2071SOL    HW1 7112   0.678   6.995   4.333
 2071SOL    HW2 7113   0.741   0.046   4.467
 2072SOL     OW 7114   4.808   5.874   1.727
 2072SOL    HW1 7115   4.889   5.825   1.694
 2072SOL    HW2 7116   4.726   5.827   1.695
 2073SOL     OW 7117   2.856   6.717   5.556
 2073SOL    HW1 7118   2.920   6.764   5.496
 2073SOL    HW2 7119   2.893   6.713   5.649
 2074SOL     OW 7120   6.494   1.607   1.346
 2074SOL    HW1 7121   6.581   1.597   1.393
 2074SOL    HW2 7122   6.484   1.534   1.278
 2075SOL     OW 7123   4.438   3.373   0.374
 2075SOL    HW1 7124   4.457   3.447   0.309
 2075SOL    HW2 7125   4.344   3.381   0.405
 2076SOL     OW 7126   5.011   6.500   1.099
 2076SOL    HW1 7127   5.074   6.576   1.116
 2076SOL    HW2 7128   4.939   6.499   1.167
 2077SOL     OW 7129   5.399   1.565   2.474
 2077SOL    HW1 7130   5.460   1.617   2.415
 2077SOL    HW2 7131   5.326   1.624   2.507
 2078SOL     OW 7132   3.082   4.767   6.432
 2078SOL    HW1 7133   3.115   4.706   6.360
 2078SOL    HW2 7134   3.037   4.713   6.503
 2079SOL     OW 7135   5.555   1.286   3.882
 2079SOL    HW1 7136   5.489   1.227   3.929
 2079SOL    HW2 7137   5.514   1.321   3.798
 2080SOL     OW 7138   2.812   2.254   4.996
 2080SOL    HW1 7139   2.765   2.320   4.937
 2080SOL    HW2 7140   2.903   2.235   4.958
 2081SOL     OW 7141   0.915   6.179   5.130
 2081SOL    HW1 7142   0.918   6.101   5.192
 2081SOL    HW2 7143   1.007   6.215   5.116
 2082SOL     OW 7144   5.678   1.124   0.967
 2082SOL    HW1 7145   5.732   1.054   0.920
 2082SOL    HW2 7146   5.611   1.081   1.027
 2083SOL     OW 7147   3.613   4.634   6.551
 2083SOL    HW1 7148   3.680   4.642   6.625
 2083SOL    HW2 7149   3.658   4.603   6.468
 2084SOL     OW 7150   6.967   2.736   3.261
 2084SOL    HW1 7151   0.019   2.716   3.193
 2084SOL    HW2 7152   6.995   2.700   3.350
 2085SOL     OW 7153   4.489   0.357   5.785
 2085SOL    HW1 7154   4.499   0.344   5.686
 2085SOL    HW2 7155   4.547   0.433   5.815
 2086SOL     OW 7156   2.724   4.881   0.202
 2086SOL    HW1 7157   2.657   4.917   0.138
 2086SOL    HW2 7158   2.779   4.955   0.239
 2087SOL     OW 7159   5.798   0.043   2.555
 2087SOL    HW1 7160   5.889   0.011   2.579
 2087SOL    HW2 7161   5.790   0.140   2.577
 2088SOL     OW 7162   3.371   6.716   0.774
 2088SOL    HW1 7163   3.411   6.634   0.815
 2088SOL    HW2 7164   3.410   6.730   0.683
 2089SOL     OW 7165   5.149   1.499   0.098
 2089SOL    HW1 7166   5.209   1.433   0.053
 2089SOL    HW2 7167   5.167   1.591   0.062
 2090SOL     OW 7168   3.742   3.591   4.818
 2090SOL    HW1 7169   3.660   3.648   4.820
 2090SOL    HW2 7170   3.823   3.649   4.817
 2091SOL     OW 7171   1.286   5.558   0.696
 2091SOL    HW1 7172   1.245   5.467   0.701
 2091SOL    HW2 7173   1.244   5.610   0.622
 2092SOL     OW 7174   6.420   5.942   1.186
 2092SOL    HW1 7175   6.410   6.042   1.181
 2092SOL    HW2 7176   6.330   5.900   1.184
 2093SOL     OW 7177   1.223   3.074   1.584
 2093SOL    HW1 7178   1.289   3.023   1.641
 2093SOL    HW2 7179   1.200   3.160   1.630
 2094SOL     OW 7180   5.643   0.050   1.979
 2094SOL    HW1 7181   5.731   0.029   1.936
 2094SOL    HW2 7182   5.599   6.984   2.008
 2095SOL     OW 7183   5.761   5.654   4.749
 2095SOL    HW1 7184   5.691   5.619   4.811
 2095SOL    HW2 7185   5.742   5.621   4.656
 2096SOL     OW 7186   4.774   4.414   2.561
 2096SOL    HW1 7187   4.698   4.466   2.523
 2096SOL    HW2 7188   4.804   4.344   2.496
 2097SOL     OW 7189   0.197   2.731   6.682
 2097SOL    HW1 7190   0.136   2.749   6.605
 2097SOL    HW2 7191   0.216   2.633   6.688
 2098SOL     OW 7192   4.248   0.161   3.838
 2098SOL    HW1 7193   4.156   0.131   3.815
 2098SOL    HW2 7194   4.281   0.226   3.769
 2099SOL     OW 7195   2.814   0.842   4.274
 2099SOL    HW1 7196   2.808   0.783   4.355
 2099SOL    HW2 7197   2.853   0.930   4.299
 2100SOL     OW 7198   4.242   4.570   6.617
 2100SOL    HW1 7199   4.165   4.535   6.563
 2100SOL    HW2 7200   4.326   4.565   6.562
 2101SOL     OW 7201   0.502   0.319   3.118
 2101SOL    HW1 7202   0.429   0.257   3.147
 2101SOL    HW2 7203   0.513   0.392   3.186
 2102SOL     OW 7204   6.826   5.311   3.146
 2102SOL    HW1 7205   6.890   5.380   3.181
 2102SOL    HW2 7206   6.832   5.229   3.203
 2103SOL     OW 7207   3.398   2.998   0.054
 2103SOL    HW1 7208   3.338   2.934   0.102
 2103SOL    HW2 7209   3.342   3.065   0.004
 2104SOL     OW 7210   1.463   3.433   5.458
 2104SOL    HW1 7211   1.436   3.426   5.554
 2104SOL    HW2 7212   1.406   3.500   5.412
 2105SOL     OW 7213   5.614   5.125   2.411
 2105SOL    HW1 7214   5.612   5.049   2.347
 2105SOL    HW2 7215   5.645   5.208   2.364
 2106SOL     OW 7216   4.833   5.524   6.430
 2106SOL    HW1 7217   4.905   5.588   6.456
 2106SOL    HW2 7218   4.744   5.561   6.457
 2107SOL     OW 7219   3.984   4.201   5.356
 2107SOL    HW1 7220   4.048   4.136   5.396
 2107SOL    HW2 7221   3.907   4.150   5.316
 2108SOL     OW 7222   6.001   5.267   5.800
 2108SOL    HW1 7223   5.927   5.216   5.757
 2108SOL    HW2 7224   6.006   5.359   5.762
 2109SOL     OW 7225   5.381   6.202   2.749
 2109SOL    HW1 7226   5.335   6.284   2.717
 2109SOL    HW2 7227   5.421   6.154   2.671
 2110SOL     OW 7228   2.757   4.176   6.437
 2110SOL    HW1 7229   2.661   4.176   6.409
 2110SOL    HW2 7230   2.810   4.231   6.372
 2111SOL     OW 7231   1.355   2.444   6.054
 2111SOL    HW1 7232   1.363   2.526   5.998
 2111SOL    HW2 7233   1.326   2.469   6.147
 2112SOL     OW 7234   4.543   2.483   1.365
 2112SOL    HW1 7235   4.521   2.451   1.457
 2112SOL    HW2 7236   4.460   2.515   1.319
 2113SOL     OW 7237   1.619   1.024   2.682
 2113SOL    HW1 7238   1.690   0.959   2.710
 2113SOL    HW2 7239   1.532   0.998   2.724
 2114SOL     OW 7240   1.147   4.507   0.247
 2114SOL    HW1 7241   1.206   4.471   0.318
 2114SOL    HW2 7242   1.052   4.507   0.280
 2115SOL     OW 7243   1.894   4.440   2.287
 2115SOL    HW1 7244   1.976   4.438   2.344
 2115SOL    HW2 7245   1.918   4.470   2.194
 2116SOL     OW 7246   0.435   3.572   3.365
 2116SOL    HW1 7247   0.398   3.594   3.275
 2116SOL    HW2 7248   0.471   3.654   3.408
 2117SOL     OW 7249   0.659   4.932   1.545
 2117SOL    HW1 7250   0.678   4.992   1.467
 2117SOL    HW2 7251   0.580   4.874   1.524
 2118SOL     OW 7252   0.185   3.726   2.621
 2118SOL    HW1 7253   0.242   3.647   2.597
 2118SOL    HW2 7254   0.107   3.695   2.676
 2119SOL     OW 7255   2.563   5.855   1.159
 2119SOL    HW1 7256   2.471   5.816   1.168
 2119SOL    HW2 7257   2.631   5.784   1.173
 2120SOL     OW 7258   6.400   4.793   1.698
 2120SOL    HW1 7259   6.373   4.873   1.752
 2120SOL    HW2 7260   6.495   4.804   1.669
 2121SOL     OW 7261   0.511   5.166   5.163
 2121SOL    HW1 7262   0.432   5.181   5.224
 2121SOL    HW2 7263   0.585   5.124   5.214
 2122SOL     OW 7264   5.006   4.208   4.566
 2122SOL    HW1 7265   5.101   4.238   4.557
 2122SOL    HW2 7266   4.946   4.287   4.574
 2123SOL     OW 7267   6.832   4.900   2.399
 2123SOL    HW1 7268   6.918   4.917   2.448
 2123SOL    HW2 7269   6.767   4.973   2.419
 2124SOL     OW 7270   2.359   2.174   1.429
 2124SOL    HW1 7271   2.429   2.171   1.357
 2124SOL    HW2 7272   2.357   2.087   1.477
 2125SOL     OW 7273   2.864   0.541   0.518
 2125SOL    HW1 7274   2.898   0.565   0.609
 2125SOL    HW2 7275   2.823   0.450   0.520
 2126SOL     OW 7276   3.039   0.780   6.602
 2126SOL    HW1 7277   2.964   0.811   6.544
 2126SOL    HW2 7278   3.004   0.765   6.695
 2127SOL     OW 7279   5.479   2.956   4.652
 2127SOL    HW1 7280   5.459   2.876   4.708
 2127SOL    HW2 7281   5.491   3.036   4.711
 2128SOL     OW 7282   0.873   4.421   4.849
 2128SOL    HW1 7283   0.860   4.481   4.928
 2128SOL    HW2 7284   0.915   4.335   4.878
 2129SOL     OW 7285   4.532   2.756   5.172
 2129SOL    HW1 7286   4.621   2.795   5.150
 2129SOL    HW2 7287   4.510   2.684   5.105
 2130SOL     OW 7288   5.215   6.879   2.261
 2130SOL    HW1 7289   5.285   6.875   2.332
 2130SOL    HW2 7290   5.255   6.911   2.175
 2131SOL     OW 7291   6.924   0.761   0.632
 2131SOL    HW1 7292   6.892   0.836   0.573
 2131SOL    HW2 7293   6.863   0.752   0.711
 2132SOL     OW 7294   2.623   2.975   0.593
 2132SOL    HW1 7295   2.614   2.890   0.541
 2132SOL    HW2 7296   2.635   3.052   0.529
 2133SOL     OW 7297   3.181   2.264   6.100
 2133SOL    HW1 7298   3.199   2.194   6.169
 2133SOL    HW2 7299   3.268   2.307   6.073
 2134SOL     OW 7300   0.293   1.000   0.997
 2134SOL    HW1 7301   0.200   1.032   0.979
 2134SOL    HW2 7302   0.343   0.993   0.910
 2135SOL     OW 7303   1.000   3.535   4.714
 2135SOL    HW1 7304   0.987   3.454   4.657
 2135SOL    HW2 7305   1.016   3.615   4.655
 2136SOL     OW 7306   2.172   5.542   2.026
 2136SOL    HW1 7307   2.214   5.627   2.058
 2136SOL    HW2 7308   2.072   5.550   2.031
 2137SOL     OW 7309   3.097   5.480   4.909
 2137SOL    HW1 7310   3.141   5.569   4.900
 2137SOL    HW2 7311   3.074   5.445   4.819
 2138SOL     OW 7312   5.566   1.338   2.414
 2138SOL    HW1 7313   5.523   1.248   2.422
 2138SOL    HW2 7314   5.499   1.409   2.435
 2139SOL     OW 7315   3.146   0.881   5.220
 2139SOL    HW1 7316   3.194   0.862   5.306
 2139SOL    HW2 7317   3.198   0.947   5.167
 2140SOL     OW 7318   2.565   1.262   4.744
 2140SOL    HW1 7319   2.557   1.359   4.722
 2140SOL    HW2 7320   2.594   1.251   4.839
 2141SOL     OW 7321   5.956   4.564   2.332
 2141SOL    HW1 7322   5.882   4.507   2.368
 2141SOL    HW2 7323   5.962   4.552   2.233
 2142SOL     OW 7324   2.105   2.402   3.466
 2142SOL    HW1 7325   2.008   2.384   3.479
 2142SOL    HW2 7326   2.130   2.386   3.370
 2143SOL     OW 7327   2.389   4.968   0.764
 2143SOL    HW1 7328   2.362   4.874   0.748
 2143SOL    HW2 7329   2.414   4.980   0.860
 2144SOL     OW 7330   6.562   5.731   4.094
 2144SOL    HW1 7331   6.657   5.711   4.117
 2144SOL    HW2 7332   6.511   5.646   4.084
 2145SOL     OW 7333   4.165   6.893   3.985
 2145SOL    HW1 7334   4.159   6.984   4.025
 2145SOL    HW2 7335   4.144   6.824   4.055
 2146SOL     OW 7336   2.274   2.685   0.914
 2146SOL    HW1 7337   2.358   2.636   0.890
 2146SOL    HW2 7338   2.296   2.779   0.940
 2147SOL     OW 7339   6.602   0.893   5.352
 2147SOL    HW1 7340   6.520   0.912   5.298
 2147SOL    HW2 7341   6.660   0.827   5.304
 2148SOL     OW 7342   0.244   3.540   6.624
 2148SOL    HW1 7343   0.144   3.551   6.617
 2148SOL    HW2 7344   0.282   3.533   6.532
 2149SOL     OW 7345   0.736   0.571   6.482
 2149SOL    HW1 7346   0.681   0.574   6.399
 2149SOL    HW2 7347   0.832   0.552   6.459
 2150SOL     OW 7348   2.449   2.866   1.767
 2150SOL    HW1 7349   2.438   2.776   1.725
 2150SOL    HW2 7350   2.360   2.901   1.796
 2151SOL     OW 7351   1.353   5.684   6.983
 2151SOL    HW1 7352   1.305   5.742   0.030
 2151SOL    HW2 7353   1.407   5.741   6.922
 2152SOL     OW 7354   4.047   6.190   2.982
 2152SOL    HW1 7355   3.970   6.245   2.950
 2152SOL    HW2 7356   4.014   6.116   3.039
 2153SOL     OW 7357   4.849   1.304   3.147
 2153SOL    HW1 7358   4.788   1.226   3.128
 2153SOL    HW2 7359   4.944   1.273   3.139
 2154SOL     OW 7360   3.200   6.571   3.413
 2154SOL    HW1 7361   3.234   6.568   3.507
 2154SOL    HW2 7362   3.269   6.533   3.352
 2155SOL     OW 7363   4.435   6.472   0.710
 2155SOL    HW1 7364   4.376   6.552   0.699
 2155SOL    HW2 7365   4.480   6.476   0.800
 2156SOL     OW 7366   5.496   1.525   4.413
 2156SOL    HW1 7367   5.405   1.548   4.447
 2156SOL    HW2 7368   5.557   1.509   4.491
 2157SOL     OW 7369   4.110   5.246   3.877
 2157SOL    HW1 7370   4.207   5.263   3.894
 2157SOL    HW2 7371   4.065   5.220   3.963
 2158SOL     OW 7372   3.231   0.428   0.571
 2158SOL    HW1 7373   3.207   0.412   0.667
 2158SOL    HW2 7374   3.181   0.507   0.537
 2159SOL     OW 7375   1.378   0.451   5.843
 2159SOL    HW1 7376   1.441   0.453   5.921
 2159SOL    HW2 7377   1.287   0.425   5.875
 2160SOL     OW 7378   5.037   6.168   0.344
 2160SOL    HW1 7379   5.019   6.265   0.363
 2160SOL    HW2 7380   5.120   6.160   0.288
 2161SOL     OW 7381   1.387   3.696   2.515
 2161SOL    HW1 7382   1.332   3.714   2.434
 2161SOL    HW2 7383   1.395   3.780   2.569
 2162SOL     OW 7384   1.548   0.006   3.037
 2162SOL    HW1 7385   1.465   6.970   3.023
 2162SOL    HW2 7386   1.530   0.075   3.107
 2163SOL     OW 7387   1.315   3.379   1.439
 2163SOL    HW1 7388   1.401   3.405   1.482
 2163SOL    HW2 7389   1.328   3.295   1.386
 2164SOL     OW 7390   1.875   2.661   2.224
 2164SOL    HW1 7391   1.891   2.747   2.177
 2164SOL    HW2 7392   1.783   2.627   2.204
 2165SOL     OW 7393   0.158   1.806   3.937
 2165SOL    HW1 7394   0.161   1.749   4.019
 2165SOL    HW2 7395   0.173   1.748   3.856
 2166SOL     OW 7396   0.366   4.564   3.397
 2166SOL    HW1 7397   0.292   4.613   3.443
 2166SOL    HW2 7398   0.408   4.499   3.460
 2167SOL     OW 7399   1.988   2.499   4.036
 2167SOL    HW1 7400   2.040   2.414   4.036
 2167SOL    HW2 7401   1.998   2.545   4.124
 2168SOL     OW 7402   1.313   1.977   3.234
 2168SOL    HW1 7403   1.302   2.074   3.213
 2168SOL    HW2 7404   1.311   1.964   3.333
 2169SOL     OW 7405   0.200   0.510   1.535
 2169SOL    HW1 7406   0.279   0.448   1.535
 2169SOL    HW2 7407   0.157   0.510   1.445
 2170SOL     OW 7408   0.795   3.865   5.781
 2170SOL    HW1 7409   0.845   3.848   5.867
 2170SOL    HW2 7410   0.760   3.778   5.746
 2171SOL     OW 7411   0.256   5.264   1.214
 2171SOL    HW1 7412   0.239   5.354   1.174
 2171SOL    HW2 7413   0.347   5.262   1.256
 2172SOL     OW 7414   6.991   1.808   4.522
 2172SOL    HW1 7415   6.902   1.843   4.552
 2172SOL    HW2 7416   7.000   1.821   4.423
 2173SOL     OW 7417   5.614   0.048   4.835
 2173SOL    HW1 7418   5.516   0.032   4.847
 2173SOL    HW2 7419   5.665   6.985   4.860
 2174SOL     OW 7420   0.387   5.823   4.878
 2174SOL    HW1 7421   0.311   5.880   4.909
 2174SOL    HW2 7422   0.432   5.866   4.800
 2175SOL     OW 7423   3.226   3.114   5.711
 2175SOL    HW1 7424   3.151   3.102   5.776
 2175SOL    HW2 7425   3.287   3.035   5.716
 2176SOL     OW 7426   5.360   2.927   1.018
 2176SOL    HW1 7427   5.300   2.851   0.995
 2176SOL    HW2 7428   5.415   2.903   1.098
 2177SOL     OW 7429   6.932   0.871   3.648
 2177SOL    HW1 7430   6.999   0.802   3.677
 2177SOL    HW2 7431   6.959   0.960   3.684
 2178SOL     OW 7432   0.997   1.805   2.341
 2178SOL    HW1 7433   0.980   1.881   2.404
 2178SOL    HW2 7434   0.994   1.718   2.392
 2179SOL     OW 7435   1.998   4.453   6.617
 2179SOL    HW1 7436   1.917   4.457   6.675
 2179SOL    HW2 7437   1.991   4.521   6.544
 2180SOL     OW 7438   0.909   4.695   2.211
 2180SOL    HW1 7439   0.880   4.617   2.267
 2180SOL    HW2 7440   0.994   4.732   2.246
 2181SOL     OW 7441   4.659   4.983   4.055
 2181SOL    HW1 7442   4.616   4.895   4.034
 2181SOL    HW2 7443   4.697   4.980   4.147
 2182SOL     OW 7444   0.630   5.556   3.149
 2182SOL    HW1 7445   0.629   5.616   3.229
 2182SOL    HW2 7446   0.614   5.611   3.066
 2183SOL     OW 7447   3.737   2.954   0.418
 2183SOL    HW1 7448   3.741   2.857   0.398
 2183SOL    HW2 7449   3.724   2.967   0.517
 2184SOL     OW 7450   6.631   0.223   0.257
 2184SOL    HW1 7451   6.534   0.239   0.276
 2184SOL    HW2 7452   6.663   0.143   0.308
 2185SOL     OW 7453   0.283   1.608   6.967
 2185SOL    HW1 7454   0.348   1.683   6.974
 2185SOL    HW2 7455   0.207   1.623   0.011
 2186SOL     OW 7456   0.076   5.664   4.825
 2186SOL    HW1 7457   0.150   5.669   4.893
 2186SOL    HW2 7458   0.103   5.601   4.752
 2187SOL     OW 7459   0.516   5.744   2.953
 2187SOL    HW1 7460   0.460   5.779   2.878
 2187SOL    HW2 7461   0.613   5.763   2.933
 2188SOL     OW 7462   1.873   6.893   0.464
 2188SOL    HW1 7463   1.905   6.984   0.490
 2188SOL    HW2 7464   1.868   6.885   0.365
 2189SOL     OW 7465   2.818   1.404   2.116
 2189SOL    HW1 7466   2.745   1.402   2.185
 2189SOL    HW2 7467   2.907   1.408   2.161
 2190SOL     OW 7468   6.704   4.311   2.101
 2190SOL    HW1 7469   6.652   4.232   2.132
 2190SOL    HW2 7470   6.795   4.282   2.072
 2191SOL     OW 7471   2.130   0.903   5.972
 2191SOL    HW1 7472   2.083   0.867   5.891
 2191SOL    HW2 7473   2.068   0.899   6.050
 2192SOL     OW 7474   4.930   1.111   2.150
 2192SOL    HW1 7475   4.887   1.195   2.183
 2192SOL    HW2 7476   4.910   1.036   2.213
 2193SOL     OW 7477   6.966   6.945   6.253
 2193SOL    HW1 7478   0.028   6.985   6.210
 2193SOL    HW2 7479   6.912   7.018   6.296
 2194SOL     OW 7480   0.935   4.469   5.664
 2194SOL    HW1 7481   0.901   4.539   5.726
 2194SOL    HW2 7482   0.943   4.382   5.713
 2195SOL     OW 7483   0.765   4.190   6.616
 2195SOL    HW1 7484   0.680   4.233   6.645
 2195SOL    HW2 7485   0.744   4.106   6.565
 2196SOL     OW 7486   2.274   6.011   5.562
 2196SOL    HW1 7487   2.294   5.918   5.532
 2196SOL    HW2 7488   2.222   6.008   5.647
 2197SOL     OW 7489   2.940   4.170   5.513
 2197SOL    HW1 7490   2.958   4.248   5.454
 2197SOL    HW2 7491   3.026   4.135   5.550
 2198SOL     OW 7492   0.908   6.950   6.464
 2198SOL    HW1 7493   0.996   6.916   6.495
 2198SOL    HW2 7494   0.834   6.895   6.503
 2199SOL     OW 7495   4.783   6.805   4.493
 2199SOL    HW1 7496   4.858   6.860   4.529
 2199SOL    HW2 7497   4.777   6.719   4.545
 2200SOL     OW 7498   3.123   1.141   4.403
 2200SOL    HW1 7499   3.204   1.159   4.347
 2200SOL    HW2 7500   3.153   1.116   4.496
 2201SOL     OW 7501   6.488   2.634   4.010
 2201SOL    HW1 7502   6.443   2.652   3.923
 2201SOL    HW2 7503   6.549   2.556   4.001
 2202SOL     OW 7504   3.791   5.100   2.350
 2202SOL    HW1 7505   3.698   5.086   2.316
 2202SOL    HW2 7506   3.794   5.076   2.447
 2203SOL     OW 7507   2.055   3.820   0.996
 2203SOL    HW1 7508   1.977   3.770   0.958
 2203SOL    HW2 7509   2.135   3.760   0.998
 2204SOL     OW 7510   4.448   2.509   1.093
 2204SOL    HW1 7511   4.480   2.415   1.109
 2204SOL    HW2 7512   4.521   2.563   1.053
 2205SOL     OW 7513   1.359   6.062   0.548
 2205SOL    HW1 7514   1.298   6.045   0.625
 2205SOL    HW2 7515   1.394   6.155   0.553
 2206SOL     OW 7516   2.143   2.966   6.284
 2206SOL    HW1 7517   2.194   2.969   6.369
 2206SOL    HW2 7518   2.202   2.930   6.211
 2207SOL     OW 7519   4.404   5.972   1.093
 2207SOL    HW1 7520   4.401   6.062   1.138
 2207SOL    HW2 7521   4.313   5.931   1.094
 2208SOL     OW 7522   1.097   5.848   3.894
 2208SOL    HW1 7523   1.056   5.889   3.976
 2208SOL    HW2 7524   1.031   5.785   3.853
 2209SOL     OW 7525   2.584   5.288   5.139
 2209SOL    HW1 7526   2.500   5.332   5.171
 2209SOL    HW2 7527   2.603   5.315   5.045
 2210SOL     OW 7528   5.992   6.058   1.255
 2210SOL    HW1 7529   5.913   6.003   1.282
 2210SOL    HW2 7530   6.072   5.998   1.244
 2211SOL     OW 7531   6.026   0.675   0.817
 2211SOL    HW1 7532   6.067   0.706   0.732
 2211SOL    HW2 7533   5.938   0.630   0.797
 2212SOL     OW 7534   2.528   6.078   6.669
 2212SOL    HW1 7535   2.474   6.087   6.753
 2212SOL    HW2 7536   2.615   6.125   6.680
 2213SOL     OW 7537   4.382   2.403   3.963
 2213SOL    HW1 7538   4.336   2.368   3.881
 2213SOL    HW2 7539   4.463   2.455   3.937
 2214SOL     OW 7540   4.246   2.751   5.897
 2214SOL    HW1 7541   4.197   2.723   5.814
 2214SOL    HW2 7542   4.213   2.841   5.927
 2215SOL     OW 7543   4.807   1.083   6.695
 2215SOL    HW1 7544   4.797   1.176   6.732
 2215SOL    HW2 7545   4.747   1.073   6.616
 2216SOL     OW 7546   0.583   5.818   6.713
 2216SOL    HW1 7547   0.615   5.770   6.631
 2216SOL    HW2 7548   0.554   5.910   6.689
 2217SOL     OW 7549   4.389   0.933   2.662
 2217SOL    HW1 7550   4.358   0.840   2.641
 2217SOL    HW2 7551   4.486   0.932   2.684
 2218SOL     OW 7552   0.259   5.202   6.446
 2218SOL    HW1 7553   0.313   5.132   6.399
 2218SOL    HW2 7554   0.259   5.183   6.544
 2219SOL     OW 7555   5.360   1.234   0.791
 2219SOL    HW1 7556   5.356   1.332   0.770
 2219SOL    HW2 7557   5.454   1.208   0.813
 2220SOL     OW 7558   1.665   6.782   5.574
 2220SOL    HW1 7559   1.705   6.741   5.655
 2220SOL    HW2 7560   1.678   6.881   5.576
 2221SOL     OW 7561   6.486   1.050   4.883
 2221SOL    HW1 7562   6.582   1.076   4.879
 2221SOL    HW2 7563   6.437   1.088   4.804
 2222SOL     OW 7564   5.930   6.451   0.427
 2222SOL    HW1 7565   5.933   6.409   0.517
 2222SOL    HW2 7566   5.992   6.402   0.365
 2223SOL     OW 7567   6.639   0.470   5.760
 2223SOL    HW1 7568   6.682   0.382   5.737
 2223SOL    HW2 7569   6.590   0.461   5.847
 2224SOL     OW 7570   6.050   4.256   1.750
 2224SOL    HW1 7571   6.030   4.203   1.832
 2224SOL    HW2 7572   5.965   4.277   1.702
 2225SOL     OW 7573   0.606   6.701   3.676
 2225SOL    HW1 7574   0.560   6.637   3.737
 2225SOL    HW2 7575   0.700   6.715   3.708
 2226SOL     OW 7576   2.967   5.023   0.634
 2226SOL    HW1 7577   2.997   5.067   0.719
 2226SOL    HW2 7578   2.876   4.984   0.647
 2227SOL     OW 7579   4.138   2.425   1.725
 2227SOL    HW1 7580   4.093   2.514   1.713
 2227SOL    HW2 7581   4.212   2.435   1.792
 2228SOL     OW 7582   4.540   5.155   0.394
 2228SOL    HW1 7583   4.467   5.086   0.384
 2228SOL    HW2 7584   4.528   5.226   0.325
 2229SOL     OW 7585   3.259   3.415   4.515
 2229SOL    HW1 7586   3.338   3.436   4.573
 2229SOL    HW2 7587   3.288   3.357   4.438
 2230SOL     OW 7588   5.317   6.600   0.766
 2230SOL    HW1 7589   5.223   6.565   0.775
 2230SOL    HW2 7590   5.315   6.697   0.741
 2231SOL     OW 7591   0.060   1.150   6.747
 2231SOL    HW1 7592   0.147   1.118   6.710
 2231SOL    HW2 7593   0.052   1.249   6.735
 2232SOL     OW 7594   1.427   0.436   5.353
 2232SOL    HW1 7595   1.330   0.410   5.351
 2232SOL    HW2 7596   1.434   0.533   5.377
 2233SOL     OW 7597   3.069   3.556   0.990
 2233SOL    HW1 7598   3.121   3.472   0.975
 2233SOL    HW2 7599   3.071   3.612   0.908
 2234SOL     OW 7600   3.658   1.521   0.684
 2234SOL    HW1 7601   3.702   1.534   0.595
 2234SOL    HW2 7602   3.663   1.606   0.736
 2235SOL     OW 7603   2.714   0.392   2.247
 2235SOL    HW1 7604   2.774   0.453   2.195
 2235SOL    HW2 7605   2.740   0.297   2.230
 2236SOL     OW 7606   1.625   4.135   5.874
 2236SOL    HW1 7607   1.642   4.157   5.779
 2236SOL    HW2 7608   1.541   4.081   5.882
 2237SOL     OW 7609   5.749   5.330   5.253
 2237SOL    HW1 7610   5.668   5.275   5.271
 2237SOL    HW2 7611   5.736   5.422   5.289
 2238SOL     OW 7612   4.681   4.599   2.754
 2238SOL    HW1 7613   4.773   4.561   2.739
 2238SOL    HW2 7614   4.657   4.660   2.678
 2239SOL     OW 7615   3.359   6.330   3.954
 2239SOL    HW1 7616   3.275   6.290   3.989
 2239SOL    HW2 7617   3.400   6.269   3.885
 2240SOL     OW 7618   4.111   5.805   2.823
 2240SOL    HW1 7619   4.210   5.818   2.830
 2240SOL    HW2 7620   4.092   5.719   2.777
 2241SOL     OW 7621   0.131   0.009   1.738
 2241SOL    HW1 7622   0.226   0.010   1.768
 2241SOL    HW2 7623   0.073   6.993   1.812
 2242SOL     OW 7624   5.257   3.298   3.141
 2242SOL    HW1 7625   5.234   3.264   3.050
 2242SOL    HW2 7626   5.239   3.227   3.209
 2243SOL     OW 7627   2.553   6.269   0.210
 2243SOL    HW1 7628   2.461   6.304   0.194
 2243SOL    HW2 7629   2.566   6.185   0.158
 2244SOL     OW 7630   2.904   0.497   1.327
 2244SOL    HW1 7631   2.851   0.579   1.304
 2244SOL    HW2 7632   2.889   0.427   1.256
 2245SOL     OW 7633   0.747   1.222   0.905
 2245SOL    HW1 7634   0.823   1.279   0.872
 2245SOL    HW2 7635   0.739   1.140   0.847
 2246SOL     OW 7636   2.296   0.536   4.504
 2246SOL    HW1 7637   2.275   0.626   4.466
 2246SOL    HW2 7638   2.238   0.519   4.583
 2247SOL     OW 7639   3.434   3.986   2.553
 2247SOL    HW1 7640   3.446   4.061   2.488
 2247SOL    HW2 7641   3.356   4.006   2.613
 2248SOL     OW 7642   6.052   4.617   5.116
 2248SOL    HW1 7643   6.049   4.535   5.059
 2248SOL    HW2 7644   6.093   4.595   5.205
 2249SOL     OW 7645   2.809   6.502   3.532
 2249SOL    HW1 7646   2.886   6.508   3.595
 2249SOL    HW2 7647   2.792   6.407   3.508
 2250SOL     OW 7648   3.624   4.159   5.630
 2250SOL    HW1 7649   3.576   4.072   5.635
 2250SOL    HW2 7650   3.610   4.199   5.539
 2251SOL     OW 7651   5.237   6.555   6.541
 2251SOL    HW1 7652   5.142   6.529   6.557
 2251SOL    HW2 7653   5.248   6.653   6.561
 2252SOL     OW 7654   5.661   1.931   3.075
 2252SOL    HW1 7655   5.632   1.876   3.154
 2252SOL    HW2 7656   5.667   1.873   2.994
 2253SOL     OW 7657   0.626   3.088   0.474
 2253SOL    HW1 7658   0.678   3.139   0.543
 2253SOL    HW2 7659   0.682   3.014   0.437
 2254SOL     OW 7660   3.270   4.042   2.768
 2254SOL    HW1 7661   3.200   4.021   2.836
 2254SOL    HW2 7662   3.360   4.046   2.812
 2255SOL     OW 7663   2.935   4.019   5.084
 2255SOL    HW1 7664   3.030   4.040   5.106
 2255SOL    HW2 7665   2.893   4.097   5.038
 2256SOL     OW 7666   4.834   6.362   2.431
 2256SOL    HW1 7667   4.752   6.404   2.470
 2256SOL    HW2 7668   4.832   6.372   2.331
 2257SOL     OW 7669   0.882   1.415   4.017
 2257SOL    HW1 7670   0.876   1.316   4.012
 2257SOL    HW2 7671   0.812   1.449   4.080
 2258SOL     OW 7672   2.138   6.457   4.831
 2258SOL    HW1 7673   2.231   6.422   4.824
 2258SOL    HW2 7674   2.086   6.430   4.750
 2259SOL     OW 7675   6.233   2.276   4.506
 2259SOL    HW1 7676   6.243   2.176   4.506
 2259SOL    HW2 7677   6.175   2.304   4.429
 2260SOL     OW 7678   1.323   3.910   1.451
 2260SOL    HW1 7679   1.303   3.831   1.393
 2260SOL    HW2 7680   1.306   3.886   1.547
 2261SOL     OW 7681   6.400   4.112   0.482
 2261SOL    HW1 7682   6.452   4.086   0.563
 2261SOL    HW2 7683   6.453   4.091   0.400
 2262SOL     OW 7684   6.396   0.605   3.963
 2262SOL    HW1 7685   6.394   0.514   3.920
 2262SOL    HW2 7686   6.480   0.652   3.936
 2263SOL     OW 7687   1.178   5.287   0.647
 2263SOL    HW1 7688   1.272   5.267   0.673
 2263SOL    HW2 7689   1.124   5.308   0.729
 2264SOL     OW 7690   2.918   6.844   6.755
 2264SOL    HW1 7691   2.847   6.897   6.800
 2264SOL    HW2 7692   3.008   6.877   6.785
 2265SOL     OW 7693   1.649   0.329   4.137
 2265SOL    HW1 7694   1.701   0.414   4.151
 2265SOL    HW2 7695   1.647   0.307   4.040
 2266SOL     OW 7696   5.191   0.947   6.146
 2266SOL    HW1 7697   5.155   1.028   6.100
 2266SOL    HW2 7698   5.276   0.970   6.194
 2267SOL     OW 7699   4.565   2.584   4.697
 2267SOL    HW1 7700   4.624   2.661   4.673
 2267SOL    HW2 7701   4.543   2.588   4.794
 2268SOL     OW 7702   5.831   4.421   6.587
 2268SOL    HW1 7703   5.782   4.471   6.659
 2268SOL    HW2 7704   5.769   4.402   6.511
 2269SOL     OW 7705   0.247   3.064   5.624
 2269SOL    HW1 7706   0.271   3.009   5.543
 2269SOL    HW2 7707   0.313   3.046   5.697
 2270SOL     OW 7708   4.508   2.981   5.803
 2270SOL    HW1 7709   4.463   3.037   5.872
 2270SOL    HW2 7710   4.442   2.958   5.731
 2271SOL     OW 7711   5.422   4.303   0.207
 2271SOL    HW1 7712   5.328   4.292   0.238
 2271SOL    HW2 7713   5.428   4.387   0.152
 2272SOL     OW 7714   6.526   1.118   6.408
 2272SOL    HW1 7715   6.527   1.019   6.419
 2272SOL    HW2 7716   6.450   1.157   6.461
 2273SOL     OW 7717   2.032   2.438   2.182
 2273SOL    HW1 7718   2.126   2.452   2.212
 2273SOL    HW2 7719   1.980   2.523   2.194
 2274SOL     OW 7720   0.393   1.872   0.042
 2274SOL    HW1 7721   0.487   1.846   0.065
 2274SOL    HW2 7722   0.390   1.971   0.024
 2275SOL     OW 7723   5.831   5.237   2.138
 2275SOL    HW1 7724   5.806   5.282   2.053
 2275SOL    HW2 7725   5.881   5.152   2.118
 2276SOL     OW 7726   1.818   0.318   1.402
 2276SOL    HW1 7727   1.876   0.276   1.472
 2276SOL    HW2 7728   1.862   0.312   1.313
 2277SOL     OW 7729   3.365   3.657   3.911
 2277SOL    HW1 7730   3.392   3.605   3.992
 2277SOL    HW2 7731   3.265   3.670   3.913
 2278SOL     OW 7732   0.317   2.896   4.288
 2278SOL    HW1 7733   0.286   2.933   4.200
 2278SOL    HW2 7734   0.249   2.915   4.358
 2279SOL     OW 7735   6.648   5.954   5.878
 2279SOL    HW1 7736   6.631   5.984   5.784
 2279SOL    HW2 7737   6.647   5.854   5.881
 2280SOL     OW 7738   5.890   0.771   5.342
 2280SOL    HW1 7739   5.918   0.727   5.257
 2280SOL    HW2 7740   5.866   0.702   5.409
 2281SOL     OW 7741   4.382   0.030   2.418
 2281SOL    HW1 7742   4.459   0.090   2.440
 2281SOL    HW2 7743   4.313   0.038   2.491
 2282SOL     OW 7744   4.704   5.935   5.274
 2282SOL    HW1 7745   4.648   5.951   5.193
 2282SOL    HW2 7746   4.685   5.844   5.311
 2283SOL     OW 7747   1.637   0.381   2.881
 2283SOL    HW1 7748   1.689   0.332   2.951
 2283SOL    HW2 7749   1.637   0.479   2.902
 2284SOL     OW 7750   0.558   3.239   5.779
 2284SOL    HW1 7751   0.531   3.148   5.746
 2284SOL    HW2 7752   0.647   3.234   5.824
 2285SOL     OW 7753   1.254   3.785   6.579
 2285SOL    HW1 7754   1.261   3.774   6.679
 2285SOL    HW2 7755   1.163   3.755   6.549
 2286SOL     OW 7756   5.136   6.471   2.921
 2286SOL    HW1 7757   5.174   6.536   2.987
 2286SOL    HW2 7758   5.171   6.493   2.830
 2287SOL     OW 7759   2.679   1.181   3.438
 2287SOL    HW1 7760   2.605   1.128   3.481
 2287SOL    HW2 7761   2.719   1.127   3.363
 2288SOL     OW 7762   0.510   5.115   3.925
 2288SOL    HW1 7763   0.512   5.214   3.941
 2288SOL    HW2 7764   0.548   5.095   3.834
 2289SOL     OW 7765   0.151   4.914   1.401
 2289SOL    HW1 7766   0.069   4.940   1.451
 2289SOL    HW2 7767   0.173   4.819   1.423
 2290SOL     OW 7768   1.070   4.283   0.833
 2290SOL    HW1 7769   1.155   4.323   0.798
 2290SOL    HW2 7770   1.010   4.355   0.867
 2291SOL     OW 7771   3.131   1.707   5.817
 2291SOL    HW1 7772   3.038   1.701   5.781
 2291SOL    HW2 7773   3.178   1.786   5.778
 2292SOL     OW 7774   1.237   0.943   4.891
 2292SOL    HW1 7775   1.145   0.951   4.853
 2292SOL    HW2 7776   1.231   0.939   4.991
 2293SOL     OW 7777   5.337   5.852   1.316
 2293SOL    HW1 7778   5.380   5.915   1.252
 2293SOL    HW2 7779   5.259   5.897   1.359
 2294SOL     OW 7780   3.662   6.681   0.339
 2294SOL    HW1 7781   3.754   6.664   0.376
 2294SOL    HW2 7782   3.637   6.607   0.276
 2295SOL     OW 7783   0.165   1.741   2.434
 2295SOL    HW1 7784   0.237   1.809   2.451
 2295SOL    HW2 7785   0.179   1.700   2.344
 2296SOL     OW 7786   3.478   0.593   0.692
 2296SOL    HW1 7787   3.539   0.621   0.617
 2296SOL    HW2 7788   3.407   0.533   0.656
 2297SOL     OW 7789   4.134   4.196   5.642
 2297SOL    HW1 7790   4.189   4.279   5.629
 2297SOL    HW2 7791   4.180   4.119   5.598
 2298SOL     OW 7792   3.811   2.342   0.822
 2298SOL    HW1 7793   3.767   2.306   0.740
 2298SOL    HW2 7794   3.742   2.361   0.892
 2299SOL     OW 7795   5.087   6.365   6.717
 2299SOL    HW1 7796   5.111   6.418   6.798
 2299SOL    HW2 7797   4.994   6.390   6.688
 2300SOL     OW 7798   1.674   5.584   1.358
 2300SOL    HW1 7799   1.709   5.542   1.441
 2300SOL    HW2 7800   1.690   5.683   1.360
 2301SOL     OW 7801   3.241   3.157   3.068
 2301SOL    HW1 7802   3.148   3.121   3.080
 2301SOL    HW2 7803   3.254   3.182   2.972
 2302SOL     OW 7804   3.955   6.384   2.623
 2302SOL    HW1 7805   3.967   6.369   2.721
 2302SOL    HW2 7806   3.888   6.457   2.608
 2303SOL     OW 7807   1.172   3.327   5.521
 2303SOL    HW1 7808   1.255   3.363   5.564
 2303SOL    HW2 7809   1.164   3.229   5.542
 2304SOL     OW 7810   2.504   0.190   3.366
 2304SOL    HW1 7811   2.596   0.225   3.384
 2304SOL    HW2 7812   2.508   0.091   3.353
 2305SOL     OW 7813   4.058   5.449   3.032
 2305SOL    HW1 7814   4.052   5.398   2.946
 2305SOL    HW2 7815   4.128   5.407   3.090
 2306SOL     OW 7816   2.169   4.890   1.636
 2306SOL    HW1 7817   2.081   4.937   1.645
 2306SOL    HW2 7818   2.158   4.806   1.582
 2307SOL     OW 7819   2.019   4.095   2.655
 2307SOL    HW1 7820   2.060   4.074   2.743
 2307SOL    HW2 7821   1.958   4.174   2.664
 2308SOL     OW 7822   0.607   0.881   6.203
 2308SOL    HW1 7823   0.621   0.896   6.106
 2308SOL    HW2 7824   0.549   0.954   6.240
 2309SOL     OW 7825   2.981   5.886   6.976
 2309SOL    HW1 7826   3.076   5.895   7.004
 2309SOL    HW2 7827   2.970   5.923   6.884
 2310SOL     OW 7828   6.491   6.552   1.488
 2310SOL    HW1 7829   6.536   6.472   1.448
 2310SOL    HW2 7830   6.494   6.545   1.588
 2311SOL     OW 7831   2.541   6.885   2.653
 2311SOL    HW1 7832   2.621   6.865   2.710
 2311SOL    HW2 7833   2.564   6.867   2.557
 2312SOL     OW 7834   2.821   6.905   3.200
 2312SOL    HW1 7835   2.807   6.865   3.109
 2312SOL    HW2 7836   2.889   6.852   3.250
 2313SOL     OW 7837   4.692   4.742   1.848
 2313SOL    HW1 7838   4.627   4.778   1.915
 2313SOL    HW2 7839   4.703   4.643   1.862
 2314SOL     OW 7840   6.193   0.692   3.433
 2314SOL    HW1 7841   6.269   0.708   3.496
 2314SOL    HW2 7842   6.124   0.635   3.477
 2315SOL     OW 7843   4.780   3.735   5.831
 2315SOL    HW1 7844   4.851   3.687   5.884
 2315SOL    HW2 7845   4.780   3.701   5.737
 2316SOL     OW 7846   2.449   1.170   5.818
 2316SOL    HW1 7847   2.429   1.182   5.721
 2316SOL    HW2 7848   2.374   1.207   5.872
 2317SOL     OW 7849   6.570   6.464   4.106
 2317SOL    HW1 7850   6.470   6.464   4.115
 2317SOL    HW2 7851   6.604   6.370   4.117
 2318SOL     OW 7852   2.105   3.794   4.359
 2318SOL    HW1 7853   2.187   3.745   4.389
 2318SOL    HW2 7854   2.041   3.801   4.436
 2319SOL     OW 7855   3.529   5.328   4.600
 2319SOL    HW1 7856   3.625   5.304   4.611
 2319SOL    HW2 7857   3.473   5.246   4.608
 2320SOL     OW 7858   1.341   2.696   5.933
 2320SOL    HW1 7859   1.437   2.722   5.941
 2320SOL    HW2 7860   1.303   2.733   5.849
 2321SOL     OW 7861   2.590   5.329   6.283
 2321SOL    HW1 7862   2.671   5.386   6.274
 2321SOL    HW2 7863   2.544   5.322   6.194
 2322SOL     OW 7864   2.157   4.209   2.065
 2322SOL    HW1 7865   2.074   4.206   2.121
 2322SOL    HW2 7866   2.237   4.223   2.124
 2323SOL     OW 7867   3.333   4.934   2.025
 2323SOL    HW1 7868   3.409   4.870   2.027
 2323SOL    HW2 7869   3.247   4.884   2.036
 2324SOL     OW 7870   0.251   6.209   1.729
 2324SOL    HW1 7871   0.183   6.222   1.657
 2324SOL    HW2 7872   0.279   6.113   1.732
 2325SOL     OW 7873   6.984   4.729   1.634
 2325SOL    HW1 7874   6.942   4.679   1.710
 2325SOL    HW2 7875   7.013   4.819   1.666
 2326SOL     OW 7876   1.791   5.911   6.484
 2326SOL    HW1 7877   1.699   5.939   6.510
 2326SOL    HW2 7878   1.856   5.942   6.554
 2327SOL     OW 7879   0.181   1.057   3.214
 2327SOL    HW1 7880   0.274   1.028   3.238
 2327SOL    HW2 7881   0.183   1.107   3.128
 2328SOL     OW 7882   1.216   2.176   2.591
 2328SOL    HW1 7883   1.249   2.217   2.505
 2328SOL    HW2 7884   1.230   2.077   2.588
 2329SOL     OW 7885   0.970   4.404   4.583
 2329SOL    HW1 7886   1.030   4.483   4.575
 2329SOL    HW2 7887   0.932   4.400   4.676
 2330SOL     OW 7888   0.237   2.794   0.519
 2330SOL    HW1 7889   0.258   2.869   0.456
 2330SOL    HW2 7890   0.148   2.810   0.561
 2331SOL     OW 7891   2.775   5.104   6.616
 2331SOL    HW1 7892   2.724   5.102   6.531
 2331SOL    HW2 7893   2.769   5.195   6.656
 2332SOL     OW 7894   6.693   0.248   6.094
 2332SOL    HW1 7895   6.769   0.289   6.043
 2332SOL    HW2 7896   6.729   0.191   6.168
 2333SOL     OW 7897   0.037   4.763   2.823
 2333SOL    HW1 7898   0.018   4.692   2.891
 2333SOL    HW2 7899   7.016   4.850   2.854
 2334SOL     OW 7900   1.053   1.745   6.798
 2334SOL    HW1 7901   1.115   1.667   6.810
 2334SOL    HW2 7902   1.080   1.797   6.718
 2335SOL     OW 7903   5.928   0.698   4.018
 2335SOL    HW1 7904   5.898   0.668   3.928
 2335SOL    HW2 7905   6.021   0.735   4.012
 2336SOL     OW 7906   2.921   1.635   3.928
 2336SOL    HW1 7907   2.902   1.716   3.984
 2336SOL    HW2 7908   2.860   1.561   3.954
 2337SOL     OW 7909   4.233   1.248   1.861
 2337SOL    HW1 7910   4.252   1.150   1.858
 2337SOL    HW2 7911   4.309   1.295   1.907
 2338SOL     OW 7912   0.729   3.094   4.706
 2338SOL    HW1 7913   0.745   3.128   4.614
 2338SOL    HW2 7914   0.631   3.097   4.726
 2339SOL     OW 7915   2.986   3.127   3.137
 2339SOL    HW1 7916   2.967   3.195   3.208
 2339SOL    HW2 7917   2.914   3.130   3.068
 2340SOL     OW 7918   0.505   4.650   0.194
 2340SOL    HW1 7919   0.510   4.736   0.245
 2340SOL    HW2 7920   0.593   4.631   0.150
 2341SOL     OW 7921   3.008   5.100   2.063
 2341SOL    HW1 7922   3.052   5.013   2.038
 2341SOL    HW2 7923   2.989   5.153   1.980
 2342SOL     OW 7924   1.974   6.918   4.477
 2342SOL    HW1 7925   2.074   6.924   4.477
 2342SOL    HW2 7926   1.947   6.828   4.514
 2343SOL     OW 7927   2.039   5.835   2.855
 2343SOL    HW1 7928   1.982   5.906   2.813
 2343SOL    HW2 7929   2.002   5.812   2.945
 2344SOL     OW 7930   6.849   6.127   6.935
 2344SOL    HW1 7931   6.859   6.141   6.837
 2344SOL    HW2 7932   6.777   6.060   6.952
 2345SOL     OW 7933   2.729   5.339   4.575
 2345SOL    HW1 7934   2.820   5.380   4.571
 2345SOL    HW2 7935   2.660   5.412   4.576
 2346SOL     OW 7936   3.826   3.328   5.641
 2346SOL    HW1 7937   3.825   3.275   5.725
 2346SOL    HW2 7938   3.748   3.391   5.640
 2347SOL     OW 7939   2.163   1.794   1.396
 2347SOL    HW1 7940   2.234   1.732   1.362
 2347SOL    HW2 7941   2.200   1.848   1.472
 2348SOL     OW 7942   1.918   6.328   4.173
 2348SOL    HW1 7943   1.939   6.230   4.169
 2348SOL    HW2 7944   1.894   6.361   4.082
 2349SOL     OW 7945   0.627   4.516   6.091
 2349SOL    HW1 7946   0.620   4.570   6.175
 2349SOL    HW2 7947   0.636   4.577   6.013
 2350SOL     OW 7948   5.947   5.036   6.041
 2350SOL    HW1 7949   6.003   4.953   6.043
 2350SOL    HW2 7950   6.001   5.111   6.003
 2351SOL     OW 7951   3.651   5.243   3.995
 2351SOL    HW1 7952   3.579   5.266   3.929
 2351SOL    HW2 7953   3.710   5.172   3.957
 2352SOL     OW 7954   0.212   3.014   3.004
 2352SOL    HW1 7955   0.198   2.975   2.913
 2352SOL    HW2 7956   0.295   2.976   3.045
 2353SOL     OW 7957   3.648   5.015   4.722
 2353SOL    HW1 7958   3.717   5.070   4.769
 2353SOL    HW2 7959   3.688   4.973   4.641
 2354SOL     OW 7960   2.414   2.282   4.602
 2354SOL    HW1 7961   2.386   2.333   4.521
 2354SOL    HW2 7962   2.503   2.239   4.585
 2355SOL     OW 7963   2.087   6.757   6.027
 2355SOL    HW1 7964   2.105   6.697   5.949
 2355SOL    HW2 7965   2.086   6.852   5.997
 2356SOL     OW 7966   1.507   2.808   6.262
 2356SOL    HW1 7967   1.519   2.710   6.279
 2356SOL    HW2 7968   1.410   2.831   6.271
 2357SOL     OW 7969   3.982   0.977   1.932
 2357SOL    HW1 7970   3.945   1.012   1.846
 2357SOL    HW2 7971   4.081   0.976   1.927
 2358SOL     OW 7972   2.876   5.549   5.391
 2358SOL    HW1 7973   2.836   5.464   5.357
 2358SOL    HW2 7974   2.975   5.548   5.374
 2359SOL     OW 7975   0.403   0.586   5.938
 2359SOL    HW1 7976   0.457   0.502   5.943
 2359SOL    HW2 7977   0.352   0.588   5.852
 2360SOL     OW 7978   6.051   3.585   0.038
 2360SOL    HW1 7979   6.047   3.533   0.124
 2360SOL    HW2 7980   5.958   3.610   0.010
 2361SOL     OW 7981   2.684   0.591   6.568
 2361SOL    HW1 7982   2.607   0.652   6.586
 2361SOL    HW2 7983   2.715   0.548   6.653
 2362SOL     OW 7984   2.904   5.771   3.986
 2362SOL    HW1 7985   2.900   5.695   4.052
 2362SOL    HW2 7986   2.995   5.813   3.990
 2363SOL     OW 7987   3.710   1.833   4.779
 2363SOL    HW1 7988   3.763   1.830   4.694
 2363SOL    HW2 7989   3.767   1.798   4.854
 2364SOL     OW 7990   1.356   2.960   2.501
 2364SOL    HW1 7991   1.298   2.922   2.429
 2364SOL    HW2 7992   1.451   2.966   2.468
 2365SOL     OW 7993   6.697   2.185   6.572
 2365SOL    HW1 7994   6.678   2.121   6.647
 2365SOL    HW2 7995   6.643   2.269   6.585
 2366SOL     OW 7996   2.281   5.795   6.833
 2366SOL    HW1 7997   2.378   5.793   6.808
 2366SOL    HW2 7998   2.271   5.776   6.931
 2367SOL     OW 7999   2.203   3.523   1.048
 2367SOL    HW1 8000   2.254   3.580   1.114
 2367SOL    HW2 8001   2.119   3.490   1.091
 2368SOL     OW 8002   5.225   6.454   4.595
 2368SOL    HW1 8003   5.189   6.364   4.618
 2368SOL    HW2 8004   5.182   6.523   4.653
 2369SOL     OW 8005   1.742   0.080   4.546
 2369SOL    HW1 8006   1.677   0.066   4.471
 2369SOL    HW2 8007   1.815   0.012   4.540
 2370SOL     OW 8008   5.612   3.442   0.017
 2370SOL    HW1 8009   5.690   3.504   0.011
 2370SOL    HW2 8010   5.584   3.415   6.944
 2371SOL     OW 8011   2.020   0.209   1.586
 2371SOL    HW1 8012   1.995   0.303   1.609
 2371SOL    HW2 8013   1.995   0.149   1.662
 2372SOL     OW 8014   6.763   2.544   2.045
 2372SOL    HW1 8015   6.776   2.597   2.129
 2372SOL    HW2 8016   6.762   2.606   1.966
 2373SOL     OW 8017   0.957   3.436   6.082
 2373SOL    HW1 8018   0.981   3.502   6.153
 2373SOL    HW2 8019   0.970   3.477   5.992
 2374SOL     OW 8020   6.201   1.541   4.416
 2374SOL    HW1 8021   6.133   1.579   4.353
 2374SOL    HW2 8022   6.236   1.455   4.379
 2375SOL     OW 8023   3.192   6.239   5.318
 2375SOL    HW1 8024   3.169   6.212   5.411
 2375SOL    HW2 8025   3.202   6.158   5.261
 2376SOL     OW 8026   6.670   3.249   4.255
 2376SOL    HW1 8027   6.588   3.195   4.237
 2376SOL    HW2 8028   6.700   3.234   4.349
 2377SOL     OW 8029   3.523   3.879   3.875
 2377SOL    HW1 8030   3.600   3.835   3.921
 2377SOL    HW2 8031   3.443   3.820   3.878
 2378SOL     OW 8032   4.955   2.040   0.066
 2378SOL    HW1 8033   4.967   2.108   7.012
 2378SOL    HW2 8034   4.915   1.957   0.027
 2379SOL     OW 8035   6.774   0.917   0.458
 2379SOL    HW1 8036   6.715   0.845   0.495
 2379SOL    HW2 8037   6.741   0.943   0.367
 2380SOL     OW 8038   6.930   2.099   0.042
 2380SOL    HW1 8039   6.998   2.151   7.011
 2380SOL    HW2 8040   6.913   2.012   7.014
 2381SOL     OW 8041   2.504   5.701   3.705
 2381SOL    HW1 8042   2.446   5.654   3.638
 2381SOL    HW2 8043   2.516   5.643   3.785
 2382SOL     OW 8044   1.730   3.913   4.498
 2382SOL    HW1 8045   1.672   3.927   4.579
 2382SOL    HW2 8046   1.819   3.878   4.527
 2383SOL     OW 8047   5.700   6.837   0.601
 2383SOL    HW1 8048   5.632   6.900   0.565
 2383SOL    HW2 8049   5.754   6.799   0.525
 2384SOL     OW 8050   5.647   1.015   2.760
 2384SOL    HW1 8051   5.550   1.040   2.751
 2384SOL    HW2 8052   5.654   0.925   2.803
 2385SOL     OW 8053   0.326   0.651   0.513
 2385SOL    HW1 8054   0.293   0.745   0.498
 2385SOL    HW2 8055   0.256   0.599   0.562
 2386SOL     OW 8056   5.276   5.982   5.117
 2386SOL    HW1 8057   5.184   6.005   5.151
 2386SOL    HW2 8058   5.268   5.922   5.038
 2387SOL     OW 8059   2.181   1.974   4.042
 2387SOL    HW1 8060   2.085   2.001   4.034
 2387SOL    HW2 8061   2.240   2.055   4.030
 2388SOL     OW 8062   6.818   2.202   3.933
 2388SOL    HW1 8063   6.771   2.123   3.974
 2388SOL    HW2 8064   6.898   2.225   3.988
 2389SOL     OW 8065   4.443   4.639   3.541
 2389SOL    HW1 8066   4.487   4.550   3.538
 2389SOL    HW2 8067   4.507   4.709   3.510
 2390SOL     OW 8068   3.529   3.159   4.120
 2390SOL    HW1 8069   3.580   3.160   4.206
 2390SOL    HW2 8070   3.541   3.070   4.076
 2391SOL     OW 8071   5.173   4.020   6.279
 2391SOL    HW1 8072   5.263   4.051   6.246
 2391SOL    HW2 8073   5.153   3.930   6.240
 2392SOL     OW 8074   3.066   6.190   5.559
 2392SOL    HW1 8075   2.973   6.200   5.596
 2392SOL    HW2 8076   3.132   6.227   5.624
 2393SOL     OW 8077   5.108   3.763   6.180
 2393SOL    HW1 8078   5.077   3.686   6.236
 2393SOL    HW2 8079   5.089   3.745   6.084
 2394SOL     OW 8080   0.914   4.093   5.183
 2394SOL    HW1 8081   0.983   4.024   5.162
 2394SOL    HW2 8082   0.834   4.049   5.224
 2395SOL     OW 8083   4.893   0.303   5.948
 2395SOL    HW1 8084   4.975   0.246   5.939
 2395SOL    HW2 8085   4.866   0.336   5.857
 2396SOL     OW 8086   4.051   4.800   1.031
 2396SOL    HW1 8087   4.038   4.716   1.084
 2396SOL    HW2 8088   3.963   4.830   0.995
 2397SOL     OW 8089   0.130   3.799   5.233
 2397SOL    HW1 8090   0.172   3.768   5.319
 2397SOL    HW2 8091   0.169   3.747   5.157
 2398SOL     OW 8092   4.530   4.382   6.680
 2398SOL    HW1 8093   4.595   4.426   6.618
 2398SOL    HW2 8094   4.459   4.337   6.626
 2399SOL     OW 8095   4.888   0.807   1.137
 2399SOL    HW1 8096   4.811   0.754   1.100
 2399SOL    HW2 8097   4.868   0.835   1.230
 2400SOL     OW 8098   3.030   4.414   1.157
 2400SOL    HW1 8099   3.027   4.318   1.185
 2400SOL    HW2 8100   2.943   4.457   1.179
 2401SOL     OW 8101   5.364   6.196   0.489
 2401SOL    HW1 8102   5.362   6.118   0.552
 2401SOL    HW2 8103   5.333   6.167   0.399
 2402SOL     OW 8104   0.582   0.282   4.119
 2402SOL    HW1 8105   0.562   0.276   4.021
 2402SOL    HW2 8106   0.659   0.221   4.141
 2403SOL     OW 8107   2.172   1.988   6.270
 2403SOL    HW1 8108   2.138   1.912   6.325
 2403SOL    HW2 8109   2.096   2.027   6.216
 2404SOL     OW 8110   2.981   0.821   0.986
 2404SOL    HW1 8111   2.949   0.916   0.992
 2404SOL    HW2 8112   3.030   0.798   1.070
 2405SOL     OW 8113   3.464   3.462   2.240
 2405SOL    HW1 8114   3.530   3.523   2.285
 2405SOL    HW2 8115   3.407   3.515   2.178
 2406SOL     OW 8116   3.701   0.158   1.281
 2406SOL    HW1 8117   3.726   0.226   1.351
 2406SOL    HW2 8118   3.668   0.206   1.200
 2407SOL     OW 8119   5.931   1.817   3.009
 2407SOL    HW1 8120   5.883   1.822   2.921
 2407SOL    HW2 8121   5.940   1.908   3.048
 2408SOL     OW 8122   4.564   4.564   2.445
 2408SOL    HW1 8123   4.516   4.544   2.360
 2408SOL    HW2 8124   4.513   4.634   2.496
 2409SOL     OW 8125   2.262   4.510   2.093
 2409SOL    HW1 8126   2.354   4.513   2.053
 2409SOL    HW2 8127   2.212   4.592   2.067
 2410SOL     OW 8128   3.983   3.090   5.219
 2410SOL    HW1 8129   3.976   3.073   5.120
 2410SOL    HW2 8130   4.076   3.120   5.241
 2411SOL     OW 8131   5.003   6.132   4.239
 2411SOL    HW1 8132   4.972   6.181   4.158
 2411SOL    HW2 8133   5.087   6.174   4.273
 2412SOL     OW 8134   5.879   4.462   1.647
 2412SOL    HW1 8135   5.899   4.558   1.664
 2412SOL    HW2 8136   5.820   4.454   1.566
 2413SOL     OW 8137   6.567   0.999   0.925
 2413SOL    HW1 8138   6.513   0.974   1.005
 2413SOL    HW2 8139   6.661   0.968   0.937
 2414SOL     OW 8140   4.927   4.154   3.111
 2414SOL    HW1 8141   4.851   4.145   3.046
 2414SOL    HW2 8142   5.014   4.141   3.063
 2415SOL     OW 8143   5.879   1.566   3.126
 2415SOL    HW1 8144   5.913   1.654   3.093
 2415SOL    HW2 8145   5.901   1.494   3.061
 2416SOL     OW 8146   4.747   2.095   4.898
 2416SOL    HW1 8147   4.778   2.001   4.884
 2416SOL    HW2 8148   4.825   2.152   4.924
 2417SOL     OW 8149   3.574   4.002   4.705
 2417SOL    HW1 8150   3.556   4.031   4.611
 2417SOL    HW2 8151   3.657   4.047   4.738
 2418SOL     OW 8152   4.060   3.208   4.357
 2418SOL    HW1 8153   4.059   3.259   4.272
 2418SOL    HW2 8154   4.085   3.112   4.339
 2419SOL     OW 8155   0.375   6.573   3.793
 2419SOL    HW1 8156   0.325   6.629   3.727
 2419SOL    HW2 8157   0.313   6.506   3.833
 2420SOL     OW 8158   3.081   0.214   2.954
 2420SOL    HW1 8159   3.143   0.235   2.878
 2420SOL    HW2 8160   3.007   0.155   2.921
 2421SOL     OW 8161   2.061   2.456   4.831
 2421SOL    HW1 8162   2.135   2.491   4.889
 2421SOL    HW2 8163   1.984   2.520   4.833
 2422SOL     OW 8164   5.077   2.053   0.333
 2422SOL    HW1 8165   5.033   2.041   0.244
 2422SOL    HW2 8166   5.168   2.092   0.320
 2423SOL     OW 8167   1.852   6.301   2.125
 2423SOL    HW1 8168   1.884   6.336   2.037
 2423SOL    HW2 8169   1.867   6.369   2.196
 2424SOL     OW 8170   6.565   6.804   0.424
 2424SOL    HW1 8171   6.574   6.712   0.386
 2424SOL    HW2 8172   6.486   6.807   0.485
 2425SOL     OW 8173   5.859   0.510   3.827
 2425SOL    HW1 8174   5.827   0.562   3.748
 2425SOL    HW2 8175   5.794   0.436   3.845
 2426SOL     OW 8176   1.382   5.448   5.684
 2426SOL    HW1 8177   1.462   5.417   5.632
 2426SOL    HW2 8178   1.350   5.373   5.743
 2427SOL     OW 8179   5.679   5.937   6.013
 2427SOL    HW1 8180   5.773   5.937   6.047
 2427SOL    HW2 8181   5.676   5.894   5.923
 2428SOL     OW 8182   0.241   0.714   2.003
 2428SOL    HW1 8183   0.142   0.722   2.010
 2428SOL    HW2 8184   0.264   0.630   1.953
 2429SOL     OW 8185   5.343   5.781   1.977
 2429SOL    HW1 8186   5.319   5.846   1.905
 2429SOL    HW2 8187   5.416   5.819   2.034
 2430SOL     OW 8188   6.147   1.114   2.094
 2430SOL    HW1 8189   6.177   1.104   1.999
 2430SOL    HW2 8190   6.075   1.048   2.114
 2431SOL     OW 8191   4.185   0.892   2.378
 2431SOL    HW1 8192   4.248   0.961   2.412
 2431SOL    HW2 8193   4.114   0.935   2.322
 2432SOL     OW 8194   4.191   6.775   2.080
 2432SOL    HW1 8195   4.184   6.778   2.180
 2432SOL    HW2 8196   4.236   6.690   2.053
 2433SOL     OW 8197   4.611   1.683   0.133
 2433SOL    HW1 8198   4.578   1.709   0.224
 2433SOL    HW2 8199   4.711   1.689   0.131
 2434SOL     OW 8200   3.877   0.910   5.766
 2434SOL    HW1 8201   3.780   0.930   5.781
 2434SOL    HW2 8202   3.912   0.967   5.692
 2435SOL     OW 8203   4.948   5.480   5.285
 2435SOL    HW1 8204   4.955   5.539   5.366
 2435SOL    HW2 8205   4.888   5.523   5.217
 2436SOL     OW 8206   1.857   6.032   6.229
 2436SOL    HW1 8207   1.810   5.989   6.306
 2436SOL    HW2 8208   1.837   6.130   6.229
 2437SOL     OW 8209   5.624   6.852   6.035
 2437SOL    HW1 8210   5.624   6.792   5.955
 2437SOL    HW2 8211   5.574   6.807   6.109
 2438SOL     OW 8212   3.350   2.341   0.695
 2438SOL    HW1 8213   3.332   2.322   0.791
 2438SOL    HW2 8214   3.439   2.384   0.684
 2439SOL     OW 8215   0.016   4.289   6.197
 2439SOL    HW1 8216   0.030   4.346   6.116
 2439SOL    HW2 8217   6.943   4.249   6.194
 2440SOL     OW 8218   5.105   5.616   5.796
 2440SOL    HW1 8219   5.027   5.588   5.739
 2440SOL    HW2 8220   5.152   5.535   5.830
 2441SOL     OW 8221   6.951   2.057   0.826
 2441SOL    HW1 8222   6.920   2.002   0.749
 2441SOL    HW2 8223   6.891   2.136   0.837
 2442SOL     OW 8224   1.056   3.685   5.170
 2442SOL    HW1 8225   1.110   3.608   5.134
 2442SOL    HW2 8226   1.007   3.656   5.252
 2443SOL     OW 8227   2.836   3.818   6.527
 2443SOL    HW1 8228   2.850   3.854   6.435
 2443SOL    HW2 8229   2.907   3.752   6.548
 2444SOL     OW 8230   2.307   4.479   6.131
 2444SOL    HW1 8231   2.390   4.425   6.148
 2444SOL    HW2 8232   2.229   4.433   6.175
 2445SOL     OW 8233   0.066   1.124   0.811
 2445SOL    HW1 8234   0.114   1.212   0.819
 2445SOL    HW2 8235   7.003   1.137   0.755
 2446SOL     OW 8236   5.563   4.231   4.493
 2446SOL    HW1 8237   5.574   4.316   4.544
 2446SOL    HW2 8238   5.584   4.153   4.552
 2447SOL     OW 8239   1.536   2.220   0.200
 2447SOL    HW1 8240   1.519   2.300   0.256
 2447SOL    HW2 8241   1.450   2.187   0.161
 2448SOL     OW 8242   0.583   0.012   4.692
 2448SOL    HW1 8243   0.575   0.110   4.674
 2448SOL    HW2 8244   0.653   7.015   4.762
 2449SOL     OW 8245   0.330   3.723   6.782
 2449SOL    HW1 8246   0.334   3.689   6.876
 2449SOL    HW2 8247   0.302   3.648   6.722
 2450SOL     OW 8248   2.773   4.724   2.735
 2450SOL    HW1 8249   2.769   4.699   2.638
 2450SOL    HW2 8250   2.732   4.652   2.790
 2451SOL     OW 8251   2.031   6.387   3.810
 2451SOL    HW1 8252   2.103   6.320   3.830
 2451SOL    HW2 8253   2.066   6.480   3.827
 2452SOL     OW 8254   1.203   3.498   2.915
 2452SOL    HW1 8255   1.134   3.425   2.910
 2452SOL    HW2 8256   1.221   3.534   2.824
 2453SOL     OW 8257   6.610   5.135   1.595
 2453SOL    HW1 8258   6.672   5.065   1.558
 2453SOL    HW2 8259   6.517   5.117   1.563
 2454SOL     OW 8260   3.373   0.479   1.800
 2454SOL    HW1 8261   3.358   0.421   1.721
 2454SOL    HW2 8262   3.302   0.550   1.804
 2455SOL     OW 8263   5.148   5.756   0.725
 2455SOL    HW1 8264   5.060   5.764   0.770
 2455SOL    HW2 8265   5.220   5.788   0.786
 2456SOL     OW 8266   4.990   6.358   2.006
 2456SOL    HW1 8267   4.998   6.452   2.041
 2456SOL    HW2 8268   4.897   6.326   2.018
 2457SOL     OW 8269   5.119   0.103   1.412
 2457SOL    HW1 8270   5.156   0.056   1.492
 2457SOL    HW2 8271   5.026   0.073   1.395
 2458SOL     OW 8272   1.599   5.439   2.677
 2458SOL    HW1 8273   1.674   5.483   2.629
 2458SOL    HW2 8274   1.518   5.437   2.619
 2459SOL     OW 8275   2.446   0.540   0.657
 2459SOL    HW1 8276   2.411   0.525   0.564
 2459SOL    HW2 8277   2.542   0.567   0.653
 2460SOL     OW 8278   3.232   5.988   1.606
 2460SOL    HW1 8279   3.297   5.946   1.543
 2460SOL    HW2 8280   3.151   6.018   1.556
 2461SOL     OW 8281   5.518   0.492   2.010
 2461SOL    HW1 8282   5.431   0.479   1.962
 2461SOL    HW2 8283   5.590   0.508   1.943
 2462SOL     OW 8284   2.316   5.400   6.660
 2462SOL    HW1 8285   2.309   5.493   6.624
 2462SOL    HW2 8286   2.231   5.375   6.706
 2463SOL     OW 8287   6.337   2.019   3.350
 2463SOL    HW1 8288   6.364   2.076   3.273
 2463SOL    HW2 8289   6.325   1.924   3.319
 2464SOL     OW 8290   0.821   3.342   0.902
 2464SOL    HW1 8291   0.825   3.258   0.955
 2464SOL    HW2 8292   0.912   3.381   0.892
 2465SOL     OW 8293   6.906   6.034   3.488
 2465SOL    HW1 8294   6.956   6.059   3.405
 2465SOL    HW2 8295   6.948   5.953   3.528
 2466SOL     OW 8296   3.659   1.675   2.264
 2466SOL    HW1 8297   3.639   1.735   2.342
 2466SOL    HW2 8298   3.751   1.694   2.230
 2467SOL     OW 8299   6.952   1.037   6.021
 2467SOL    HW1 8300   6.981   1.038   5.926
 2467SOL    HW2 8301   6.890   1.113   6.039
 2468SOL     OW 8302   6.912   5.631   1.267
 2468SOL    HW1 8303   6.886   5.552   1.212
 2468SOL    HW2 8304   6.993   5.609   1.322
 2469SOL     OW 8305   2.604   3.204   5.656
 2469SOL    HW1 8306   2.534   3.189   5.725
 2469SOL    HW2 8307   2.562   3.218   5.567
 2470SOL     OW 8308   4.924   3.223   6.737
 2470SOL    HW1 8309   4.954   3.252   6.828
 2470SOL    HW2 8310   4.989   3.156   6.700
 2471SOL     OW 8311   0.915   7.001   2.757
 2471SOL    HW1 8312   0.862   7.009   2.841
 2471SOL    HW2 8313   0.917   6.905   2.728
 2472SOL     OW 8314   5.293   1.728   4.167
 2472SOL    HW1 8315   5.353   1.808   4.159
 2472SOL    HW2 8316   5.205   1.748   4.124
 2473SOL     OW 8317   0.687   6.245   4.605
 2473SOL    HW1 8318   0.705   6.147   4.614
 2473SOL    HW2 8319   0.729   6.294   4.681
 2474SOL     OW 8320   6.783   4.479   5.256
 2474SOL    HW1 8321   6.692   4.442   5.236
 2474SOL    HW2 8322   6.820   4.433   5.337
 2475SOL     OW 8323   4.818   2.422   0.152
 2475SOL    HW1 8324   4.822   2.389   0.058
 2475SOL    HW2 8325   4.765   2.358   0.208
 2476SOL     OW 8326   1.257   1.834   3.934
 2476SOL    HW1 8327   1.196   1.759   3.961
 2476SOL    HW2 8328   1.348   1.798   3.915
 2477SOL     OW 8329   4.710   5.230   1.154
 2477SOL    HW1 8330   4.724   5.261   1.060
 2477SOL    HW2 8331   4.784   5.168   1.180
 2478SOL     OW 8332   6.467   0.115   2.963
 2478SOL    HW1 8333   6.527   0.086   3.038
 2478SOL    HW2 8334   6.517   0.177   2.903
 2479SOL     OW 8335   0.077   2.994   0.687
 2479SOL    HW1 8336   0.153   2.963   0.745
 2479SOL    HW2 8337   0.058   3.090   0.705
 2480SOL     OW 8338   0.829   3.505   1.251
 2480SOL    HW1 8339   0.921   3.479   1.221
 2480SOL    HW2 8340   0.790   3.571   1.188
 2481SOL     OW 8341   4.443   5.066   2.116
 2481SOL    HW1 8342   4.492   4.983   2.089
 2481SOL    HW2 8343   4.395   5.103   2.036
 2482SOL     OW 8344   5.053   2.422   4.794
 2482SOL    HW1 8345   5.002   2.470   4.865
 2482SOL    HW2 8346   5.021   2.450   4.704
 2483SOL     OW 8347   0.829   2.193   6.628
 2483SOL    HW1 8348   0.911   2.230   6.584
 2483SOL    HW2 8349   0.833   2.093   6.628
 2484SOL     OW 8350   3.430   1.971   0.063
 2484SOL    HW1 8351   3.504   1.981   0.129
 2484SOL    HW2 8352   3.390   2.061   0.043
 2485SOL     OW 8353   0.110   5.669   2.039
 2485SOL    HW1 8354   0.071   5.577   2.045
 2485SOL    HW2 8355   0.064   5.719   1.966
 2486SOL     OW 8356   1.846   5.408   3.293
 2486SOL    HW1 8357   1.909   5.463   3.348
 2486SOL    HW2 8358   1.761   5.393   3.344
 2487SOL     OW 8359   3.690   0.909   0.913
 2487SOL    HW1 8360   3.639   0.951   0.838
 2487SOL    HW2 8361   3.641   0.922   0.999
 2488SOL     OW 8362   2.885   6.035   0.538
 2488SOL    HW1 8363   2.875   6.073   0.446
 2488SOL    HW2 8364   2.884   6.108   0.605
 2489SOL     OW 8365   0.849   5.551   4.725
 2489SOL    HW1 8366   0.934   5.599   4.746
 2489SOL    HW2 8367   0.823   5.567   4.630
 2490SOL     OW 8368   5.140   3.338   1.490
 2490SOL    HW1 8369   5.132   3.273   1.414
 2490SOL    HW2 8370   5.072   3.317   1.560
 2491SOL     OW 8371   2.370   4.897   2.070
 2491SOL    HW1 8372   2.466   4.875   2.051
 2491SOL    HW2 8373   2.312   4.825   2.034
 2492SOL     OW 8374   4.326   3.492   6.604
 2492SOL    HW1 8375   4.412   3.441   6.594
 2492SOL    HW2 8376   4.295   3.485   6.698
 2493SOL     OW 8377   6.540   1.711   3.555
 2493SOL    HW1 8378   6.484   1.676   3.629
 2493SOL    HW2 8379   6.543   1.644   3.480
 2494SOL     OW 8380   4.922   3.545   2.383
 2494SOL    HW1 8381   4.993   3.606   2.349
 2494SOL    HW2 8382   4.834   3.569   2.341
 2495SOL     OW 8383   5.597   0.979   4.726
 2495SOL    HW1 8384   5.592   0.882   4.704
 2495SOL    HW2 8385   5.521   1.027   4.684
 2496SOL     OW 8386   1.451   6.389   0.404
 2496SOL    HW1 8387   1.514   6.424   0.473
 2496SOL    HW2 8388   1.490   6.307   0.362
 2497SOL     OW 8389   5.654   1.541   5.832
 2497SOL    HW1 8390   5.700   1.614   5.883
 2497SOL    HW2 8391   5.596   1.582   5.761
 2498SOL     OW 8392   1.949   3.534   4.984
 2498SOL    HW1 8393   1.942   3.462   5.053
 2498SOL    HW2 8394   2.003   3.610   5.020
 2499SOL     OW 8395   5.819   0.008   5.110
 2499SOL    HW1 8396   5.832   0.104   5.084
 2499SOL    HW2 8397   5.749   0.002   5.181
 2500SOL     OW 8398   4.289   3.425   6.855
 2500SOL    HW1 8399   4.208   3.372   6.880
 2500SOL    HW2 8400   4.371   3.369   6.866
 2501SOL     OW 8401   6.974   4.174   6.927
 2501SOL    HW1 8402   6.994   4.230   6.846
 2501SOL    HW2 8403   7.016   4.217   7.007
 2502SOL     OW 8404   1.912   6.175   3.184
 2502SOL    HW1 8405   1.996   6.120   3.182
 2502SOL    HW2 8406   1.930   6.264   3.143
 2503SOL     OW 8407   4.446   5.120   5.216
 2503SOL    HW1 8408   4.429   5.031   5.259
 2503SOL    HW2 8409   4.508   5.107   5.138
 2504SOL     OW 8410   1.619   4.254   4.423
 2504SOL    HW1 8411   1.567   4.331   4.387
 2504SOL    HW2 8412   1.695   4.288   4.479
 2505SOL     OW 8413   4.758   5.574   4.039
 2505SOL    HW1 8414   4.755   5.626   3.953
 2505SOL    HW2 8415   4.707   5.488   4.027
 2506SOL     OW 8416   0.273   2.184   6.598
 2506SOL    HW1 8417   0.303   2.154   6.689
 2506SOL    HW2 8418   0.352   2.193   6.538
 2507SOL     OW 8419   6.601   6.081   0.386
 2507SOL    HW1 8420   6.569   6.095   0.480
 2507SOL    HW2 8421   6.688   6.128   0.374
 2508SOL     OW 8422   2.304   2.569   2.527
 2508SOL    HW1 8423   2.394   2.554   2.567
 2508SOL    HW2 8424   2.233   2.537   2.591
 2509SOL     OW 8425   4.944   2.758   3.403
 2509SOL    HW1 8426   5.019   2.724   3.460
 2509SOL    HW2 8427   4.973   2.761   3.308
 2510SOL     OW 8428   4.090   5.852   0.802
 2510SOL    HW1 8429   4.084   5.951   0.789
 2510SOL    HW2 8430   4.187   5.825   0.807
 2511SOL     OW 8431   1.682   0.187   4.772
 2511SOL    HW1 8432   1.700   0.149   4.682
 2511SOL    HW2 8433   1.604   0.250   4.766
 2512SOL     OW 8434   4.949   3.044   4.817
 2512SOL    HW1 8435   5.015   2.996   4.758
 2512SOL    HW2 8436   4.920   3.128   4.772
 2513SOL     OW 8437   0.708   3.461   0.518
 2513SOL    HW1 8438   0.636   3.520   0.480
 2513SOL    HW2 8439   0.778   3.518   0.561
 2514SOL     OW 8440   1.803   1.098   3.754
 2514SOL    HW1 8441   1.865   1.021   3.765
 2514SOL    HW2 8442   1.853   1.177   3.720
 2515SOL     OW 8443   0.727   5.026   0.354
 2515SOL    HW1 8444   0.666   4.947   0.362
 2515SOL    HW2 8445   0.773   5.025   0.265
 2516SOL     OW 8446   5.206   6.215   3.889
 2516SOL    HW1 8447   5.161   6.144   3.834
 2516SOL    HW2 8448   5.212   6.299   3.836
 2517SOL     OW 8449   2.272   4.738   0.233
 2517SOL    HW1 8450   2.341   4.730   0.161
 2517SOL    HW2 8451   2.218   4.654   0.236
 2518SOL     OW 8452   2.474   2.036   6.782
 2518SOL    HW1 8453   2.524   2.076   6.705
 2518SOL    HW2 8454   2.422   2.108   6.829
 2519SOL     OW 8455   4.774   4.097   4.458
 2519SOL    HW1 8456   4.773   4.002   4.490
 2519SOL    HW2 8457   4.865   4.136   4.470
 2520SOL     OW 8458   2.162   4.468   2.384
 2520SOL    HW1 8459   2.190   4.484   2.289
 2520SOL    HW2 8460   2.206   4.385   2.418
 2521SOL     OW 8461   5.699   6.533   4.990
 2521SOL    HW1 8462   5.746   6.603   4.938
 2521SOL    HW2 8463   5.744   6.521   5.079
 2522SOL     OW 8464   1.380   2.943   5.078
 2522SOL    HW1 8465   1.329   2.973   4.997
 2522SOL    HW2 8466   1.460   2.891   5.049
 2523SOL     OW 8467   0.640   3.041   6.581
 2523SOL    HW1 8468   0.553   3.064   6.624
 2523SOL    HW2 8469   0.686   2.970   6.636
 2524SOL     OW 8470   0.886   6.793   5.012
 2524SOL    HW1 8471   0.792   6.799   5.045
 2524SOL    HW2 8472   0.938   6.731   5.070
 2525SOL     OW 8473   1.544   3.725   3.068
 2525SOL    HW1 8474   1.481   3.745   2.993
 2525SOL    HW2 8475   1.635   3.761   3.047
 2526SOL     OW 8476   6.719   1.239   5.384
 2526SOL    HW1 8477   6.694   1.208   5.476
 2526SOL    HW2 8478   6.802   1.191   5.355
 2527SOL     OW 8479   5.841   6.414   4.081
 2527SOL    HW1 8480   5.774   6.353   4.123
 2527SOL    HW2 8481   5.819   6.427   3.984
 2528SOL     OW 8482   6.437   6.043   0.116
 2528SOL    HW1 8483   6.342   6.012   0.117
 2528SOL    HW2 8484   6.468   6.057   0.210
 2529SOL     OW 8485   4.859   3.850   4.616
 2529SOL    HW1 8486   4.947   3.882   4.652
 2529SOL    HW2 8487   4.832   3.766   4.663
 2530SOL     OW 8488   0.006   0.938   4.497
 2530SOL    HW1 8489   0.024   0.954   4.594
 2530SOL    HW2 8490   0.085   0.893   4.456
 2531SOL     OW 8491   4.380   1.559   6.370
 2531SOL    HW1 8492   4.338   1.497   6.303
 2531SOL    HW2 8493   4.311   1.622   6.405
 2532SOL     OW 8494   1.847   4.733   6.498
 2532SOL    HW1 8495   1.946   4.724   6.488
 2532SOL    HW2 8496   1.803   4.703   6.413
 2533SOL     OW 8497   5.989   6.746   5.532
 2533SOL    HW1 8498   6.062   6.769   5.468
 2533SOL    HW2 8499   5.974   6.822   5.594
 2534SOL     OW 8500   0.693   2.480   3.881
 2534SOL    HW1 8501   0.771   2.424   3.908
 2534SOL    HW2 8502   0.722   2.547   3.813
 2535SOL     OW 8503   2.099   1.109   3.017
 2535SOL    HW1 8504   2.073   1.194   3.062
 2535SOL    HW2 8505   2.020   1.070   2.970
 2536SOL     OW 8506   5.988   1.013   4.050
 2536SOL    HW1 8507   5.899   1.055   4.035
 2536SOL    HW2 8508   6.031   0.991   3.963
 2537SOL     OW 8509   4.505   5.369   1.262
 2537SOL    HW1 8510   4.564   5.300   1.220
 2537SOL    HW2 8511   4.519   5.368   1.361
 2538SOL     OW 8512   2.389   4.584   4.940
 2538SOL    HW1 8513   2.348   4.493   4.943
 2538SOL    HW2 8514   2.347   4.642   5.010
 2539SOL     OW 8515   2.756   6.985   5.082
 2539SOL    HW1 8516   2.788   6.976   5.176
 2539SOL    HW2 8517   2.670   0.016   5.080
 2540SOL     OW 8518   5.761   2.128   2.231
 2540SOL    HW1 8519   5.803   2.042   2.203
 2540SOL    HW2 8520   5.828   2.184   2.280
 2541SOL     OW 8521   1.207   6.379   6.003
 2541SOL    HW1 8522   1.276   6.375   5.931
 2541SOL    HW2 8523   1.153   6.463   5.993
 2542SOL     OW 8524   3.592   2.020   4.176
 2542SOL    HW1 8525   3.669   1.969   4.137
 2542SOL    HW2 8526   3.627   2.093   4.235
 2543SOL     OW 8527   0.523   1.792   4.264
 2543SOL    HW1 8528   0.450   1.826   4.324
 2543SOL    HW2 8529   0.611   1.828   4.296
 2544SOL     OW 8530   6.400   5.893   2.075
 2544SOL    HW1 8531   6.418   5.794   2.074
 2544SOL    HW2 8532   6.450   5.936   2.000
 2545SOL     OW 8533   0.238   1.578   1.384
 2545SOL    HW1 8534   0.195   1.571   1.294
 2545SOL    HW2 8535   0.242   1.674   1.412
 2546SOL     OW 8536   6.958   4.298   2.605
 2546SOL    HW1 8537   6.948   4.369   2.675
 2546SOL    HW2 8538   6.869   4.283   2.560
 2547SOL     OW 8539   6.060   3.325   1.132
 2547SOL    HW1 8540   6.086   3.334   1.035
 2547SOL    HW2 8541   6.134   3.358   1.189
 2548SOL     OW 8542   0.141   6.760   5.595
 2548SOL    HW1 8543   0.113   6.748   5.690
 2548SOL    HW2 8544   0.214   6.829   5.590
 2549SOL     OW 8545   2.624   2.383   0.482
 2549SOL    HW1 8546   2.658   2.406   0.391
 2549SOL    HW2 8547   2.641   2.460   0.544
 2550SOL     OW 8548   3.987   6.583   6.191
 2550SOL    HW1 8549   3.940   6.568   6.277
 2550SOL    HW2 8550   3.934   6.544   6.116
 2551SOL     OW 8551   3.569   5.126   0.417
 2551SOL    HW1 8552   3.588   5.214   0.462
 2551SOL    HW2 8553   3.580   5.052   0.483
 2552SOL     OW 8554   2.444   5.932   0.920
 2552SOL    HW1 8555   2.498   5.946   1.004
 2552SOL    HW2 8556   2.398   6.017   0.896
 2553SOL     OW 8557   4.516   1.518   6.940
 2553SOL    HW1 8558   4.557   1.433   6.973
 2553SOL    HW2 8559   4.528   1.589   7.009
 2554SOL     OW 8560   1.675   6.156   1.792
 2554SOL    HW1 8561   1.721   6.229   1.742
 2554SOL    HW2 8562   1.653   6.187   1.885
 2555SOL     OW 8563   5.647   6.366   4.746
 2555SOL    HW1 8564   5.657   6.406   4.837
 2555SOL    HW2 8565   5.589   6.285   4.752
 2556SOL     OW 8566   4.129   0.618   0.838
 2556SOL    HW1 8567   4.128   0.524   0.803
 2556SOL    HW2 8568   4.040   0.660   0.824
 2557SOL     OW 8569   3.414   0.244   6.968
 2557SOL    HW1 8570   3.344   0.225   6.899
 2557SOL    HW2 8571   3.502   0.256   6.923
 2558SOL     OW 8572   5.514   3.595   6.618
 2558SOL    HW1 8573   5.445   3.632   6.556
 2558SOL    HW2 8574   5.602   3.588   6.570
 2559SOL     OW 8575   1.166   4.585   4.915
 2559SOL    HW1 8576   1.191   4.507   4.858
 2559SOL    HW2 8577   1.099   4.556   4.984
 2560SOL     OW 8578   5.331   2.479   3.338
 2560SOL    HW1 8579   5.422   2.516   3.354
 2560SOL    HW2 8580   5.317   2.468   3.239
 2561SOL     OW 8581   3.405   0.184   4.042
 2561SOL    HW1 8582   3.392   0.136   3.955
 2561SOL    HW2 8583   3.364   0.275   4.037
 2562SOL     OW 8584   4.015   6.601   3.584
 2562SOL    HW1 8585   4.034   6.511   3.545
 2562SOL    HW2 8586   4.080   6.620   3.658
 2563SOL     OW 8587   3.674   1.413   0.193
 2563SOL    HW1 8588   3.591   1.398   0.139
 2563SOL    HW2 8589   3.737   1.336   0.179
 2564SOL     OW 8590   2.320   1.621   0.631
 2564SOL    HW1 8591   2.245   1.571   0.676
 2564SOL    HW2 8592   2.407   1.580   0.656
 2565SOL     OW 8593   1.190   1.947   0.111
 2565SOL    HW1 8594   1.234   2.037   0.117
 2565SOL    HW2 8595   1.091   1.958   0.117
 2566SOL     OW 8596   2.429   0.957   1.034
 2566SOL    HW1 8597   2.505   0.900   1.067
 2566SOL    HW2 8598   2.362   0.900   0.988
 2567SOL     OW 8599   1.838   0.384   0.137
 2567SOL    HW1 8600   1.847   0.457   0.069
 2567SOL    HW2 8601   1.771   0.412   0.206
 2568SOL     OW 8602   3.209   6.316   1.018
 2568SOL    HW1 8603   3.120   6.313   0.974
 2568SOL    HW2 8604   3.209   6.387   1.089
 2569SOL     OW 8605   1.068   0.349   1.338
 2569SOL    HW1 8606   1.147   0.288   1.348
 2569SOL    HW2 8607   0.998   0.303   1.283
 2570SOL     OW 8608   6.285   6.645   5.699
 2570SOL    HW1 8609   6.284   6.744   5.714
 2570SOL    HW2 8610   6.357   6.622   5.634
 2571SOL     OW 8611   3.729   3.225   4.335
 2571SOL    HW1 8612   3.673   3.213   4.417
 2571SOL    HW2 8613   3.821   3.189   4.353
 2572SOL     OW 8614   1.948   6.855   1.774
 2572SOL    HW1 8615   2.036   6.809   1.763
 2572SOL    HW2 8616   1.894   6.844   1.691
 2573SOL     OW 8617   0.035   2.344   4.371
 2573SOL    HW1 8618   7.014   2.273   4.313
 2573SOL    HW2 8619   6.986   2.415   4.388
 2574SOL     OW 8620   0.914   3.477   1.878
 2574SOL    HW1 8621   0.883   3.386   1.851
 2574SOL    HW2 8622   0.916   3.536   1.797
 2575SOL     OW 8623   6.240   3.797   0.279
 2575SOL    HW1 8624   6.267   3.713   0.328
 2575SOL    HW2 8625   6.310   3.820   0.212
 2576SOL     OW 8626   1.687   7.015   3.753
 2576SOL    HW1 8627   1.737   0.018   3.669
 2576SOL    HW2 8628   1.686   6.916   3.766
 2577SOL     OW 8629   2.542   6.229   1.864
 2577SOL    HW1 8630   2.480   6.307   1.855
 2577SOL    HW2 8631   2.634   6.262   1.887
 2578SOL     OW 8632   4.873   2.422   4.256
 2578SOL    HW1 8633   4.781   2.443   4.291
 2578SOL    HW2 8634   4.887   2.323   4.256
 2579SOL     OW 8635   0.027   2.478   6.559
 2579SOL    HW1 8636   0.071   2.422   6.489
 2579SOL    HW2 8637   6.961   2.517   6.523
 2580SOL     OW 8638   1.753   2.524   6.014
 2580SOL    HW1 8639   1.847   2.532   5.981
 2580SOL    HW2 8640   1.736   2.431   6.044
 2581SOL     OW 8641   6.363   6.500   3.830
 2581SOL    HW1 8642   6.373   6.433   3.903
 2581SOL    HW2 8643   6.411   6.585   3.855
 2582SOL     OW 8644   0.532   5.587   2.509
 2582SOL    HW1 8645   0.496   5.638   2.588
 2582SOL    HW2 8646   0.537   5.490   2.533
 2583SOL     OW 8647   1.934   0.486   0.605
 2583SOL    HW1 8648   1.865   0.548   0.568
 2583SOL    HW2 8649   1.894   0.395   0.619
 2584SOL     OW 8650   4.692   6.843   2.199
 2584SOL    HW1 8651   4.762   6.807   2.262
 2584SOL    HW2 8652   4.603   6.844   2.245
 2585SOL     OW 8653   3.734   0.883   1.382
 2585SOL    HW1 8654   3.778   0.972   1.393
 2585SOL    HW2 8655   3.668   0.870   1.456
 2586SOL     OW 8656   6.394   2.282   4.234
 2586SOL    HW1 8657   6.371   2.242   4.146
 2586SOL    HW2 8658   6.344   2.368   4.245
 2587SOL     OW 8659   5.786   6.460   3.218
 2587SOL    HW1 8660   5.817   6.519   3.292
 2587SOL    HW2 8661   5.851   6.465   3.142
 2588SOL     OW 8662   5.740   1.490   1.430
 2588SOL    HW1 8663   5.755   1.521   1.336
 2588SOL    HW2 8664   5.823   1.446   1.465
 2589SOL     OW 8665   6.772   6.837   6.890
 2589SOL    HW1 8666   6.767   6.865   6.794
 2589SOL    HW2 8667   6.770   6.918   6.949
 2590SOL     OW 8668   4.247   6.843   2.737
 2590SOL    HW1 8669   4.293   6.847   2.826
 2590SOL    HW2 8670   4.253   6.933   2.692
 2591SOL     OW 8671   5.786   6.939   1.028
 2591SOL    HW1 8672   5.712   6.879   0.998
 2591SOL    HW2 8673   5.870   6.886   1.038
 2592SOL     OW 8674   3.802   5.793   1.661
 2592SOL    HW1 8675   3.887   5.770   1.614
 2592SOL    HW2 8676   3.726   5.784   1.597
 2593SOL     OW 8677   2.906   6.331   2.417
 2593SOL    HW1 8678   2.807   6.341   2.417
 2593SOL    HW2 8679   2.946   6.389   2.489
 2594SOL     OW 8680   1.335   6.637   6.125
 2594SOL    HW1 8681   1.259   6.649   6.189
 2594SOL    HW2 8682   1.421   6.652   6.173
 2595SOL     OW 8683   6.010   3.484   3.956
 2595SOL    HW1 8684   6.076   3.559   3.961
 2595SOL    HW2 8685   5.986   3.455   4.048
 2596SOL     OW 8686   3.897   2.083   2.198
 2596SOL    HW1 8687   3.977   2.065   2.140
 2596SOL    HW2 8688   3.821   2.114   2.141
 2597SOL     OW 8689   2.436   2.911   6.968
 2597SOL    HW1 8690   2.498   2.945   6.897
 2597SOL    HW2 8691   2.354   2.873   6.925
 2598SOL     OW 8692   6.535   3.144   3.400
 2598SOL    HW1 8693   6.598   3.196   3.457
 2598SOL    HW2 8694   6.487   3.206   3.338
 2599SOL     OW 8695   4.098   5.519   6.971
 2599SOL    HW1 8696   4.082   5.429   6.932
 2599SOL    HW2 8697   4.013   5.554   7.010
 2600SOL     OW 8698   6.539   3.687   3.455
 2600SOL    HW1 8699   6.579   3.626   3.387
 2600SOL    HW2 8700   6.610   3.723   3.514
 2601SOL     OW 8701   4.106   2.978   5.882
 2601SOL    HW1 8702   4.119   3.073   5.913
 2601SOL    HW2 8703   4.118   2.974   5.782
 2602SOL     OW 8704   6.140   5.499   4.157
 2602SOL    HW1 8705   6.181   5.431   4.218
 2602SOL    HW2 8706   6.096   5.452   4.080
 2603SOL     OW 8707   3.335   2.737   1.132
 2603SOL    HW1 8708   3.297   2.785   1.211
 2603SOL    HW2 8709   3.313   2.639   1.139
 2604SOL     OW 8710   6.140   0.086   1.151
 2604SOL    HW1 8711   6.232   0.084   1.112
 2604SOL    HW2 8712   6.078   0.130   1.087
 2605SOL     OW 8713   4.805   4.858   4.267
 2605SOL    HW1 8714   4.831   4.868   4.363
 2605SOL    HW2 8715   4.755   4.772   4.255
 2606SOL     OW 8716   0.126   4.693   0.582
 2606SOL    HW1 8717   0.216   4.697   0.624
 2606SOL    HW2 8718   0.063   4.643   0.642
 2607SOL     OW 8719   0.237   0.955   3.936
 2607SOL    HW1 8720   0.185   0.883   3.890
 2607SOL    HW2 8721   0.319   0.915   3.977
 2608SOL     OW 8722   4.837   0.645   1.457
 2608SOL    HW1 8723   4.865   0.715   1.523
 2608SOL    HW2 8724   4.742   0.618   1.475
 2609SOL     OW 8725   1.006   2.473   2.835
 2609SOL    HW1 8726   0.987   2.563   2.875
 2609SOL    HW2 8727   0.992   2.477   2.736
 2610SOL     OW 8728   5.825   5.934   4.815
 2610SOL    HW1 8729   5.748   5.942   4.879
 2610SOL    HW2 8730   5.825   5.843   4.774
 2611SOL     OW 8731   4.202   6.458   1.628
 2611SOL    HW1 8732   4.192   6.533   1.693
 2611SOL    HW2 8733   4.114   6.440   1.585
 2612SOL     OW 8734   6.127   6.579   3.686
 2612SOL    HW1 8735   6.202   6.559   3.748
 2612SOL    HW2 8736   6.087   6.667   3.709
 2613SOL     OW 8737   3.989   0.510   1.709
 2613SOL    HW1 8738   3.972   0.609   1.717
 2613SOL    HW2 8739   4.063   0.494   1.644
 2614SOL     OW 8740   6.958   6.589   6.692
 2614SOL    HW1 8741   7.008   6.637   6.621
 2614SOL    HW2 8742   6.860   6.591   6.671
 2615SOL     OW 8743   5.197   5.469   2.262
 2615SOL    HW1 8744   5.208   5.412   2.343
 2615SOL    HW2 8745   5.158   5.415   2.188
 2616SOL     OW 8746   4.150   3.408   3.024
 2616SOL    HW1 8747   4.084   3.349   3.073
 2616SOL    HW2 8748   4.226   3.429   3.085
 2617SOL     OW 8749   4.162   6.960   1.098
 2617SOL    HW1 8750   4.231   6.981   1.167
 2617SOL    HW2 8751   4.075   7.003   1.124
 2618SOL     OW 8752   1.248   0.589   0.801
 2618SOL    HW1 8753   1.199   0.596   0.714
 2618SOL    HW2 8754   1.195   0.534   0.865
 2619SOL     OW 8755   4.511   2.439   1.637
 2619SOL    HW1 8756   4.516   2.511   1.707
 2619SOL    HW2 8757   4.480   2.354   1.679
 2620SOL     OW 8758   1.381   4.160   4.557
 2620SOL    HW1 8759   1.471   4.178   4.517
 2620SOL    HW2 8760   1.309   4.185   4.492
 2621SOL     OW 8761   0.803   5.354   3.586
 2621SOL    HW1 8762   0.839   5.261   3.576
 2621SOL    HW2 8763   0.879   5.417   3.601
 2622SOL     OW 8764   2.472   2.581   6.522
 2622SOL    HW1 8765   2.401   2.526   6.478
 2622SOL    HW2 8766   2.492   2.661   6.465
 2623SOL     OW 8767   2.972   0.982   5.501
 2623SOL    HW1 8768   2.998   0.895   5.460
 2623SOL    HW2 8769   2.959   1.050   5.428
 2624SOL     OW 8770   6.240   1.745   3.705
 2624SOL    HW1 8771   6.214   1.753   3.801
 2624SOL    HW2 8772   6.243   1.835   3.663
 2625SOL     OW 8773   3.056   1.725   6.062
 2625SOL    HW1 8774   3.024   1.642   6.107
 2625SOL    HW2 8775   3.082   1.705   5.968
 2626SOL     OW 8776   2.008   6.418   3.078
 2626SOL    HW1 8777   2.107   6.421   3.064
 2626SOL    HW2 8778   1.963   6.411   2.989
 2627SOL     OW 8779   6.544   0.259   4.801
 2627SOL    HW1 8780   6.587   0.174   4.770
 2627SOL    HW2 8781   6.445   0.249   4.799
 2628SOL     OW 8782   3.961   6.114   6.595
 2628SOL    HW1 8783   3.902   6.083   6.669
 2628SOL    HW2 8784   3.949   6.213   6.581
 2629SOL     OW 8785   3.295   4.154   1.225
 2629SOL    HW1 8786   3.201   4.178   1.251
 2629SOL    HW2 8787   3.338   4.103   1.300
 2630SOL     OW 8788   2.587   2.493   2.364
 2630SOL    HW1 8789   2.608   2.577   2.313
 2630SOL    HW2 8790   2.565   2.419   2.299
 2631SOL     OW 8791   4.504   6.344   4.045
 2631SOL    HW1 8792   4.529   6.338   3.948
 2631SOL    HW2 8793   4.419   6.396   4.054
 2632SOL     OW 8794   3.770   2.515   0.195
 2632SOL    HW1 8795   3.701   2.451   0.226
 2632SOL    HW2 8796   3.788   2.582   0.267
 2633SOL     OW 8797   5.406   2.058   6.672
 2633SOL    HW1 8798   5.437   2.067   6.578
 2633SOL    HW2 8799   5.429   2.141   6.723
 2634SOL     OW 8800   1.922   4.432   0.815
 2634SOL    HW1 8801   2.016   4.399   0.806
 2634SOL    HW2 8802   1.882   4.397   0.899
 2635SOL     OW 8803   5.547   4.621   5.005
 2635SOL    HW1 8804   5.628   4.607   5.062
 2635SOL    HW2 8805   5.544   4.716   4.973
 2636SOL     OW 8806   5.277   0.188   5.359
 2636SOL    HW1 8807   5.325   0.245   5.293
 2636SOL    HW2 8808   5.181   0.181   5.334
 2637SOL     OW 8809   5.710   6.829   2.940
 2637SOL    HW1 8810   5.664   6.837   2.851
 2637SOL    HW2 8811   5.646   6.851   3.013
 2638SOL     OW 8812   5.691   6.106   0.608
 2638SOL    HW1 8813   5.596   6.116   0.578
 2638SOL    HW2 8814   5.736   6.196   0.606
 2639SOL     OW 8815   6.041   6.103   0.671
 2639SOL    HW1 8816   6.092   6.017   0.680
 2639SOL    HW2 8817   6.015   6.136   0.761
 2640SOL     OW 8818   6.917   6.247   5.302
 2640SOL    HW1 8819   6.950   6.323   5.245
 2640SOL    HW2 8820   6.933   6.268   5.398
 2641SOL     OW 8821   5.160   4.580   0.360
 2641SOL    HW1 8822   5.246   4.598   0.406
 2641SOL    HW2 8823   5.170   4.599   0.262
 2642SOL     OW 8824   5.222   0.193   3.837
 2642SOL    HW1 8825   5.148   0.154   3.892
 2642SOL    HW2 8826   5.198   0.189   3.740
 2643SOL     OW 8827   0.460   0.511   2.476
 2643SOL    HW1 8828   0.365   0.509   2.446
 2643SOL    HW2 8829   0.481   0.600   2.517
 2644SOL     OW 8830   0.373   4.349   6.050
 2644SOL    HW1 8831   0.459   4.398   6.037
 2644SOL    HW2 8832   0.392   4.259   6.090
 2645SOL     OW 8833   5.843   5.982   6.496
 2645SOL    HW1 8834   5.938   5.951   6.492
 2645SOL    HW2 8835   5.837   6.078   6.468
 2646SOL     OW 8836   6.443   6.740   6.605
 2646SOL    HW1 8837   6.526   6.687   6.592
 2646SOL    HW2 8838   6.445   6.785   6.695
 2647SOL     OW 8839   3.852   2.293   1.427
 2647SOL    HW1 8840   3.950   2.277   1.413
 2647SOL    HW2 8841   3.839   2.351   1.507
 2648SOL     OW 8842   5.563   0.299   2.389
 2648SOL    HW1 8843   5.489   0.241   2.422
 2648SOL    HW2 8844   5.580   0.279   2.293
 2649SOL     OW 8845   3.570   1.870   6.279
 2649SOL    HW1 8846   3.646   1.824   6.325
 2649SOL    HW2 8847   3.504   1.902   6.348
 2650SOL     OW 8848   0.234   6.207   2.727
 2650SOL    HW1 8849   0.218   6.205   2.826
 2650SOL    HW2 8850   0.188   6.128   2.685
 2651SOL     OW 8851   6.320   1.361   2.507
 2651SOL    HW1 8852   6.261   1.293   2.464
 2651SOL    HW2 8853   6.416   1.334   2.496
 2652SOL     OW 8854   3.698   3.185   2.887
 2652SOL    HW1 8855   3.793   3.174   2.858
 2652SOL    HW2 8856   3.638   3.181   2.807
 2653SOL     OW 8857   6.366   6.859   6.002
 2653SOL    HW1 8858   6.323   6.911   5.928
 2653SOL    HW2 8859   6.441   6.913   6.042
 2654SOL     OW 8860   5.780   2.974   5.682
 2654SOL    HW1 8861   5.779   3.042   5.756
 2654SOL    HW2 8862   5.724   2.895   5.709
 2655SOL     OW 8863   4.757   6.349   4.357
 2655SOL    HW1 8864   4.687   6.419   4.344
 2655SOL    HW2 8865   4.784   6.311   4.269
 2656SOL     OW 8866   5.356   3.666   3.508
 2656SOL    HW1 8867   5.280   3.724   3.539
 2656SOL    HW2 8868   5.411   3.639   3.587
 2657SOL     OW 8869   1.620   4.100   6.450
 2657SOL    HW1 8870   1.619   4.197   6.472
 2657SOL    HW2 8871   1.565   4.050   6.517
 2658SOL     OW 8872   6.036   3.950   5.952
 2658SOL    HW1 8873   6.067   4.033   5.906
 2658SOL    HW2 8874   6.024   3.968   6.049
 2659SOL     OW 8875   6.889   2.529   4.465
 2659SOL    HW1 8876   6.921   2.620   4.440
 2659SOL    HW2 8877   6.807   2.536   4.521
 2660SOL     OW 8878   6.965   2.467   2.544
 2660SOL    HW1 8879   0.028   2.473   2.487
 2660SOL    HW2 8880   6.941   2.371   2.559
 2661SOL     OW 8881   3.871   6.502   1.234
 2661SOL    HW1 8882   3.878   6.500   1.334
 2661SOL    HW2 8883   3.963   6.511   1.195
 2662SOL     OW 8884   4.048   6.658   4.123
 2662SOL    HW1 8885   4.087   6.638   4.213
 2662SOL    HW2 8886   3.957   6.618   4.116
 2663SOL     OW 8887   1.760   4.214   2.462
 2663SOL    HW1 8888   1.841   4.263   2.494
 2663SOL    HW2 8889   1.679   4.270   2.476
 2664SOL     OW 8890   4.015   3.722   2.465
 2664SOL    HW1 8891   3.973   3.640   2.426
 2664SOL    HW2 8892   4.079   3.696   2.537
 2665SOL     OW 8893   3.673   1.174   4.466
 2665SOL    HW1 8894   3.659   1.257   4.412
 2665SOL    HW2 8895   3.750   1.122   4.428
 2666SOL     OW 8896   5.600   4.618   1.091
 2666SOL    HW1 8897   5.606   4.540   1.152
 2666SOL    HW2 8898   5.508   4.657   1.096
 2667SOL     OW 8899   2.465   5.680   4.292
 2667SOL    HW1 8900   2.399   5.717   4.357
 2667SOL    HW2 8901   2.424   5.603   4.243
 2668SOL     OW 8902   0.029   3.060   5.380
 2668SOL    HW1 8903   0.048   3.134   5.445
 2668SOL    HW2 8904   6.952   3.034   5.386
 2669SOL     OW 8905   4.418   4.915   5.436
 2669SOL    HW1 8906   4.516   4.927   5.416
 2669SOL    HW2 8907   4.406   4.901   5.534
 2670SOL     OW 8908   1.225   1.549   6.862
 2670SOL    HW1 8909   1.250   1.626   6.921
 2670SOL    HW2 8910   1.308   1.503   6.830
 2671SOL     OW 8911   2.343   3.243   6.268
 2671SOL    HW1 8912   2.299   3.319   6.220
 2671SOL    HW2 8913   2.318   3.157   6.223
 2672SOL     OW 8914   1.949   5.747   0.990
 2672SOL    HW1 8915   2.008   5.806   0.936
 2672SOL    HW2 8916   1.957   5.772   1.087
 2673SOL     OW 8917   3.727   2.083   2.953
 2673SOL    HW1 8918   3.631   2.069   2.931
 2673SOL    HW2 8919   3.782   2.079   2.869
 2674SOL     OW 8920   6.196   5.139   5.126
 2674SOL    HW1 8921   6.191   5.042   5.100
 2674SOL    HW2 8922   6.236   5.191   5.050
 2675SOL     OW 8923   0.115   4.502   5.686
 2675SOL    HW1 8924   0.171   4.437   5.636
 2675SOL    HW2 8925   0.145   4.595   5.666
 2676SOL     OW 8926   4.401   1.499   1.627
 2676SOL    HW1 8927   4.482   1.441   1.633
 2676SOL    HW2 8928   4.362   1.493   1.535
 2677SOL     OW 8929   2.473   4.950   1.691
 2677SOL    HW1 8930   2.393   4.997   1.654
 2677SOL    HW2 8931   2.443   4.877   1.752
 2678SOL     OW 8932   0.393   5.008   6.252
 2678SOL    HW1 8933   0.413   5.065   6.173
 2678SOL    HW2 8934   0.334   4.932   6.225
 2679SOL     OW 8935   3.349   5.067   0.827
 2679SOL    HW1 8936   3.252   5.063   0.803
 2679SOL    HW2 8937   3.390   5.148   0.785
 2680SOL     OW 8938   1.757   1.077   1.761
 2680SOL    HW1 8939   1.730   0.984   1.736
 2680SOL    HW2 8940   1.857   1.084   1.759
 2681SOL     OW 8941   1.651   2.620   3.334
 2681SOL    HW1 8942   1.623   2.533   3.375
 2681SOL    HW2 8943   1.742   2.610   3.295
 2682SOL     OW 8944   5.628   2.666   2.658
 2682SOL    HW1 8945   5.551   2.682   2.596
 2682SOL    HW2 8946   5.706   2.630   2.606
 2683SOL     OW 8947   0.973   5.732   1.146
 2683SOL    HW1 8948   1.028   5.698   1.070
 2683SOL    HW2 8949   1.033   5.761   1.221
 2684SOL     OW 8950   2.075   6.434   3.463
 2684SOL    HW1 8951   2.057   6.503   3.394
 2684SOL    HW2 8952   1.994   6.422   3.520
 2685SOL     OW 8953   4.911   6.169   5.039
 2685SOL    HW1 8954   4.957   6.092   5.083
 2685SOL    HW2 8955   4.979   6.235   5.007
 2686SOL     OW 8956   2.221   3.039   4.405
 2686SOL    HW1 8957   2.249   3.061   4.499
 2686SOL    HW2 8958   2.294   3.063   4.342
 2687SOL     OW 8959   3.811   5.584   2.486
 2687SOL    HW1 8960   3.786   5.657   2.422
 2687SOL    HW2 8961   3.885   5.529   2.448
 2688SOL     OW 8962   4.290   4.876   6.669
 2688SOL    HW1 8963   4.306   4.779   6.654
 2688SOL    HW2 8964   4.235   4.913   6.594
 2689SOL     OW 8965   0.612   3.174   4.268
 2689SOL    HW1 8966   0.574   3.247   4.211
 2689SOL    HW2 8967   0.629   3.093   4.211
 2690SOL     OW 8968   3.995   3.936   3.816
 2690SOL    HW1 8969   3.986   3.855   3.873
 2690SOL    HW2 8970   4.007   3.909   3.720
 2691SOL     OW 8971   1.500   5.784   2.279
 2691SOL    HW1 8972   1.570   5.836   2.230
 2691SOL    HW2 8973   1.417   5.839   2.285
 2692SOL     OW 8974   0.065   6.556   4.033
 2692SOL    HW1 8975   0.097   6.487   3.968
 2692SOL    HW2 8976   0.086   6.647   3.997
 2693SOL     OW 8977   1.831   3.534   3.609
 2693SOL    HW1 8978   1.888   3.511   3.530
 2693SOL    HW2 8979   1.881   3.513   3.693
 2694SOL     OW 8980   1.520   0.140   3.589
 2694SOL    HW1 8981   1.459   0.080   3.537
 2694SOL    HW2 8982   1.569   0.087   3.658
 2695SOL     OW 8983   4.336   2.296   2.463
 2695SOL    HW1 8984   4.272   2.274   2.390
 2695SOL    HW2 8985   4.288   2.297   2.551
 2696SOL     OW 8986   3.981   3.910   5.462
 2696SOL    HW1 8987   3.892   3.936   5.423
 2696SOL    HW2 8988   4.053   3.933   5.397
 2697SOL     OW 8989   2.972   1.851   4.130
 2697SOL    HW1 8990   2.999   1.786   4.201
 2697SOL    HW2 8991   3.053   1.885   4.083
 2698SOL     OW 8992   1.578   4.261   0.358
 2698SOL    HW1 8993   1.645   4.270   0.285
 2698SOL    HW2 8994   1.620   4.218   0.438
 2699SOL     OW 8995   3.502   6.370   1.592
 2699SOL    HW1 8996   3.418   6.324   1.564
 2699SOL    HW2 8997   3.497   6.467   1.569
 2700SOL     OW 8998   1.759   3.420   2.986
 2700SOL    HW1 8999   1.695   3.436   2.911
 2700SOL    HW2 9000   1.777   3.322   2.993
 2701SOL     OW 9001   3.764   6.985   6.712
 2701SOL    HW1 9002   3.802   6.999   6.804
 2701SOL    HW2 9003   3.805   0.031   6.649
 2702SOL     OW 9004   0.032   1.122   3.641
 2702SOL    HW1 9005   0.085   1.184   3.699
 2702SOL    HW2 9006   7.002   1.175   3.572
 2703SOL     OW 9007   1.807   2.113   2.445
 2703SOL    HW1 9008   1.878   2.080   2.508
 2703SOL    HW2 9009   1.725   2.058   2.456
 2704SOL     OW 9010   2.380   5.427   1.567
 2704SOL    HW1 9011   2.478   5.429   1.550
 2704SOL    HW2 9012   2.357   5.345   1.620
 2705SOL     OW 9013   6.309   5.561   3.350
 2705SOL    HW1 9014   6.285   5.658   3.352
 2705SOL    HW2 9015   6.408   5.551   3.357
 2706SOL     OW 9016   6.532   1.454   1.617
 2706SOL    HW1 9017   6.532   1.411   1.707
 2706SOL    HW2 9018   6.440   1.452   1.578
 2707SOL     OW 9019   2.073   1.522   6.251
 2707SOL    HW1 9020   2.033   1.574   6.176
 2707SOL    HW2 9021   2.160   1.565   6.278
 2708SOL     OW 9022   1.421   2.423   1.407
 2708SOL    HW1 9023   1.486   2.498   1.420
 2708SOL    HW2 9024   1.396   2.385   1.496
 2709SOL     OW 9025   4.773   5.980   0.696
 2709SOL    HW1 9026   4.696   5.971   0.632
 2709SOL    HW2 9027   4.859   5.959   0.648
 2710SOL     OW 9028   0.596   4.218   2.602
 2710SOL    HW1 9029   0.565   4.145   2.663
 2710SOL    HW2 9030   0.560   4.306   2.635
 2711SOL     OW 9031   0.807   0.188   2.241
 2711SOL    HW1 9032   0.727   0.217   2.294
 2711SOL    HW2 9033   0.866   0.131   2.299
 2712SOL     OW 9034   2.638   4.492   0.507
 2712SOL    HW1 9035   2.684   4.573   0.545
 2712SOL    HW2 9036   2.601   4.515   0.417
 2713SOL     OW 9037   2.439   3.169   5.425
 2713SOL    HW1 9038   2.470   3.127   5.339
 2713SOL    HW2 9039   2.453   3.268   5.420
 2714SOL     OW 9040   4.644   0.545   5.917
 2714SOL    HW1 9041   4.717   0.530   5.851
 2714SOL    HW2 9042   4.682   0.547   6.009
 2715SOL     OW 9043   5.706   1.237   6.751
 2715SOL    HW1 9044   5.748   1.328   6.755
 2715SOL    HW2 9045   5.704   1.205   6.656
 2716SOL     OW 9046   0.518   6.265   2.679
 2716SOL    HW1 9047   0.419   6.253   2.679
 2716SOL    HW2 9048   0.562   6.176   2.695
 2717SOL     OW 9049   0.884   0.409   3.296
 2717SOL    HW1 9050   0.984   0.414   3.295
 2717SOL    HW2 9051   0.846   0.498   3.274
 2718SOL     OW 9052   2.503   4.495   3.793
 2718SOL    HW1 9053   2.493   4.520   3.697
 2718SOL    HW2 9054   2.595   4.518   3.824
 2719SOL     OW 9055   4.355   5.203   1.832
 2719SOL    HW1 9056   4.388   5.285   1.879
 2719SOL    HW2 9057   4.431   5.158   1.787
 2720SOL     OW 9058   1.766   6.731   3.624
 2720SOL    HW1 9059   1.811   6.775   3.547
 2720SOL    HW2 9060   1.815   6.751   3.708
 2721SOL     OW 9061   3.633   0.142   4.219
 2721SOL    HW1 9062   3.678   0.062   4.178
 2721SOL    HW2 9063   3.550   0.163   4.168
 2722SOL     OW 9064   1.178   6.218   2.702
 2722SOL    HW1 9065   1.185   6.256   2.794
 2722SOL    HW2 9066   1.212   6.285   2.636
 2723SOL     OW 9067   1.895   1.263   5.852
 2723SOL    HW1 9068   1.864   1.340   5.797
 2723SOL    HW2 9069   1.963   1.211   5.802
 2724SOL     OW 9070   4.093   5.707   6.184
 2724SOL    HW1 9071   4.080   5.609   6.166
 2724SOL    HW2 9072   4.060   5.728   6.276
 2725SOL     OW 9073   4.112   4.888   3.953
 2725SOL    HW1 9074   4.093   4.975   3.999
 2725SOL    HW2 9075   4.079   4.892   3.859
 2726SOL     OW 9076   4.759   5.648   2.348
 2726SOL    HW1 9077   4.839   5.708   2.351
 2726SOL    HW2 9078   4.675   5.703   2.351
 2727SOL     OW 9079   0.821   5.331   2.676
 2727SOL    HW1 9080   0.836   5.312   2.579
 2727SOL    HW2 9081   0.771   5.255   2.717
 2728SOL     OW 9082   2.701   6.747   5.291
 2728SOL    HW1 9083   2.795   6.743   5.257
 2728SOL    HW2 9084   2.697   6.706   5.382
 2729SOL     OW 9085   5.808   5.379   2.618
 2729SOL    HW1 9086   5.861   5.364   2.535
 2729SOL    HW2 9087   5.756   5.464   2.610
 2730SOL     OW 9088   1.606   0.289   0.666
 2730SOL    HW1 9089   1.509   0.283   0.687
 2730SOL    HW2 9090   1.627   0.227   0.590
 2731SOL     OW 9091   3.045   3.853   1.756
 2731SOL    HW1 9092   3.044   3.906   1.841
 2731SOL    HW2 9093   3.062   3.757   1.777
 2732SOL     OW 9094   5.841   1.622   2.403
 2732SOL    HW1 9095   5.935   1.600   2.428
 2732SOL    HW2 9096   5.822   1.590   2.311
 2733SOL     OW 9097   1.163   6.698   5.832
 2733SOL    HW1 9098   1.256   6.686   5.797
 2733SOL    HW2 9099   1.164   6.691   5.932
 2734SOL     OW 9100   1.978   6.071   4.147
 2734SOL    HW1 9101   2.074   6.044   4.138
 2734SOL    HW2 9102   1.921   6.010   4.091
 2735SOL     OW 9103   1.633   5.049   2.593
 2735SOL    HW1 9104   1.698   4.979   2.623
 2735SOL    HW2 9105   1.634   5.126   2.658
 2736SOL     OW 9106   4.379   0.404   4.874
 2736SOL    HW1 9107   4.284   0.378   4.889
 2736SOL    HW2 9108   4.440   0.329   4.902
 2737SOL     OW 9109   4.458   3.738   6.559
 2737SOL    HW1 9110   4.447   3.816   6.622
 2737SOL    HW2 9111   4.425   3.655   6.603
 2738SOL     OW 9112   5.495   5.233   4.691
 2738SOL    HW1 9113   5.465   5.176   4.614
 2738SOL    HW2 9114   5.593   5.221   4.705
 2739SOL     OW 9115   5.633   3.761   1.368
 2739SOL    HW1 9116   5.597   3.784   1.278
 2739SOL    HW2 9117   5.723   3.720   1.359
 2740SOL     OW 9118   6.078   2.267   3.093
 2740SOL    HW1 9119   6.093   2.357   3.053
 2740SOL    HW2 9120   5.980   2.247   3.095
 2741SOL     OW 9121   1.032   2.409   5.853
 2741SOL    HW1 9122   1.111   2.364   5.895
 2741SOL    HW2 9123   1.038   2.508   5.868
 2742SOL     OW 9124   2.087   6.855   6.828
 2742SOL    HW1 9125   2.008   6.823   6.775
 2742SOL    HW2 9126   2.170   6.847   6.772
 2743SOL     OW 9127   5.404   5.200   1.272
 2743SOL    HW1 9128   5.406   5.184   1.173
 2743SOL    HW2 9129   5.385   5.297   1.289
 2744SOL     OW 9130   4.419   2.342   5.811
 2744SOL    HW1 9131   4.498   2.283   5.829
 2744SOL    HW2 9132   4.339   2.306   5.858
 2745SOL     OW 9133   2.728   6.756   0.995
 2745SOL    HW1 9134   2.787   6.837   0.991
 2745SOL    HW2 9135   2.704   6.737   1.090
 2746SOL     OW 9136   2.003   1.926   6.641
 2746SOL    HW1 9137   2.099   1.896   6.648
 2746SOL    HW2 9138   1.996   2.001   6.576
 2747SOL     OW 9139   5.005   6.448   3.796
 2747SOL    HW1 9140   4.930   6.419   3.736
 2747SOL    HW2 9141   5.008   6.547   3.801
 2748SOL     OW 9142   3.694   1.214   2.787
 2748SOL    HW1 9143   3.600   1.178   2.785
 2748SOL    HW2 9144   3.749   1.165   2.720
 2749SOL     OW 9145   4.925   5.016   3.966
 2749SOL    HW1 9146   4.826   5.012   3.974
 2749SOL    HW2 9147   4.956   5.111   3.972
 2750SOL     OW 9148   0.445   5.986   2.536
 2750SOL    HW1 9149   0.510   5.994   2.611
 2750SOL    HW2 9150   0.400   6.074   2.520
 2751SOL     OW 9151   1.592   0.487   6.634
 2751SOL    HW1 9152   1.604   0.585   6.642
 2751SOL    HW2 9153   1.509   0.468   6.581
 2752SOL     OW 9154   6.198   6.071   5.622
 2752SOL    HW1 9155   6.274   6.135   5.622
 2752SOL    HW2 9156   6.130   6.102   5.689
 2753SOL     OW 9157   3.174   5.485   6.174
 2753SOL    HW1 9158   3.166   5.395   6.131
 2753SOL    HW2 9159   3.189   5.554   6.103
 2754SOL     OW 9160   0.794   0.878   4.550
 2754SOL    HW1 9161   0.733   0.832   4.485
 2754SOL    HW2 9162   0.742   0.947   4.601
 2755SOL     OW 9163   3.079   6.470   2.265
 2755SOL    HW1 9164   3.176   6.445   2.267
 2755SOL    HW2 9165   3.027   6.407   2.322
 2756SOL     OW 9166   0.022   2.811   5.789
 2756SOL    HW1 9167   7.004   2.880   5.727
 2756SOL    HW2 9168   0.095   2.761   5.743
 2757SOL     OW 9169   4.683   3.195   6.612
 2757SOL    HW1 9170   4.767   3.228   6.655
 2757SOL    HW2 9171   4.637   3.270   6.564
 2758SOL     OW 9172   6.278   6.491   2.463
 2758SOL    HW1 9173   6.268   6.402   2.509
 2758SOL    HW2 9174   6.330   6.553   2.522
 2759SOL     OW 9175   3.134   4.382   6.083
 2759SOL    HW1 9176   3.216   4.368   6.027
 2759SOL    HW2 9177   3.061   4.418   6.026
 2760SOL     OW 9178   5.408   6.046   3.295
 2760SOL    HW1 9179   5.315   6.078   3.276
 2760SOL    HW2 9180   5.434   6.071   3.389
 2761SOL     OW 9181   1.814   3.135   2.924
 2761SOL    HW1 9182   1.905   3.159   2.892
 2761SOL    HW2 9183   1.815   3.041   2.959
 2762SOL     OW 9184   2.541   2.524   0.252
 2762SOL    HW1 9185   2.588   2.569   0.176
 2762SOL    HW2 9186   2.452   2.490   0.221
 2763SOL     OW 9187   5.063   2.123   4.817
 2763SOL    HW1 9188   5.100   2.131   4.724
 2763SOL    HW2 9189   5.019   2.209   4.843
 2764SOL     OW 9190   1.379   3.744   2.135
 2764SOL    HW1 9191   1.309   3.709   2.197
 2764SOL    HW2 9192   1.457   3.778   2.187
 2765SOL     OW 9193   6.779   6.945   6.616
 2765SOL    HW1 9194   6.773   6.861   6.563
 2765SOL    HW2 9195   6.703   7.005   6.590
 2766SOL     OW 9196   4.959   1.301   6.831
 2766SOL    HW1 9197   5.021   1.372   6.796
 2766SOL    HW2 9198   5.011   1.217   6.845
 2767SOL     OW 9199   0.064   5.107   6.220
 2767SOL    HW1 9200   6.984   5.111   6.206
 2767SOL    HW2 9201   0.094   5.011   6.215
 2768SOL     OW 9202   4.505   0.075   1.134
 2768SOL    HW1 9203   4.575   0.011   1.164
 2768SOL    HW2 9204   4.421   0.059   1.187
 2769SOL     OW 9205   1.242   4.312   5.695
 2769SOL    HW1 9206   1.234   4.213   5.704
 2769SOL    HW2 9207   1.213   4.340   5.604
 2770SOL     OW 9208   2.930   6.615   0.844
 2770SOL    HW1 9209   2.999   6.687   0.853
 2770SOL    HW2 9210   2.851   6.638   0.901
 2771SOL     OW 9211   4.721   0.131   4.288
 2771SOL    HW1 9212   4.811   0.155   4.252
 2771SOL    HW2 9213   4.654   0.200   4.260
 2772SOL     OW 9214   3.836   0.014   3.458
 2772SOL    HW1 9215   3.812   6.956   3.400
 2772SOL    HW2 9216   3.892   7.002   3.535
 2773SOL     OW 9217   5.783   2.667   4.486
 2773SOL    HW1 9218   5.691   2.629   4.484
 2773SOL    HW2 9219   5.804   2.709   4.398
 2774SOL     OW 9220   4.959   1.661   4.340
 2774SOL    HW1 9221   4.904   1.608   4.275
 2774SOL    HW2 9222   4.921   1.753   4.349
 2775SOL     OW 9223   0.821   3.680   4.087
 2775SOL    HW1 9224   0.868   3.632   4.161
 2775SOL    HW2 9225   0.750   3.621   4.049
 2776SOL     OW 9226   5.027   4.247   6.367
 2776SOL    HW1 9227   4.933   4.221   6.341
 2776SOL    HW2 9228   5.087   4.168   6.353
 2777SOL     OW 9229   3.211   2.066   6.282
 2777SOL    HW1 9230   3.273   2.079   6.359
 2777SOL    HW2 9231   3.117   2.061   6.316
 2778SOL     OW 9232   3.046   6.229   5.935
 2778SOL    HW1 9233   2.954   6.240   5.971
 2778SOL    HW2 9234   3.091   6.319   5.930
 2779SOL     OW 9235   5.746   0.153   1.218
 2779SOL    HW1 9236   5.771   0.067   1.173
 2779SOL    HW2 9237   5.823   0.186   1.272
 2780SOL     OW 9238   6.836   1.357   5.093
 2780SOL    HW1 9239   6.797   1.449   5.105
 2780SOL    HW2 9240   6.923   1.352   5.143
 2781SOL     OW 9241   5.976   0.740   3.003
 2781SOL    HW1 9242   5.944   0.816   3.059
 2781SOL    HW2 9243   5.968   0.655   3.055
 2782SOL     OW 9244   4.499   0.761   6.341
 2782SOL    HW1 9245   4.423   0.789   6.283
 2782SOL    HW2 9246   4.466   0.695   6.409
 2783SOL     OW 9247   5.637   4.415   1.830
 2783SOL    HW1 9248   5.710   4.429   1.762
 2783SOL    HW2 9249   5.549   4.436   1.788
 2784SOL     OW 9250   1.318   1.653   1.251
 2784SOL    HW1 9251   1.353   1.718   1.183
 2784SOL    HW2 9252   1.223   1.629   1.229
 2785SOL     OW 9253   5.765   2.647   1.577
 2785SOL    HW1 9254   5.683   2.666   1.524
 2785SOL    HW2 9255   5.770   2.548   1.595
 2786SOL     OW 9256   7.003   6.823   0.162
 2786SOL    HW1 9257   0.027   6.893   0.220
 2786SOL    HW2 9258   0.035   6.738   0.168
 2787SOL     OW 9259   6.492   4.901   6.372
 2787SOL    HW1 9260   6.456   4.932   6.460
 2787SOL    HW2 9261   6.469   4.967   6.301
 2788SOL     OW 9262   2.843   5.943   5.712
 2788SOL    HW1 9263   2.845   5.956   5.812
 2788SOL    HW2 9264   2.833   6.031   5.667
 2789SOL     OW 9265   1.332   2.488   5.575
 2789SOL    HW1 9266   1.243   2.487   5.620
 2789SOL    HW2 9267   1.374   2.398   5.582
 2790SOL     OW 9268   1.802   5.586   1.943
 2790SOL    HW1 9269   1.857   5.664   1.974
 2790SOL    HW2 9270   1.777   5.530   2.022
 2791SOL     OW 9271   0.356   3.743   2.856
 2791SOL    HW1 9272   0.310   3.831   2.857
 2791SOL    HW2 9273   0.289   3.669   2.857
 2792SOL     OW 9274   3.145   1.507   5.274
 2792SOL    HW1 9275   3.147   1.555   5.186
 2792SOL    HW2 9276   3.052   1.511   5.311
 2793SOL     OW 9277   3.439   4.159   0.990
 2793SOL    HW1 9278   3.387   4.173   1.075
 2793SOL    HW2 9279   3.415   4.231   0.925
 2794SOL     OW 9280   1.099   2.644   6.534
 2794SOL    HW1 9281   1.063   2.712   6.470
 2794SOL    HW2 9282   1.056   2.655   6.623
 2795SOL     OW 9283   1.036   4.788   1.419
 2795SOL    HW1 9284   1.047   4.884   1.392
 2795SOL    HW2 9285   1.085   4.729   1.355
 2796SOL     OW 9286   1.811   6.306   6.267
 2796SOL    HW1 9287   1.782   6.330   6.359
 2796SOL    HW2 9288   1.852   6.386   6.223
 2797SOL     OW 9289   5.460   0.037   3.539
 2797SOL    HW1 9290   5.490   7.013   3.625
 2797SOL    HW2 9291   5.465   6.990   3.465
 2798SOL     OW 9292   5.633   0.281   2.139
 2798SOL    HW1 9293   5.602   0.363   2.092
 2798SOL    HW2 9294   5.605   0.199   2.088
 2799SOL     OW 9295   3.196   5.989   5.199
 2799SOL    HW1 9296   3.217   6.024   5.107
 2799SOL    HW2 9297   3.191   5.889   5.196
 2800SOL     OW 9298   6.020   6.910   6.561
 2800SOL    HW1 9299   5.958   6.955   6.625
 2800SOL    HW2 9300   6.021   6.962   6.475
 2801SOL     OW 9301   0.639   4.624   5.070
 2801SOL    HW1 9302   0.651   4.691   5.143
 2801SOL    HW2 9303   0.681   4.537   5.098
 2802SOL     OW 9304   0.728   5.175   5.823
 2802SOL    HW1 9305   0.695   5.140   5.735
 2802SOL    HW2 9306   0.741   5.274   5.816
 2803SOL     OW 9307   4.083   2.719   6.550
 2803SOL    HW1 9308   4.163   2.684   6.598
 2803SOL    HW2 9309   4.035   2.643   6.506
 2804SOL     OW 9310   0.340   2.645   3.927
 2804SOL    HW1 9311   0.317   2.558   3.883
 2804SOL    HW2 9312   0.307   2.644   4.021
 2805SOL     OW 9313   4.485   3.383   1.264
 2805SOL    HW1 9314   4.522   3.371   1.171
 2805SOL    HW2 9315   4.498   3.299   1.316
 2806SOL     OW 9316   0.285   3.962   5.944
 2806SOL    HW1 9317   0.190   3.932   5.953
 2806SOL    HW2 9318   0.288   4.050   5.898
 2807SOL     OW 9319   3.342   0.177   3.691
 2807SOL    HW1 9320   3.371   0.256   3.744
 2807SOL    HW2 9321   3.420   0.141   3.640
 2808SOL     OW 9322   6.780   5.464   6.261
 2808SOL    HW1 9323   6.877   5.485   6.248
 2808SOL    HW2 9324   6.736   5.540   6.309
 2809SOL     OW 9325   6.885   5.267   1.958
 2809SOL    HW1 9326   6.881   5.169   1.978
 2809SOL    HW2 9327   6.930   5.314   2.033
 2810SOL     OW 9328   2.727   5.972   3.174
 2810SOL    HW1 9329   2.685   5.948   3.086
 2810SOL    HW2 9330   2.664   5.948   3.248
 2811SOL     OW 9331   0.712   0.703   1.619
 2811SOL    HW1 9332   0.681   0.786   1.572
 2811SOL    HW2 9333   0.632   0.655   1.657
 2812SOL     OW 9334   0.575   2.158   1.311
 2812SOL    HW1 9335   0.644   2.201   1.251
 2812SOL    HW2 9336   0.564   2.062   1.285
 2813SOL     OW 9337   0.977   2.209   1.785
 2813SOL    HW1 9338   1.022   2.292   1.819
 2813SOL    HW2 9339   1.005   2.131   1.840
 2814SOL     OW 9340   2.116   4.406   0.092
 2814SOL    HW1 9341   2.210   4.387   0.121
 2814SOL    HW2 9342   2.068   4.321   0.073
 2815SOL     OW 9343   0.300   5.078   5.328
 2815SOL    HW1 9344   0.310   5.142   5.404
 2815SOL    HW2 9345   0.309   4.984   5.361
 2816SOL     OW 9346   0.718   5.818   6.458
 2816SOL    HW1 9347   0.730   5.897   6.398
 2816SOL    HW2 9348   0.701   5.736   6.403
 2817SOL     OW 9349   4.265   0.826   1.715
 2817SOL    HW1 9350   4.171   0.822   1.682
 2817SOL    HW2 9351   4.270   0.882   1.797
 2818SOL     OW 9352   1.604   0.328   0.316
 2818SOL    HW1 9353   1.535   0.356   0.383
 2818SOL    HW2 9354   1.559   0.300   0.231
 2819SOL     OW 9355   0.716   0.932   0.281
 2819SOL    HW1 9356   0.709   0.844   0.329
 2819SOL    HW2 9357   0.802   0.935   0.229
 2820SOL     OW 9358   1.366   2.380   1.125
 2820SOL    HW1 9359   1.403   2.381   1.219
 2820SOL    HW2 9360   1.370   2.287   1.090
 2821SOL     OW 9361   2.754   3.627   6.127
 2821SOL    HW1 9362   2.749   3.568   6.047
 2821SOL    HW2 9363   2.674   3.688   6.128
 2822SOL     OW 9364   4.335   2.265   0.923
 2822SOL    HW1 9365   4.335   2.323   1.005
 2822SOL    HW2 9366   4.357   2.171   0.948
 2823SOL     OW 9367   5.498   2.099   1.455
 2823SOL    HW1 9368   5.508   2.133   1.549
 2823SOL    HW2 9369   5.543   2.010   1.447
 2824SOL     OW 9370   1.361   3.112   4.830
 2824SOL    HW1 9371   1.430   3.179   4.859
 2824SOL    HW2 9372   1.287   3.159   4.782
 2825SOL     OW 9373   5.099   1.395   5.912
 2825SOL    HW1 9374   5.127   1.311   5.866
 2825SOL    HW2 9375   5.164   1.468   5.891
 2826SOL     OW 9376   2.637   2.972   6.795
 2826SOL    HW1 9377   2.661   2.936   6.705
 2826SOL    HW2 9378   2.704   2.941   6.862
 2827SOL     OW 9379   6.522   0.912   6.612
 2827SOL    HW1 9380   6.425   0.915   6.586
 2827SOL    HW2 9381   6.529   0.912   6.712
 2828SOL     OW 9382   1.720   3.745   0.646
 2828SOL    HW1 9383   1.767   3.657   0.648
 2828SOL    HW2 9384   1.779   3.815   0.686
 2829SOL     OW 9385   3.102   4.050   2.977
 2829SOL    HW1 9386   3.074   4.049   3.073
 2829SOL    HW2 9387   3.059   4.128   2.930
 2830SOL     OW 9388   3.309   4.745   5.363
 2830SOL    HW1 9389   3.264   4.713   5.447
 2830SOL    HW2 9390   3.251   4.811   5.317
 2831SOL     OW 9391   5.881   1.735   1.498
 2831SOL    HW1 9392   5.828   1.777   1.571
 2831SOL    HW2 9393   5.820   1.687   1.436
 2832SOL     OW 9394   0.574   3.905   1.709
 2832SOL    HW1 9395   0.529   3.822   1.741
 2832SOL    HW2 9396   0.532   3.936   1.624
 2833SOL     OW 9397   2.297   2.448   2.251
 2833SOL    HW1 9398   2.293   2.527   2.312
 2833SOL    HW2 9399   2.371   2.461   2.185
 2834SOL     OW 9400   3.075   5.781   5.683
 2834SOL    HW1 9401   2.997   5.841   5.667
 2834SOL    HW2 9402   3.120   5.807   5.768
 2835SOL     OW 9403   6.973   0.300   0.652
 2835SOL    HW1 9404   6.909   0.249   0.710
 2835SOL    HW2 9405   0.001   0.237   0.591
 2836SOL     OW 9406   3.766   5.880   2.448
 2836SOL    HW1 9407   3.846   5.852   2.500
 2836SOL    HW2 9408   3.694   5.909   2.510
 2837SOL     OW 9409   5.029   4.373   1.997
 2837SOL    HW1 9410   4.938   4.332   2.008
 2837SOL    HW2 9411   5.081   4.361   2.082
 2838SOL     OW 9412   5.507   4.432   6.023
 2838SOL    HW1 9413   5.526   4.530   6.021
 2838SOL    HW2 9414   5.412   4.415   5.998
 2839SOL     OW 9415   5.723   2.749   5.020
 2839SOL    HW1 9416   5.700   2.769   5.115
 2839SOL    HW2 9417   5.822   2.754   5.008
 2840SOL     OW 9418   6.984   6.243   4.434
 2840SOL    HW1 9419   6.955   6.148   4.439
 2840SOL    HW2 9420   0.051   6.249   4.384
 2841SOL     OW 9421   6.460   3.432   2.177
 2841SOL    HW1 9422   6.552   3.470   2.177
 2841SOL    HW2 9423   6.393   3.505   2.187
 2842SOL     OW 9424   1.063   0.104   3.038
 2842SOL    HW1 9425   1.132   0.154   2.987
 2842SOL    HW2 9426   0.991   0.074   2.976
 2843SOL     OW 9427   1.861   2.951   3.328
 2843SOL    HW1 9428   1.868   3.049   3.346
 2843SOL    HW2 9429   1.928   2.902   3.384
 2844SOL     OW 9430   4.732   4.455   0.697
 2844SOL    HW1 9431   4.769   4.535   0.746
 2844SOL    HW2 9432   4.803   4.386   0.688
 2845SOL     OW 9433   3.375   2.123   3.291
 2845SOL    HW1 9434   3.422   2.211   3.284
 2845SOL    HW2 9435   3.295   2.123   3.232
 2846SOL     OW 9436   5.973   0.210   0.225
 2846SOL    HW1 9437   5.948   0.206   0.128
 2846SOL    HW2 9438   5.997   0.117   0.256
 2847SOL     OW 9439   4.641   5.112   1.784
 2847SOL    HW1 9440   4.681   5.082   1.871
 2847SOL    HW2 9441   4.616   5.032   1.730
 2848SOL     OW 9442   0.295   4.132   5.600
 2848SOL    HW1 9443   0.258   4.042   5.579
 2848SOL    HW2 9444   0.373   4.123   5.662
 2849SOL     OW 9445   5.092   0.263   2.370
 2849SOL    HW1 9446   5.126   0.307   2.287
 2849SOL    HW2 9447   4.994   0.246   2.361
 2850SOL     OW 9448   1.798   0.087   2.733
 2850SOL    HW1 9449   1.769   0.181   2.748
 2850SOL    HW2 9450   1.894   0.086   2.703
 2851SOL     OW 9451   3.787   3.562   0.781
 2851SOL    HW1 9452   3.774   3.526   0.873
 2851SOL    HW2 9453   3.738   3.504   0.715
 2852SOL     OW 9454   6.454   4.773   6.679
 2852SOL    HW1 9455   6.553   4.785   6.691
 2852SOL    HW2 9456   6.412   4.861   6.657
 2853SOL     OW 9457   0.099   4.047   6.292
 2853SOL    HW1 9458   0.074   4.120   6.228
 2853SOL    HW2 9459   0.074   3.959   6.253
 2854SOL     OW 9460   3.650   1.363   5.776
 2854SOL    HW1 9461   3.576   1.348   5.842
 2854SOL    HW2 9462   3.738   1.355   5.822
 2855SOL     OW 9463   2.069   1.350   5.593
 2855SOL    HW1 9464   2.090   1.430   5.648
 2855SOL    HW2 9465   2.086   1.267   5.647
 2856SOL     OW 9466   1.045   5.408   3.710
 2856SOL    HW1 9467   1.067   5.428   3.805
 2856SOL    HW2 9468   1.078   5.317   3.686
 2857SOL     OW 9469   0.336   3.720   0.041
 2857SOL    HW1 9470   0.369   3.628   0.064
 2857SOL    HW2 9471   0.244   3.733   0.079
 2858SOL     OW 9472   4.565   4.786   2.917
 2858SOL    HW1 9473   4.645   4.795   2.976
 2858SOL    HW2 9474   4.581   4.714   2.850
 2859SOL     OW 9475   5.169   4.497   1.035
 2859SOL    HW1 9476   5.163   4.513   1.133
 2859SOL    HW2 9477   5.146   4.581   0.986
 2860SOL     OW 9478   0.421   0.130   2.333
 2860SOL    HW1 9479   0.328   0.135   2.370
 2860SOL    HW2 9480   0.485   0.109   2.407
 2861SOL     OW 9481   4.600   5.380   6.124
 2861SOL    HW1 9482   4.677   5.321   6.147
 2861SOL    HW2 9483   4.632   5.456   6.067
 2862SOL     OW 9484   3.989   2.822   0.586
 2862SOL    HW1 9485   4.026   2.899   0.534
 2862SOL    HW2 9486   4.050   2.744   0.576
 2863SOL     OW 9487   5.434   6.571   5.142
 2863SOL    HW1 9488   5.511   6.567   5.078
 2863SOL    HW2 9489   5.462   6.616   5.226
 2864SOL     OW 9490   3.091   4.183   0.271
 2864SOL    HW1 9491   3.178   4.214   0.307
 2864SOL    HW2 9492   3.107   4.122   0.193
 2865SOL     OW 9493   5.390   5.494   4.176
 2865SOL    HW1 9494   5.291   5.497   4.164
 2865SOL    HW2 9495   5.422   5.583   4.207
 2866SOL     OW 9496   4.404   4.850   0.521
 2866SOL    HW1 9497   4.498   4.852   0.488
 2866SOL    HW2 9498   4.403   4.833   0.620
 2867SOL     OW 9499   5.494   6.316   1.789
 2867SOL    HW1 9500   5.561   6.363   1.847
 2867SOL    HW2 9501   5.515   6.335   1.693
 2868SOL     OW 9502   1.041   1.290   5.494
 2868SOL    HW1 9503   1.139   1.307   5.491
 2868SOL    HW2 9504   1.000   1.316   5.406
 2869SOL     OW 9505   5.993   5.331   4.511
 2869SOL    HW1 9506   6.039   5.283   4.585
 2869SOL    HW2 9507   6.043   5.416   4.490
 2870SOL     OW 9508   6.787   2.053   1.362
 2870SOL    HW1 9509   6.801   2.006   1.449
 2870SOL    HW2 9510   6.781   1.986   1.288
 2871SOL     OW 9511   5.331   1.584   1.256
 2871SOL    HW1 9512   5.304   1.494   1.222
 2871SOL    HW2 9513   5.389   1.630   1.189
 2872SOL     OW 9514   2.619   2.332   2.159
 2872SOL    HW1 9515   2.717   2.339   2.137
 2872SOL    HW2 9516   2.567   2.386   2.093
 2873SOL     OW 9517   1.281   6.254   1.209
 2873SOL    HW1 9518   1.357   6.256   1.145
 2873SOL    HW2 9519   1.196   6.273   1.161
 2874SOL     OW 9520   2.611   0.631   2.539
 2874SOL    HW1 9521   2.522   0.604   2.576
 2874SOL    HW2 9522   2.678   0.559   2.556
 2875SOL     OW 9523   2.820   6.705   2.991
 2875SOL    HW1 9524   2.737   6.667   3.032
 2875SOL    HW2 9525   2.892   6.636   2.991
 2876SOL     OW 9526   1.438   6.649   2.203
 2876SOL    HW1 9527   1.374   6.693   2.266
 2876SOL    HW2 9528   1.437   6.697   2.115
 2877SOL     OW 9529   1.255   1.836   6.625
 2877SOL    HW1 9530   1.255   1.934   6.641
 2877SOL    HW2 9531   1.232   1.818   6.529
 2878SOL     OW 9532   4.082   3.653   3.754
 2878SOL    HW1 9533   4.121   3.642   3.846
 2878SOL    HW2 9534   4.071   3.564   3.711
 2879SOL     OW 9535   4.187   3.517   0.436
 2879SOL    HW1 9536   4.139   3.589   0.386
 2879SOL    HW2 9537   4.252   3.560   0.500
 2880SOL     OW 9538   1.865   1.473   4.331
 2880SOL    HW1 9539   1.804   1.435   4.261
 2880SOL    HW2 9540   1.854   1.421   4.416
 2881SOL     OW 9541   4.848   6.214   6.543
 2881SOL    HW1 9542   4.788   6.147   6.498
 2881SOL    HW2 9543   4.942   6.199   6.513
 2882SOL     OW 9544   4.793   6.368   0.544
 2882SOL    HW1 9545   4.762   6.453   0.588
 2882SOL    HW2 9546   4.716   6.325   0.498
 2883SOL     OW 9547   6.095   5.872   3.839
 2883SOL    HW1 9548   6.184   5.848   3.801
 2883SOL    HW2 9549   6.096   5.858   3.938
 2884SOL     OW 9550   6.690   4.864   3.538
 2884SOL    HW1 9551   6.709   4.771   3.567
 2884SOL    HW2 9552   6.666   4.864   3.441
 2885SOL     OW 9553   0.947   2.941   3.170
 2885SOL    HW1 9554   0.977   2.978   3.082
 2885SOL    HW2 9555   0.998   2.984   3.243
 2886SOL     OW 9556   1.857   4.527   6.227
 2886SOL    HW1 9557   1.889   4.583   6.150
 2886SOL    HW2 9558   1.802   4.451   6.192
 2887SOL     OW 9559   0.460   5.743   3.947
 2887SOL    HW1 9560   0.425   5.681   3.877
 2887SOL    HW2 9561   0.384   5.782   3.999
 2888SOL     OW 9562   6.201   6.568   7.009
 2888SOL    HW1 9563   6.159   6.657   6.989
 2888SOL    HW2 9564   6.263   6.543   6.934
 2889SOL     OW 9565   3.384   6.389   2.841
 2889SOL    HW1 9566   3.292   6.379   2.803
 2889SOL    HW2 9567   3.412   6.485   2.837
 2890SOL     OW 9568   2.283   0.922   1.320
 2890SOL    HW1 9569   2.364   0.969   1.355
 2890SOL    HW2 9570   2.304   0.825   1.307
 2891SOL     OW 9571   0.743   1.754   4.579
 2891SOL    HW1 9572   0.772   1.762   4.483
 2891SOL    HW2 9573   0.767   1.664   4.614
 2892SOL     OW 9574   6.767   3.863   2.918
 2892SOL    HW1 9575   6.734   3.951   2.952
 2892SOL    HW2 9576   6.787   3.870   2.820
 2893SOL     OW 9577   6.873   5.230   4.491
 2893SOL    HW1 9578   6.875   5.132   4.511
 2893SOL    HW2 9579   6.894   5.281   4.574
 2894SOL     OW 9580   1.451   5.574   2.456
 2894SOL    HW1 9581   1.351   5.576   2.460
 2894SOL    HW2 9582   1.484   5.641   2.390
 2895SOL     OW 9583   4.058   6.796   6.334
 2895SOL    HW1 9584   4.059   6.708   6.286
 2895SOL    HW2 9585   4.070   6.781   6.432
 2896SOL     OW 9586   4.981   6.034   4.790
 2896SOL    HW1 9587   4.932   6.068   4.871
 2896SOL    HW2 9588   4.971   5.935   4.784
 2897SOL     OW 9589   3.651   4.986   3.315
 2897SOL    HW1 9590   3.720   4.920   3.287
 2897SOL    HW2 9591   3.683   5.036   3.396
 2898SOL     OW 9592   5.565   3.143   2.900
 2898SOL    HW1 9593   5.658   3.180   2.892
 2898SOL    HW2 9594   5.550   3.110   2.993
 2899SOL     OW 9595   0.127   3.557   0.996
 2899SOL    HW1 9596   0.125   3.647   1.040
 2899SOL    HW2 9597   0.083   3.489   1.055
 2900SOL     OW 9598   2.765   3.421   6.289
 2900SOL    HW1 9599   2.669   3.398   6.299
 2900SOL    HW2 9600   2.774   3.504   6.234
 2901SOL     OW 9601   0.964   3.983   3.763
 2901SOL    HW1 9602   0.956   4.012   3.859
 2901SOL    HW2 9603   0.975   3.883   3.760
 2902SOL     OW 9604   6.939   6.197   3.707
 2902SOL    HW1 9605   6.986   6.261   3.647
 2902SOL    HW2 9606   6.882   6.136   3.652
 2903SOL     OW 9607   4.313   5.451   0.513
 2903SOL    HW1 9608   4.296   5.504   0.430
 2903SOL    HW2 9609   4.295   5.508   0.594
 2904SOL     OW 9610   2.446   4.215   5.310
 2904SOL    HW1 9611   2.542   4.226   5.335
 2904SOL    HW2 9612   2.435   4.134   5.252
 2905SOL     OW 9613   0.757   5.704   1.658
 2905SOL    HW1 9614   0.845   5.678   1.698
 2905SOL    HW2 9615   0.768   5.787   1.604
 2906SOL     OW 9616   6.160   6.520   3.228
 2906SOL    HW1 9617   6.130   6.501   3.135
 2906SOL    HW2 9618   6.244   6.470   3.247
 2907SOL     OW 9619   0.239   1.186   3.823
 2907SOL    HW1 9620   0.241   1.094   3.863
 2907SOL    HW2 9621   0.324   1.234   3.847
 2908SOL     OW 9622   4.205   6.404   2.502
 2908SOL    HW1 9623   4.111   6.390   2.532
 2908SOL    HW2 9624   4.265   6.411   2.582
 2909SOL     OW 9625   0.702   5.986   2.681
 2909SOL    HW1 9626   0.777   6.045   2.655
 2909SOL    HW2 9627   0.735   5.916   2.744
 2910SOL     OW 9628   6.570   0.807   4.203
 2910SOL    HW1 9629   6.615   0.825   4.290
 2910SOL    HW2 9630   6.475   0.835   4.208
 2911SOL     OW 9631   6.455   4.067   4.778
 2911SOL    HW1 9632   6.547   4.029   4.788
 2911SOL    HW2 9633   6.390   3.993   4.764
 2912SOL     OW 9634   0.683   0.062   1.335
 2912SOL    HW1 9635   0.589   0.077   1.303
 2912SOL    HW2 9636   0.685   0.056   1.434
 2913SOL     OW 9637   2.633   6.673   1.246
 2913SOL    HW1 9638   2.608   6.576   1.252
 2913SOL    HW2 9639   2.663   6.705   1.335
 2914SOL     OW 9640   4.645   5.641   0.850
 2914SOL    HW1 9641   4.619   5.737   0.846
 2914SOL    HW2 9642   4.592   5.595   0.920
 2915SOL     OW 9643   2.763   0.318   2.517
 2915SOL    HW1 9644   2.780   0.357   2.426
 2915SOL    HW2 9645   2.760   0.219   2.511
 2916SOL     OW 9646   1.640   5.802   0.913
 2916SOL    HW1 9647   1.738   5.786   0.902
 2916SOL    HW2 9648   1.590   5.755   0.840
 2917SOL     OW 9649   2.306   6.082   4.320
 2917SOL    HW1 9650   2.244   6.160   4.326
 2917SOL    HW2 9651   2.385   6.097   4.379
 2918SOL     OW 9652   5.204   2.930   1.708
 2918SOL    HW1 9653   5.120   2.969   1.746
 2918SOL    HW2 9654   5.183   2.884   1.622
 2919SOL     OW 9655   0.997   5.818   4.448
 2919SOL    HW1 9656   1.079   5.784   4.493
 2919SOL    HW2 9657   0.930   5.745   4.441
 2920SOL     OW 9658   1.254   2.680   2.647
 2920SOL    HW1 9659   1.297   2.741   2.714
 2920SOL    HW2 9660   1.267   2.585   2.676
 2921SOL     OW 9661   1.446   0.379   4.300
 2921SOL    HW1 9662   1.370   0.411   4.244
 2921SOL    HW2 9663   1.523   0.355   4.241
 2922SOL     OW 9664   3.988   6.769   3.303
 2922SOL    HW1 9665   4.018   6.759   3.398
 2922SOL    HW2 9666   3.967   6.679   3.265
 2923SOL     OW 9667   6.628   5.919   4.858
 2923SOL    HW1 9668   6.716   5.954   4.824
 2923SOL    HW2 9669   6.555   5.980   4.830
 2924SOL     OW 9670   6.065   2.313   4.819
 2924SOL    HW1 9671   6.012   2.356   4.745
 2924SOL    HW2 9672   6.013   2.320   4.904
 2925SOL     OW 9673   4.948   6.999   6.118
 2925SOL    HW1 9674   5.023   0.042   6.098
 2925SOL    HW2 9675   4.879   7.005   6.045
 2926SOL     OW 9676   6.891   2.170   4.218
 2926SOL    HW1 9677   6.843   2.100   4.270
 2926SOL    HW2 9678   6.941   2.127   4.142
 2927SOL     OW 9679   1.102   2.443   1.852
 2927SOL    HW1 9680   1.082   2.418   1.946
 2927SOL    HW2 9681   1.126   2.540   1.848
 2928SOL     OW 9682   6.442   3.136   0.012
 2928SOL    HW1 9683   6.405   3.199   0.080
 2928SOL    HW2 9684   6.413   3.165   6.940
 2929SOL     OW 9685   2.588   2.420   4.844
 2929SOL    HW1 9686   2.542   2.509   4.841
 2929SOL    HW2 9687   2.609   2.390   4.751
 2930SOL     OW 9688   6.443   4.285   4.931
 2930SOL    HW1 9689   6.507   4.353   4.898
 2930SOL    HW2 9690   6.467   4.195   4.894
 2931SOL     OW 9691   5.077   4.345   5.532
 2931SOL    HW1 9692   5.040   4.433   5.504
 2931SOL    HW2 9693   5.007   4.295   5.584
 2932SOL     OW 9694   6.855   5.473   1.018
 2932SOL    HW1 9695   6.803   5.544   0.970
 2932SOL    HW2 9696   6.799   5.391   1.026
 2933SOL     OW 9697   1.521   0.546   1.006
 2933SOL    HW1 9698   1.498   0.551   0.909
 2933SOL    HW2 9699   1.596   0.610   1.026
 2934SOL     OW 9700   3.929   4.594   0.275
 2934SOL    HW1 9701   3.849   4.596   0.215
 2934SOL    HW2 9702   3.899   4.595   0.370
 2935SOL     OW 9703   7.015   2.286   6.229
 2935SOL    HW1 9704   6.964   2.215   6.277
 2935SOL    HW2 9705   0.070   2.320   6.287
 2936SOL     OW 9706   4.090   6.180   0.823
 2936SOL    HW1 9707   4.156   6.251   0.847
 2936SOL    HW2 9708   4.053   6.138   0.906
 2937SOL     OW 9709   4.266   5.229   2.503
 2937SOL    HW1 9710   4.267   5.152   2.439
 2937SOL    HW2 9711   4.311   5.201   2.589
 2938SOL     OW 9712   6.347   6.059   6.734
 2938SOL    HW1 9713   6.376   5.971   6.771
 2938SOL    HW2 9714   6.400   6.079   6.651
 2939SOL     OW 9715   0.549   5.592   1.846
 2939SOL    HW1 9716   0.629   5.637   1.805
 2939SOL    HW2 9717   0.508   5.653   1.914
 2940SOL     OW 9718   4.428   6.733   3.662
 2940SOL    HW1 9719   4.410   6.828   3.637
 2940SOL    HW2 9720   4.506   6.729   3.725
 2941SOL     OW 9721   1.623   3.783   3.853
 2941SOL    HW1 9722   1.710   3.827   3.872
 2941SOL    HW2 9723   1.636   3.684   3.846
 2942SOL     OW 9724   3.474   1.791   1.569
 2942SOL    HW1 9725   3.397   1.753   1.621
 2942SOL    HW2 9726   3.483   1.889   1.589
 2943SOL     OW 9727   6.151   3.990   3.321
 2943SOL    HW1 9728   6.210   3.964   3.245
 2943SOL    HW2 9729   6.189   4.071   3.367
 2944SOL     OW 9730   2.030   5.586   2.752
 2944SOL    HW1 9731   2.026   5.682   2.780
 2944SOL    HW2 9732   1.937   5.553   2.733
 2945SOL     OW 9733   5.142   4.340   1.757
 2945SOL    HW1 9734   5.062   4.386   1.717
 2945SOL    HW2 9735   5.122   4.319   1.853
 2946SOL     OW 9736   3.475   3.913   5.599
 2946SOL    HW1 9737   3.436   3.830   5.639
 2946SOL    HW2 9738   3.537   3.889   5.525
 2947SOL     OW 9739   6.577   6.651   0.701
 2947SOL    HW1 9740   6.551   6.570   0.648
 2947SOL    HW2 9741   6.511   6.724   0.686
 2948SOL     OW 9742   6.310   4.202   1.821
 2948SOL    HW1 9743   6.364   4.286   1.822
 2948SOL    HW2 9744   6.220   4.220   1.782
 2949SOL     OW 9745   1.399   0.251   0.834
 2949SOL    HW1 9746   1.304   0.220   0.830
 2949SOL    HW2 9747   1.428   0.255   0.930
 2950SOL     OW 9748   5.701   4.637   2.918
 2950SOL    HW1 9749   5.731   4.716   2.970
 2950SOL    HW2 9750   5.671   4.666   2.827
 2951SOL     OW 9751   6.818   1.123   1.919
 2951SOL    HW1 9752   6.842   1.031   1.953
 2951SOL    HW2 9753   6.719   1.134   1.921
 2952SOL     OW 9754   5.725   1.668   3.834
 2952SOL    HW1 9755   5.645   1.635   3.884
 2952SOL    HW2 9756   5.772   1.737   3.889
 2953SOL     OW 9757   0.839   5.490   4.207
 2953SOL    HW1 9758   0.796   5.559   4.148
 2953SOL    HW2 9759   0.821   5.399   4.171
 2954SOL     OW 9760   0.193   4.426   6.375
 2954SOL    HW1 9761   0.137   4.370   6.314
 2954SOL    HW2 9762   0.144   4.442   6.460
 2955SOL     OW 9763   2.119   4.667   6.419
 2955SOL    HW1 9764   2.067   4.639   6.339
 2955SOL    HW2 9765   2.201   4.716   6.390
 2956SOL     OW 9766   6.307   4.706   3.165
 2956SOL    HW1 9767   6.364   4.743   3.092
 2956SOL    HW2 9768   6.351   4.625   3.204
 2957SOL     OW 9769   2.521   5.063   0.978
 2957SOL    HW1 9770   2.582   5.005   1.032
 2957SOL    HW2 9771   2.551   5.158   0.985
 2958SOL     OW 9772   2.030   5.748   2.156
 2958SOL    HW1 9773   1.967   5.717   2.228
 2958SOL    HW2 9774   2.123   5.747   2.192
 2959SOL     OW 9775   0.158   3.574   2.966
 2959SOL    HW1 9776   0.148   3.620   3.054
 2959SOL    HW2 9777   0.207   3.487   2.979
 2960SOL     OW 9778   5.132   0.444   0.345
 2960SOL    HW1 9779   5.195   0.515   0.313
 2960SOL    HW2 9780   5.179   0.355   0.343
 2961SOL     OW 9781   5.428   4.319   2.145
 2961SOL    HW1 9782   5.402   4.312   2.241
 2961SOL    HW2 9783   5.526   4.302   2.136
 2962SOL     OW 9784   0.016   0.321   2.960
 2962SOL    HW1 9785   0.007   0.272   2.874
 2962SOL    HW2 9786   6.943   0.346   2.994
 2963SOL     OW 9787   2.274   1.137   4.747
 2963SOL    HW1 9788   2.278   1.117   4.649
 2963SOL    HW2 9789   2.357   1.184   4.775
 2964SOL     OW 9790   1.296   1.744   0.438
 2964SOL    HW1 9791   1.300   1.829   0.385
 2964SOL    HW2 9792   1.388   1.705   0.444
 2965SOL     OW 9793   0.619   6.796   5.079
 2965SOL    HW1 9794   0.585   6.876   5.029
 2965SOL    HW2 9795   0.570   6.789   5.166
 2966SOL     OW 9796   3.435   6.160   2.683
 2966SOL    HW1 9797   3.425   6.252   2.720
 2966SOL    HW2 9798   3.466   6.165   2.588
 2967SOL     OW 9799   5.290   6.836   5.270
 2967SOL    HW1 9800   5.247   6.892   5.340
 2967SOL    HW2 9801   5.358   6.776   5.313
 2968SOL     OW 9802   2.113   2.997   1.224
 2968SOL    HW1 9803   2.124   2.919   1.285
 2968SOL    HW2 9804   2.144   3.080   1.270
 2969SOL     OW 9805   4.974   3.312   4.384
 2969SOL    HW1 9806   5.007   3.402   4.356
 2969SOL    HW2 9807   5.051   3.248   4.387
 2970SOL     OW 9808   2.442   2.222   4.277
 2970SOL    HW1 9809   2.343   2.209   4.272
 2970SOL    HW2 9810   2.462   2.320   4.279
 2971SOL     OW 9811   5.470   2.639   6.481
 2971SOL    HW1 9812   5.470   2.663   6.384
 2971SOL    HW2 9813   5.451   2.542   6.492
 2972SOL     OW 9814   5.746   5.502   0.275
 2972SOL    HW1 9815   5.654   5.507   0.312
 2972SOL    HW2 9816   5.757   5.570   0.202
 2973SOL     OW 9817   4.923   1.533   2.753
 2973SOL    HW1 9818   4.943   1.615   2.700
 2973SOL    HW2 9819   4.879   1.560   2.839
 2974SOL     OW 9820   5.023   6.228   2.916
 2974SOL    HW1 9821   5.011   6.239   2.817
 2974SOL    HW2 9822   5.079   6.303   2.951
 2975SOL     OW 9823   4.771   4.025   3.420
 2975SOL    HW1 9824   4.850   4.008   3.479
 2975SOL    HW2 9825   4.687   4.010   3.471
 2976SOL     OW 9826   4.138   2.114   2.037
 2976SOL    HW1 9827   4.097   2.157   1.957
 2976SOL    HW2 9828   4.222   2.067   2.010
 2977SOL     OW 9829   1.408   0.893   1.579
 2977SOL    HW1 9830   1.430   0.976   1.529
 2977SOL    HW2 9831   1.335   0.843   1.530
 2978SOL     OW 9832   4.608   4.981   6.114
 2978SOL    HW1 9833   4.689   5.038   6.107
 2978SOL    HW2 9834   4.551   4.992   6.032
 2979SOL     OW 9835   3.396   0.594   3.671
 2979SOL    HW1 9836   3.427   0.512   3.720
 2979SOL    HW2 9837   3.325   0.639   3.724
 2980SOL     OW 9838   3.817   3.306   5.288
 2980SOL    HW1 9839   3.864   3.228   5.247
 2980SOL    HW2 9840   3.776   3.279   5.375
 2981SOL     OW 9841   1.808   1.154   1.397
 2981SOL    HW1 9842   1.842   1.064   1.423
 2981SOL    HW2 9843   1.884   1.218   1.389
 2982SOL     OW 9844   0.647   0.332   1.438
 2982SOL    HW1 9845   0.681   0.269   1.508
 2982SOL    HW2 9846   0.712   0.407   1.428
 2983SOL     OW 9847   6.142   3.284   5.724
 2983SOL    HW1 9848   6.080   3.346   5.677
 2983SOL    HW2 9849   6.197   3.334   5.791
 2984SOL     OW 9850   0.691   5.037   1.294
 2984SOL    HW1 9851   0.660   5.111   1.234
 2984SOL    HW2 9852   0.790   5.027   1.285
 2985SOL     OW 9853   0.148   0.060   5.601
 2985SOL    HW1 9854   0.239   0.055   5.560
 2985SOL    HW2 9855   0.157   0.065   5.701
 2986SOL     OW 9856   3.897   3.504   2.345
 2986SOL    HW1 9857   3.878   3.520   2.248
 2986SOL    HW2 9858   3.842   3.427   2.377
 2987SOL     OW 9859   2.035   0.137   4.756
 2987SOL    HW1 9860   2.074   0.166   4.668
 2987SOL    HW2 9861   1.971   0.206   4.788
 2988SOL     OW 9862   7.012   1.470   6.729
 2988SOL    HW1 9863   6.990   1.543   6.794
 2988SOL    HW2 9864   0.082   1.487   6.688
 2989SOL     OW 9865   4.884   3.755   4.337
 2989SOL    HW1 9866   4.891   3.790   4.430
 2989SOL    HW2 9867   4.919   3.661   4.334
 2990SOL     OW 9868   5.426   1.355   4.211
 2990SOL    HW1 9869   5.439   1.417   4.288
 2990SOL    HW2 9870   5.345   1.382   4.160
 2991SOL     OW 9871   0.136   4.222   1.411
 2991SOL    HW1 9872   0.160   4.246   1.505
 2991SOL    HW2 9873   0.218   4.228   1.354
 2992SOL     OW 9874   0.195   3.307   5.473
 2992SOL    HW1 9875   0.182   3.224   5.527
 2992SOL    HW2 9876   0.277   3.298   5.417
 2993SOL     OW 9877   1.039   4.315   0.490
 2993SOL    HW1 9878   1.123   4.304   0.544
 2993SOL    HW2 9879   0.970   4.362   0.544
 2994SOL     OW 9880   4.179   6.341   6.403
 2994SOL    HW1 9881   4.086   6.308   6.385
 2994SOL    HW2 9882   4.175   6.418   6.467
 2995SOL     OW 9883   5.216   0.525   1.268
 2995SOL    HW1 9884   5.214   0.547   1.366
 2995SOL    HW2 9885   5.152   0.584   1.219
 2996SOL     OW 9886   6.726   0.533   4.803
 2996SOL    HW1 9887   6.678   0.603   4.749
 2996SOL    HW2 9888   6.729   0.448   4.752
 2997SOL     OW 9889   5.424   6.972   4.108
 2997SOL    HW1 9890   5.414   0.051   4.091
 2997SOL    HW2 9891   5.515   6.942   4.079
 2998SOL     OW 9892   2.579   1.445   2.907
 2998SOL    HW1 9893   2.637   1.375   2.948
 2998SOL    HW2 9894   2.628   1.490   2.832
 2999SOL     OW 9895   2.174   4.349   0.781
 2999SOL    HW1 9896   2.155   4.275   0.846
 2999SOL    HW2 9897   2.239   4.317   0.712
 3000SOL     OW 9898   2.894   3.594   4.680
 3000SOL    HW1 9899   2.877   3.664   4.750
 3000SOL    HW2 9900   2.870   3.504   4.716
 3001SOL     OW 9901   5.553   0.628   5.815
 3001SOL    HW1 9902   5.458   0.659   5.808
 3001SOL    HW2 9903   5.557   0.544   5.868
 3002SOL     OW 9904   1.740   2.063   1.797
 3002SOL    HW1 9905   1.708   1.995   1.732
 3002SOL    HW2 9906   1.698   2.047   1.886
 3003SOL     OW 9907   1.501   6.255   0.786
 3003SOL    HW1 9908   1.506   6.177   0.848
 3003SOL    HW2 9909   1.593   6.277   0.753
 3004SOL     OW 9910   2.292   6.296   3.892
 3004SOL    HW1 9911   2.338   6.211   3.918
 3004SOL    HW2 9912   2.274   6.351   3.973
 3005SOL     OW 9913   0.910   2.172   6.159
 3005SOL    HW1 9914   0.890   2.241   6.229
 3005SOL    HW2 9915   0.935   2.217   6.074
 3006SOL     OW 9916   5.086   1.382   5.490
 3006SOL    HW1 9917   5.132   1.467   5.518
 3006SOL    HW2 9918   5.029   1.348   5.564
 3007SOL     OW 9919   5.318   5.612   6.960
 3007SOL    HW1 9920   5.375   5.677   7.010
 3007SOL    HW2 9921   5.235   5.658   6.928
 3008SOL     OW 9922   5.272   2.915   6.045
 3008SOL    HW1 9923   5.345   2.981   6.063
 3008SOL    HW2 9924   5.304   2.848   5.978
 3009SOL     OW 9925   0.034   3.507   2.357
 3009SOL    HW1 9926   0.083   3.539   2.276
 3009SOL    HW2 9927   0.045   3.574   2.431
 3010SOL     OW 9928   3.602   5.548   6.887
 3010SOL    HW1 9929   3.551   5.514   6.966
 3010SOL    HW2 9930   3.641   5.471   6.836
 3011SOL     OW 9931   6.406   7.018   1.189
 3011SOL    HW1 9932   6.412   7.011   1.288
 3011SOL    HW2 9933   6.498   0.011   1.151
 3012SOL     OW 9934   2.263   2.444   5.511
 3012SOL    HW1 9935   2.318   2.517   5.470
 3012SOL    HW2 9936   2.295   2.356   5.477
 3013SOL     OW 9937   0.945   4.323   5.318
 3013SOL    HW1 9938   0.924   4.242   5.264
 3013SOL    HW2 9939   0.949   4.299   5.415
 3014SOL     OW 9940   5.187   6.493   5.771
 3014SOL    HW1 9941   5.181   6.429   5.694
 3014SOL    HW2 9942   5.284   6.511   5.791
 3015SOL     OW 9943   1.398   0.973   6.921
 3015SOL    HW1 9944   1.329   1.046   6.912
 3015SOL    HW2 9945   1.459   0.974   6.842
 3016SOL     OW 9946   1.878   6.441   4.400
 3016SOL    HW1 9947   1.899   6.398   4.312
 3016SOL    HW2 9948   1.833   6.374   4.459
 3017SOL     OW 9949   0.360   5.351   0.863
 3017SOL    HW1 9950   0.436   5.414   0.881
 3017SOL    HW2 9951   0.396   5.258   0.852
 3018SOL     OW 9952   3.242   6.845   0.525
 3018SOL    HW1 9953   3.302   6.894   0.462
 3018SOL    HW2 9954   3.240   6.892   0.613
 3019SOL     OW 9955   2.098   0.618   5.521
 3019SOL    HW1 9956   2.130   0.619   5.426
 3019SOL    HW2 9957   2.094   0.523   5.553
 3020SOL     OW 9958   6.140   4.307   6.826
 3020SOL    HW1 9959   6.229   4.265   6.843
 3020SOL    HW2 9960   6.088   4.312   6.912
 3021SOL     OW 9961   4.416   0.044   4.692
 3021SOL    HW1 9962   4.455   7.002   4.622
 3021SOL    HW2 9963   4.380   0.126   4.648
 3022SOL     OW 9964   3.789   5.816   3.881
 3022SOL    HW1 9965   3.850   5.753   3.930
 3022SOL    HW2 9966   3.714   5.764   3.840
 3023SOL     OW 9967   4.916   5.967   3.412
 3023SOL    HW1 9968   4.989   6.034   3.404
 3023SOL    HW2 9969   4.949   5.878   3.379
 3024SOL     OW 9970   0.122   6.667   6.912
 3024SOL    HW1 9971   0.145   6.764   6.921
 3024SOL    HW2 9972   0.035   6.658   6.863
 3025SOL     OW 9973   3.469   5.495   0.117
 3025SOL    HW1 9974   3.381   5.479   0.161
 3025SOL    HW2 9975   3.527   5.414   0.129
 3026SOL     OW 9976   6.610   0.964   1.522
 3026SOL    HW1 9977   6.647   1.056   1.505
 3026SOL    HW2 9978   6.683   0.897   1.515
 3027SOL     OW 9979   4.981   1.297   1.491
 3027SOL    HW1 9980   4.966   1.302   1.393
 3027SOL    HW2 9981   4.978   1.390   1.530
 3028SOL     OW 9982   3.115   3.736   5.390
 3028SOL    HW1 9983   3.099   3.708   5.485
 3028SOL    HW2 9984   3.037   3.789   5.356
 3029SOL     OW 9985   0.315   3.109   4.656
 3029SOL    HW1 9986   0.414   3.113   4.643
 3029SOL    HW2 9987   0.289   3.015   4.681
 3030SOL     OW 9988   2.466   3.072   0.800
 3030SOL    HW1 9989   2.515   3.027   0.726
 3030SOL    HW2 9990   2.501   3.165   0.812
 3031SOL     OW 9991   1.217   6.623   0.902
 3031SOL    HW1 9992   1.221   6.682   0.983
 3031SOL    HW2 9993   1.310   6.596   0.876
 3032SOL     OW 9994   1.979   0.325   2.842
 3032SOL    HW1 9995   2.018   0.299   2.931
 3032SOL    HW2 9996   2.019   0.412   2.813
 3033SOL     OW 9997   6.863   2.211   5.020
 3033SOL    HW1 9998   6.882   2.240   4.926
 3033SOL    HW2 9999   6.826   2.288   5.072
 3034SOL     OW10000   6.708   5.036   3.239
 3034SOL    HW110001   6.617   5.077   3.240
 3034SOL    HW210002   6.701   4.940   3.213
 3035SOL     OW10003   1.473   2.967   6.712
 3035SOL    HW110004   1.475   2.996   6.807
 3035SOL    HW210005   1.523   3.033   6.655
 3036SOL     OW10006   3.583   2.259   6.475
 3036SOL    HW110007   3.494   2.304   6.478
 3036SOL    HW210008   3.605   2.235   6.380
 3037SOL     OW10009   0.252   5.776   6.987
 3037SOL    HW110010   0.280   5.773   0.064
 3037SOL    HW210011   0.195   5.697   6.967
 3038SOL     OW10012   5.807   4.569   6.802
 3038SOL    HW110013   5.849   4.655   6.772
 3038SOL    HW210014   5.810   4.564   6.902
 3039SOL     OW10015   6.751   3.902   6.312
 3039SOL    HW110016   6.850   3.892   6.303
 3039SOL    HW210017   6.717   3.840   6.383
 3040SOL     OW10018   4.854   4.313   5.994
 3040SOL    HW110019   4.943   4.270   6.004
 3040SOL    HW210020   4.824   4.308   5.899
 3041SOL     OW10021   1.695   4.606   5.632
 3041SOL    HW110022   1.632   4.666   5.582
 3041SOL    HW210023   1.739   4.543   5.568
 3042SOL     OW10024   6.942   5.011   3.382
 3042SOL    HW110025   6.934   5.011   3.482
 3042SOL    HW210026   6.853   5.028   3.341
 3043SOL     OW10027   2.844   4.688   0.565
 3043SOL    HW110028   2.829   4.787   0.565
 3043SOL    HW210029   2.867   4.658   0.472
 3044SOL     OW10030   3.693   3.381   4.985
 3044SOL    HW110031   3.710   3.404   5.080
 3044SOL    HW210032   3.696   3.464   4.929
 3045SOL     OW10033   4.540   1.712   2.073
 3045SOL    HW110034   4.604   1.735   2.147
 3045SOL    HW210035   4.571   1.755   1.989
 3046SOL     OW10036   5.435   6.220   0.927
 3046SOL    HW110037   5.473   6.294   0.982
 3046SOL    HW210038   5.378   6.257   0.854
 3047SOL     OW10039   5.447   1.459   4.965
 3047SOL    HW110040   5.417   1.518   5.040
 3047SOL    HW210041   5.546   1.446   4.970
 3048SOL     OW10042   3.653   4.366   0.896
 3048SOL    HW110043   3.579   4.415   0.941
 3048SOL    HW210044   3.637   4.366   0.797
 3049SOL     OW10045   1.632   1.131   3.458
 3049SOL    HW110046   1.627   1.219   3.503
 3049SOL    HW210047   1.726   1.097   3.462
 3050SOL     OW10048   3.063   2.189   1.073
 3050SOL    HW110049   3.008   2.254   1.020
 3050SOL    HW210050   3.135   2.152   1.015
 3051SOL     OW10051   2.211   5.289   5.488
 3051SOL    HW110052   2.164   5.238   5.416
 3051SOL    HW210053   2.159   5.282   5.573
 3052SOL     OW10054   6.916   6.749   2.009
 3052SOL    HW110055   6.911   6.844   1.979
 3052SOL    HW210056   6.897   6.744   2.107
 3053SOL     OW10057   1.025   4.168   0.027
 3053SOL    HW110058   0.987   4.175   0.119
 3053SOL    HW210059   0.956   4.128   6.985
 3054SOL     OW10060   5.464   1.063   2.537
 3054SOL    HW110061   5.555   1.039   2.570
 3054SOL    HW210062   5.432   0.992   2.474
 3055SOL     OW10063   5.840   5.993   6.824
 3055SOL    HW110064   5.807   6.070   6.768
 3055SOL    HW210065   5.938   6.005   6.842
 3056SOL     OW10066   4.855   1.511   5.326
 3056SOL    HW110067   4.927   1.494   5.393
 3056SOL    HW210068   4.814   1.424   5.298
 3057SOL     OW10069   5.638   4.287   3.540
 3057SOL    HW110070   5.593   4.242   3.463
 3057SOL    HW210071   5.737   4.273   3.534
 3058SOL     OW10072   0.280   4.561   6.847
 3058SOL    HW110073   0.222   4.493   6.804
 3058SOL    HW210074   0.258   4.652   6.811
 3059SOL     OW10075   1.981   2.158   3.913
 3059SOL    HW110076   1.893   2.132   3.952
 3059SOL    HW210077   1.987   2.125   3.819
 3060SOL     OW10078   5.095   5.161   5.163
 3060SOL    HW110079   4.999   5.149   5.186
 3060SOL    HW210080   5.147   5.081   5.192
 3061SOL     OW10081   5.313   5.788   4.926
 3061SOL    HW110082   5.233   5.729   4.914
 3061SOL    HW210083   5.368   5.789   4.842
 3062SOL     OW10084   4.348   4.430   1.367
 3062SOL    HW110085   4.394   4.429   1.278
 3062SOL    HW210086   4.346   4.523   1.403
 3063SOL     OW10087   0.540   4.471   1.936
 3063SOL    HW110088   0.574   4.380   1.913
 3063SOL    HW210089   0.460   4.492   1.880
 3064SOL     OW10090   4.914   2.007   6.294
 3064SOL    HW110091   5.012   2.015   6.313
 3064SOL    HW210092   4.901   1.940   6.220
 3065SOL     OW10093   6.629   1.189   6.747
 3065SOL    HW110094   6.674   1.186   6.658
 3065SOL    HW210095   6.586   1.278   6.759
 3066SOL     OW10096   4.990   6.251   5.814
 3066SOL    HW110097   5.008   6.333   5.868
 3066SOL    HW210098   5.022   6.266   5.720
 3067SOL     OW10099   1.585   2.017   5.970
 3067SOL    HW110100   1.506   1.986   5.917
 3067SOL    HW210101   1.569   1.997   6.067
 3068SOL     OW10102   0.552   1.038   0.509
 3068SOL    HW110103   0.622   1.005   0.446
 3068SOL    HW210104   0.583   1.028   0.603
 3069SOL     OW10105   5.273   6.941   2.591
 3069SOL    HW110106   5.300   6.887   2.672
 3069SOL    HW210107   5.175   6.932   2.576
 3070SOL     OW10108   2.530   0.678   0.926
 3070SOL    HW110109   2.433   0.656   0.920
 3070SOL    HW210110   2.559   0.723   0.842
 3071SOL     OW10111   6.506   3.889   4.287
 3071SOL    HW110112   6.410   3.911   4.306
 3071SOL    HW210113   6.548   3.849   4.368
 3072SOL     OW10114   1.923   0.560   6.576
 3072SOL    HW110115   1.983   0.551   6.497
 3072SOL    HW210116   1.951   0.495   6.647
 3073SOL     OW10117   6.233   4.977   1.176
 3073SOL    HW110118   6.319   5.028   1.167
 3073SOL    HW210119   6.171   5.027   1.236
 3074SOL     OW10120   2.149   3.227   1.828
 3074SOL    HW110121   2.216   3.198   1.760
 3074SOL    HW210122   2.155   3.326   1.842
 3075SOL     OW10123   3.666   5.605   2.199
 3075SOL    HW110124   3.719   5.600   2.113
 3075SOL    HW210125   3.580   5.556   2.188
 3076SOL     OW10126   0.664   0.417   5.125
 3076SOL    HW110127   0.675   0.318   5.128
 3076SOL    HW210128   0.750   0.461   5.150
 3077SOL     OW10129   6.827   3.894   2.433
 3077SOL    HW110130   6.873   3.915   2.520
 3077SOL    HW210131   6.813   3.796   2.425
 3078SOL     OW10132   6.870   3.454   1.921
 3078SOL    HW110133   6.847   3.472   1.825
 3078SOL    HW210134   6.948   3.392   1.925
 3079SOL     OW10135   2.182   3.454   5.327
 3079SOL    HW110136   2.138   3.399   5.256
 3079SOL    HW210137   2.279   3.430   5.332
 3080SOL     OW10138   4.052   5.060   0.550
 3080SOL    HW110139   4.077   4.980   0.605
 3080SOL    HW210140   3.967   5.043   0.501
 3081SOL     OW10141   1.349   3.657   0.208
 3081SOL    HW110142   1.404   3.738   0.187
 3081SOL    HW210143   1.291   3.676   0.287
 3082SOL     OW10144   4.513   4.874   4.448
 3082SOL    HW110145   4.430   4.850   4.498
 3082SOL    HW210146   4.505   4.842   4.353
 3083SOL     OW10147   3.376   6.159   1.829
 3083SOL    HW110148   3.315   6.122   1.759
 3083SOL    HW210149   3.470   6.133   1.808
 3084SOL     OW10150   0.503   3.392   4.121
 3084SOL    HW110151   0.511   3.486   4.155
 3084SOL    HW210152   0.548   3.386   4.031
 3085SOL     OW10153   5.297   4.597   0.606
 3085SOL    HW110154   5.373   4.558   0.657
 3085SOL    HW210155   5.211   4.567   0.646
 3086SOL     OW10156   6.030   6.855   6.221
 3086SOL    HW110157   6.100   6.896   6.279
 3086SOL    HW210158   5.964   6.805   6.277
 3087SOL     OW10159   3.366   6.689   1.752
 3087SOL    HW110160   3.361   6.636   1.837
 3087SOL    HW210161   3.323   6.778   1.765
 3088SOL     OW10162   1.846   2.796   5.897
 3088SOL    HW110163   1.757   2.813   5.940
 3088SOL    HW210164   1.847   2.839   5.807
 3089SOL     OW10165   3.817   6.523   5.018
 3089SOL    HW110166   3.744   6.511   5.086
 3089SOL    HW210167   3.788   6.486   4.930
 3090SOL     OW10168   1.362   2.323   2.366
 3090SOL    HW110169   1.369   2.320   2.267
 3090SOL    HW210170   1.445   2.362   2.405
 3091SOL     OW10171   0.975   2.098   1.255
 3091SOL    HW110172   1.008   2.189   1.279
 3091SOL    HW210173   1.050   2.045   1.216
 3092SOL     OW10174   5.979   1.203   2.684
 3092SOL    HW110175   5.940   1.232   2.771
 3092SOL    HW210176   5.932   1.248   2.609
 3093SOL     OW10177   5.757   5.183   0.215
 3093SOL    HW110178   5.682   5.154   0.156
 3093SOL    HW210179   5.782   5.278   0.193
 3094SOL     OW10180   2.713   1.915   6.838
 3094SOL    HW110181   2.766   1.990   6.799
 3094SOL    HW210182   2.618   1.944   6.851
 3095SOL     OW10183   1.688   3.663   4.971
 3095SOL    HW110184   1.647   3.653   4.881
 3095SOL    HW210185   1.760   3.594   4.983
 3096SOL     OW10186   0.818   3.236   4.468
 3096SOL    HW110187   0.828   3.335   4.474
 3096SOL    HW210188   0.760   3.213   4.390
 3097SOL     OW10189   5.382   2.922   5.383
 3097SOL    HW110190   5.411   2.986   5.455
 3097SOL    HW210191   5.373   2.831   5.423
 3098SOL     OW10192   1.885   2.929   2.111
 3098SOL    HW110193   1.815   2.995   2.135
 3098SOL    HW210194   1.976   2.967   2.128
 3099SOL     OW10195   0.565   5.980   4.308
 3099SOL    HW110196   0.634   6.042   4.270
 3099SOL    HW210197   0.478   6.028   4.316
 3100SOL     OW10198   6.449   5.277   2.202
 3100SOL    HW110199   6.442   5.184   2.167
 3100SOL    HW210200   6.545   5.306   2.201
 3101SOL     OW10201   3.102   6.526   5.446
 3101SOL    HW110202   3.174   6.516   5.378
 3101SOL    HW210203   3.016   6.489   5.410
 3102SOL     OW10204   7.014   5.080   0.955
 3102SOL    HW110205   0.011   5.150   0.886
 3102SOL    HW210206   0.079   5.063   1.006
 3103SOL     OW10207   3.268   0.967   1.231
 3103SOL    HW110208   3.201   0.892   1.236
 3103SOL    HW210209   3.350   0.935   1.184
 3104SOL     OW10210   5.119   1.006   5.471
 3104SOL    HW110211   5.182   1.070   5.515
 3104SOL    HW210212   5.157   0.978   5.383
 3105SOL     OW10213   6.126   3.995   0.501
 3105SOL    HW110214   6.165   4.067   0.558
 3105SOL    HW210215   6.199   3.945   0.455
 3106SOL     OW10216   6.216   0.345   6.056
 3106SOL    HW110217   6.305   0.347   6.009
 3106SOL    HW210218   6.159   0.275   6.015
 3107SOL     OW10219   3.821   1.305   5.955
 3107SOL    HW110220   3.873   1.220   5.963
 3107SOL    HW210221   3.785   1.330   6.045
 3108SOL     OW10222   2.343   4.326   3.927
 3108SOL    HW110223   2.409   4.376   3.872
 3108SOL    HW210224   2.340   4.230   3.897
 3109SOL     OW10225   6.424   5.970   4.190
 3109SOL    HW110226   6.470   5.886   4.161
 3109SOL    HW210227   6.417   6.033   4.113
 3110SOL     OW10228   0.753   4.446   3.132
 3110SOL    HW110229   0.661   4.408   3.121
 3110SOL    HW210230   0.749   4.530   3.185
 3111SOL     OW10231   5.821   4.520   4.173
 3111SOL    HW110232   5.824   4.594   4.241
 3111SOL    HW210233   5.734   4.472   4.181
 3112SOL     OW10234   4.318   2.001   6.264
 3112SOL    HW110235   4.374   2.083   6.272
 3112SOL    HW210236   4.295   1.985   6.168
 3113SOL     OW10237   2.545   5.901   3.363
 3113SOL    HW110238   2.564   5.808   3.391
 3113SOL    HW210239   2.541   5.961   3.443
 3114SOL     OW10240   4.714   1.161   6.017
 3114SOL    HW110241   4.696   1.182   6.113
 3114SOL    HW210242   4.698   1.243   5.962
 3115SOL     OW10243   4.759   5.448   4.991
 3115SOL    HW110244   4.857   5.435   4.973
 3115SOL    HW210245   4.743   5.542   5.021
 3116SOL     OW10246   0.802   1.203   1.185
 3116SOL    HW110247   0.741   1.264   1.236
 3116SOL    HW210248   0.768   1.192   1.092
 3117SOL     OW10249   5.122   1.158   5.795
 3117SOL    HW110250   5.043   1.196   5.745
 3117SOL    HW210251   5.201   1.157   5.734
 3118SOL     OW10252   1.444   0.936   3.455
 3118SOL    HW110253   1.531   0.984   3.440
 3118SOL    HW210254   1.421   0.883   3.374
 3119SOL     OW10255   4.155   4.975   5.417
 3119SOL    HW110256   4.251   4.952   5.428
 3119SOL    HW210257   4.098   4.898   5.447
 3120SOL     OW10258   1.599   6.201   5.395
 3120SOL    HW110259   1.631   6.185   5.488
 3120SOL    HW210260   1.676   6.232   5.338
 3121SOL     OW10261   4.377   1.536   4.527
 3121SOL    HW110262   4.319   1.617   4.522
 3121SOL    HW210263   4.348   1.469   4.458
 3122SOL     OW10264   4.565   5.571   4.419
 3122SOL    HW110265   4.592   5.663   4.391
 3122SOL    HW210266   4.622   5.541   4.495
 3123SOL     OW10267   2.252   1.462   3.747
 3123SOL    HW110268   2.239   1.383   3.807
 3123SOL    HW210269   2.274   1.542   3.802
 3124SOL     OW10270   4.790   6.654   3.550
 3124SOL    HW110271   4.757   6.742   3.583
 3124SOL    HW210272   4.717   6.586   3.557
 3125SOL     OW10273   1.285   1.326   5.212
 3125SOL    HW110274   1.190   1.342   5.186
 3125SOL    HW210275   1.345   1.358   5.139
 3126SOL     OW10276   5.319   5.473   5.259
 3126SOL    HW110277   5.294   5.504   5.351
 3126SOL    HW210278   5.245   5.494   5.195
 3127SOL     OW10279   0.614   0.807   5.122
 3127SOL    HW110280   0.618   0.902   5.152
 3127SOL    HW210281   0.575   0.751   5.194
 3128SOL     OW10282   4.552   0.717   0.146
 3128SOL    HW110283   4.528   0.638   0.202
 3128SOL    HW210284   4.648   0.711   0.120
 3129SOL     OW10285   4.634   3.836   0.446
 3129SOL    HW110286   4.661   3.923   0.405
 3129SOL    HW210287   4.678   3.825   0.535
 3130SOL     OW10288   0.774   4.169   2.150
 3130SOL    HW110289   0.714   4.184   2.071
 3130SOL    HW210290   0.846   4.238   2.152
 3131SOL     OW10291   6.514   4.090   3.026
 3131SOL    HW110292   6.516   4.045   3.116
 3131SOL    HW210293   6.439   4.156   3.024
 3132SOL     OW10294   4.449   4.974   6.884
 3132SOL    HW110295   4.461   4.879   6.912
 3132SOL    HW210296   4.437   4.979   6.785
 3133SOL     OW10297   3.956   0.380   4.142
 3133SOL    HW110298   3.906   0.374   4.229
 3133SOL    HW210299   3.990   0.290   4.118
 3134SOL     OW10300   4.617   5.131   3.072
 3134SOL    HW110301   4.634   5.082   2.987
 3134SOL    HW210302   4.608   5.228   3.053
 3135SOL     OW10303   4.542   6.252   6.862
 3135SOL    HW110304   4.467   6.267   6.798
 3135SOL    HW210305   4.606   6.330   6.856
 3136SOL     OW10306   6.498   2.034   2.566
 3136SOL    HW110307   6.469   2.130   2.564
 3136SOL    HW210308   6.566   2.021   2.638
 3137SOL     OW10309   5.818   6.977   6.754
 3137SOL    HW110310   5.813   6.906   6.824
 3137SOL    HW210311   5.736   0.015   6.758
 3138SOL     OW10312   5.462   5.488   3.596
 3138SOL    HW110313   5.512   5.574   3.589
 3138SOL    HW210314   5.426   5.478   3.689
 3139SOL     OW10315   2.748   4.931   1.669
 3139SOL    HW110316   2.764   5.020   1.711
 3139SOL    HW210317   2.655   4.926   1.634
 3140SOL     OW10318   0.132   0.019   6.485
 3140SOL    HW110319   0.096   0.010   6.578
 3140SOL    HW210320   0.144   0.116   6.463
 3141SOL     OW10321   6.475   2.475   6.087
 3141SOL    HW110322   6.537   2.397   6.092
 3141SOL    HW210323   6.455   2.507   6.180
 3142SOL     OW10324   4.870   1.278   2.783
 3142SOL    HW110325   4.773   1.277   2.810
 3142SOL    HW210326   4.896   1.371   2.757
 3143SOL     OW10327   5.938   1.099   0.321
 3143SOL    HW110328   5.892   1.168   0.376
 3143SOL    HW210329   5.938   1.128   0.225
 3144SOL     OW10330   4.052   3.863   6.316
 3144SOL    HW110331   4.090   3.791   6.373
 3144SOL    HW210332   3.996   3.925   6.372
 3145SOL     OW10333   0.727   6.169   1.210
 3145SOL    HW110334   0.714   6.079   1.252
 3145SOL    HW210335   0.687   6.239   1.269
 3146SOL     OW10336   0.638   0.144   5.081
 3146SOL    HW110337   0.573   0.076   5.045
 3146SOL    HW210338   0.729   0.103   5.087
 3147SOL     OW10339   3.925   5.137   0.022
 3147SOL    HW110340   3.834   5.122   0.059
 3147SOL    HW210341   3.920   5.145   6.941
 3148SOL     OW10342   6.808   5.073   2.677
 3148SOL    HW110343   6.755   5.051   2.759
 3148SOL    HW210344   6.745   5.089   2.601
 3149SOL     OW10345   3.025   1.454   0.521
 3149SOL    HW110346   3.087   1.528   0.548
 3149SOL    HW210347   2.955   1.443   0.591
 3150SOL     OW10348   6.872   6.014   4.750
 3150SOL    HW110349   6.944   6.079   4.774
 3150SOL    HW210350   6.910   5.921   4.751
 3151SOL     OW10351   6.526   1.746   5.535
 3151SOL    HW110352   6.544   1.818   5.468
 3151SOL    HW210353   6.526   1.657   5.489
 3152SOL     OW10354   1.275   3.129   6.455
 3152SOL    HW110355   1.333   3.207   6.432
 3152SOL    HW210356   1.179   3.156   6.447
 3153SOL     OW10357   6.614   5.319   1.223
 3153SOL    HW110358   6.640   5.338   1.318
 3153SOL    HW210359   6.689   5.273   1.176
 3154SOL     OW10360   4.929   1.606   6.926
 3154SOL    HW110361   4.922   1.519   6.975
 3154SOL    HW210362   5.016   1.650   6.948
 3155SOL     OW10363   0.552   5.190   1.114
 3155SOL    HW110364   0.556   5.286   1.141
 3155SOL    HW210365   0.531   5.184   1.016
 3156SOL     OW10366   3.627   4.207   1.873
 3156SOL    HW110367   3.627   4.295   1.826
 3156SOL    HW210368   3.722   4.181   1.893
 3157SOL     OW10369   0.727   1.517   5.279
 3157SOL    HW110370   0.654   1.586   5.279
 3157SOL    HW210371   0.795   1.541   5.348
 3158SOL     OW10372   2.069   1.096   5.708
 3158SOL    HW110373   2.113   1.101   5.798
 3158SOL    HW210374   2.051   1.001   5.686
 3159SOL     OW10375   6.342   6.764   0.577
 3159SOL    HW110376   6.304   6.855   0.598
 3159SOL    HW210377   6.281   6.717   0.513
 3160SOL     OW10378   1.846   0.957   6.413
 3160SOL    HW110379   1.825   0.888   6.482
 3160SOL    HW210380   1.901   1.030   6.453
 3161SOL     OW10381   1.815   2.572   2.612
 3161SOL    HW110382   1.811   2.653   2.553
 3161SOL    HW210383   1.885   2.510   2.577
 3162SOL     OW10384   1.799   5.528   0.942
 3162SOL    HW110385   1.717   5.508   0.995
 3162SOL    HW210386   1.847   5.607   0.982
 3163SOL     OW10387   3.927   3.856   0.100
 3163SOL    HW110388   3.976   3.943   0.095
 3163SOL    HW210389   3.967   3.800   0.172
 3164SOL     OW10390   2.952   6.172   2.788
 3164SOL    HW110391   2.854   6.191   2.792
 3164SOL    HW210392   2.986   6.150   2.880
 3165SOL     OW10393   1.013   6.246   6.784
 3165SOL    HW110394   1.046   6.339   6.803
 3165SOL    HW210395   1.046   6.184   6.855
 3166SOL     OW10396   4.327   0.923   5.274
 3166SOL    HW110397   4.414   0.898   5.317
 3166SOL    HW210398   4.279   0.839   5.248
 3167SOL     OW10399   5.839   3.563   0.818
 3167SOL    HW110400   5.937   3.542   0.809
 3167SOL    HW210401   5.786   3.485   0.783
 3168SOL     OW10402   5.170   2.005   0.608
 3168SOL    HW110403   5.095   2.017   0.674
 3168SOL    HW210404   5.132   1.995   0.516
 3169SOL     OW10405   1.673   4.507   1.744
 3169SOL    HW110406   1.720   4.426   1.781
 3169SOL    HW210407   1.578   4.483   1.723
 3170SOL     OW10408   2.773   5.144   3.452
 3170SOL    HW110409   2.849   5.199   3.486
 3170SOL    HW210410   2.805   5.083   3.379
 3171SOL     OW10411   5.214   3.027   3.235
 3171SOL    HW110412   5.124   3.033   3.192
 3171SOL    HW210413   5.225   2.937   3.277
 3172SOL     OW10414   0.248   4.622   1.488
 3172SOL    HW110415   0.183   4.595   1.417
 3172SOL    HW210416   0.215   4.593   1.577
 3173SOL     OW10417   3.953   2.331   0.527
 3173SOL    HW110418   4.020   2.304   0.596
 3173SOL    HW210419   3.864   2.292   0.550
 3174SOL     OW10420   2.896   3.860   5.311
 3174SOL    HW110421   2.802   3.853   5.346
 3174SOL    HW210422   2.894   3.893   5.217
 3175SOL     OW10423   6.625   0.238   4.258
 3175SOL    HW110424   6.567   0.157   4.255
 3175SOL    HW210425   6.643   0.262   4.354
 3176SOL     OW10426   1.256   4.621   5.184
 3176SOL    HW110427   1.224   4.639   5.091
 3176SOL    HW210428   1.313   4.697   5.214
 3177SOL     OW10429   5.557   3.492   3.639
 3177SOL    HW110430   5.506   3.439   3.706
 3177SOL    HW210431   5.651   3.505   3.671
 3178SOL     OW10432   6.646   0.428   1.293
 3178SOL    HW110433   6.673   0.438   1.197
 3178SOL    HW210434   6.552   0.393   1.297
 3179SOL     OW10435   1.240   1.873   2.207
 3179SOL    HW110436   1.180   1.818   2.265
 3179SOL    HW210437   1.314   1.815   2.171
 3180SOL     OW10438   6.630   5.959   6.986
 3180SOL    HW110439   6.563   6.003   0.027
 3180SOL    HW210440   6.600   5.866   6.965
 3181SOL     OW10441   0.754   0.573   4.783
 3181SOL    HW110442   0.854   0.571   4.778
 3181SOL    HW210443   0.715   0.567   4.691
 3182SOL     OW10444   2.977   0.620   0.759
 3182SOL    HW110445   3.021   0.556   0.822
 3182SOL    HW210446   3.015   0.711   0.772
 3183SOL     OW10447   4.360   4.398   1.668
 3183SOL    HW110448   4.424   4.374   1.596
 3183SOL    HW210449   4.368   4.333   1.744
 3184SOL     OW10450   0.440   1.973   5.377
 3184SOL    HW110451   0.349   1.939   5.357
 3184SOL    HW210452   0.434   2.064   5.419
 3185SOL     OW10453   0.517   5.478   6.102
 3185SOL    HW110454   0.611   5.444   6.104
 3185SOL    HW210455   0.471   5.456   6.188
 3186SOL     OW10456   0.162   1.483   6.385
 3186SOL    HW110457   0.110   1.559   6.346
 3186SOL    HW210458   0.208   1.513   6.469
 3187SOL     OW10459   3.850   6.136   2.606
 3187SOL    HW110460   3.896   6.219   2.638
 3187SOL    HW210461   3.836   6.141   2.507
 3188SOL     OW10462   2.047   4.453   5.637
 3188SOL    HW110463   2.107   4.376   5.618
 3188SOL    HW210464   2.032   4.459   5.736
 3189SOL     OW10465   3.508   1.833   6.863
 3189SOL    HW110466   3.481   1.894   6.938
 3189SOL    HW210467   3.595   1.863   6.826
 3190SOL     OW10468   6.579   5.297   4.625
 3190SOL    HW110469   6.618   5.315   4.535
 3190SOL    HW210470   6.648   5.251   4.682
 3191SOL     OW10471   4.576   5.749   2.033
 3191SOL    HW110472   4.606   5.843   2.015
 3191SOL    HW210473   4.643   5.685   1.995
 3192SOL     OW10474   5.987   2.558   2.273
 3192SOL    HW110475   5.932   2.637   2.298
 3192SOL    HW210476   6.068   2.588   2.222
 3193SOL     OW10477   4.132   0.460   5.203
 3193SOL    HW110478   4.079   0.390   5.155
 3193SOL    HW210479   4.096   0.471   5.296
 3194SOL     OW10480   1.079   1.103   6.316
 3194SOL    HW110481   1.073   1.182   6.255
 3194SOL    HW210482   1.158   1.112   6.377
 3195SOL     OW10483   0.385   2.011   1.840
 3195SOL    HW110484   0.377   1.931   1.780
 3195SOL    HW210485   0.454   1.994   1.910
 3196SOL     OW10486   6.264   6.842   5.004
 3196SOL    HW110487   6.196   6.903   4.965
 3196SOL    HW210488   6.350   6.892   5.017
 3197SOL     OW10489   1.744   1.190   6.068
 3197SOL    HW110490   1.796   1.207   5.984
 3197SOL    HW210491   1.721   1.277   6.112
 3198SOL     OW10492   6.540   2.933   3.579
 3198SOL    HW110493   6.624   2.884   3.557
 3198SOL    HW210494   6.524   3.004   3.510
 3199SOL     OW10495   5.545   4.067   3.037
 3199SOL    HW110496   5.591   4.103   2.956
 3199SOL    HW210497   5.510   3.976   3.018
 3200SOL     OW10498   5.317   3.480   4.139
 3200SOL    HW110499   5.348   3.396   4.096
 3200SOL    HW210500   5.395   3.543   4.149
 3201SOL     OW10501   5.922   4.237   2.715
 3201SOL    HW110502   5.859   4.309   2.684
 3201SOL    HW210503   6.011   4.278   2.737
 3202SOL     OW10504   1.267   4.775   0.199
 3202SOL    HW110505   1.266   4.755   0.101
 3202SOL    HW210506   1.192   4.727   0.244
 3203SOL     OW10507   3.851   6.813   1.143
 3203SOL    HW110508   3.914   6.738   1.159
 3203SOL    HW210509   3.902   6.900   1.142
 3204SOL     OW10510   2.597   1.392   3.809
 3204SOL    HW110511   2.592   1.293   3.822
 3204SOL    HW210512   2.651   1.412   3.727
 3205SOL     OW10513   5.420   3.143   5.566
 3205SOL    HW110514   5.453   3.217   5.507
 3205SOL    HW210515   5.321   3.150   5.576
 3206SOL     OW10516   2.791   3.051   1.537
 3206SOL    HW110517   2.728   3.058   1.615
 3206SOL    HW210518   2.847   2.969   1.546
 3207SOL     OW10519   1.183   6.319   5.508
 3207SOL    HW110520   1.095   6.356   5.536
 3207SOL    HW210521   1.195   6.228   5.548
 3208SOL     OW10522   6.168   5.544   5.956
 3208SOL    HW110523   6.105   5.536   5.878
 3208SOL    HW210524   6.224   5.626   5.945
 3209SOL     OW10525   5.131   5.921   6.379
 3209SOL    HW110526   5.225   5.910   6.347
 3209SOL    HW210527   5.071   5.861   6.328
 3210SOL     OW10528   6.912   5.448   1.653
 3210SOL    HW110529   6.990   5.441   1.591
 3210SOL    HW210530   6.934   5.402   1.739
 3211SOL     OW10531   0.660   5.517   6.636
 3211SOL    HW110532   0.615   5.442   6.684
 3211SOL    HW210533   0.736   5.480   6.581
 3212SOL     OW10534   2.207   6.721   2.847
 3212SOL    HW110535   2.117   6.715   2.803
 3212SOL    HW210536   2.278   6.729   2.778
 3213SOL     OW10537   1.596   0.467   6.015
 3213SOL    HW110538   1.645   0.549   6.044
 3213SOL    HW210539   1.550   0.426   6.094
 3214SOL     OW10540   3.445   1.090   2.842
 3214SOL    HW110541   3.378   1.143   2.789
 3214SOL    HW210542   3.422   1.095   2.939
 3215SOL     OW10543   1.643   2.889   0.726
 3215SOL    HW110544   1.678   2.927   0.640
 3215SOL    HW210545   1.634   2.962   0.794
 3216SOL     OW10546   5.522   4.366   0.671
 3216SOL    HW110547   5.444   4.304   0.658
 3216SOL    HW210548   5.548   4.405   0.582
 3217SOL     OW10549   0.851   5.439   3.082
 3217SOL    HW110550   0.769   5.477   3.125
 3217SOL    HW210551   0.916   5.412   3.153
 3218SOL     OW10552   6.103   1.405   3.033
 3218SOL    HW110553   6.099   1.311   2.999
 3218SOL    HW210554   6.151   1.463   2.968
 3219SOL     OW10555   5.840   0.583   5.539
 3219SOL    HW110556   5.757   0.530   5.554
 3219SOL    HW210557   5.917   0.540   5.587
 3220SOL     OW10558   6.720   5.025   6.756
 3220SOL    HW110559   6.636   5.076   6.773
 3220SOL    HW210560   6.697   4.931   6.731
 3221SOL     OW10561   3.854   0.283   1.728
 3221SOL    HW110562   3.882   0.378   1.736
 3221SOL    HW210563   3.801   0.257   1.809
 3222SOL     OW10564   2.876   1.478   2.856
 3222SOL    HW110565   2.839   1.387   2.833
 3222SOL    HW210566   2.937   1.470   2.934
 3223SOL     OW10567   1.555   0.264   1.057
 3223SOL    HW110568   1.651   0.247   1.082
 3223SOL    HW210569   1.535   0.361   1.068
 3224SOL     OW10570   4.210   2.282   4.144
 3224SOL    HW110571   4.218   2.369   4.094
 3224SOL    HW210572   4.284   2.276   4.211
 3225SOL     OW10573   4.063   0.607   4.305
 3225SOL    HW110574   4.059   0.587   4.402
 3225SOL    HW210575   4.071   0.521   4.253
 3226SOL     OW10576   0.444   0.067   1.200
 3226SOL    HW110577   0.352   0.066   1.238
 3226SOL    HW210578   0.450   0.138   1.129
 3227SOL     OW10579   4.878   3.424   5.492
 3227SOL    HW110580   4.903   3.388   5.581
 3227SOL    HW210581   4.812   3.363   5.448
 3228SOL     OW10582   1.937   4.228   0.417
 3228SOL    HW110583   2.001   4.301   0.441
 3228SOL    HW210584   1.854   4.237   0.472
 3229SOL     OW10585   1.837   1.398   0.657
 3229SOL    HW110586   1.902   1.409   0.581
 3229SOL    HW210587   1.830   1.485   0.707
 3230SOL     OW10588   2.215   5.541   5.856
 3230SOL    HW110589   2.266   5.624   5.880
 3230SOL    HW210590   2.146   5.523   5.926
 3231SOL     OW10591   2.677   0.906   1.538
 3231SOL    HW110592   2.689   0.837   1.609
 3231SOL    HW210593   2.747   0.976   1.546
 3232SOL     OW10594   4.178   6.066   4.381
 3232SOL    HW110595   4.129   6.024   4.304
 3232SOL    HW210596   4.261   6.111   4.348
 3233SOL     OW10597   0.442   2.695   0.349
 3233SOL    HW110598   0.364   2.708   0.410
 3233SOL    HW210599   0.423   2.741   0.262
 3234SOL     OW10600   2.905   2.643   0.782
 3234SOL    HW110601   3.002   2.644   0.759
 3234SOL    HW210602   2.878   2.733   0.817
 3235SOL     OW10603   0.291   6.823   2.159
 3235SOL    HW110604   0.222   6.756   2.132
 3235SOL    HW210605   0.300   6.825   2.259
 3236SOL     OW10606   3.102   3.549   0.460
 3236SOL    HW110607   3.082   3.456   0.493
 3236SOL    HW210608   3.065   3.560   0.368
 3237SOL     OW10609   5.998   1.064   5.256
 3237SOL    HW110610   6.067   1.003   5.294
 3237SOL    HW210611   6.032   1.106   5.172
 3238SOL     OW10612   6.826   5.906   1.426
 3238SOL    HW110613   6.862   5.942   1.340
 3238SOL    HW210614   6.775   5.822   1.408
 3239SOL     OW10615   6.482   0.018   4.289
 3239SOL    HW110616   6.567   6.996   4.256
 3239SOL    HW210617   6.413   0.014   4.217
 3240SOL     OW10618   0.474   1.094   6.813
 3240SOL    HW110619   0.476   1.063   6.908
 3240SOL    HW210620   0.437   1.187   6.808
 3241SOL     OW10621   6.002   1.445   5.979
 3241SOL    HW110622   6.045   1.404   6.059
 3241SOL    HW210623   6.031   1.540   5.969
 3242SOL     OW10624   5.126   4.920   5.333
 3242SOL    HW110625   5.113   4.972   5.417
 3242SOL    HW210626   5.214   4.872   5.337
 3243SOL     OW10627   5.110   5.079   5.571
 3243SOL    HW110628   5.063   5.070   5.659
 3243SOL    HW210629   5.185   5.144   5.580
 3244SOL     OW10630   5.455   5.985   0.276
 3244SOL    HW110631   5.545   6.028   0.284
 3244SOL    HW210632   5.388   6.053   0.248
 3245SOL     OW10633   4.114   1.361   4.172
 3245SOL    HW110634   4.020   1.374   4.140
 3245SOL    HW210635   4.165   1.307   4.106
 3246SOL     OW10636   0.166   0.900   2.542
 3246SOL    HW110637   0.148   0.976   2.605
 3246SOL    HW210638   0.256   0.913   2.499
 3247SOL     OW10639   0.521   4.248   3.349
 3247SOL    HW110640   0.573   4.168   3.320
 3247SOL    HW210641   0.512   4.312   3.272
 3248SOL     OW10642   5.236   2.255   3.478
 3248SOL    HW110643   5.245   2.333   3.416
 3248SOL    HW210644   5.274   2.278   3.567
 3249SOL     OW10645   3.379   3.650   3.624
 3249SOL    HW110646   3.377   3.647   3.724
 3249SOL    HW210647   3.321   3.577   3.587
 3250SOL     OW10648   5.170   5.318   2.477
 3250SOL    HW110649   5.076   5.282   2.473
 3250SOL    HW210650   5.224   5.261   2.539
 3251SOL     OW10651   2.968   1.268   3.773
 3251SOL    HW110652   2.895   1.323   3.735
 3251SOL    HW210653   2.968   1.277   3.873
 3252SOL     OW10654   2.285   1.367   4.160
 3252SOL    HW110655   2.217   1.329   4.224
 3252SOL    HW210656   2.347   1.295   4.130
 3253SOL     OW10657   6.690   3.602   0.888
 3253SOL    HW110658   6.610   3.649   0.851
 3253SOL    HW210659   6.765   3.667   0.898
 3254SOL     OW10660   5.793   0.690   0.468
 3254SOL    HW110661   5.821   0.620   0.402
 3254SOL    HW210662   5.796   0.652   0.561
 3255SOL     OW10663   5.271   4.925   0.955
 3255SOL    HW110664   5.354   4.892   1.000
 3255SOL    HW210665   5.200   4.855   0.959
 3256SOL     OW10666   5.027   2.235   0.889
 3256SOL    HW110667   4.987   2.206   0.976
 3256SOL    HW210668   4.988   2.180   0.815
 3257SOL     OW10669   2.618   1.969   2.782
 3257SOL    HW110670   2.668   1.906   2.840
 3257SOL    HW210671   2.660   1.972   2.691
 3258SOL     OW10672   2.151   5.998   3.170
 3258SOL    HW110673   2.206   5.988   3.253
 3258SOL    HW210674   2.204   5.967   3.091
 3259SOL     OW10675   4.579   4.390   3.906
 3259SOL    HW110676   4.670   4.384   3.946
 3259SOL    HW210677   4.549   4.300   3.875
 3260SOL     OW10678   1.203   4.295   1.607
 3260SOL    HW110679   1.151   4.266   1.688
 3260SOL    HW210680   1.140   4.309   1.531
 3261SOL     OW10681   4.835   6.947   2.980
 3261SOL    HW110682   4.915   6.933   2.921
 3261SOL    HW210683   4.806   6.858   3.017
 3262SOL     OW10684   3.188   2.103   2.221
 3262SOL    HW110685   3.272   2.116   2.274
 3262SOL    HW210686   3.212   2.077   2.127
 3263SOL     OW10687   1.299   1.268   2.637
 3263SOL    HW110688   1.262   1.354   2.671
 3263SOL    HW210689   1.396   1.261   2.661
 3264SOL     OW10690   2.473   5.486   0.384
 3264SOL    HW110691   2.549   5.467   0.446
 3264SOL    HW210692   2.386   5.469   0.430
 3265SOL     OW10693   5.747   5.156   5.631
 3265SOL    HW110694   5.797   5.199   5.555
 3265SOL    HW210695   5.806   5.088   5.675
 3266SOL     OW10696   3.192   4.849   6.841
 3266SOL    HW110697   3.259   4.900   6.787
 3266SOL    HW210698   3.100   4.881   6.818
 3267SOL     OW10699   3.998   0.089   0.434
 3267SOL    HW110700   4.040   0.021   0.375
 3267SOL    HW210701   4.055   0.102   0.516
 3268SOL     OW10702   6.945   4.925   1.889
 3268SOL    HW110703   0.011   4.972   1.866
 3268SOL    HW210704   6.962   4.862   1.965
 3269SOL     OW10705   1.885   4.782   2.342
 3269SOL    HW110706   1.890   4.864   2.285
 3269SOL    HW210707   1.977   4.754   2.368
 3270SOL     OW10708   0.820   2.398   5.698
 3270SOL    HW110709   0.755   2.330   5.732
 3270SOL    HW210710   0.902   2.397   5.755
 3271SOL     OW10711   0.630   3.824   2.417
 3271SOL    HW110712   0.622   3.811   2.516
 3271SOL    HW210713   0.541   3.808   2.375
 3272SOL     OW10714   4.624   6.530   0.302
 3272SOL    HW110715   4.586   6.547   0.211
 3272SOL    HW210716   4.617   6.433   0.323
 3273SOL     OW10717   4.715   2.994   6.881
 3273SOL    HW110718   4.646   3.032   6.943
 3273SOL    HW210719   4.748   3.066   6.819
 3274SOL     OW10720   5.346   0.919   0.039
 3274SOL    HW110721   5.396   0.838   0.068
 3274SOL    HW210722   5.258   0.892   0.000
 3275SOL     OW10723   4.843   0.077   1.394
 3275SOL    HW110724   4.764   0.137   1.381
 3275SOL    HW210725   4.816   7.015   1.446
 3276SOL     OW10726   4.805   6.777   6.989
 3276SOL    HW110727   4.720   6.724   6.982
 3276SOL    HW210728   4.875   6.736   6.931
 3277SOL     OW10729   3.413   1.789   2.038
 3277SOL    HW110730   3.360   1.837   1.968
 3277SOL    HW210731   3.442   1.854   2.108
 3278SOL     OW10732   6.669   0.426   6.934
 3278SOL    HW110733   6.611   0.464   6.862
 3278SOL    HW210734   6.740   0.369   6.893
 3279SOL     OW10735   4.000   6.704   0.883
 3279SOL    HW110736   3.954   6.670   0.965
 3279SOL    HW210737   4.041   6.628   0.834
 3280SOL     OW10738   5.393   3.509   4.661
 3280SOL    HW110739   5.338   3.531   4.741
 3280SOL    HW210740   5.393   3.411   4.645
 3281SOL     OW10741   6.050   3.899   1.844
 3281SOL    HW110742   6.127   3.873   1.786
 3281SOL    HW210743   6.081   3.961   1.916
 3282SOL     OW10744   0.383   4.368   5.009
 3282SOL    HW110745   0.356   4.334   4.919
 3282SOL    HW210746   0.410   4.464   5.002
 3283SOL     OW10747   3.761   1.227   1.276
 3283SOL    HW110748   3.710   1.204   1.193
 3283SOL    HW210749   3.858   1.240   1.253
 3284SOL     OW10750   1.423   5.508   5.044
 3284SOL    HW110751   1.442   5.492   4.947
 3284SOL    HW210752   1.489   5.574   5.081
 3285SOL     OW10753   4.811   1.380   4.641
 3285SOL    HW110754   4.758   1.432   4.574
 3285SOL    HW210755   4.901   1.422   4.652
 3286SOL     OW10756   2.937   1.752   1.322
 3286SOL    HW110757   2.893   1.807   1.251
 3286SOL    HW210758   2.978   1.812   1.390
 3287SOL     OW10759   2.404   0.095   6.806
 3287SOL    HW110760   2.458   0.179   6.798
 3287SOL    HW210761   2.329   0.097   6.740
 3288SOL     OW10762   1.640   6.390   1.337
 3288SOL    HW110763   1.543   6.381   1.359
 3288SOL    HW210764   1.658   6.347   1.248
 3289SOL     OW10765   3.922   1.774   6.749
 3289SOL    HW110766   3.908   1.684   6.708
 3289SOL    HW210767   3.834   1.815   6.771
 3290SOL     OW10768   6.712   4.909   0.322
 3290SOL    HW110769   6.722   5.005   0.295
 3290SOL    HW210770   6.682   4.856   0.243
 3291SOL     OW10771   4.785   7.000   5.368
 3291SOL    HW110772   4.809   0.002   5.274
 3291SOL    HW210773   4.767   6.902   5.378
 3292SOL     OW10774   0.243   1.845   1.489
 3292SOL    HW110775   0.325   1.840   1.546
 3292SOL    HW210776   0.163   1.860   1.546
 3293SOL     OW10777   6.477   5.175   3.172
 3293SOL    HW110778   6.385   5.163   3.134
 3293SOL    HW210779   6.497   5.272   3.181
 3294SOL     OW10780   4.908   2.605   4.998
 3294SOL    HW110781   4.853   2.687   4.984
 3294SOL    HW210782   4.849   2.530   5.029
 3295SOL     OW10783   1.509   2.858   1.991
 3295SOL    HW110784   1.531   2.835   2.086
 3295SOL    HW210785   1.423   2.908   1.988
 3296SOL     OW10786   0.967   6.980   6.196
 3296SOL    HW110787   0.951   6.979   6.295
 3296SOL    HW210788   0.883   6.957   6.148
 3297SOL     OW10789   3.118   1.868   4.841
 3297SOL    HW110790   3.055   1.930   4.887
 3297SOL    HW210791   3.129   1.894   4.746
 3298SOL     OW10792   5.679   4.294   5.676
 3298SOL    HW110793   5.739   4.371   5.654
 3298SOL    HW210794   5.734   4.214   5.701
 3299SOL     OW10795   3.214   4.946   4.810
 3299SOL    HW110796   3.276   4.941   4.888
 3299SOL    HW210797   3.125   4.906   4.835
 3300SOL     OW10798   1.932   6.892   4.810
 3300SOL    HW110799   1.964   6.986   4.801
 3300SOL    HW210800   1.920   6.869   4.907
 3301SOL     OW10801   2.033   2.918   3.075
 3301SOL    HW110802   2.068   2.844   3.132
 3301SOL    HW210803   1.933   2.918   3.079
 3302SOL     OW10804   2.329   4.692   5.974
 3302SOL    HW110805   2.309   4.607   6.022
 3302SOL    HW210806   2.246   4.728   5.931
 3303SOL     OW10807   3.303   3.259   0.583
 3303SOL    HW110808   3.338   3.220   0.498
 3303SOL    HW210809   3.204   3.276   0.574
 3304SOL     OW10810   2.394   4.978   6.053
 3304SOL    HW110811   2.401   4.887   6.012
 3304SOL    HW210812   2.323   4.977   6.123
 3305SOL     OW10813   3.464   1.082   0.849
 3305SOL    HW110814   3.455   1.152   0.779
 3305SOL    HW210815   3.381   1.026   0.851
 3306SOL     OW10816   2.016   0.781   0.077
 3306SOL    HW110817   1.979   0.699   0.035
 3306SOL    HW210818   2.088   0.756   0.142
 3307SOL     OW10819   1.310   0.252   4.530
 3307SOL    HW110820   1.319   0.286   4.624
 3307SOL    HW210821   1.364   0.309   4.469
 3308SOL     OW10822   3.564   4.304   1.239
 3308SOL    HW110823   3.473   4.342   1.254
 3308SOL    HW210824   3.617   4.311   1.323
 3309SOL     OW10825   5.582   3.962   3.710
 3309SOL    HW110826   5.486   3.935   3.723
 3309SOL    HW210827   5.597   3.985   3.614
 3310SOL     OW10828   6.553   5.357   5.193
 3310SOL    HW110829   6.604   5.439   5.167
 3310SOL    HW210830   6.599   5.276   5.157
 3311SOL     OW10831   3.471   3.595   0.412
 3311SOL    HW110832   3.408   3.636   0.346
 3311SOL    HW210833   3.471   3.649   0.496
 3312SOL     OW10834   4.915   2.636   5.788
 3312SOL    HW110835   4.905   2.607   5.693
 3312SOL    HW210836   4.849   2.709   5.808
 3313SOL     OW10837   0.992   0.676   3.595
 3313SOL    HW110838   1.010   0.638   3.504
 3313SOL    HW210839   1.074   0.723   3.628
 3314SOL     OW10840   1.785   5.994   2.419
 3314SOL    HW110841   1.858   6.052   2.383
 3314SOL    HW210842   1.783   5.908   2.369
 3315SOL     OW10843   6.943   4.798   5.385
 3315SOL    HW110844   6.854   4.755   5.401
 3315SOL    HW210845   7.005   4.733   5.342
 3316SOL     OW10846   3.415   1.984   6.476
 3316SOL    HW110847   3.370   1.947   6.557
 3316SOL    HW210848   3.489   2.045   6.504
 3317SOL     OW10849   5.529   2.385   2.701
 3317SOL    HW110850   5.442   2.360   2.659
 3317SOL    HW210851   5.556   2.477   2.671
 3318SOL     OW10852   2.982   2.199   0.362
 3318SOL    HW110853   3.042   2.240   0.431
 3318SOL    HW210854   3.000   2.100   0.357
 3319SOL     OW10855   6.931   6.412   3.332
 3319SOL    HW110856   6.908   6.501   3.293
 3319SOL    HW210857   6.974   6.425   3.422
 3320SOL     OW10858   6.028   0.221   0.920
 3320SOL    HW110859   6.115   0.244   0.877
 3320SOL    HW210860   5.953   0.246   0.859
 3321SOL     OW10861   5.171   1.736   6.975
 3321SOL    HW110862   5.230   1.749   6.896
 3321SOL    HW210863   5.183   1.812   0.020
 3322SOL     OW10864   6.819   3.944   1.262
 3322SOL    HW110865   6.891   4.000   1.301
 3322SOL    HW210866   6.799   3.868   1.325
 3323SOL     OW10867   1.762   1.392   2.032
 3323SOL    HW110868   1.765   1.434   2.124
 3323SOL    HW210869   1.797   1.458   1.965
 3324SOL     OW10870   5.243   5.563   5.514
 3324SOL    HW110871   5.306   5.636   5.541
 3324SOL    HW210872   5.155   5.578   5.558
 3325SOL     OW10873   1.610   3.747   6.795
 3325SOL    HW110874   1.558   3.662   6.808
 3325SOL    HW210875   1.678   3.756   6.868
 3326SOL     OW10876   5.291   1.405   2.693
 3326SOL    HW110877   5.350   1.439   2.620
 3326SOL    HW210878   5.199   1.390   2.657
 3327SOL     OW10879   1.771   5.843   1.395
 3327SOL    HW110880   1.770   5.837   1.495
 3327SOL    HW210881   1.866   5.850   1.363
 3328SOL     OW10882   4.468   2.020   0.562
 3328SOL    HW110883   4.406   1.943   0.581
 3328SOL    HW210884   4.438   2.066   0.479
 3329SOL     OW10885   6.047   5.552   5.721
 3329SOL    HW110886   6.105   5.550   5.639
 3329SOL    HW210887   5.951   5.559   5.693
 3330SOL     OW10888   5.927   3.208   2.372
 3330SOL    HW110889   5.994   3.134   2.366
 3330SOL    HW210890   5.975   3.296   2.378
 3331SOL     OW10891   1.741   2.354   1.364
 3331SOL    HW110892   1.812   2.318   1.424
 3331SOL    HW210893   1.653   2.317   1.389
 3332SOL     OW10894   6.001   4.394   0.576
 3332SOL    HW110895   5.946   4.475   0.594
 3332SOL    HW210896   6.038   4.399   0.483
 3333SOL     OW10897   3.833   5.168   6.061
 3333SOL    HW110898   3.932   5.152   6.068
 3333SOL    HW210899   3.813   5.212   5.973
 3334SOL     OW10900   2.775   4.195   1.695
 3334SOL    HW110901   2.792   4.097   1.688
 3334SOL    HW210902   2.696   4.212   1.754
 3335SOL     OW10903   5.157   4.537   5.774
 3335SOL    HW110904   5.162   4.456   5.832
 3335SOL    HW210905   5.166   4.510   5.678
 3336SOL     OW10906   3.449   4.840   6.283
 3336SOL    HW110907   3.534   4.892   6.297
 3336SOL    HW210908   3.373   4.890   6.323
 3337SOL     OW10909   3.543   2.922   1.389
 3337SOL    HW110910   3.589   2.833   1.394
 3337SOL    HW210911   3.476   2.930   1.462
 3338SOL     OW10912   0.347   4.179   0.690
 3338SOL    HW110913   0.248   4.169   0.698
 3338SOL    HW210914   0.389   4.089   0.679
 3339SOL     OW10915   6.460   5.803   6.762
 3339SOL    HW110916   6.376   5.795   6.814
 3339SOL    HW210917   6.534   5.755   6.810
 3340SOL     OW10918   3.209   6.331   2.016
 3340SOL    HW110919   3.249   6.287   1.936
 3340SOL    HW210920   3.266   6.314   2.096
 3341SOL     OW10921   0.731   1.003   2.628
 3341SOL    HW110922   0.829   1.022   2.628
 3341SOL    HW210923   0.714   0.912   2.591
 3342SOL     OW10924   2.251   6.867   3.712
 3342SOL    HW110925   2.204   6.854   3.625
 3342SOL    HW210926   2.216   6.800   3.779
 3343SOL     OW10927   5.269   3.186   1.044
 3343SOL    HW110928   5.324   3.256   0.998
 3343SOL    HW210929   5.308   3.096   1.028
 3344SOL     OW10930   6.163   3.393   6.110
 3344SOL    HW110931   6.164   3.294   6.099
 3344SOL    HW210932   6.090   3.431   6.053
 3345SOL     OW10933   3.048   3.462   5.584
 3345SOL    HW110934   3.069   3.433   5.490
 3345SOL    HW210935   3.130   3.451   5.641
 3346SOL     OW10936   0.142   0.179   1.532
 3346SOL    HW110937   0.130   0.124   1.615
 3346SOL    HW210938   0.234   0.217   1.529
 3347SOL     OW10939   5.918   3.938   4.729
 3347SOL    HW110940   5.885   3.894   4.813
 3347SOL    HW210941   5.919   3.871   4.655
 3348SOL     OW10942   3.957   3.052   4.112
 3348SOL    HW110943   3.930   2.969   4.161
 3348SOL    HW210944   3.896   3.127   4.138
 3349SOL     OW10945   6.250   3.707   4.174
 3349SOL    HW110946   6.278   3.750   4.088
 3349SOL    HW210947   6.267   3.609   4.169
 3350SOL     OW10948   1.501   1.124   0.966
 3350SOL    HW110949   1.552   1.207   0.989
 3350SOL    HW210950   1.430   1.109   1.035
 3351SOL     OW10951   5.326   2.108   0.981
 3351SOL    HW110952   5.244   2.161   0.960
 3351SOL    HW210953   5.329   2.088   1.079
 3352SOL     OW10954   0.771   3.224   0.644
 3352SOL    HW110955   0.757   3.257   0.737
 3352SOL    HW210956   0.760   3.300   0.580
 3353SOL     OW10957   1.912   0.121   6.676
 3353SOL    HW110958   1.913   0.029   6.715
 3353SOL    HW210959   1.966   0.122   6.592
 3354SOL     OW10960   7.016   2.731   4.147
 3354SOL    HW110961   6.925   2.714   4.185
 3354SOL    HW210962   7.009   2.791   4.068
 3355SOL     OW10963   6.539   1.128   1.975
 3355SOL    HW110964   6.545   1.092   2.068
 3355SOL    HW210965   6.488   1.064   1.917
 3356SOL     OW10966   2.910   3.701   6.908
 3356SOL    HW110967   2.828   3.712   6.851
 3356SOL    HW210968   2.922   3.604   6.931
 3357SOL     OW10969   3.074   5.336   1.865
 3357SOL    HW110970   3.030   5.399   1.802
 3357SOL    HW210971   3.099   5.384   1.949
 3358SOL     OW10972   4.977   5.977   2.634
 3358SOL    HW110973   5.013   5.909   2.571
 3358SOL    HW210974   5.047   6.000   2.703
 3359SOL     OW10975   1.418   0.285   2.737
 3359SOL    HW110976   1.506   0.292   2.785
 3359SOL    HW210977   1.343   0.295   2.802
 3360SOL     OW10978   0.554   0.730   0.053
 3360SOL    HW110979   0.510   0.683   0.130
 3360SOL    HW210980   0.487   0.789   0.007
 3361SOL     OW10981   5.935   6.425   2.989
 3361SOL    HW110982   6.017   6.399   2.938
 3361SOL    HW210983   5.858   6.370   2.958
 3362SOL     OW10984   2.242   1.467   4.963
 3362SOL    HW110985   2.199   1.479   4.874
 3362SOL    HW210986   2.342   1.471   4.953
 3363SOL     OW10987   6.876   1.883   6.908
 3363SOL    HW110988   6.866   1.844   6.817
 3363SOL    HW210989   6.853   1.815   6.977
 3364SOL     OW10990   2.153   5.206   5.968
 3364SOL    HW110991   2.111   5.122   6.001
 3364SOL    HW210992   2.096   5.284   5.994
 3365SOL     OW10993   6.053   2.776   4.713
 3365SOL    HW110994   6.139   2.809   4.675
 3365SOL    HW210995   5.977   2.824   4.668
 3366SOL     OW10996   5.178   0.421   5.743
 3366SOL    HW110997   5.215   0.439   5.652
 3366SOL    HW210998   5.079   0.409   5.737
 3367SOL     OW10999   1.225   1.842   3.012
 3367SOL    HW111000   1.278   1.890   3.081
 3367SOL    HW211001   1.196   1.906   2.941
 3368SOL     OW11002   6.536   5.583   6.199
 3368SOL    HW111003   6.614   5.597   6.138
 3368SOL    HW211004   6.485   5.668   6.208
 3369SOL     OW11005   4.005   0.405   6.821
 3369SOL    HW111006   4.092   0.391   6.772
 3369SOL    HW211007   4.023   0.445   6.910
 3370SOL     OW11008   6.179   6.365   5.282
 3370SOL    HW111009   6.266   6.407   5.309
 3370SOL    HW211010   6.120   6.434   5.241
 3371SOL     OW11011   0.864   5.221   2.393
 3371SOL    HW111012   0.784   5.280   2.380
 3371SOL    HW211013   0.846   5.132   2.351
 3372SOL     OW11014   1.152   0.504   2.806
 3372SOL    HW111015   1.100   0.507   2.721
 3372SOL    HW211016   1.235   0.558   2.797
 3373SOL     OW11017   6.394   2.105   5.095
 3373SOL    HW111018   6.361   2.013   5.115
 3373SOL    HW211019   6.493   2.109   5.110
 3374SOL     OW11020   2.897   5.295   6.005
 3374SOL    HW111021   2.896   5.392   6.030
 3374SOL    HW211022   2.821   5.276   5.942
 3375SOL     OW11023   4.616   4.523   5.422
 3375SOL    HW111024   4.677   4.597   5.453
 3375SOL    HW211025   4.632   4.441   5.477
 3376SOL     OW11026   3.044   3.276   2.416
 3376SOL    HW111027   3.001   3.343   2.357
 3376SOL    HW211028   3.134   3.309   2.445
 3377SOL     OW11029   1.590   6.642   5.365
 3377SOL    HW111030   1.639   6.692   5.436
 3377SOL    HW211031   1.572   6.703   5.288
 3378SOL     OW11032   0.149   1.269   1.313
 3378SOL    HW111033   0.148   1.346   1.250
 3378SOL    HW211034   0.179   1.301   1.404
 3379SOL     OW11035   0.485   4.487   5.809
 3379SOL    HW111036   0.463   4.500   5.712
 3379SOL    HW211037   0.526   4.397   5.822
 3380SOL     OW11038   6.647   4.363   6.812
 3380SOL    HW111039   6.636   4.266   6.834
 3380SOL    HW211040   6.712   4.405   6.875
 3381SOL     OW11041   3.123   2.432   0.449
 3381SOL    HW111042   3.193   2.448   0.379
 3381SOL    HW211043   3.167   2.422   0.538
 3382SOL     OW11044   0.133   1.504   1.115
 3382SOL    HW111045   0.195   1.521   1.038
 3382SOL    HW211046   0.039   1.506   1.083
 3383SOL     OW11047   5.972   4.912   2.567
 3383SOL    HW111048   5.990   5.010   2.569
 3383SOL    HW211049   5.887   4.894   2.517
 3384SOL     OW11050   3.832   2.937   4.377
 3384SOL    HW111051   3.733   2.947   4.375
 3384SOL    HW211052   3.866   2.969   4.466
 3385SOL     OW11053   6.695   3.743   3.694
 3385SOL    HW111054   6.785   3.743   3.739
 3385SOL    HW211055   6.629   3.695   3.751
 3386SOL     OW11056   6.326   4.542   4.969
 3386SOL    HW111057   6.227   4.530   4.964
 3386SOL    HW211058   6.370   4.452   4.968
 3387SOL     OW11059   2.250   2.015   3.122
 3387SOL    HW111060   2.265   1.995   3.026
 3387SOL    HW211061   2.286   2.106   3.143
 3388SOL     OW11062   5.316   2.060   1.254
 3388SOL    HW111063   5.389   2.089   1.316
 3388SOL    HW211064   5.234   2.036   1.307
 3389SOL     OW11065   4.838   4.497   3.568
 3389SOL    HW111066   4.837   4.590   3.607
 3389SOL    HW211067   4.744   4.468   3.548
 3390SOL     OW11068   4.885   3.096   5.483
 3390SOL    HW111069   4.884   3.156   5.402
 3390SOL    HW211070   4.795   3.054   5.495
 3391SOL     OW11071   3.700   1.939   5.195
 3391SOL    HW111072   3.606   1.974   5.190
 3391SOL    HW211073   3.758   1.989   5.131
 3392SOL     OW11074   2.744   0.688   3.895
 3392SOL    HW111075   2.728   0.657   3.989
 3392SOL    HW211076   2.743   0.609   3.833
 3393SOL     OW11077   6.196   6.372   6.566
 3393SOL    HW111078   6.277   6.341   6.616
 3393SOL    HW211079   6.171   6.463   6.597
 3394SOL     OW11080   6.127   2.487   1.670
 3394SOL    HW111081   6.087   2.517   1.583
 3394SOL    HW211082   6.193   2.414   1.652
 3395SOL     OW11083   1.121   3.028   4.517
 3395SOL    HW111084   1.129   3.002   4.421
 3395SOL    HW211085   1.126   2.945   4.574
 3396SOL     OW11086   0.180   3.622   3.787
 3396SOL    HW111087   0.196   3.576   3.700
 3396SOL    HW211088   0.213   3.565   3.862
 3397SOL     OW11089   3.464   6.392   5.627
 3397SOL    HW111090   3.425   6.346   5.707
 3397SOL    HW211091   3.516   6.325   5.573
 3398SOL     OW11092   1.227   0.274   3.956
 3398SOL    HW111093   1.313   0.241   3.918
 3398SOL    HW211094   1.155   0.266   3.887
 3399SOL     OW11095   5.141   4.990   3.742
 3399SOL    HW111096   5.181   5.075   3.778
 3399SOL    HW211097   5.050   4.978   3.781
 3400SOL     OW11098   5.090   2.334   6.882
 3400SOL    HW111099   4.993   2.359   6.893
 3400SOL    HW211100   5.104   2.296   6.791
 3401SOL     OW11101   5.961   3.835   0.653
 3401SOL    HW111102   6.016   3.885   0.586
 3401SOL    HW211103   5.948   3.891   0.735
 3402SOL     OW11104   5.068   5.955   1.416
 3402SOL    HW111105   5.055   6.043   1.370
 3402SOL    HW211106   5.000   5.889   1.382
 3403SOL     OW11107   3.586   0.356   4.956
 3403SOL    HW111108   3.629   0.437   4.916
 3403SOL    HW211109   3.495   0.344   4.915
 3404SOL     OW11110   4.754   1.412   1.076
 3404SOL    HW111111   4.754   1.477   1.000
 3404SOL    HW211112   4.692   1.444   1.147
 3405SOL     OW11113   6.339   3.879   6.694
 3405SOL    HW111114   6.387   3.961   6.663
 3405SOL    HW211115   6.401   3.823   6.750
 3406SOL     OW11116   2.239   3.943   2.284
 3406SOL    HW111117   2.327   3.987   2.269
 3406SOL    HW211118   2.198   3.919   2.196
 3407SOL     OW11119   1.297   5.314   1.947
 3407SOL    HW111120   1.219   5.344   2.002
 3407SOL    HW211121   1.271   5.309   1.851
 3408SOL     OW11122   5.322   4.686   2.368
 3408SOL    HW111123   5.244   4.654   2.314
 3408SOL    HW211124   5.319   4.645   2.459
 3409SOL     OW11125   3.589   6.942   5.730
 3409SOL    HW111126   3.532   6.969   5.808
 3409SOL    HW211127   3.593   6.842   5.724
 3410SOL     OW11128   6.306   6.274   0.351
 3410SOL    HW111129   6.227   6.220   0.382
 3410SOL    HW211130   6.380   6.213   0.325
 3411SOL     OW11131   4.535   1.847   2.591
 3411SOL    HW111132   4.599   1.830   2.666
 3411SOL    HW211133   4.443   1.861   2.628
 3412SOL     OW11134   3.617   3.898   6.984
 3412SOL    HW111135   3.618   3.810   0.012
 3412SOL    HW211136   3.562   3.963   0.017
 3413SOL     OW11137   3.941   1.440   3.152
 3413SOL    HW111138   3.866   1.490   3.109
 3413SOL    HW211139   3.993   1.390   3.082
 3414SOL     OW11140   2.893   2.338   5.244
 3414SOL    HW111141   2.855   2.301   5.159
 3414SOL    HW211142   2.993   2.337   5.238
 3415SOL     OW11143   0.770   4.736   4.480
 3415SOL    HW111144   0.763   4.670   4.554
 3415SOL    HW211145   0.755   4.690   4.392
 3416SOL     OW11146   0.443   4.561   5.508
 3416SOL    HW111147   0.534   4.545   5.469
 3416SOL    HW211148   0.384   4.483   5.488
 3417SOL     OW11149   0.041   6.560   2.446
 3417SOL    HW111150   0.027   6.502   2.526
 3417SOL    HW211151   6.991   6.540   2.377
 3418SOL     OW11152   2.522   0.858   5.121
 3418SOL    HW111153   2.423   0.863   5.113
 3418SOL    HW211154   2.563   0.865   5.030
 3419SOL     OW11155   4.243   4.724   0.096
 3419SOL    HW111156   4.252   4.669   0.013
 3419SOL    HW211157   4.146   4.732   0.121
 3420SOL     OW11158   4.681   2.234   4.025
 3420SOL    HW111159   4.690   2.256   4.122
 3420SOL    HW211160   4.585   2.214   4.005
 3421SOL     OW11161   0.007   6.324   5.531
 3421SOL    HW111162   0.103   6.309   5.557
 3421SOL    HW211163   6.969   6.326   5.614
 3422SOL     OW11164   3.578   0.481   1.587
 3422SOL    HW111165   3.509   0.541   1.629
 3422SOL    HW211166   3.536   0.393   1.565
 3423SOL     OW11167   2.745   0.969   0.831
 3423SOL    HW111168   2.685   1.045   0.807
 3423SOL    HW211169   2.807   0.997   0.904
 3424SOL     OW11170   4.104   1.170   2.454
 3424SOL    HW111171   4.106   1.267   2.478
 3424SOL    HW211172   4.043   1.157   2.376
 3425SOL     OW11173   4.768   4.282   2.114
 3425SOL    HW111174   4.676   4.271   2.077
 3425SOL    HW211175   4.783   4.378   2.141
 3426SOL     OW11176   4.074   3.268   0.487
 3426SOL    HW111177   4.100   3.356   0.448
 3426SOL    HW211178   4.056   3.279   0.585
 3427SOL     OW11179   7.012   0.523   0.160
 3427SOL    HW111180   6.991   0.562   0.071
 3427SOL    HW211181   6.980   0.584   0.232
 3428SOL     OW11182   4.042   4.824   2.649
 3428SOL    HW111183   4.086   4.753   2.704
 3428SOL    HW211184   4.022   4.788   2.558
 3429SOL     OW11185   1.082   3.226   0.085
 3429SOL    HW111186   1.135   3.278   0.017
 3429SOL    HW211187   1.144   3.168   0.137
 3430SOL     OW11188   1.460   6.985   0.154
 3430SOL    HW111189   1.419   6.942   0.234
 3430SOL    HW211190   1.476   0.063   0.173
 3431SOL     OW11191   1.775   6.373   1.619
 3431SOL    HW111192   1.745   6.436   1.690
 3431SOL    HW211193   1.718   6.386   1.537
 3432SOL     OW11194   3.368   1.550   5.817
 3432SOL    HW111195   3.400   1.528   5.725
 3432SOL    HW211196   3.277   1.591   5.812
 3433SOL     OW11197   3.305   1.028   5.428
 3433SOL    HW111198   3.271   1.113   5.387
 3433SOL    HW211199   3.386   0.997   5.378
 3434SOL     OW11200   4.111   2.703   1.415
 3434SOL    HW111201   4.192   2.731   1.364
 3434SOL    HW211202   4.060   2.635   1.362
 3435SOL     OW11203   6.967   2.365   2.013
 3435SOL    HW111204   6.876   2.408   2.014
 3435SOL    HW211205   6.966   2.284   2.072
 3436SOL     OW11206   4.543   0.171   4.889
 3436SOL    HW111207   4.495   0.112   4.824
 3436SOL    HW211208   4.626   0.207   4.847
 3437SOL     OW11209   4.170   0.286   4.948
 3437SOL    HW111210   4.215   0.214   5.001
 3437SOL    HW211211   4.081   0.306   4.988
 3438SOL     OW11212   1.614   2.497   6.648
 3438SOL    HW111213   1.630   2.581   6.700
 3438SOL    HW211214   1.520   2.496   6.615
 3439SOL     OW11215   2.650   6.478   4.771
 3439SOL    HW111216   2.700   6.402   4.730
 3439SOL    HW211217   2.642   6.552   4.704
 3440SOL     OW11218   4.601   2.878   1.161
 3440SOL    HW111219   4.599   2.825   1.077
 3440SOL    HW211220   4.603   2.976   1.140
 3441SOL     OW11221   3.895   6.900   4.151
 3441SOL    HW111222   3.828   6.865   4.216
 3441SOL    HW211223   3.962   6.829   4.131
 3442SOL     OW11224   2.092   5.122   3.604
 3442SOL    HW111225   2.114   5.216   3.629
 3442SOL    HW211226   2.143   5.059   3.663
 3443SOL     OW11227   6.138   1.940   2.677
 3443SOL    HW111228   6.110   1.853   2.717
 3443SOL    HW211229   6.159   1.927   2.580
 3444SOL     OW11230   5.080   5.648   6.591
 3444SOL    HW111231   5.088   5.550   6.573
 3444SOL    HW211232   5.167   5.693   6.569
 3445SOL     OW11233   6.223   4.213   4.168
 3445SOL    HW111234   6.265   4.293   4.212
 3445SOL    HW211235   6.237   4.133   4.226
 3446SOL     OW11236   4.323   0.059   3.342
 3446SOL    HW111237   4.318   0.156   3.369
 3446SOL    HW211238   4.242   0.036   3.288
 3447SOL     OW11239   5.960   5.486   0.449
 3447SOL    HW111240   5.889   5.472   0.380
 3447SOL    HW211241   5.919   5.486   0.540
 3448SOL     OW11242   3.084   0.753   1.236
 3448SOL    HW111243   3.151   0.678   1.239
 3448SOL    HW211244   3.038   0.761   1.324
 3449SOL     OW11245   6.949   0.181   2.049
 3449SOL    HW111246   0.025   0.181   2.080
 3449SOL    HW211247   6.898   0.255   2.094
 3450SOL     OW11248   1.194   1.577   1.663
 3450SOL    HW111249   1.167   1.482   1.679
 3450SOL    HW211250   1.190   1.627   1.749
 3451SOL     OW11251   1.429   5.736   4.142
 3451SOL    HW111252   1.434   5.763   4.046
 3451SOL    HW211253   1.343   5.768   4.182
 3452SOL     OW11254   6.566   0.969   6.908
 3452SOL    HW111255   6.659   0.941   6.931
 3452SOL    HW211256   6.569   1.056   6.860
 3453SOL     OW11257   5.139   5.587   4.858
 3453SOL    HW111258   5.105   5.526   4.930
 3453SOL    HW211259   5.177   5.533   4.783
 3454SOL     OW11260   1.621   1.360   1.075
 3454SOL    HW111261   1.542   1.356   1.136
 3454SOL    HW211262   1.633   1.454   1.043
 3455SOL     OW11263   1.659   3.057   4.207
 3455SOL    HW111264   1.590   3.097   4.148
 3455SOL    HW211265   1.682   2.965   4.174
 3456SOL     OW11266   5.942   6.667   1.633
 3456SOL    HW111267   5.911   6.583   1.587
 3456SOL    HW211268   5.907   6.746   1.584
 3457SOL     OW11269   2.615   4.963   3.557
 3457SOL    HW111270   2.523   4.983   3.524
 3457SOL    HW211271   2.678   5.034   3.527
 3458SOL     OW11272   5.703   6.776   0.157
 3458SOL    HW111273   5.716   6.746   0.252
 3458SOL    HW211274   5.628   6.725   0.115
 3459SOL     OW11275   0.481   3.819   3.479
 3459SOL    HW111276   0.498   3.821   3.577
 3459SOL    HW211277   0.399   3.873   3.458
 3460SOL     OW11278   2.869   2.786   7.000
 3460SOL    HW111279   2.943   2.816   6.939
 3460SOL    HW211280   2.906   2.725   0.051
 3461SOL     OW11281   3.934   5.578   3.934
 3461SOL    HW111282   3.943   5.480   3.921
 3461SOL    HW211283   4.003   5.625   3.878
 3462SOL     OW11284   5.480   3.071   3.155
 3462SOL    HW111285   5.387   3.050   3.184
 3462SOL    HW211286   5.544   3.008   3.199
 3463SOL     OW11287   1.707   3.127   1.951
 3463SOL    HW111288   1.756   3.150   1.867
 3463SOL    HW211289   1.674   3.033   1.945
 3464SOL     OW11290   5.476   2.811   6.715
 3464SOL    HW111291   5.439   2.753   6.642
 3464SOL    HW211292   5.552   2.865   6.679
 3465SOL     OW11293   2.283   3.746   1.769
 3465SOL    HW111294   2.256   3.666   1.822
 3465SOL    HW211295   2.370   3.781   1.804
 3466SOL     OW11296   5.486   4.470   5.742
 3466SOL    HW111297   5.438   4.481   5.655
 3466SOL    HW211298   5.534   4.382   5.743
 3467SOL     OW11299   3.254   2.046   0.901
 3467SOL    HW111300   3.340   2.005   0.872
 3467SOL    HW211301   3.186   2.035   0.829
 3468SOL     OW11302   4.587   1.063   1.913
 3468SOL    HW111303   4.543   1.021   1.834
 3468SOL    HW211304   4.686   1.059   1.903
 3469SOL     OW11305   4.454   0.029   6.198
 3469SOL    HW111306   4.362   0.001   6.171
 3469SOL    HW211307   4.501   0.069   6.120
 3470SOL     OW11308   0.278   2.793   1.042
 3470SOL    HW111309   0.359   2.766   1.094
 3470SOL    HW211310   0.215   2.716   1.036
 3471SOL     OW11311   4.569   4.387   3.514
 3471SOL    HW111312   4.512   4.326   3.569
 3471SOL    HW211313   4.604   4.338   3.434
 3472SOL     OW11314   4.392   2.390   3.043
 3472SOL    HW111315   4.461   2.396   3.115
 3472SOL    HW211316   4.323   2.322   3.069
 3473SOL     OW11317   0.259   3.398   3.982
 3473SOL    HW111318   0.310   3.364   4.061
 3473SOL    HW211319   0.275   3.339   3.903
 3474SOL     OW11320   0.486   3.836   4.273
 3474SOL    HW111321   0.517   3.929   4.255
 3474SOL    HW211322   0.560   3.783   4.314
 3475SOL     OW11323   6.757   4.417   4.525
 3475SOL    HW111324   6.808   4.333   4.507
 3475SOL    HW211325   6.666   4.411   4.484
 3476SOL     OW11326   2.031   2.069   3.627
 3476SOL    HW111327   2.122   2.028   3.628
 3476SOL    HW211328   2.025   2.135   3.553
 3477SOL     OW11329   0.214   3.664   1.610
 3477SOL    HW111330   0.159   3.657   1.527
 3477SOL    HW211331   0.310   3.681   1.586
 3478SOL     OW11332   2.297   7.008   0.009
 3478SOL    HW111333   2.322   0.055   0.081
 3478SOL    HW211334   2.338   0.018   6.942
 3479SOL     OW11335   0.491   3.071   3.683
 3479SOL    HW111336   0.484   2.974   3.704
 3479SOL    HW211337   0.546   3.117   3.753
 3480SOL     OW11338   1.183   6.002   6.675
 3480SOL    HW111339   1.103   6.008   6.735
 3480SOL    HW211340   1.215   5.907   6.672
 3481SOL     OW11341   5.528   0.725   0.080
 3481SOL    HW111342   5.543   0.632   0.048
 3481SOL    HW211343   5.599   0.750   0.146
 3482SOL     OW11344   5.954   2.372   4.224
 3482SOL    HW111345   6.002   2.313   4.159
 3482SOL    HW211346   6.018   2.440   4.261
 3483SOL     OW11347   4.827   2.272   3.286
 3483SOL    HW111348   4.892   2.317   3.348
 3483SOL    HW211349   4.741   2.322   3.287
 3484SOL     OW11350   1.789   3.661   6.232
 3484SOL    HW111351   1.795   3.699   6.324
 3484SOL    HW211352   1.828   3.568   6.231
 3485SOL     OW11353   0.050   1.767   5.123
 3485SOL    HW111354   0.029   1.792   5.029
 3485SOL    HW211355   0.110   1.687   5.125
 3486SOL     OW11356   1.901   6.666   4.556
 3486SOL    HW111357   1.835   6.657   4.632
 3486SOL    HW211358   1.903   6.581   4.504
 3487SOL     OW11359   5.959   1.376   6.689
 3487SOL    HW111360   5.964   1.279   6.668
 3487SOL    HW211361   6.048   1.419   6.673
 3488SOL     OW11362   5.499   0.712   4.789
 3488SOL    HW111363   5.490   0.729   4.691
 3488SOL    HW211364   5.435   0.769   4.840
 3489SOL     OW11365   3.132   6.574   1.137
 3489SOL    HW111366   3.127   6.639   1.061
 3489SOL    HW211367   3.147   6.624   1.223
 3490SOL     OW11368   4.007   4.554   1.133
 3490SOL    HW111369   3.975   4.495   1.207
 3490SOL    HW211370   4.003   4.503   1.046
 3491SOL     OW11371   5.224   3.785   0.316
 3491SOL    HW111372   5.183   3.876   0.306
 3491SOL    HW211373   5.162   3.727   0.369
 3492SOL     OW11374   6.625   4.081   2.335
 3492SOL    HW111375   6.538   4.041   2.361
 3492SOL    HW211376   6.700   4.032   2.379
 3493SOL     OW11377   6.378   3.447   4.183
 3493SOL    HW111378   6.424   3.490   4.261
 3493SOL    HW211379   6.362   3.351   4.203
 3494SOL     OW11380   3.095   2.142   2.476
 3494SOL    HW111381   3.057   2.050   2.478
 3494SOL    HW211382   3.118   2.167   2.382
 3495SOL     OW11383   1.084   4.239   2.423
 3495SOL    HW111384   0.993   4.197   2.432
 3495SOL    HW211385   1.113   4.273   2.513
 3496SOL     OW11386   5.830   4.603   0.373
 3496SOL    HW111387   5.789   4.688   0.340
 3496SOL    HW211388   5.864   4.615   0.466
 3497SOL     OW11389   3.482   0.986   3.318
 3497SOL    HW111390   3.515   0.934   3.238
 3497SOL    HW211391   3.554   0.987   3.388
 3498SOL     OW11392   2.579   1.499   2.175
 3498SOL    HW111393   2.625   1.489   2.087
 3498SOL    HW211394   2.549   1.594   2.186
 3499SOL     OW11395   5.901   6.090   5.442
 3499SOL    HW111396   5.987   6.137   5.461
 3499SOL    HW211397   5.880   6.028   5.517
 3500SOL     OW11398   1.541   1.702   4.019
 3500SOL    HW111399   1.630   1.698   4.064
 3500SOL    HW211400   1.535   1.629   3.950
 3501SOL     OW11401   2.640   6.952   6.810
 3501SOL    HW111402   2.549   6.992   6.817
 3501SOL    HW211403   2.677   6.969   6.719
 3502SOL     OW11404   5.915   3.053   1.774
 3502SOL    HW111405   5.830   3.015   1.736
 3502SOL    HW211406   5.968   2.980   1.817
 3503SOL     OW11407   7.011   5.684   5.876
 3503SOL    HW111408   7.002   5.781   5.899
 3503SOL    HW211409   0.088   5.664   5.853
 3504SOL     OW11410   1.816   0.635   2.006
 3504SOL    HW111411   1.780   0.704   1.944
 3504SOL    HW211412   1.854   0.679   2.087
 3505SOL     OW11413   5.757   5.636   6.012
 3505SOL    HW111414   5.799   5.617   5.924
 3505SOL    HW211415   5.819   5.691   6.068
 3506SOL     OW11416   5.748   4.504   5.157
 3506SOL    HW111417   5.752   4.578   5.224
 3506SOL    HW211418   5.799   4.425   5.190
 3507SOL     OW11419   2.399   0.143   0.778
 3507SOL    HW111420   2.351   0.086   0.845
 3507SOL    HW211421   2.417   0.233   0.818
 3508SOL     OW11422   3.016   2.367   5.918
 3508SOL    HW111423   3.060   2.442   5.867
 3508SOL    HW211424   3.077   2.337   5.991
 3509SOL     OW11425   4.767   6.744   0.442
 3509SOL    HW111426   4.824   6.821   0.470
 3509SOL    HW211427   4.746   6.752   0.344
 3510SOL     OW11428   2.297   1.197   1.617
 3510SOL    HW111429   2.360   1.269   1.590
 3510SOL    HW211430   2.346   1.110   1.622
 3511SOL     OW11431   2.175   4.437   1.075
 3511SOL    HW111432   2.191   4.503   1.148
 3511SOL    HW211433   2.245   4.448   1.004
 3512SOL     OW11434   0.708   3.783   6.883
 3512SOL    HW111435   0.683   3.816   6.792
 3512SOL    HW211436   0.704   3.859   6.948
 3513SOL     OW11437   6.542   2.176   1.118
 3513SOL    HW111438   6.618   2.113   1.135
 3513SOL    HW211439   6.520   2.224   1.203
 3514SOL     OW11440   5.385   0.801   2.477
 3514SOL    HW111441   5.457   0.780   2.543
 3514SOL    HW211442   5.374   0.724   2.414
 3515SOL     OW11443   5.490   5.869   3.978
 3515SOL    HW111444   5.590   5.874   3.978
 3515SOL    HW211445   5.453   5.955   4.014
 3516SOL     OW11446   4.927   0.047   1.069
 3516SOL    HW111447   4.898   0.121   1.008
 3516SOL    HW211448   4.882   0.057   1.158
 3517SOL     OW11449   0.165   0.597   1.231
 3517SOL    HW111450   0.260   0.566   1.240
 3517SOL    HW211451   0.151   0.677   1.289
 3518SOL     OW11452   5.579   1.895   4.820
 3518SOL    HW111453   5.614   1.989   4.822
 3518SOL    HW211454   5.524   1.881   4.738
 3519SOL     OW11455   2.679   1.006   6.802
 3519SOL    HW111456   2.699   1.095   6.761
 3519SOL    HW211457   2.763   0.952   6.808
 3520SOL     OW11458   3.526   5.361   6.013
 3520SOL    HW111459   3.621   5.391   6.021
 3520SOL    HW211460   3.493   5.334   6.104
 3521SOL     OW11461   3.523   2.855   6.784
 3521SOL    HW111462   3.541   2.825   6.878
 3521SOL    HW211463   3.440   2.810   6.751
 3522SOL     OW11464   6.620   5.259   6.334
 3522SOL    HW111465   6.675   5.337   6.304
 3522SOL    HW211466   6.527   5.290   6.354
 3523SOL     OW11467   0.991   4.733   5.299
 3523SOL    HW111468   1.081   4.690   5.291
 3523SOL    HW211469   1.001   4.828   5.327
 3524SOL     OW11470   5.862   1.859   2.546
 3524SOL    HW111471   5.945   1.909   2.522
 3524SOL    HW211472   5.873   1.762   2.522
 3525SOL     OW11473   6.034   3.813   3.954
 3525SOL    HW111474   6.133   3.832   3.952
 3525SOL    HW211475   5.985   3.896   3.979
 3526SOL     OW11476   1.496   5.861   3.144
 3526SOL    HW111477   1.547   5.796   3.200
 3526SOL    HW211478   1.542   5.950   3.145
 3527SOL     OW11479   6.196   2.787   5.912
 3527SOL    HW111480   6.162   2.742   5.829
 3527SOL    HW211481   6.169   2.884   5.911
 3528SOL     OW11482   2.444   6.075   4.883
 3528SOL    HW111483   2.542   6.062   4.895
 3528SOL    HW211484   2.402   5.988   4.855
 3529SOL     OW11485   4.451   6.311   6.446
 3529SOL    HW111486   4.509   6.233   6.427
 3529SOL    HW211487   4.374   6.313   6.382
 3530SOL     OW11488   0.162   5.086   1.921
 3530SOL    HW111489   0.253   5.044   1.922
 3530SOL    HW211490   0.167   5.174   1.875
 3531SOL     OW11491   5.010   2.325   1.876
 3531SOL    HW111492   4.981   2.330   1.780
 3531SOL    HW211493   5.099   2.280   1.882
 3532SOL     OW11494   2.680   0.845   2.264
 3532SOL    HW111495   2.744   0.912   2.303
 3532SOL    HW211496   2.604   0.894   2.220
 3533SOL     OW11497   0.269   1.767   2.734
 3533SOL    HW111498   0.321   1.720   2.806
 3533SOL    HW211499   0.329   1.829   2.684
 3534SOL     OW11500   0.822   2.491   2.257
 3534SOL    HW111501   0.811   2.477   2.355
 3534SOL    HW211502   0.736   2.526   2.218
 3535SOL     OW11503   2.716   5.279   5.403
 3535SOL    HW111504   2.684   5.283   5.309
 3535SOL    HW211505   2.652   5.225   5.458
 3536SOL     OW11506   3.734   1.807   3.129
 3536SOL    HW111507   3.677   1.870   3.076
 3536SOL    HW211508   3.737   1.718   3.083
 3537SOL     OW11509   1.247   5.968   2.591
 3537SOL    HW111510   1.241   6.066   2.615
 3537SOL    HW211511   1.231   5.957   2.493
 3538SOL     OW11512   3.213   5.716   5.239
 3538SOL    HW111513   3.177   5.636   5.286
 3538SOL    HW211514   3.251   5.689   5.151
 3539SOL     OW11515   3.799   3.725   4.488
 3539SOL    HW111516   3.738   3.655   4.523
 3539SOL    HW211517   3.748   3.789   4.430
 3540SOL     OW11518   2.178   2.316   4.033
 3540SOL    HW111519   2.178   2.267   4.120
 3540SOL    HW211520   2.123   2.266   3.967
 3541SOL     OW11521   3.049   2.992   5.327
 3541SOL    HW111522   2.954   3.008   5.297
 3541SOL    HW211523   3.049   2.937   5.410
 3542SOL     OW11524   1.911   4.994   3.044
 3542SOL    HW111525   2.010   5.010   3.051
 3542SOL    HW211526   1.862   5.080   3.056
 3543SOL     OW11527   5.563   2.669   4.127
 3543SOL    HW111528   5.558   2.682   4.028
 3543SOL    HW211529   5.470   2.656   4.163
 3544SOL     OW11530   1.781   4.418   6.775
 3544SOL    HW111531   1.727   4.457   6.849
 3544SOL    HW211532   1.811   4.326   6.800
 3545SOL     OW11533   3.647   6.260   6.158
 3545SOL    HW111534   3.744   6.238   6.163
 3545SOL    HW211535   3.595   6.178   6.134
 3546SOL     OW11536   0.252   5.741   3.385
 3546SOL    HW111537   0.275   5.751   3.288
 3546SOL    HW211538   0.280   5.823   3.435
 3547SOL     OW11539   4.306   5.498   4.309
 3547SOL    HW111540   4.264   5.587   4.296
 3547SOL    HW211541   4.405   5.509   4.320
 3548SOL     OW11542   5.253   2.195   5.600
 3548SOL    HW111543   5.172   2.243   5.565
 3548SOL    HW211544   5.283   2.127   5.534
 3549SOL     OW11545   6.780   4.841   4.204
 3549SOL    HW111546   6.849   4.797   4.146
 3549SOL    HW211547   6.694   4.849   4.153
 3550SOL     OW11548   5.317   2.419   3.075
 3550SOL    HW111549   5.274   2.347   3.021
 3550SOL    HW211550   5.302   2.507   3.032
 3551SOL     OW11551   3.869   6.262   3.420
 3551SOL    HW111552   3.893   6.167   3.405
 3551SOL    HW211553   3.773   6.269   3.449
 3552SOL     OW11554   5.228   5.287   3.065
 3552SOL    HW111555   5.310   5.305   3.010
 3552SOL    HW211556   5.207   5.190   3.063
 3553SOL     OW11557   5.502   2.849   2.306
 3553SOL    HW111558   5.583   2.907   2.314
 3553SOL    HW211559   5.450   2.876   2.224
 3554SOL     OW11560   4.142   4.011   6.998
 3554SOL    HW111561   4.122   4.061   6.914
 3554SOL    HW211562   4.223   4.051   0.023
 3555SOL     OW11563   0.659   3.785   2.681
 3555SOL    HW111564   0.742   3.822   2.722
 3555SOL    HW211565   0.584   3.792   2.746
 3556SOL     OW11566   3.505   0.442   5.586
 3556SOL    HW111567   3.596   0.466   5.552
 3556SOL    HW211568   3.441   0.515   5.563
 3557SOL     OW11569   1.021   0.634   4.780
 3557SOL    HW111570   1.099   0.620   4.720
 3557SOL    HW211571   1.009   0.732   4.798
 3558SOL     OW11572   0.240   5.653   1.707
 3558SOL    HW111573   0.253   5.655   1.806
 3558SOL    HW211574   0.329   5.643   1.662
 3559SOL     OW11575   0.121   0.196   5.163
 3559SOL    HW111576   0.029   0.211   5.127
 3559SOL    HW211577   0.188   0.235   5.099
 3560SOL     OW11578   1.518   5.934   1.362
 3560SOL    HW111579   1.617   5.923   1.369
 3560SOL    HW211580   1.485   5.987   1.441
 3561SOL     OW11581   5.034   4.750   6.201
 3561SOL    HW111582   4.984   4.672   6.162
 3561SOL    HW211583   5.126   4.721   6.226
 3562SOL     OW11584   5.416   0.222   4.047
 3562SOL    HW111585   5.336   0.234   3.989
 3562SOL    HW211586   5.461   0.311   4.060
 3563SOL     OW11587   5.514   1.761   1.459
 3563SOL    HW111588   5.512   1.753   1.360
 3563SOL    HW211589   5.472   1.680   1.500
 3564SOL     OW11590   0.595   4.272   4.789
 3564SOL    HW111591   0.622   4.279   4.885
 3564SOL    HW211592   0.507   4.224   4.783
 3565SOL     OW11593   2.863   6.629   4.439
 3565SOL    HW111594   2.919   6.658   4.517
 3565SOL    HW211595   2.806   6.551   4.466
 3566SOL     OW11596   6.941   3.052   5.662
 3566SOL    HW111597   6.997   3.108   5.722
 3566SOL    HW211598   6.850   3.093   5.654
 3567SOL     OW11599   0.819   2.695   0.788
 3567SOL    HW111600   0.769   2.622   0.740
 3567SOL    HW211601   0.754   2.749   0.842
 3568SOL     OW11602   4.673   4.865   2.637
 3568SOL    HW111603   4.691   4.924   2.716
 3568SOL    HW211604   4.721   4.901   2.557
 3569SOL     OW11605   3.167   3.023   4.594
 3569SOL    HW111606   3.092   3.060   4.540
 3569SOL    HW211607   3.138   3.013   4.689
 3570SOL     OW11608   6.144   1.938   5.394
 3570SOL    HW111609   6.074   1.901   5.454
 3570SOL    HW211610   6.210   1.867   5.371
 3571SOL     OW11611   1.820   0.617   4.948
 3571SOL    HW111612   1.897   0.679   4.934
 3571SOL    HW211613   1.797   0.615   5.046
 3572SOL     OW11614   5.350   4.335   2.423
 3572SOL    HW111615   5.349   4.402   2.497
 3572SOL    HW211616   5.271   4.349   2.363
 3573SOL     OW11617   6.454   4.620   2.112
 3573SOL    HW111618   6.520   4.565   2.163
 3573SOL    HW211619   6.384   4.655   2.174
 3574SOL     OW11620   2.772   2.950   6.064
 3574SOL    HW111621   2.811   2.883   6.126
 3574SOL    HW211622   2.796   3.042   6.095
 3575SOL     OW11623   4.939   6.252   0.992
 3575SOL    HW111624   4.958   6.351   0.994
 3575SOL    HW211625   4.930   6.222   0.897
 3576SOL     OW11626   0.170   3.033   6.801
 3576SOL    HW111627   0.144   2.940   6.774
 3576SOL    HW211628   0.128   3.055   6.889
 3577SOL     OW11629   2.285   2.501   5.040
 3577SOL    HW111630   2.352   2.427   5.033
 3577SOL    HW211631   2.207   2.472   5.095
 3578SOL     OW11632   2.984   2.932   0.638
 3578SOL    HW111633   2.933   2.923   0.552
 3578SOL    HW211634   2.921   2.929   0.715
 3579SOL     OW11635   0.343   3.525   2.554
 3579SOL    HW111636   0.296   3.450   2.601
 3579SOL    HW211637   0.442   3.512   2.563
 3580SOL     OW11638   0.785   3.090   1.078
 3580SOL    HW111639   0.879   3.066   1.103
 3580SOL    HW211640   0.747   3.150   1.148
 3581SOL     OW11641   0.734   0.194   3.158
 3581SOL    HW111642   0.640   0.228   3.152
 3581SOL    HW211643   0.795   0.268   3.187
 3582SOL     OW11644   3.237   4.276   5.657
 3582SOL    HW111645   3.174   4.350   5.634
 3582SOL    HW211646   3.280   4.295   5.746
 3583SOL     OW11647   0.554   4.664   0.578
 3583SOL    HW111648   0.628   4.678   0.643
 3583SOL    HW211649   0.572   4.582   0.524
 3584SOL     OW11650   5.637   4.603   5.454
 3584SOL    HW111651   5.606   4.681   5.508
 3584SOL    HW211652   5.562   4.538   5.443
 3585SOL     OW11653   2.679   2.394   4.579
 3585SOL    HW111654   2.654   2.448   4.498
 3585SOL    HW211655   2.761   2.339   4.558
 3586SOL     OW11656   6.395   2.884   4.090
 3586SOL    HW111657   6.403   2.785   4.073
 3586SOL    HW211658   6.345   2.926   4.014
 3587SOL     OW11659   3.593   6.527   6.110
 3587SOL    HW111660   3.678   6.564   6.071
 3587SOL    HW211661   3.596   6.428   6.107
 3588SOL     OW11662   6.128   4.316   4.643
 3588SOL    HW111663   6.225   4.312   4.617
 3588SOL    HW211664   6.071   4.294   4.565
 3589SOL     OW11665   0.195   0.298   5.986
 3589SOL    HW111666   0.257   0.300   6.065
 3589SOL    HW211667   0.248   0.286   5.902
 3590SOL     OW11668   0.082   4.323   0.116
 3590SOL    HW111669   0.174   4.355   0.092
 3590SOL    HW211670   0.057   4.357   0.206
 3591SOL     OW11671   5.466   2.108   6.403
 3591SOL    HW111672   5.514   2.085   6.319
 3591SOL    HW211673   5.446   2.206   6.403
 3592SOL     OW11674   0.825   0.592   2.097
 3592SOL    HW111675   0.874   0.679   2.090
 3592SOL    HW211676   0.885   0.517   2.070
 3593SOL     OW11677   6.154   3.728   6.095
 3593SOL    HW111678   6.252   3.747   6.093
 3593SOL    HW211679   6.109   3.778   6.021
 3594SOL     OW11680   3.980   5.539   5.024
 3594SOL    HW111681   4.031   5.535   4.938
 3594SOL    HW211682   3.930   5.625   5.030
 3595SOL     OW11683   5.569   5.894   6.817
 3595SOL    HW111684   5.543   5.867   6.724
 3595SOL    HW211685   5.662   5.931   6.817
 3596SOL     OW11686   3.534   1.466   2.973
 3596SOL    HW111687   3.555   1.392   3.037
 3596SOL    HW211688   3.435   1.469   2.957
 3597SOL     OW11689   1.917   3.064   4.829
 3597SOL    HW111690   1.890   3.142   4.773
 3597SOL    HW211691   1.995   3.089   4.886
 3598SOL     OW11692   1.402   5.468   5.318
 3598SOL    HW111693   1.391   5.442   5.222
 3598SOL    HW211694   1.383   5.566   5.328
 3599SOL     OW11695   4.535   1.549   5.769
 3599SOL    HW111696   4.475   1.593   5.835
 3599SOL    HW211697   4.610   1.611   5.746
 3600SOL     OW11698   3.448   3.756   0.633
 3600SOL    HW111699   3.446   3.843   0.682
 3600SOL    HW211700   3.396   3.688   0.684
 3601SOL     OW11701   4.963   1.001   5.153
 3601SOL    HW111702   5.053   1.045   5.154
 3601SOL    HW211703   4.948   0.952   5.238
 3602SOL     OW11704   1.842   2.378   1.767
 3602SOL    HW111705   1.877   2.324   1.844
 3602SOL    HW211706   1.861   2.330   1.681
 3603SOL     OW11707   3.231   0.889   5.658
 3603SOL    HW111708   3.256   0.911   5.564
 3603SOL    HW211709   3.135   0.914   5.674
 3604SOL     OW11710   6.787   0.509   3.658
 3604SOL    HW111711   6.755   0.416   3.640
 3604SOL    HW211712   6.759   0.537   3.750
 3605SOL     OW11713   0.985   5.300   3.292
 3605SOL    HW111714   0.929   5.252   3.359
 3605SOL    HW211715   1.047   5.235   3.248
 3606SOL     OW11716   2.142   6.684   1.689
 3606SOL    HW111717   2.225   6.674   1.633
 3606SOL    HW211718   2.073   6.620   1.657
 3607SOL     OW11719   5.223   2.721   2.685
 3607SOL    HW111720   5.299   2.769   2.729
 3607SOL    HW211721   5.140   2.735   2.738
 3608SOL     OW11722   4.008   2.089   4.194
 3608SOL    HW111723   4.052   2.002   4.215
 3608SOL    HW211724   4.073   2.164   4.210
 3609SOL     OW11725   2.459   6.852   4.350
 3609SOL    HW111726   2.521   6.780   4.319
 3609SOL    HW211727   2.513   6.930   4.385
 3610SOL     OW11728   2.530   0.196   5.339
 3610SOL    HW111729   2.619   0.216   5.380
 3610SOL    HW211730   2.544   0.149   5.252
 3611SOL     OW11731   4.565   4.656   3.855
 3611SOL    HW111732   4.515   4.656   3.769
 3611SOL    HW211733   4.553   4.569   3.902
 3612SOL     OW11734   5.442   1.254   6.528
 3612SOL    HW111735   5.465   1.335   6.582
 3612SOL    HW211736   5.436   1.279   6.431
 3613SOL     OW11737   3.338   5.086   1.200
 3613SOL    HW111738   3.394   5.168   1.211
 3613SOL    HW211739   3.394   5.004   1.214
 3614SOL     OW11740   3.413   4.134   6.533
 3614SOL    HW111741   3.330   4.101   6.578
 3614SOL    HW211742   3.443   4.219   6.577
 3615SOL     OW11743   6.495   2.821   5.384
 3615SOL    HW111744   6.476   2.772   5.299
 3615SOL    HW211745   6.443   2.779   5.459
 3616SOL     OW11746   1.871   1.789   0.037
 3616SOL    HW111747   1.844   1.758   6.964
 3616SOL    HW211748   1.791   1.790   0.096
 3617SOL     OW11749   4.063   0.153   5.723
 3617SOL    HW111750   4.107   0.079   5.775
 3617SOL    HW211751   3.968   0.127   5.704
 3618SOL     OW11752   1.613   4.088   5.029
 3618SOL    HW111753   1.698   4.052   4.991
 3618SOL    HW211754   1.586   4.033   5.109
 3619SOL     OW11755   6.057   2.855   0.999
 3619SOL    HW111756   5.983   2.812   0.946
 3619SOL    HW211757   6.023   2.939   1.042
 3620SOL     OW11758   6.322   6.621   4.846
 3620SOL    HW111759   6.419   6.643   4.832
 3620SOL    HW211760   6.286   6.677   4.920
 3621SOL     OW11761   3.916   3.067   3.828
 3621SOL    HW111762   3.932   3.006   3.905
 3621SOL    HW211763   3.929   3.162   3.856
 3622SOL     OW11764   0.920   6.823   0.619
 3622SOL    HW111765   0.836   6.876   0.629
 3622SOL    HW211766   0.999   6.882   0.632
 3623SOL     OW11767   1.399   5.534   6.035
 3623SOL    HW111768   1.445   5.446   6.048
 3623SOL    HW211769   1.448   5.605   6.087
 3624SOL     OW11770   3.224   0.689   1.847
 3624SOL    HW111771   3.231   0.787   1.864
 3624SOL    HW211772   3.152   0.650   1.905
 3625SOL     OW11773   6.351   3.149   6.745
 3625SOL    HW111774   6.257   3.118   6.751
 3625SOL    HW211775   6.412   3.071   6.729
 3626SOL     OW11776   0.518   2.584   5.212
 3626SOL    HW111777   0.533   2.565   5.115
 3626SOL    HW211778   0.518   2.498   5.263
 3627SOL     OW11779   4.327   2.714   1.259
 3627SOL    HW111780   4.372   2.647   1.200
 3627SOL    HW211781   4.325   2.803   1.214
 3628SOL     OW11782   0.555   1.146   2.150
 3628SOL    HW111783   0.631   1.201   2.185
 3628SOL    HW211784   0.515   1.191   2.070
 3629SOL     OW11785   0.950   1.200   4.681
 3629SOL    HW111786   0.957   1.151   4.594
 3629SOL    HW211787   1.040   1.239   4.704
 3630SOL     OW11788   6.766   2.532   3.607
 3630SOL    HW111789   6.768   2.477   3.523
 3630SOL    HW211790   6.709   2.613   3.592
 3631SOL     OW11791   1.754   6.421   2.501
 3631SOL    HW111792   1.702   6.440   2.584
 3631SOL    HW211793   1.716   6.473   2.425
 3632SOL     OW11794   4.596   3.329   0.938
 3632SOL    HW111795   4.634   3.284   1.018
 3632SOL    HW211796   4.499   3.347   0.953
 3633SOL     OW11797   3.870   2.903   5.986
 3633SOL    HW111798   3.967   2.914   5.965
 3633SOL    HW211799   3.859   2.853   6.072
 3634SOL     OW11800   3.134   5.300   5.841
 3634SOL    HW111801   3.042   5.297   5.879
 3634SOL    HW211802   3.133   5.351   5.755
 3635SOL     OW11803   2.896   1.070   1.567
 3635SOL    HW111804   2.929   1.138   1.501
 3635SOL    HW211805   2.945   1.082   1.654
 3636SOL     OW11806   1.039   5.623   6.924
 3636SOL    HW111807   0.942   5.600   6.919
 3636SOL    HW211808   1.051   5.701   6.986
 3637SOL     OW11809   6.968   3.168   6.611
 3637SOL    HW111810   0.034   3.119   6.631
 3637SOL    HW211811   6.924   3.126   6.531
 3638SOL     OW11812   6.281   5.032   2.227
 3638SOL    HW111813   6.233   5.088   2.159
 3638SOL    HW211814   6.226   4.950   2.247
 3639SOL     OW11815   3.655   4.117   4.408
 3639SOL    HW111816   3.687   4.196   4.355
 3639SOL    HW211817   3.561   4.132   4.436
 3640SOL     OW11818   5.396   2.486   0.482
 3640SOL    HW111819   5.313   2.430   0.490
 3640SOL    HW211820   5.420   2.495   0.385
 3641SOL     OW11821   6.960   4.227   1.679
 3641SOL    HW111822   6.982   4.301   1.742
 3641SOL    HW211823   6.917   4.264   1.597
 3642SOL     OW11824   5.726   2.236   6.438
 3642SOL    HW111825   5.702   2.153   6.489
 3642SOL    HW211826   5.814   2.223   6.393
 3643SOL     OW11827   3.850   5.760   5.705
 3643SOL    HW111828   3.827   5.819   5.628
 3643SOL    HW211829   3.839   5.810   5.790
 3644SOL     OW11830   3.281   0.965   1.875
 3644SOL    HW111831   3.338   0.971   1.792
 3644SOL    HW211832   3.337   0.989   1.955
 3645SOL     OW11833   1.595   4.028   4.283
 3645SOL    HW111834   1.609   4.124   4.303
 3645SOL    HW211835   1.643   3.972   4.350
 3646SOL     OW11836   2.604   4.672   4.837
 3646SOL    HW111837   2.688   4.660   4.889
 3646SOL    HW211838   2.525   4.649   4.895
 3647SOL     OW11839   2.493   0.378   0.391
 3647SOL    HW111840   2.418   0.320   0.423
 3647SOL    HW211841   2.556   0.325   0.335
 3648SOL     OW11842   4.494   5.355   3.593
 3648SOL    HW111843   4.430   5.428   3.617
 3648SOL    HW211844   4.496   5.344   3.494
 3649SOL     OW11845   5.593   3.241   0.553
 3649SOL    HW111846   5.649   3.323   0.537
 3649SOL    HW211847   5.510   3.245   0.498
 3650SOL     OW11848   5.415   4.957   0.305
 3650SOL    HW111849   5.349   4.940   0.377
 3650SOL    HW211850   5.493   5.008   0.342
 3651SOL     OW11851   1.200   2.223   6.012
 3651SOL    HW111852   1.254   2.305   6.031
 3651SOL    HW211853   1.249   2.166   5.945
 3652SOL     OW11854   4.988   1.640   1.952
 3652SOL    HW111855   5.047   1.694   2.012
 3652SOL    HW211856   4.974   1.549   1.993
 3653SOL     OW11857   0.564   1.334   1.518
 3653SOL    HW111858   0.567   1.238   1.545
 3653SOL    HW211859   0.590   1.343   1.422
 3654SOL     OW11860   5.782   0.238   0.468
 3654SOL    HW111861   5.797   0.174   0.392
 3654SOL    HW211862   5.797   0.332   0.436
 3655SOL     OW11863   1.944   2.085   4.325
 3655SOL    HW111864   1.905   2.165   4.372
 3655SOL    HW211865   1.904   2.002   4.362
 3656SOL     OW11866   0.406   5.826   1.361
 3656SOL    HW111867   0.364   5.792   1.276
 3656SOL    HW211868   0.407   5.753   1.429
 3657SOL     OW11869   4.862   6.290   4.617
 3657SOL    HW111870   4.813   6.308   4.532
 3657SOL    HW211871   4.889   6.194   4.621
 3658SOL     OW11872   1.531   5.452   6.386
 3658SOL    HW111873   1.563   5.513   6.314
 3658SOL    HW211874   1.599   5.381   6.403
 3659SOL     OW11875   6.500   1.900   6.067
 3659SOL    HW111876   6.493   1.849   5.981
 3659SOL    HW211877   6.532   1.839   6.140
 3660SOL     OW11878   5.854   5.365   6.205
 3660SOL    HW111879   5.807   5.277   6.214
 3660SOL    HW211880   5.786   5.437   6.191
 3661SOL     OW11881   0.095   1.597   4.800
 3661SOL    HW111882   0.034   1.532   4.754
 3661SOL    HW211883   0.156   1.548   4.862
 3662SOL     OW11884   3.519   0.968   5.260
 3662SOL    HW111885   3.601   0.939   5.309
 3662SOL    HW211886   3.500   0.904   5.185
 3663SOL     OW11887   2.304   2.403   6.415
 3663SOL    HW111888   2.369   2.385   6.342
 3663SOL    HW211889   2.210   2.390   6.381
 3664SOL     OW11890   3.899   1.799   2.190
 3664SOL    HW111891   3.868   1.893   2.200
 3664SOL    HW211892   3.949   1.789   2.104
 3665SOL     OW11893   1.195   6.060   5.576
 3665SOL    HW111894   1.212   6.050   5.478
 3665SOL    HW211895   1.272   6.022   5.627
 3666SOL     OW11896   2.362   1.879   4.961
 3666SOL    HW111897   2.317   1.864   5.049
 3666SOL    HW211898   2.366   1.977   4.942
 3667SOL     OW11899   2.384   0.687   2.760
 3667SOL    HW111900   2.288   0.712   2.774
 3667SOL    HW211901   2.389   0.601   2.710
 3668SOL     OW11902   0.408   0.533   1.267
 3668SOL    HW111903   0.456   0.575   1.191
 3668SOL    HW211904   0.472   0.478   1.321
 3669SOL     OW11905   0.001   1.146   4.007
 3669SOL    HW111906   7.003   1.227   4.063
 3669SOL    HW211907   0.081   1.162   3.949
 3670SOL     OW11908   3.656   5.536   1.834
 3670SOL    HW111909   3.626   5.443   1.813
 3670SOL    HW211910   3.585   5.601   1.806
 3671SOL     OW11911   0.229   0.501   3.430
 3671SOL    HW111912   0.152   0.558   3.457
 3671SOL    HW211913   0.215   0.467   3.337
 3672SOL     OW11914   4.348   7.011   3.036
 3672SOL    HW111915   4.311   0.048   2.962
 3672SOL    HW211916   4.279   7.001   3.108
 3673SOL     OW11917   4.742   6.261   1.208
 3673SOL    HW111918   4.790   6.250   1.122
 3673SOL    HW211919   4.729   6.358   1.227
 3674SOL     OW11920   1.444   5.231   6.042
 3674SOL    HW111921   1.455   5.162   5.970
 3674SOL    HW211922   1.366   5.206   6.100
 3675SOL     OW11923   0.455   1.341   3.915
 3675SOL    HW111924   0.509   1.371   3.836
 3675SOL    HW211925   0.509   1.278   3.970
 3676SOL     OW11926   4.288   1.670   3.478
 3676SOL    HW111927   4.215   1.629   3.423
 3676SOL    HW211928   4.315   1.758   3.438
 3677SOL     OW11929   2.154   0.455   3.801
 3677SOL    HW111930   2.114   0.461   3.893
 3677SOL    HW211931   2.252   0.437   3.809
 3678SOL     OW11932   1.435   0.603   3.796
 3678SOL    HW111933   1.457   0.700   3.787
 3678SOL    HW211934   1.420   0.564   3.705
 3679SOL     OW11935   4.696   0.836   2.086
 3679SOL    HW111936   4.791   0.838   2.116
 3679SOL    HW211937   4.656   0.927   2.097
 3680SOL     OW11938   4.244   1.183   4.012
 3680SOL    HW111939   4.241   1.110   3.944
 3680SOL    HW211940   4.336   1.223   4.014
 3681SOL     OW11941   1.435   6.773   4.648
 3681SOL    HW111942   1.416   6.773   4.550
 3681SOL    HW211943   1.364   6.721   4.695
 3682SOL     OW11944   5.665   2.412   1.383
 3682SOL    HW111945   5.623   2.342   1.325
 3682SOL    HW211946   5.596   2.448   1.447
 3683SOL     OW11947   6.513   0.642   6.093
 3683SOL    HW111948   6.600   0.680   6.062
 3683SOL    HW211949   6.438   0.698   6.058
 3684SOL     OW11950   1.998   6.622   5.264
 3684SOL    HW111951   2.044   6.711   5.272
 3684SOL    HW211952   1.918   6.631   5.205
 3685SOL     OW11953   2.091   6.266   5.746
 3685SOL    HW111954   2.176   6.253   5.796
 3685SOL    HW211955   2.014   6.241   5.805
 3686SOL     OW11956   0.423   4.090   4.077
 3686SOL    HW111957   0.409   4.116   3.982
 3686SOL    HW211958   0.353   4.132   4.134
 3687SOL     OW11959   5.170   5.788   3.598
 3687SOL    HW111960   5.269   5.787   3.613
 3687SOL    HW211961   5.150   5.767   3.502
 3688SOL     OW11962   5.737   3.298   0.796
 3688SOL    HW111963   5.709   3.264   0.707
 3688SOL    HW211964   5.789   3.227   0.844
 3689SOL     OW11965   1.761   0.475   5.781
 3689SOL    HW111966   1.853   0.443   5.804
 3689SOL    HW211967   1.700   0.456   5.857
 3690SOL     OW11968   4.687   5.052   0.782
 3690SOL    HW111969   4.740   4.992   0.842
 3690SOL    HW211970   4.744   5.084   0.707
 3691SOL     OW11971   2.297   2.414   0.161
 3691SOL    HW111972   2.264   2.413   0.066
 3691SOL    HW211973   2.290   2.322   0.200
 3692SOL     OW11974   1.009   3.252   6.428
 3692SOL    HW111975   0.942   3.208   6.368
 3692SOL    HW211976   0.966   3.328   6.476
 3693SOL     OW11977   0.355   1.578   2.538
 3693SOL    HW111978   0.339   1.642   2.614
 3693SOL    HW211979   0.298   1.604   2.460
 3694SOL     OW11980   6.879   0.029   1.600
 3694SOL    HW111981   6.818   0.056   1.526
 3694SOL    HW211982   6.970   0.010   1.562
 3695SOL     OW11983   6.902   2.859   2.770
 3695SOL    HW111984   6.875   2.808   2.689
 3695SOL    HW211985   6.906   2.797   2.849
 3696SOL     OW11986   4.804   1.017   4.504
 3696SOL    HW111987   4.840   1.110   4.489
 3696SOL    HW211988   4.858   0.971   4.574
 3697SOL     OW11989   6.593   6.683   3.416
 3697SOL    HW111990   6.585   6.599   3.469
 3697SOL    HW211991   6.547   6.757   3.464
 3698SOL     OW11992   2.304   0.644   3.079
 3698SOL    HW111993   2.365   0.633   3.001
 3698SOL    HW211994   2.282   0.741   3.092
 3699SOL     OW11995   2.484   2.486   3.580
 3699SOL    HW111996   2.417   2.437   3.636
 3699SOL    HW211997   2.514   2.427   3.504
 3700SOL     OW11998   0.749   5.032   5.242
 3700SOL    HW111999   0.741   4.946   5.193
 3700SOL    HW212000   0.842   5.042   5.278
 3701SOL     OW12001   1.404   0.482   2.514
 3701SOL    HW112002   1.392   0.403   2.575
 3701SOL    HW212003   1.347   0.470   2.433
 3702SOL     OW12004   5.285   4.440   3.837
 3702SOL    HW112005   5.243   4.460   3.926
 3702SOL    HW212006   5.382   4.463   3.840
 3703SOL     OW12007   1.462   1.991   4.130
 3703SOL    HW112008   1.437   1.918   4.066
 3703SOL    HW212009   1.516   1.953   4.205
 3704SOL     OW12010   0.219   2.116   0.721
 3704SOL    HW112011   0.238   2.072   0.809
 3704SOL    HW212012   0.122   2.141   0.716
 3705SOL     OW12013   4.810   4.652   3.047
 3705SOL    HW112014   4.797   4.717   3.122
 3705SOL    HW212015   4.727   4.598   3.035
 3706SOL     OW12016   0.614   3.792   0.345
 3706SOL    HW112017   0.663   3.729   0.285
 3706SOL    HW212018   0.676   3.864   0.375
 3707SOL     OW12019   1.589   5.136   3.595
 3707SOL    HW112020   1.677   5.147   3.641
 3707SOL    HW212021   1.583   5.044   3.556
 3708SOL     OW12022   3.587   6.993   0.718
 3708SOL    HW112023   3.664   0.012   0.667
 3708SOL    HW212024   3.621   6.930   0.788
 3709SOL     OW12025   1.663   0.417   2.573
 3709SOL    HW112026   1.575   0.440   2.531
 3709SOL    HW212027   1.668   0.460   2.663
 3710SOL     OW12028   6.752   5.153   5.514
 3710SOL    HW112029   6.687   5.084   5.546
 3710SOL    HW212030   6.827   5.162   5.579
 3711SOL     OW12031   1.488   5.465   4.750
 3711SOL    HW112032   1.388   5.462   4.742
 3711SOL    HW212033   1.522   5.548   4.705
 3712SOL     OW12034   1.737   5.348   4.983
 3712SOL    HW112035   1.796   5.365   4.904
 3712SOL    HW212036   1.706   5.435   5.021
 3713SOL     OW12037   6.465   6.116   4.780
 3713SOL    HW112038   6.420   6.166   4.853
 3713SOL    HW212039   6.495   6.180   4.709
 3714SOL     OW12040   0.701   4.581   0.003
 3714SOL    HW112041   0.663   4.593   6.930
 3714SOL    HW212042   0.800   4.597   7.019
 3715SOL     OW12043   6.284   5.685   3.754
 3715SOL    HW112044   6.332   5.602   3.783
 3715SOL    HW212045   6.185   5.668   3.753
 3716SOL     OW12046   5.062   5.650   3.813
 3716SOL    HW112047   5.139   5.671   3.873
 3716SOL    HW212048   5.067   5.706   3.731
 3717SOL     OW12049   4.156   1.124   1.528
 3717SOL    HW112050   4.065   1.137   1.568
 3717SOL    HW212051   4.211   1.206   1.546
 3718SOL     OW12052   6.871   6.837   6.010
 3718SOL    HW112053   6.879   6.870   6.104
 3718SOL    HW212054   6.913   6.747   6.003
 3719SOL     OW12055   4.127   4.181   6.200
 3719SOL    HW112056   4.130   4.141   6.109
 3719SOL    HW212057   4.034   4.174   6.237
 3720SOL     OW12058   6.985   2.871   1.504
 3720SOL    HW112059   0.058   2.868   1.544
 3720SOL    HW212060   6.966   2.786   1.456
 3721SOL     OW12061   6.277   4.810   6.173
 3721SOL    HW112062   6.336   4.889   6.194
 3721SOL    HW212063   6.273   4.750   6.253
 3722SOL     OW12064   4.499   6.636   2.916
 3722SOL    HW112065   4.481   6.685   3.001
 3722SOL    HW212066   4.477   6.539   2.929
 3723SOL     OW12067   4.892   4.763   6.944
 3723SOL    HW112068   4.900   4.757   0.024
 3723SOL    HW212069   4.875   4.858   6.917
 3724SOL     OW12070   1.438   5.104   5.522
 3724SOL    HW112071   1.371   5.103   5.448
 3724SOL    HW212072   1.481   5.194   5.527
 3725SOL     OW12073   0.918   6.229   6.454
 3725SOL    HW112074   1.016   6.217   6.439
 3725SOL    HW212075   0.902   6.251   6.550
 3726SOL     OW12076   5.817   3.558   3.695
 3726SOL    HW112077   5.800   3.653   3.668
 3726SOL    HW212078   5.833   3.554   3.794
 3727SOL     OW12079   0.083   3.218   4.591
 3727SOL    HW112080   0.177   3.185   4.596
 3727SOL    HW212081   0.021   3.140   4.582
 3728SOL     OW12082   2.929   3.431   0.007
 3728SOL    HW112083   3.017   3.392   0.034
 3728SOL    HW212084   2.873   3.360   6.982
 3729SOL     OW12085   0.825   0.011   5.739
 3729SOL    HW112086   0.916   6.991   5.752
 3729SOL    HW212087   0.773   6.972   5.676
 3730SOL     OW12088   3.555   5.677   5.341
 3730SOL    HW112089   3.651   5.707   5.333
 3730SOL    HW212090   3.553   5.586   5.383
 3731SOL     OW12091   0.489   2.359   6.483
 3731SOL    HW112092   0.552   2.289   6.449
 3731SOL    HW212093   0.523   2.449   6.456
 3732SOL     OW12094   2.960   2.031   0.049
 3732SOL    HW112095   2.872   1.999   0.083
 3732SOL    HW212096   3.034   1.983   0.096
 3733SOL     OW12097   2.011   1.805   3.848
 3733SOL    HW112098   1.920   1.842   3.830
 3733SOL    HW212099   2.069   1.816   3.767
 3734SOL     OW12100   4.141   6.937   0.824
 3734SOL    HW112101   4.072   6.865   0.831
 3734SOL    HW212102   4.161   6.972   0.916
 3735SOL     OW12103   4.167   6.707   2.393
 3735SOL    HW112104   4.120   6.715   2.481
 3735SOL    HW212105   4.154   6.615   2.356
 3736SOL     OW12106   6.930   0.936   1.154
 3736SOL    HW112107   6.843   0.891   1.173
 3736SOL    HW212108   6.995   0.869   1.118
 3737SOL     OW12109   0.257   2.396   3.283
 3737SOL    HW112110   0.189   2.341   3.333
 3737SOL    HW212111   0.266   2.485   3.327
 3738SOL     OW12112   6.802   6.868   1.079
 3738SOL    HW112113   6.844   6.825   1.159
 3738SOL    HW212114   6.812   6.967   1.086
 3739SOL     OW12115   2.904   4.680   1.022
 3739SOL    HW112116   2.962   4.742   1.074
 3739SOL    HW212117   2.876   4.603   1.079
 3740SOL     OW12118   5.366   5.455   6.741
 3740SOL    HW112119   5.333   5.487   6.830
 3740SOL    HW212120   5.380   5.534   6.681
 3741SOL     OW12121   5.279   3.115   0.620
 3741SOL    HW112122   5.243   3.022   0.624
 3741SOL    HW212123   5.280   3.146   0.525
 3742SOL     OW12124   3.470   5.768   0.163
 3742SOL    HW112125   3.453   5.672   0.139
 3742SOL    HW212126   3.545   5.773   0.228
 3743SOL     OW12127   4.284   3.351   1.788
 3743SOL    HW112128   4.212   3.368   1.855
 3743SOL    HW212129   4.290   3.253   1.770
 3744SOL     OW12130   0.290   6.701   2.412
 3744SOL    HW112131   0.218   6.637   2.439
 3744SOL    HW212132   0.356   6.709   2.487
 3745SOL     OW12133   4.865   4.220   2.379
 3745SOL    HW112134   4.802   4.258   2.312
 3745SOL    HW212135   4.890   4.126   2.353
 3746SOL     OW12136   6.273   0.308   4.329
 3746SOL    HW112137   6.242   0.387   4.275
 3746SOL    HW212138   6.351   0.335   4.386
 3747SOL     OW12139   3.859   6.617   5.659
 3747SOL    HW112140   3.897   6.710   5.665
 3747SOL    HW212141   3.890   6.575   5.574
 3748SOL     OW12142   5.547   2.023   2.525
 3748SOL    HW112143   5.642   2.055   2.530
 3748SOL    HW212144   5.546   1.923   2.524
 3749SOL     OW12145   0.468   6.215   3.241
 3749SOL    HW112146   0.432   6.308   3.236
 3749SOL    HW212147   0.400   6.154   3.282
 3750SOL     OW12148   5.703   3.922   0.493
 3750SOL    HW112149   5.768   3.994   0.469
 3750SOL    HW212150   5.694   3.858   0.416
 3751SOL     OW12151   1.876   3.743   1.862
 3751SOL    HW112152   1.811   3.764   1.789
 3751SOL    HW212153   1.908   3.828   1.904
 3752SOL     OW12154   1.089   6.488   6.875
 3752SOL    HW112155   1.010   6.544   6.901
 3752SOL    HW212156   1.172   6.545   6.878
 3753SOL     OW12157   0.134   6.223   4.668
 3753SOL    HW112158   0.071   6.235   4.591
 3753SOL    HW212159   0.227   6.214   4.634
 3754SOL     OW12160   6.143   5.969   2.125
 3754SOL    HW112161   6.242   5.961   2.119
 3754SOL    HW212162   6.106   5.995   2.036
 3755SOL     OW12163   5.105   3.832   3.528
 3755SOL    HW112164   5.078   3.853   3.434
 3755SOL    HW212165   5.147   3.913   3.570
 3756SOL     OW12166   2.353   1.415   6.556
 3756SOL    HW112167   2.438   1.433   6.605
 3756SOL    HW212168   2.343   1.317   6.539
 3757SOL     OW12169   2.731   5.872   6.275
 3757SOL    HW112170   2.814   5.856   6.329
 3757SOL    HW212171   2.651   5.862   6.333
 3758SOL     OW12172   2.025   1.041   4.291
 3758SOL    HW112173   2.104   1.050   4.351
 3758SOL    HW212174   1.944   1.020   4.344
 3759SOL     OW12175   4.887   4.558   6.100
 3759SOL    HW112176   4.882   4.474   6.047
 3759SOL    HW212177   4.797   4.602   6.101
 3760SOL     OW12178   1.433   2.455   4.920
 3760SOL    HW112179   1.354   2.431   4.976
 3760SOL    HW212180   1.467   2.545   4.947
 3761SOL     OW12181   0.885   6.756   4.604
 3761SOL    HW112182   0.933   6.812   4.672
 3761SOL    HW212183   0.942   6.745   4.523
 3762SOL     OW12184   0.591   4.184   0.400
 3762SOL    HW112185   0.497   4.172   0.369
 3762SOL    HW212186   0.626   4.097   0.433
 3763SOL     OW12187   6.672   2.864   6.465
 3763SOL    HW112188   6.617   2.804   6.523
 3763SOL    HW212189   6.615   2.902   6.392
 3764SOL     OW12190   2.490   6.689   3.470
 3764SOL    HW112191   2.567   6.688   3.534
 3764SOL    HW212192   2.413   6.638   3.508
 3765SOL     OW12193   5.704   0.874   3.298
 3765SOL    HW112194   5.653   0.818   3.234
 3765SOL    HW212195   5.649   0.889   3.380
 3766SOL     OW12196   0.380   0.678   4.296
 3766SOL    HW112197   0.401   0.618   4.218
 3766SOL    HW212198   0.307   0.741   4.271
 3767SOL     OW12199   1.673   5.270   0.126
 3767SOL    HW112200   1.615   5.238   0.051
 3767SOL    HW212201   1.727   5.193   0.161
 3768SOL     OW12202   5.141   6.398   0.104
 3768SOL    HW112203   5.046   6.414   0.131
 3768SOL    HW212204   5.158   6.441   0.015
 3769SOL     OW12205   4.628   6.520   5.614
 3769SOL    HW112206   4.658   6.569   5.695
 3769SOL    HW212207   4.697   6.528   5.542
 3770SOL     OW12208   2.189   1.513   6.927
 3770SOL    HW112209   2.140   1.545   6.846
 3770SOL    HW212210   2.131   1.526   7.008
 3771SOL     OW12211   5.715   1.766   6.012
 3771SOL    HW112212   5.642   1.834   6.001
 3771SOL    HW212213   5.709   1.726   6.104
 3772SOL     OW12214   5.616   0.821   1.593
 3772SOL    HW112215   5.630   0.726   1.565
 3772SOL    HW212216   5.681   0.844   1.667
 3773SOL     OW12217   6.532   2.442   6.479
 3773SOL    HW112218   6.522   2.352   6.437
 3773SOL    HW212219   6.467   2.505   6.438
 3774SOL     OW12220   0.287   0.982   0.171
 3774SOL    HW112221   0.279   0.902   0.111
 3774SOL    HW212222   0.213   1.046   0.150
 3775SOL     OW12223   6.320   3.458   3.482
 3775SOL    HW112224   6.376   3.538   3.503
 3775SOL    HW212225   6.352   3.417   3.397
 3776SOL     OW12226   2.285   2.898   1.465
 3776SOL    HW112227   2.216   2.851   1.411
 3776SOL    HW212228   2.367   2.912   1.409
 3777SOL     OW12229   2.416   4.890   4.347
 3777SOL    HW112230   2.484   4.819   4.366
 3777SOL    HW212231   2.359   4.904   4.428
 3778SOL     OW12232   3.016   5.577   1.727
 3778SOL    HW112233   3.078   5.628   1.786
 3778SOL    HW212234   3.059   5.561   1.638
 3779SOL     OW12235   2.725   4.720   6.962
 3779SOL    HW112236   2.670   4.645   6.999
 3779SOL    HW212237   2.681   4.755   6.879
 3780SOL     OW12238   3.164   6.289   4.968
 3780SOL    HW112239   3.100   6.254   4.899
 3780SOL    HW212240   3.243   6.229   4.973
 3781SOL     OW12241   3.227   6.262   4.581
 3781SOL    HW112242   3.171   6.195   4.533
 3781SOL    HW212243   3.269   6.218   4.661
 3782SOL     OW12244   2.277   1.645   4.178
 3782SOL    HW112245   2.367   1.689   4.176
 3782SOL    HW212246   2.288   1.549   4.207
 3783SOL     OW12247   5.167   6.215   4.747
 3783SOL    HW112248   5.113   6.131   4.748
 3783SOL    HW212249   5.176   6.250   4.840
 3784SOL     OW12250   5.753   1.268   2.833
 3784SOL    HW112251   5.730   1.176   2.803
 3784SOL    HW212252   5.670   1.315   2.864
 3785SOL     OW12253   2.213   2.433   1.190
 3785SOL    HW112254   2.170   2.506   1.137
 3785SOL    HW212255   2.258   2.369   1.128
 3786SOL     OW12256   3.083   5.365   2.756
 3786SOL    HW112257   3.010   5.327   2.812
 3786SOL    HW212258   3.088   5.315   2.669
 3787SOL     OW12259   4.303   1.509   3.188
 3787SOL    HW112260   4.367   1.521   3.264
 3787SOL    HW212261   4.248   1.427   3.203
 3788SOL     OW12262   5.587   3.106   2.614
 3788SOL    HW112263   5.548   3.103   2.706
 3788SOL    HW212264   5.517   3.137   2.549
 3789SOL     OW12265   1.684   5.092   4.137
 3789SOL    HW112266   1.763   5.087   4.198
 3789SOL    HW212267   1.694   5.024   4.064
 3790SOL     OW12268   2.087   3.181   4.019
 3790SOL    HW112269   2.012   3.115   4.009
 3790SOL    HW212270   2.079   3.226   4.107
 3791SOL     OW12271   4.992   6.596   1.694
 3791SOL    HW112272   4.919   6.593   1.762
 3791SOL    HW212273   4.984   6.518   1.632
 3792SOL     OW12274   6.511   6.608   5.517
 3792SOL    HW112275   6.581   6.588   5.586
 3792SOL    HW212276   6.528   6.698   5.477
 3793SOL     OW12277   2.102   1.438   3.046
 3793SOL    HW112278   2.194   1.421   3.081
 3793SOL    HW212279   2.042   1.465   3.122
 3794SOL     OW12280   4.297   6.031   2.069
 3794SOL    HW112281   4.224   5.972   2.101
 3794SOL    HW212282   4.376   6.022   2.129
 3795SOL     OW12283   5.319   0.350   6.727
 3795SOL    HW112284   5.268   0.265   6.711
 3795SOL    HW212285   5.392   0.358   6.660
 3796SOL     OW12286   1.380   2.011   1.562
 3796SOL    HW112287   1.290   2.053   1.549
 3796SOL    HW212288   1.378   1.917   1.527
 3797SOL     OW12289   1.368   4.821   2.967
 3797SOL    HW112290   1.383   4.859   2.876
 3797SOL    HW212291   1.273   4.793   2.976
 3798SOL     OW12292   2.376   5.173   2.563
 3798SOL    HW112293   2.431   5.176   2.479
 3798SOL    HW212294   2.336   5.082   2.573
 3799SOL     OW12295   1.673   1.360   5.431
 3799SOL    HW112296   1.673   1.405   5.520
 3799SOL    HW212297   1.621   1.275   5.436
 3800SOL     OW12298   4.762   2.383   4.600
 3800SOL    HW112299   4.833   2.453   4.604
 3800SOL    HW212300   4.678   2.418   4.640
 3801SOL     OW12301   7.006   6.555   5.998
 3801SOL    HW112302   0.043   6.516   6.070
 3801SOL    HW212303   6.910   6.553   6.025
 3802SOL     OW12304   1.359   1.924   5.233
 3802SOL    HW112305   1.424   1.851   5.252
 3802SOL    HW212306   1.300   1.898   5.157
 3803SOL     OW12307   3.605   0.323   1.061
 3803SOL    HW112308   3.627   0.390   1.133
 3803SOL    HW212309   3.641   0.357   0.974
 3804SOL     OW12310   4.286   1.945   4.499
 3804SOL    HW112311   4.257   1.915   4.408
 3804SOL    HW212312   4.249   1.883   4.568
 3805SOL     OW12313   3.009   4.359   1.698
 3805SOL    HW112314   2.968   4.427   1.758
 3805SOL    HW212315   2.937   4.298   1.664
 3806SOL     OW12316   2.787   2.316   0.233
 3806SOL    HW112317   2.725   2.266   0.173
 3806SOL    HW212318   2.859   2.255   0.266
 3807SOL     OW12319   1.010   0.044   3.712
 3807SOL    HW112320   0.986   0.140   3.696
 3807SOL    HW212321   1.019   0.027   3.810
 3808SOL     OW12322   3.639   6.812   1.824
 3808SOL    HW112323   3.553   6.762   1.815
 3808SOL    HW212324   3.625   6.906   1.791
 3809SOL     OW12325   5.496   1.181   6.952
 3809SOL    HW112326   5.477   1.083   6.954
 3809SOL    HW212327   5.573   1.199   6.892
 3810SOL     OW12328   3.170   3.085   5.109
 3810SOL    HW112329   3.147   3.033   5.191
 3810SOL    HW212330   3.270   3.087   5.098
 3811SOL     OW12331   0.549   4.788   4.699
 3811SOL    HW112332   0.592   4.700   4.677
 3811SOL    HW212333   0.619   4.853   4.727
 3812SOL     OW12334   5.773   1.707   5.331
 3812SOL    HW112335   5.799   1.749   5.418
 3812SOL    HW212336   5.682   1.667   5.339
 3813SOL     OW12337   3.159   5.419   0.034
 3813SOL    HW112338   3.070   5.456   0.061
 3813SOL    HW212339   3.175   5.332   0.081
 3814SOL     OW12340   0.002   6.245   2.017
 3814SOL    HW112341   0.026   6.157   1.975
 3814SOL    HW212342   0.048   6.254   2.105
 3815SOL     OW12343   5.237   2.210   1.708
 3815SOL    HW112344   5.295   2.133   1.735
 3815SOL    HW212345   5.165   2.177   1.647
 3816SOL     OW12346   0.514   0.245   1.805
 3816SOL    HW112347   0.520   0.264   1.903
 3816SOL    HW212348   0.531   0.148   1.788
 3817SOL     OW12349   4.559   2.004   4.522
 3817SOL    HW112350   4.464   1.994   4.495
 3817SOL    HW212351   4.564   2.024   4.620
 3818SOL     OW12352   4.974   6.336   2.673
 3818SOL    HW112353   4.960   6.433   2.691
 3818SOL    HW212354   4.916   6.307   2.597
 3819SOL     OW12355   5.151   5.323   0.219
 3819SOL    HW112356   5.227   5.337   0.283
 3819SOL    HW212357   5.099   5.408   0.210
 3820SOL     OW12358   5.071   5.986   3.750
 3820SOL    HW112359   4.972   5.999   3.761
 3820SOL    HW212360   5.088   5.916   3.681
 3821SOL     OW12361   1.574   3.436   1.490
 3821SOL    HW112362   1.619   3.358   1.446
 3821SOL    HW212363   1.641   3.487   1.544
 3822SOL     OW12364   2.517   5.346   1.034
 3822SOL    HW112365   2.461   5.342   1.116
 3822SOL    HW212366   2.597   5.404   1.051
 3823SOL     OW12367   3.331   2.833   5.743
 3823SOL    HW112368   3.379   2.788   5.668
 3823SOL    HW212369   3.233   2.812   5.737
 3824SOL     OW12370   6.206   1.975   5.757
 3824SOL    HW112371   6.295   1.991   5.799
 3824SOL    HW212372   6.207   1.885   5.712
 3825SOL     OW12373   0.222   6.633   6.284
 3825SOL    HW112374   0.206   6.544   6.242
 3825SOL    HW212375   0.138   6.665   6.329
 3826SOL     OW12376   6.935   3.298   1.461
 3826SOL    HW112377   6.874   3.218   1.458
 3826SOL    HW212378   6.954   3.328   1.367
 3827SOL     OW12379   3.951   3.323   0.748
 3827SOL    HW112380   3.855   3.341   0.729
 3827SOL    HW212381   3.962   3.304   0.846
 3828SOL     OW12382   5.196   2.080   2.500
 3828SOL    HW112383   5.252   2.094   2.582
 3828SOL    HW212384   5.134   2.157   2.488
 3829SOL     OW12385   2.620   5.000   3.866
 3829SOL    HW112386   2.632   4.946   3.784
 3829SOL    HW212387   2.601   4.940   3.944
 3830SOL     OW12388   2.459   0.424   5.027
 3830SOL    HW112389   2.451   0.500   4.963
 3830SOL    HW212390   2.540   0.437   5.084
 3831SOL     OW12391   3.922   1.716   2.580
 3831SOL    HW112392   3.840   1.774   2.576
 3831SOL    HW212393   3.897   1.623   2.554
 3832SOL     OW12394   6.681   0.770   1.751
 3832SOL    HW112395   6.609   0.840   1.742
 3832SOL    HW212396   6.713   0.743   1.661
 3833SOL     OW12397   0.611   5.029   6.952
 3833SOL    HW112398   0.550   5.041   0.012
 3833SOL    HW212399   0.704   5.012   6.985
 3834SOL     OW12400   3.212   1.685   0.837
 3834SOL    HW112401   3.219   1.586   0.849
 3834SOL    HW212402   3.196   1.728   0.926
 3835SOL     OW12403   3.566   5.460   5.575
 3835SOL    HW112404   3.648   5.402   5.575
 3835SOL    HW212405   3.522   5.457   5.664
 3836SOL     OW12406   1.235   3.766   6.215
 3836SOL    HW112407   1.275   3.704   6.147
 3836SOL    HW212408   1.301   3.784   6.287
 3837SOL     OW12409   3.905   3.814   0.774
 3837SOL    HW112410   3.973   3.828   0.701
 3837SOL    HW212411   3.862   3.725   0.763
 3838SOL     OW12412   6.693   2.477   4.861
 3838SOL    HW112413   6.633   2.424   4.921
 3838SOL    HW212414   6.762   2.523   4.916
 3839SOL     OW12415   5.791   5.902   5.613
 3839SOL    HW112416   5.831   5.893   5.704
 3839SOL    HW212417   5.751   5.815   5.585
 3840SOL     OW12418   1.746   1.150   4.023
 3840SOL    HW112419   1.719   1.197   3.939
 3840SOL    HW212420   1.845   1.152   4.032
 3841SOL     OW12421   0.620   3.408   5.564
 3841SOL    HW112422   0.573   3.330   5.604
 3841SOL    HW212423   0.682   3.377   5.492
 3842SOL     OW12424   0.567   5.255   6.725
 3842SOL    HW112425   0.639   5.230   6.660
 3842SOL    HW212426   0.574   5.196   6.806
 3843SOL     OW12427   6.184   2.959   0.681
 3843SOL    HW112428   6.129   3.032   0.722
 3843SOL    HW212429   6.276   2.960   0.722
 3844SOL     OW12430   1.741   5.006   6.396
 3844SOL    HW112431   1.762   5.000   6.493
 3844SOL    HW212432   1.698   4.921   6.366
 3845SOL     OW12433   3.105   4.039   3.592
 3845SOL    HW112434   3.155   4.072   3.511
 3845SOL    HW212435   3.149   4.074   3.674
 3846SOL     OW12436   0.037   4.711   4.812
 3846SOL    HW112437   0.057   4.659   4.895
 3846SOL    HW212438   7.004   4.793   4.836
 3847SOL     OW12439   0.520   6.949   6.776
 3847SOL    HW112440   0.581   6.984   6.848
 3847SOL    HW212441   0.427   6.942   6.812
 3848SOL     OW12442   2.468   4.906   1.396
 3848SOL    HW112443   2.469   4.867   1.488
 3848SOL    HW212444   2.477   5.005   1.401
 3849SOL     OW12445   1.134   2.003   5.433
 3849SOL    HW112446   1.099   2.094   5.414
 3849SOL    HW212447   1.190   1.972   5.356
 3850SOL     OW12448   3.386   4.101   1.948
 3850SOL    HW112449   3.331   4.159   1.889
 3850SOL    HW212450   3.482   4.109   1.923
 3851SOL     OW12451   2.189   2.952   2.846
 3851SOL    HW112452   2.113   2.949   2.912
 3851SOL    HW212453   2.266   2.899   2.882
 3852SOL     OW12454   3.911   0.964   4.775
 3852SOL    HW112455   3.966   0.899   4.722
 3852SOL    HW212456   3.942   1.057   4.755
 3853SOL     OW12457   1.061   3.455   1.526
 3853SOL    HW112458   1.004   3.372   1.528
 3853SOL    HW212459   1.146   3.436   1.478
 3854SOL     OW12460   1.445   3.420   4.501
 3854SOL    HW112461   1.494   3.354   4.558
 3854SOL    HW212462   1.490   3.428   4.412
 3855SOL     OW12463   6.600   3.057   5.640
 3855SOL    HW112464   6.594   3.157   5.636
 3855SOL    HW212465   6.535   3.017   5.576
 3856SOL     OW12466   0.540   6.139   5.841
 3856SOL    HW112467   0.458   6.096   5.878
 3856SOL    HW212468   0.583   6.076   5.775
 3857SOL     OW12469   0.716   6.536   5.056
 3857SOL    HW112470   0.698   6.635   5.057
 3857SOL    HW212471   0.760   6.509   5.141
 3858SOL     OW12472   2.572   5.802   6.819
 3858SOL    HW112473   2.637   5.875   6.798
 3858SOL    HW212474   2.597   5.759   6.906
 3859SOL     OW12475   0.484   3.295   2.321
 3859SOL    HW112476   0.572   3.341   2.333
 3859SOL    HW212477   0.459   3.248   2.405
 3860SOL     OW12478   2.372   0.118   5.753
 3860SOL    HW112479   2.455   0.063   5.761
 3860SOL    HW212480   2.397   0.212   5.730
 3861SOL     OW12481   4.730   4.721   0.808
 3861SOL    HW112482   4.631   4.710   0.798
 3861SOL    HW212483   4.763   4.783   0.737
 3862SOL     OW12484   1.208   5.947   5.999
 3862SOL    HW112485   1.189   6.019   6.067
 3862SOL    HW212486   1.132   5.943   5.934
 3863SOL     OW12487   3.272   3.795   1.303
 3863SOL    HW112488   3.311   3.754   1.386
 3863SOL    HW212489   3.332   3.777   1.225
 3864SOL     OW12490   3.085   2.262   0.078
 3864SOL    HW112491   3.038   2.180   0.046
 3864SOL    HW212492   3.042   2.294   0.163
 3865SOL     OW12493   4.820   0.273   2.434
 3865SOL    HW112494   4.745   0.337   2.444
 3865SOL    HW212495   4.805   0.194   2.494
 3866SOL     OW12496   4.130   6.806   6.636
 3866SOL    HW112497   4.104   6.744   6.710
 3866SOL    HW212498   4.144   6.898   6.673
 3867SOL     OW12499   1.861   3.207   3.356
 3867SOL    HW112500   1.924   3.270   3.310
 3867SOL    HW212501   1.767   3.238   3.344
 3868SOL     OW12502   1.390   5.890   2.807
 3868SOL    HW112503   1.335   5.900   2.725
 3868SOL    HW212504   1.351   5.946   2.881
 3869SOL     OW12505   1.035   2.967   3.469
 3869SOL    HW112506   1.059   3.042   3.531
 3869SOL    HW212507   0.955   2.918   3.505
 3870SOL     OW12508   2.678   4.626   0.275
 3870SOL    HW112509   2.757   4.568   0.256
 3870SOL    HW212510   2.686   4.712   0.224
 3871SOL     OW12511   2.602   0.373   3.147
 3871SOL    HW112512   2.658   0.408   3.072
 3871SOL    HW212513   2.626   0.277   3.166
 3872SOL     OW12514   3.735   4.045   0.263
 3872SOL    HW112515   3.723   4.037   0.362
 3872SOL    HW212516   3.750   3.954   0.223
 3873SOL     OW12517   4.850   4.976   2.445
 3873SOL    HW112518   4.769   5.005   2.394
 3873SOL    HW212519   4.918   4.938   2.381
 3874SOL     OW12520   4.288   0.450   6.254
 3874SOL    HW112521   4.188   0.457   6.249
 3874SOL    HW212522   4.324   0.441   6.161
 3875SOL     OW12523   1.421   5.068   1.278
 3875SOL    HW112524   1.362   5.071   1.359
 3875SOL    HW212525   1.439   5.160   1.245
 3876SOL     OW12526   4.888   3.756   2.944
 3876SOL    HW112527   4.882   3.656   2.953
 3876SOL    HW212528   4.856   3.799   3.029
 3877SOL     OW12529   5.470   1.109   2.073
 3877SOL    HW112530   5.379   1.150   2.079
 3877SOL    HW212531   5.473   1.026   2.129
 3878SOL     OW12532   2.794   6.184   5.622
 3878SOL    HW112533   2.705   6.161   5.583
 3878SOL    HW212534   2.789   6.274   5.666
 3879SOL     OW12535   3.965   6.249   1.508
 3879SOL    HW112536   4.038   6.188   1.478
 3879SOL    HW212537   3.881   6.227   1.459
 3880SOL     OW12538   5.484   3.212   4.047
 3880SOL    HW112539   5.401   3.157   4.056
 3880SOL    HW212540   5.565   3.154   4.063
 3881SOL     OW12541   1.483   3.833   0.522
 3881SOL    HW112542   1.495   3.825   0.423
 3881SOL    HW212543   1.570   3.814   0.567
 3882SOL     OW12544   0.600   0.099   6.301
 3882SOL    HW112545   0.609   0.076   6.204
 3882SOL    HW212546   0.509   0.072   6.334
 3883SOL     OW12547   3.346   0.735   5.845
 3883SOL    HW112548   3.295   0.653   5.871
 3883SOL    HW212549   3.292   0.790   5.781
 3884SOL     OW12550   1.316   4.643   6.117
 3884SOL    HW112551   1.245   4.684   6.059
 3884SOL    HW212552   1.393   4.614   6.060
 3885SOL     OW12553   0.014   1.426   4.384
 3885SOL    HW112554   0.108   1.412   4.414
 3885SOL    HW212555   6.986   1.338   4.379
 3886SOL     OW12556   6.751   6.004   5.366
 3886SOL    HW112557   6.809   6.079   5.336
 3886SOL    HW212558   6.685   5.983   5.294
 3887SOL     OW12559   4.565   2.658   5.590
 3887SOL    HW112560   4.500   2.695   5.524
 3887SOL    HW212561   4.517   2.638   5.676
 3888SOL     OW12562   6.262   2.121   0.854
 3888SOL    HW112563   6.218   2.079   0.775
 3888SOL    HW212564   6.265   2.220   0.841
 3889SOL     OW12565   0.944   5.673   6.650
 3889SOL    HW112566   0.981   5.647   6.739
 3889SOL    HW212567   0.867   5.735   6.662
 3890SOL     OW12568   5.778   3.850   2.454
 3890SOL    HW112569   5.685   3.818   2.468
 3890SOL    HW212570   5.795   3.930   2.511
 3891SOL     OW12571   5.497   4.790   5.590
 3891SOL    HW112572   5.497   4.887   5.566
 3891SOL    HW212573   5.539   4.777   5.679
 3892SOL     OW12574   5.337   6.917   3.298
 3892SOL    HW112575   5.238   6.929   3.306
 3892SOL    HW212576   5.364   6.930   3.203
 3893SOL     OW12577   3.019   6.115   3.859
 3893SOL    HW112578   3.008   6.203   3.905
 3893SOL    HW212579   3.034   6.044   3.927
 3894SOL     OW12580   5.129   4.311   0.444
 3894SOL    HW112581   5.116   4.409   0.428
 3894SOL    HW212582   5.122   4.263   0.357
 3895SOL     OW12583   2.125   1.951   5.943
 3895SOL    HW112584   2.201   1.924   5.883
 3895SOL    HW212585   2.066   2.016   5.895
 3896SOL     OW12586   6.728   2.338   5.927
 3896SOL    HW112587   6.803   2.279   5.896
 3896SOL    HW212588   6.743   2.431   5.891
 3897SOL     OW12589   3.618   6.458   2.247
 3897SOL    HW112590   3.679   6.378   2.253
 3897SOL    HW212591   3.660   6.535   2.295
 3898SOL     OW12592   3.799   4.079   4.165
 3898SOL    HW112593   3.890   4.052   4.197
 3898SOL    HW212594   3.730   4.032   4.220
 3899SOL     OW12595   4.364   1.605   4.852
 3899SOL    HW112596   4.317   1.595   4.940
 3899SOL    HW212597   4.424   1.526   4.837
 3900SOL     OW12598   6.673   2.441   3.976
 3900SOL    HW112599   6.690   2.423   4.073
 3900SOL    HW212600   6.723   2.375   3.920
 3901SOL     OW12601   2.082   5.749   5.381
 3901SOL    HW112602   2.164   5.743   5.325
 3901SOL    HW212603   2.096   5.698   5.466
 3902SOL     OW12604   4.501   5.076   1.422
 3902SOL    HW112605   4.566   5.006   1.393
 3902SOL    HW212606   4.550   5.151   1.466
 3903SOL     OW12607   3.575   2.942   5.917
 3903SOL    HW112608   3.541   2.970   5.827
 3903SOL    HW212609   3.674   2.940   5.917
 3904SOL     OW12610   2.050   6.251   0.662
 3904SOL    HW112611   2.028   6.268   0.759
 3904SOL    HW212612   2.145   6.277   0.644
 3905SOL     OW12613   0.062   0.396   5.333
 3905SOL    HW112614   0.067   0.310   5.284
 3905SOL    HW212615   6.987   0.412   5.364
 3906SOL     OW12616   0.644   5.791   4.999
 3906SOL    HW112617   0.623   5.732   5.077
 3906SOL    HW212618   0.558   5.826   4.961
 3907SOL     OW12619   1.001   0.911   4.744
 3907SOL    HW112620   1.038   0.860   4.666
 3907SOL    HW212621   0.903   0.921   4.732
 3908SOL     OW12622   1.906   0.317   4.540
 3908SOL    HW112623   1.822   0.270   4.515
 3908SOL    HW212624   1.983   0.254   4.532
 3909SOL     OW12625   6.142   2.473   0.571
 3909SOL    HW112626   6.120   2.569   0.552
 3909SOL    HW212627   6.070   2.433   0.628
 3910SOL     OW12628   3.489   3.120   0.840
 3910SOL    HW112629   3.409   3.170   0.806
 3910SOL    HW212630   3.463   3.026   0.860
 3911SOL     OW12631   6.419   0.791   0.770
 3911SOL    HW112632   6.491   0.850   0.806
 3911SOL    HW212633   6.335   0.844   0.758
 3912SOL     OW12634   3.626   2.806   0.060
 3912SOL    HW112635   3.697   2.802   0.130
 3912SOL    HW212636   3.601   2.901   0.043
 3913SOL     OW12637   4.576   5.715   1.728
 3913SOL    HW112638   4.505   5.768   1.773
 3913SOL    HW212639   4.567   5.618   1.752
 3914SOL     OW12640   6.860   1.173   0.621
 3914SOL    HW112641   6.876   1.245   0.553
 3914SOL    HW212642   6.834   1.089   0.574
 3915SOL     OW12643   4.875   5.914   5.520
 3915SOL    HW112644   4.796   5.951   5.472
 3915SOL    HW212645   4.872   5.941   5.616
 3916SOL     OW12646   2.322   1.928   2.871
 3916SOL    HW112647   2.315   1.828   2.875
 3916SOL    HW212648   2.417   1.954   2.853
 3917SOL     OW12649   3.734   4.336   1.450
 3917SOL    HW112650   3.826   4.350   1.412
 3917SOL    HW212651   3.727   4.381   1.539
 3918SOL     OW12652   5.072   1.182   0.386
 3918SOL    HW112653   4.989   1.128   0.371
 3918SOL    HW212654   5.138   1.162   0.313
 3919SOL     OW12655   4.400   6.165   2.432
 3919SOL    HW112656   4.447   6.154   2.519
 3919SOL    HW212657   4.305   6.194   2.449
 3920SOL     OW12658   2.710   1.573   5.323
 3920SOL    HW112659   2.612   1.560   5.313
 3920SOL    HW212660   2.749   1.609   5.238
 3921SOL     OW12661   6.946   3.079   6.141
 3921SOL    HW112662   6.869   3.115   6.087
 3921SOL    HW212663   6.916   3.064   6.235
 3922SOL     OW12664   4.755   4.086   2.898
 3922SOL    HW112665   4.794   4.083   2.807
 3922SOL    HW212666   4.667   4.039   2.898
 3923SOL     OW12667   4.992   1.031   1.438
 3923SOL    HW112668   4.992   1.128   1.461
 3923SOL    HW212669   5.048   1.016   1.356
 3924SOL     OW12670   5.452   5.043   4.032
 3924SOL    HW112671   5.546   5.015   4.015
 3924SOL    HW212672   5.393   4.963   4.035
 3925SOL     OW12673   4.981   4.053   1.014
 3925SOL    HW112674   4.995   4.044   0.916
 3925SOL    HW212675   5.068   4.043   1.062
 3926SOL     OW12676   0.662   5.738   5.523
 3926SOL    HW112677   0.699   5.664   5.580
 3926SOL    HW212678   0.563   5.724   5.511
 3927SOL     OW12679   5.525   2.594   5.482
 3927SOL    HW112680   5.539   2.507   5.435
 3927SOL    HW212681   5.427   2.612   5.491
 3928SOL     OW12682   3.446   5.924   2.008
 3928SOL    HW112683   3.518   5.923   2.077
 3928SOL    HW212684   3.440   6.015   1.967
 3929SOL     OW12685   0.493   1.703   5.238
 3929SOL    HW112686   0.438   1.715   5.156
 3929SOL    HW212687   0.462   1.768   5.308
 3930SOL     OW12688   2.261   4.622   3.769
 3930SOL    HW112689   2.206   4.633   3.852
 3930SOL    HW212690   2.343   4.569   3.791
 3931SOL     OW12691   1.910   2.242   1.541
 3931SOL    HW112692   1.990   2.257   1.483
 3931SOL    HW212693   1.931   2.170   1.608
 3932SOL     OW12694   2.523   4.823   4.065
 3932SOL    HW112695   2.501   4.726   4.055
 3932SOL    HW212696   2.484   4.858   4.150
 3933SOL     OW12697   1.929   6.150   1.483
 3933SOL    HW112698   1.960   6.182   1.572
 3933SOL    HW212699   1.850   6.089   1.495
 3934SOL     OW12700   0.334   0.443   1.901
 3934SOL    HW112701   0.305   0.371   1.964
 3934SOL    HW212702   0.346   0.406   1.810
 3935SOL     OW12703   6.583   3.471   5.822
 3935SOL    HW112704   6.487   3.456   5.847
 3935SOL    HW212705   6.633   3.503   5.902
 3936SOL     OW12706   6.448   4.384   5.767
 3936SOL    HW112707   6.509   4.305   5.775
 3936SOL    HW212708   6.462   4.428   5.678
 3937SOL     OW12709   0.532   6.306   1.593
 3937SOL    HW112710   0.582   6.392   1.602
 3937SOL    HW212711   0.448   6.309   1.647
 3938SOL     OW12712   1.228   3.432   1.765
 3938SOL    HW112713   1.166   3.419   1.687
 3938SOL    HW212714   1.268   3.523   1.760
 3939SOL     OW12715   0.989   0.827   3.166
 3939SOL    HW112716   1.022   0.900   3.225
 3939SOL    HW212717   0.905   0.788   3.204
 3940SOL     OW12718   3.211   6.053   0.472
 3940SOL    HW112719   3.224   5.980   0.405
 3940SOL    HW212720   3.125   6.039   0.521
 3941SOL     OW12721   5.578   5.792   2.229
 3941SOL    HW112722   5.498   5.738   2.254
 3941SOL    HW212723   5.635   5.740   2.166
 3942SOL     OW12724   7.001   5.735   5.239
 3942SOL    HW112725   0.040   5.659   5.208
 3942SOL    HW212726   6.992   5.803   5.166
 3943SOL     OW12727   1.524   3.099   0.482
 3943SOL    HW112728   1.481   3.172   0.429
 3943SOL    HW212729   1.614   3.079   0.443
 3944SOL     OW12730   5.151   3.061   6.708
 3944SOL    HW112731   5.145   2.985   6.774
 3944SOL    HW212732   5.212   3.034   6.633
 3945SOL     OW12733   5.724   0.684   3.659
 3945SOL    HW112734   5.690   0.778   3.666
 3945SOL    HW212735   5.648   0.622   3.642
 3946SOL     OW12736   0.671   3.262   0.261
 3946SOL    HW112737   0.647   3.198   0.334
 3946SOL    HW212738   0.758   3.305   0.282
 3947SOL     OW12739   6.148   5.229   1.990
 3947SOL    HW112740   6.066   5.222   1.933
 3947SOL    HW212741   6.218   5.281   1.941
 3948SOL     OW12742   1.800   3.072   5.791
 3948SOL    HW112743   1.836   3.091   5.882
 3948SOL    HW212744   1.700   3.081   5.793
 3949SOL     OW12745   5.691   0.558   1.823
 3949SOL    HW112746   5.716   0.655   1.826
 3949SOL    HW212747   5.674   0.530   1.729
 3950SOL     OW12748   3.103   4.589   1.567
 3950SOL    HW112749   3.064   4.511   1.616
 3950SOL    HW212750   3.075   4.674   1.611
 3951SOL     OW12751   0.890   2.622   4.530
 3951SOL    HW112752   0.908   2.720   4.536
 3951SOL    HW212753   0.974   2.571   4.548
 3952SOL     OW12754   5.448   3.665   0.374
 3952SOL    HW112755   5.511   3.714   0.314
 3952SOL    HW212756   5.354   3.697   0.356
 3953SOL     OW12757   3.381   3.305   6.981
 3953SOL    HW112758   3.362   3.402   6.963
 3953SOL    HW212759   3.300   3.250   6.961
 3954SOL     OW12760   0.466   2.453   5.898
 3954SOL    HW112761   0.439   2.524   5.963
 3954SOL    HW212762   0.393   2.386   5.889
 3955SOL     OW12763   0.142   3.919   0.407
 3955SOL    HW112764   0.154   4.007   0.362
 3955SOL    HW212765   0.230   3.873   0.416
 3956SOL     OW12766   6.758   2.989   5.391
 3956SOL    HW112767   6.693   2.925   5.351
 3956SOL    HW212768   6.756   2.981   5.491
 3957SOL     OW12769   0.936   1.323   3.348
 3957SOL    HW112770   0.877   1.258   3.298
 3957SOL    HW212771   1.027   1.284   3.358
 3958SOL     OW12772   5.601   5.775   0.378
 3958SOL    HW112773   5.539   5.833   0.326
 3958SOL    HW212774   5.577   5.679   0.363
 3959SOL     OW12775   2.657   6.058   0.739
 3959SOL    HW112776   2.673   6.037   0.643
 3959SOL    HW212777   2.598   5.988   0.779
 3960SOL     OW12778   5.432   3.563   1.066
 3960SOL    HW112779   5.353   3.588   1.010
 3960SOL    HW212780   5.485   3.492   1.019
 3961SOL     OW12781   5.528   0.307   1.526
 3961SOL    HW112782   5.617   0.289   1.486
 3961SOL    HW212783   5.458   0.305   1.455
 3962SOL     OW12784   0.840   6.569   5.797
 3962SOL    HW112785   0.922   6.584   5.853
 3962SOL    HW212786   0.790   6.490   5.833
 3963SOL     OW12787   4.541   5.409   3.299
 3963SOL    HW112788   4.563   5.475   3.228
 3963SOL    HW212789   4.619   5.348   3.314
 3964SOL     OW12790   5.787   6.531   5.996
 3964SOL    HW112791   5.805   6.433   6.001
 3964SOL    HW212792   5.850   6.573   5.931
 3965SOL     OW12793   3.950   2.706   7.010
 3965SOL    HW112794   3.891   2.651   0.051
 3965SOL    HW212795   3.949   2.801   0.023
 3966SOL     OW12796   5.974   3.486   5.604
 3966SOL    HW112797   5.934   3.578   5.610
 3966SOL    HW212798   5.913   3.427   5.551
 3967SOL     OW12799   1.677   6.709   6.795
 3967SOL    HW112800   1.613   6.768   6.845
 3967SOL    HW212801   1.766   6.754   6.791
 3968SOL     OW12802   5.486   0.243   1.114
 3968SOL    HW112803   5.567   0.186   1.128
 3968SOL    HW212804   5.431   0.242   1.197
 3969SOL     OW12805   0.642   6.163   1.993
 3969SOL    HW112806   0.706   6.119   1.931
 3969SOL    HW212807   0.692   6.207   2.067
 3970SOL     OW12808   4.728   4.583   4.216
 3970SOL    HW112809   4.785   4.546   4.289
 3970SOL    HW212810   4.735   4.524   4.135
 3971SOL     OW12811   1.441   6.026   3.699
 3971SOL    HW112812   1.514   6.027   3.630
 3971SOL    HW212813   1.359   6.069   3.661
 3972SOL     OW12814   1.367   0.421   0.422
 3972SOL    HW112815   1.347   0.434   0.325
 3972SOL    HW212816   1.314   0.486   0.476
 3973SOL     OW12817   3.527   2.853   2.622
 3973SOL    HW112818   3.557   2.776   2.566
 3973SOL    HW212819   3.443   2.892   2.583
 3974SOL     OW12820   5.692   0.665   6.207
 3974SOL    HW112821   5.728   0.738   6.149
 3974SOL    HW212822   5.592   0.668   6.206
 3975SOL     OW12823   6.917   6.049   5.652
 3975SOL    HW112824   6.963   6.098   5.578
 3975SOL    HW212825   6.818   6.058   5.642
 3976SOL     OW12826   1.201   3.018   6.753
 3976SOL    HW112827   1.291   2.986   6.726
 3976SOL    HW212828   1.201   3.118   6.760
 3977SOL     OW12829   3.911   6.222   6.215
 3977SOL    HW112830   3.956   6.255   6.132
 3977SOL    HW212831   3.958   6.140   6.247
 3978SOL     OW12832   5.959   4.034   6.818
 3978SOL    HW112833   6.009   4.119   6.805
 3978SOL    HW212834   6.012   3.972   6.876
 3979SOL     OW12835   0.883   6.884   3.532
 3979SOL    HW112836   0.797   6.910   3.487
 3979SOL    HW212837   0.917   6.961   3.586
 3980SOL     OW12838   4.919   3.572   4.760
 3980SOL    HW112839   5.015   3.591   4.780
 3980SOL    HW212840   4.866   3.573   4.844
 3981SOL     OW12841   6.417   2.172   5.524
 3981SOL    HW112842   6.436   2.270   5.529
 3981SOL    HW212843   6.323   2.155   5.553
 3982SOL     OW12844   2.509   2.149   4.018
 3982SOL    HW112845   2.578   2.077   4.027
 3982SOL    HW212846   2.497   2.195   4.106
 3983SOL     OW12847   3.825   6.509   4.098
 3983SOL    HW112848   3.842   6.444   4.024
 3983SOL    HW212849   3.726   6.524   4.107
 3984SOL     OW12850   1.411   0.436   1.603
 3984SOL    HW112851   1.324   0.427   1.555
 3984SOL    HW212852   1.400   0.500   1.679
 3985SOL     OW12853   1.350   3.187   1.818
 3985SOL    HW112854   1.449   3.197   1.821
 3985SOL    HW212855   1.307   3.277   1.821
 3986SOL     OW12856   0.923   2.698   1.934
 3986SOL    HW112857   0.876   2.609   1.929
 3986SOL    HW212858   1.011   2.692   1.887
 3987SOL     OW12859   2.082   4.380   6.281
 3987SOL    HW112860   1.991   4.422   6.286
 3987SOL    HW212861   2.082   4.308   6.212
 3988SOL     OW12862   4.788   1.861   6.954
 3988SOL    HW112863   4.817   1.766   6.963
 3988SOL    HW212864   4.832   1.902   6.874
 3989SOL     OW12865   4.332   0.978   6.640
 3989SOL    HW112866   4.343   1.058   6.581
 3989SOL    HW212867   4.309   1.007   6.733
 3990SOL     OW12868   1.549   2.538   3.685
 3990SOL    HW112869   1.619   2.469   3.669
 3990SOL    HW212870   1.458   2.497   3.675
 3991SOL     OW12871   6.960   1.155   4.350
 3991SOL    HW112872   6.963   1.094   4.430
 3991SOL    HW212873   6.915   1.108   4.274
 3992SOL     OW12874   5.329   3.723   6.400
 3992SOL    HW112875   5.252   3.758   6.453
 3992SOL    HW212876   5.295   3.661   6.329
 3993SOL     OW12877   1.775   1.664   3.609
 3993SOL    HW112878   1.873   1.653   3.590
 3993SOL    HW212879   1.757   1.758   3.638
 3994SOL     OW12880   2.629   1.714   3.756
 3994SOL    HW112881   2.555   1.684   3.815
 3994SOL    HW212882   2.648   1.811   3.773
 3995SOL     OW12883   1.435   3.583   1.846
 3995SOL    HW112884   1.419   3.642   1.925
 3995SOL    HW212885   1.467   3.493   1.878
 3996SOL     OW12886   5.839   6.699   3.719
 3996SOL    HW112887   5.824   6.622   3.780
 3996SOL    HW212888   5.871   6.665   3.630
 3997SOL     OW12889   5.501   3.805   2.996
 3997SOL    HW112890   5.490   3.773   3.090
 3997SOL    HW212891   5.519   3.726   2.937
 3998SOL     OW12892   5.671   2.745   3.097
 3998SOL    HW112893   5.654   2.679   3.170
 3998SOL    HW212894   5.602   2.735   3.026
 3999SOL     OW12895   5.037   2.520   1.416
 3999SOL    HW112896   5.038   2.457   1.338
 3999SOL    HW212897   4.947   2.515   1.461
 4000SOL     OW12898   3.382   5.225   2.279
 4000SOL    HW112899   3.387   5.324   2.274
 4000SOL    HW212900   3.290   5.194   2.256
 4001SOL     OW12901   1.421   4.489   4.444
 4001SOL    HW112902   1.404   4.511   4.348
 4001SOL    HW212903   1.450   4.572   4.492
 4002SOL     OW12904   3.279   4.131   3.789
 4002SOL    HW112905   3.348   4.151   3.859
 4002SOL    HW212906   3.324   4.103   3.704
 4003SOL     OW12907   2.390   1.258   5.536
 4003SOL    HW112908   2.333   1.329   5.577
 4003SOL    HW212909   2.471   1.300   5.495
 4004SOL     OW12910   1.301   3.862   3.464
 4004SOL    HW112911   1.299   3.778   3.411
 4004SOL    HW212912   1.362   3.852   3.542
 4005SOL     OW12913   5.010   2.939   0.844
 4005SOL    HW112914   4.988   3.029   0.806
 4005SOL    HW212915   5.065   2.888   0.778
 4006SOL     OW12916   5.023   5.045   3.264
 4006SOL    HW112917   5.000   5.043   3.166
 4006SOL    HW212918   5.065   4.958   3.289
 4007SOL     OW12919   6.855   1.271   3.154
 4007SOL    HW112920   6.948   1.299   3.175
 4007SOL    HW212921   6.856   1.193   3.092
 4008SOL     OW12922   3.298   0.722   0.911
 4008SOL    HW112923   3.352   0.715   0.995
 4008SOL    HW212924   3.354   0.694   0.833
 4009SOL     OW12925   4.708   2.169   0.610
 4009SOL    HW112926   4.734   2.210   0.522
 4009SOL    HW212927   4.613   2.138   0.606
 4010SOL     OW12928   2.659   5.167   1.830
 4010SOL    HW112929   2.683   5.264   1.830
 4010SOL    HW212930   2.562   5.157   1.808
 4011SOL     OW12931   5.094   5.903   0.134
 4011SOL    HW112932   4.997   5.882   0.151
 4011SOL    HW212933   5.102   5.960   0.052
 4012SOL     OW12934   4.739   0.040   2.623
 4012SOL    HW112935   4.739   0.012   2.719
 4012SOL    HW212936   4.655   0.090   2.602
 4013SOL     OW12937   0.350   1.438   6.184
 4013SOL    HW112938   0.281   1.448   6.255
 4013SOL    HW212939   0.314   1.379   6.111
 4014SOL     OW12940   3.027   5.380   2.426
 4014SOL    HW112941   2.941   5.364   2.474
 4014SOL    HW212942   3.054   5.297   2.377
 4015SOL     OW12943   4.144   4.817   6.063
 4015SOL    HW112944   4.205   4.781   5.991
 4015SOL    HW212945   4.051   4.787   6.045
 4016SOL     OW12946   4.047   5.571   5.639
 4016SOL    HW112947   4.115   5.587   5.567
 4016SOL    HW212948   3.998   5.657   5.657
 4017SOL     OW12949   0.601   4.809   5.529
 4017SOL    HW112950   0.629   4.839   5.620
 4017SOL    HW212951   0.510   4.768   5.534
 4018SOL     OW12952   4.563   6.356   2.228
 4018SOL    HW112953   4.501   6.286   2.263
 4018SOL    HW212954   4.571   6.430   2.296
 4019SOL     OW12955   5.215   3.418   3.461
 4019SOL    HW112956   5.130   3.414   3.514
 4019SOL    HW212957   5.253   3.510   3.465
 4020SOL     OW12958   6.320   4.917   4.065
 4020SOL    HW112959   6.415   4.927   4.035
 4020SOL    HW212960   6.283   5.008   4.087
 4021SOL     OW12961   4.434   3.672   6.304
 4021SOL    HW112962   4.444   3.686   6.402
 4021SOL    HW212963   4.339   3.649   6.283
 4022SOL     OW12964   2.411   0.955   1.628
 4022SOL    HW112965   2.375   0.861   1.631
 4022SOL    HW212966   2.504   0.954   1.592
 4023SOL     OW12967   0.258   1.545   5.088
 4023SOL    HW112968   0.311   1.607   5.030
 4023SOL    HW212969   0.265   1.452   5.052
 4024SOL     OW12970   0.583   5.893   4.692
 4024SOL    HW112971   0.676   5.928   4.696
 4024SOL    HW212972   0.584   5.797   4.665
 4025SOL     OW12973   6.954   5.597   3.745
 4025SOL    HW112974   0.000   5.520   3.746
 4025SOL    HW212975   6.871   5.571   3.794
 4026SOL     OW12976   6.549   6.487   3.576
 4026SOL    HW112977   6.536   6.395   3.614
 4026SOL    HW212978   6.507   6.554   3.637
 4027SOL     OW12979   2.708   3.876   5.842
 4027SOL    HW112980   2.667   3.909   5.757
 4027SOL    HW212981   2.745   3.784   5.827
 4028SOL     OW12982   4.550   1.568   2.742
 4028SOL    HW112983   4.613   1.626   2.793
 4028SOL    HW212984   4.457   1.604   2.750
 4029SOL     OW12985   1.771   5.565   6.807
 4029SOL    HW112986   1.862   5.548   6.770
 4029SOL    HW212987   1.763   5.519   6.896
 4030SOL     OW12988   0.232   1.303   2.698
 4030SOL    HW112989   0.189   1.393   2.701
 4030SOL    HW212990   0.331   1.313   2.687
 4031SOL     OW12991   6.288   6.351   1.494
 4031SOL    HW112992   6.324   6.437   1.532
 4031SOL    HW212993   6.259   6.291   1.569
 4032SOL     OW12994   5.769   0.845   1.808
 4032SOL    HW112995   5.864   0.855   1.838
 4032SOL    HW212996   5.719   0.929   1.829
 4033SOL     OW12997   1.860   2.792   2.465
 4033SOL    HW112998   1.868   2.742   2.379
 4033SOL    HW212999   1.944   2.844   2.482
 4034SOL     OW13000   0.109   2.911   5.160
 4034SOL    HW113001   0.200   2.872   5.144
 4034SOL    HW213002   0.112   2.969   5.241
 4035SOL     OW13003   5.092   2.000   1.598
 4035SOL    HW113004   5.059   1.948   1.677
 4035SOL    HW213005   5.014   2.028   1.542
 4036SOL     OW13006   2.365   5.513   2.839
 4036SOL    HW113007   2.305   5.476   2.769
 4036SOL    HW213008   2.437   5.448   2.861
 4037SOL     OW13009   2.398   0.823   5.923
 4037SOL    HW113010   2.454   0.799   6.002
 4037SOL    HW213011   2.309   0.857   5.954
 4038SOL     OW13012   3.570   3.797   5.891
 4038SOL    HW113013   3.483   3.759   5.858
 4038SOL    HW213014   3.632   3.722   5.914
 4039SOL     OW13015   6.340   5.119   1.518
 4039SOL    HW113016   6.271   5.115   1.445
 4039SOL    HW213017   6.297   5.099   1.606
 4040SOL     OW13018   3.503   5.828   4.822
 4040SOL    HW113019   3.473   5.746   4.774
 4040SOL    HW213020   3.493   5.814   4.921
 4041SOL     OW13021   2.938   6.304   0.603
 4041SOL    HW113022   2.854   6.311   0.549
 4041SOL    HW213023   2.999   6.380   0.581
 4042SOL     OW13024   6.119   0.945   3.806
 4042SOL    HW113025   6.201   0.983   3.765
 4042SOL    HW213026   6.062   0.903   3.735
 4043SOL     OW13027   5.015   3.533   6.629
 4043SOL    HW113028   5.054   3.601   6.691
 4043SOL    HW213029   5.059   3.444   6.646
 4044SOL     OW13030   4.394   5.021   3.580
 4044SOL    HW113031   4.467   4.976   3.529
 4044SOL    HW213032   4.434   5.076   3.653
 4045SOL     OW13033   5.076   6.983   5.477
 4045SOL    HW113034   5.090   6.989   5.576
 4045SOL    HW213035   5.020   0.041   5.447
 4046SOL     OW13036   6.569   1.867   2.159
 4046SOL    HW113037   6.507   1.945   2.153
 4046SOL    HW213038   6.524   1.792   2.207
 4047SOL     OW13039   3.122   3.323   6.557
 4047SOL    HW113040   3.196   3.377   6.598
 4047SOL    HW213041   3.091   3.253   6.622
 4048SOL     OW13042   4.395   1.492   1.992
 4048SOL    HW113043   4.351   1.513   1.905
 4048SOL    HW213044   4.478   1.548   2.001
 4049SOL     OW13045   3.901   4.585   6.672
 4049SOL    HW113046   3.946   4.630   6.594
 4049SOL    HW213047   3.965   4.579   6.748
 4050SOL     OW13048   0.243   5.606   2.951
 4050SOL    HW113049   0.263   5.509   2.941
 4050SOL    HW213050   0.266   5.635   3.044
 4051SOL     OW13051   5.207   0.871   5.245
 4051SOL    HW113052   5.285   0.833   5.295
 4051SOL    HW213053   5.168   0.801   5.185
 4052SOL     OW13054   6.375   2.084   3.970
 4052SOL    HW113055   6.325   2.147   3.910
 4052SOL    HW213056   6.464   2.064   3.930
 4053SOL     OW13057   1.232   5.738   4.559
 4053SOL    HW113058   1.276   5.827   4.566
 4053SOL    HW213059   1.289   5.678   4.502
 4054SOL     OW13060   5.035   3.865   0.758
 4054SOL    HW113061   5.034   3.801   0.834
 4054SOL    HW213062   5.116   3.924   0.764
 4055SOL     OW13063   0.909   4.005   1.181
 4055SOL    HW113064   0.881   3.951   1.261
 4055SOL    HW213065   0.998   4.047   1.200
 4056SOL     OW13066   5.004   3.318   1.023
 4056SOL    HW113067   5.089   3.266   1.022
 4056SOL    HW213068   5.009   3.387   1.096
 4057SOL     OW13069   6.427   3.419   6.679
 4057SOL    HW113070   6.364   3.342   6.690
 4057SOL    HW213071   6.497   3.415   6.749
 4058SOL     OW13072   2.800   6.185   6.089
 4058SOL    HW113073   2.703   6.200   6.107
 4058SOL    HW213074   2.840   6.128   6.160
 4059SOL     OW13075   1.163   1.497   4.264
 4059SOL    HW113076   1.091   1.428   4.260
 4059SOL    HW213077   1.201   1.511   4.173
 4060SOL     OW13078   6.279   5.813   4.993
 4060SOL    HW113079   6.183   5.834   4.978
 4060SOL    HW213080   6.312   5.863   5.074
 4061SOL     OW13081   2.256   5.368   1.203
 4061SOL    HW113082   2.229   5.447   1.260
 4061SOL    HW213083   2.223   5.381   1.110
 4062SOL     OW13084   2.078   1.818   1.920
 4062SOL    HW113085   1.985   1.804   1.955
 4062SOL    HW213086   2.137   1.850   1.994
 4063SOL     OW13087   5.781   1.608   0.457
 4063SOL    HW113088   5.684   1.609   0.434
 4063SOL    HW213089   5.830   1.675   0.402
 4064SOL     OW13090   1.857   1.962   5.218
 4064SOL    HW113091   1.835   2.053   5.183
 4064SOL    HW213092   1.876   1.901   5.141
 4065SOL     OW13093   2.034   7.006   0.876
 4065SOL    HW113094   1.992   0.040   0.803
 4065SOL    HW213095   2.067   0.049   0.948
 4066SOL     OW13096   0.332   4.054   3.433
 4066SOL    HW113097   0.413   4.105   3.403
 4066SOL    HW213098   0.267   4.117   3.475
 4067SOL     OW13099   5.124   5.027   1.565
 4067SOL    HW113100   5.057   5.066   1.629
 4067SOL    HW213101   5.113   4.928   1.562
 4068SOL     OW13102   1.898   2.851   5.043
 4068SOL    HW113103   1.892   2.937   4.993
 4068SOL    HW213104   1.988   2.809   5.026
 4069SOL     OW13105   3.842   6.984   6.981
 4069SOL    HW113106   3.906   7.018   0.031
 4069SOL    HW213107   3.750   6.982   7.018
 4070SOL     OW13108   1.249   3.105   2.990
 4070SOL    HW113109   1.265   3.028   3.052
 4070SOL    HW213110   1.315   3.178   3.009
 4071SOL     OW13111   0.527   0.561   3.907
 4071SOL    HW113112   0.487   0.488   3.850
 4071SOL    HW213113   0.599   0.608   3.855
 4072SOL     OW13114   1.732   5.439   3.685
 4072SOL    HW113115   1.718   5.455   3.783
 4072SOL    HW213116   1.767   5.523   3.643
 4073SOL     OW13117   3.037   4.954   0.050
 4073SOL    HW113118   3.029   4.958   6.969
 4073SOL    HW213119   3.043   4.858   0.078
 4074SOL     OW13120   0.763   5.811   2.895
 4074SOL    HW113121   0.834   5.744   2.874
 4074SOL    HW213122   0.796   5.873   2.966
 4075SOL     OW13123   5.426   0.209   0.696
 4075SOL    HW113124   5.364   0.259   0.757
 4075SOL    HW213125   5.512   0.190   0.743
 4076SOL     OW13126   3.332   3.473   4.905
 4076SOL    HW113127   3.280   3.412   4.844
 4076SOL    HW213128   3.307   3.568   4.887
 4077SOL     OW13129   3.984   2.034   1.754
 4077SOL    HW113130   3.990   2.130   1.783
 4077SOL    HW213131   4.073   2.004   1.720
 4078SOL     OW13132   2.754   5.042   2.580
 4078SOL    HW113133   2.662   5.030   2.618
 4078SOL    HW213134   2.812   5.087   2.648
 4079SOL     OW13135   0.987   2.683   4.197
 4079SOL    HW113136   1.043   2.638   4.267
 4079SOL    HW213137   0.893   2.650   4.203
 4080SOL     OW13138   5.819   1.141   4.873
 4080SOL    HW113139   5.900   1.134   4.815
 4080SOL    HW213140   5.744   1.087   4.834
 4081SOL     OW13141   1.614   3.353   3.650
 4081SOL    HW113142   1.668   3.426   3.609
 4081SOL    HW213143   1.557   3.310   3.580
 4082SOL     OW13144   1.097   2.942   0.901
 4082SOL    HW113145   1.062   2.848   0.899
 4082SOL    HW213146   1.087   2.982   0.809
 4083SOL     OW13147   5.467   2.241   4.644
 4083SOL    HW113148   5.535   2.252   4.572
 4083SOL    HW213149   5.512   2.211   4.728
 4084SOL     OW13150   6.808   1.676   4.208
 4084SOL    HW113151   6.906   1.673   4.229
 4084SOL    HW213152   6.778   1.586   4.178
 4085SOL     OW13153   3.709   6.212   0.384
 4085SOL    HW113154   3.631   6.202   0.322
 4085SOL    HW213155   3.787   6.248   0.334
 4086SOL     OW13156   1.713   5.225   1.080
 4086SOL    HW113157   1.655   5.306   1.073
 4086SOL    HW213158   1.772   5.233   1.160
 4087SOL     OW13159   2.107   1.925   3.340
 4087SOL    HW113160   2.120   1.949   3.244
 4087SOL    HW213161   2.196   1.906   3.381
 4088SOL     OW13162   6.553   1.815   0.998
 4088SOL    HW113163   6.496   1.826   1.079
 4088SOL    HW213164   6.649   1.832   1.022
 4089SOL     OW13165   0.983   0.711   4.196
 4089SOL    HW113166   0.902   0.743   4.244
 4089SOL    HW213167   1.063   0.720   4.257
 4090SOL     OW13168   2.055   3.880   6.359
 4090SOL    HW113169   1.988   3.894   6.286
 4090SOL    HW213170   2.057   3.961   6.418
 4091SOL     OW13171   4.794   6.072   0.247
 4091SOL    HW113172   4.798   5.973   0.265
 4091SOL    HW213173   4.876   6.116   0.282
 4092SOL     OW13174   0.685   2.763   5.016
 4092SOL    HW113175   0.612   2.768   4.948
 4092SOL    HW213176   0.717   2.856   5.036
 4093SOL     OW13177   5.364   1.214   3.587
 4093SOL    HW113178   5.454   1.171   3.584
 4093SOL    HW213179   5.365   1.297   3.531
 4094SOL     OW13180   2.031   4.141   5.149
 4094SOL    HW113181   2.105   4.208   5.140
 4094SOL    HW213182   1.956   4.181   5.201
 4095SOL     OW13183   1.222   2.896   6.086
 4095SOL    HW113184   1.231   2.901   6.186
 4095SOL    HW213185   1.288   2.830   6.050
 4096SOL     OW13186   4.561   4.797   6.639
 4096SOL    HW113187   4.574   4.887   6.596
 4096SOL    HW213188   4.529   4.732   6.571
 4097SOL     OW13189   3.399   3.659   5.634
 4097SOL    HW113190   3.324   3.601   5.666
 4097SOL    HW213191   3.389   3.674   5.535
 4098SOL     OW13192   0.512   2.493   3.136
 4098SOL    HW113193   0.498   2.441   3.052
 4098SOL    HW213194   0.429   2.492   3.191
 4099SOL     OW13195   3.208   5.893   2.120
 4099SOL    HW113196   3.305   5.898   2.095
 4099SOL    HW213197   3.188   5.962   2.190
 4100SOL     OW13198   4.365   5.531   3.927
 4100SOL    HW113199   4.368   5.539   3.827
 4100SOL    HW213200   4.346   5.621   3.967
 4101SOL     OW13201   5.872   1.450   5.729
 4101SOL    HW113202   5.779   1.481   5.752
 4101SOL    HW213203   5.917   1.416   5.812
 4102SOL     OW13204   6.015   0.835   0.370
 4102SOL    HW113205   5.928   0.800   0.405
 4102SOL    HW213206   6.006   0.931   0.347
 4103SOL     OW13207   0.406   0.933   2.423
 4103SOL    HW113208   0.401   1.033   2.424
 4103SOL    HW213209   0.494   0.903   2.462
 4104SOL     OW13210   1.582   4.523   2.722
 4104SOL    HW113211   1.500   4.580   2.711
 4104SOL    HW213212   1.648   4.548   2.651
 4105SOL     OW13213   3.903   5.473   0.369
 4105SOL    HW113214   3.842   5.469   0.448
 4105SOL    HW213215   3.920   5.569   0.345
 4106SOL     OW13216   0.038   3.862   4.808
 4106SOL    HW113217   6.985   3.859   4.739
 4106SOL    HW213218   0.087   3.775   4.808
 4107SOL     OW13219   0.713   6.874   1.675
 4107SOL    HW113220   0.718   6.832   1.765
 4107SOL    HW213221   0.782   6.833   1.615
 4108SOL     OW13222   6.425   3.602   6.483
 4108SOL    HW113223   6.426   3.525   6.548
 4108SOL    HW213224   6.341   3.599   6.430
 4109SOL     OW13225   4.270   6.523   4.022
 4109SOL    HW113226   4.335   6.587   3.981
 4109SOL    HW213227   4.187   6.573   4.049
 4110SOL     OW13228   5.190   3.366   5.950
 4110SOL    HW113229   5.132   3.284   5.953
 4110SOL    HW213230   5.231   3.381   6.039
 4111SOL     OW13231   4.160   2.642   6.830
 4111SOL    HW113232   4.079   2.680   6.875
 4111SOL    HW213233   4.149   2.544   6.818
 4112SOL     OW13234   3.872   1.718   4.270
 4112SOL    HW113235   3.856   1.627   4.233
 4112SOL    HW213236   3.847   1.787   4.202
 4113SOL     OW13237   3.400   5.057   5.322
 4113SOL    HW113238   3.492   5.018   5.314
 4113SOL    HW213239   3.407   5.156   5.336
 4114SOL     OW13240   3.267   1.719   4.226
 4114SOL    HW113241   3.182   1.695   4.273
 4114SOL    HW213242   3.328   1.768   4.288
 4115SOL     OW13243   4.713   5.441   2.031
 4115SOL    HW113244   4.757   5.523   1.996
 4115SOL    HW213245   4.758   5.412   2.116
 4116SOL     OW13246   3.714   2.022   1.805
 4116SOL    HW113247   3.799   2.035   1.754
 4116SOL    HW213248   3.706   2.094   1.874
 4117SOL     OW13249   0.979   5.013   1.263
 4117SOL    HW113250   1.012   5.101   1.298
 4117SOL    HW213251   1.031   4.988   1.181
 4118SOL     OW13252   1.428   6.661   0.666
 4118SOL    HW113253   1.433   6.595   0.742
 4118SOL    HW213254   1.521   6.683   0.635
 4119SOL     OW13255   3.530   0.596   3.993
 4119SOL    HW113256   3.466   0.667   3.965
 4119SOL    HW213257   3.623   0.625   3.974
 4120SOL     OW13258   3.925   6.864   1.577
 4120SOL    HW113259   3.943   6.962   1.583
 4120SOL    HW213260   3.851   6.848   1.512
 4121SOL     OW13261   7.016   2.777   4.682
 4121SOL    HW113262   6.976   2.708   4.742
 4121SOL    HW213263   6.975   2.866   4.703
 4122SOL     OW13264   0.596   6.528   5.417
 4122SOL    HW113265   0.585   6.498   5.512
 4122SOL    HW213266   0.692   6.520   5.391
 4123SOL     OW13267   5.543   4.036   5.797
 4123SOL    HW113268   5.488   4.047   5.714
 4123SOL    HW213269   5.632   3.999   5.774
 4124SOL     OW13270   5.325   6.564   3.922
 4124SOL    HW113271   5.253   6.511   3.966
 4124SOL    HW213272   5.403   6.573   3.984
 4125SOL     OW13273   4.486   1.003   1.663
 4125SOL    HW113274   4.421   0.932   1.636
 4125SOL    HW213275   4.462   1.089   1.617
 4126SOL     OW13276   1.962   4.263   4.458
 4126SOL    HW113277   1.998   4.232   4.370
 4126SOL    HW213278   2.027   4.324   4.502
 4127SOL     OW13279   5.486   2.830   4.908
 4127SOL    HW113280   5.414   2.849   4.974
 4127SOL    HW213281   5.569   2.803   4.956
 4128SOL     OW13282   1.621   3.560   2.504
 4128SOL    HW113283   1.558   3.638   2.499
 4128SOL    HW213284   1.571   3.475   2.484
 4129SOL     OW13285   5.924   2.327   5.793
 4129SOL    HW113286   5.905   2.407   5.735
 4129SOL    HW213287   5.854   2.258   5.777
 4130SOL     OW13288   6.726   4.371   6.411
 4130SOL    HW113289   6.653   4.361   6.479
 4130SOL    HW213290   6.696   4.432   6.338
 4131SOL     OW13291   6.991   5.172   3.933
 4131SOL    HW113292   0.003   5.082   3.903
 4131SOL    HW213293   6.987   5.174   4.033
 4132SOL     OW13294   4.971   3.385   3.242
 4132SOL    HW113295   4.957   3.481   3.267
 4132SOL    HW213296   5.069   3.364   3.244
 4133SOL     OW13297   2.715   0.864   1.261
 4133SOL    HW113298   2.694   0.771   1.232
 4133SOL    HW213299   2.697   0.874   1.359
 4134SOL     OW13300   2.302   1.370   0.397
 4134SOL    HW113301   2.360   1.365   0.479
 4134SOL    HW213302   2.207   1.383   0.424
 4135SOL     OW13303   1.827   0.830   2.694
 4135SOL    HW113304   1.842   0.796   2.786
 4135SOL    HW213305   1.804   0.754   2.633
 4136SOL     OW13306   0.062   2.455   4.008
 4136SOL    HW113307   0.146   2.430   4.056
 4136SOL    HW213308   0.026   2.541   4.044
 4137SOL     OW13309   3.596   3.978   6.394
 4137SOL    HW113310   3.524   4.010   6.455
 4137SOL    HW213311   3.605   4.042   6.317
 4138SOL     OW13312   4.166   4.776   4.241
 4138SOL    HW113313   4.193   4.819   4.154
 4138SOL    HW213314   4.248   4.742   4.287
 4139SOL     OW13315   1.791   1.837   6.238
 4139SOL    HW113316   1.748   1.919   6.198
 4139SOL    HW213317   1.844   1.790   6.167
 4140SOL     OW13318   3.740   0.931   5.402
 4140SOL    HW113319   3.738   0.996   5.479
 4140SOL    HW213320   3.828   0.939   5.355
 4141SOL     OW13321   5.289   5.109   0.764
 4141SOL    HW113322   5.285   5.023   0.814
 4141SOL    HW213323   5.383   5.125   0.732
 4142SOL     OW13324   6.756   4.467   1.092
 4142SOL    HW113325   6.664   4.496   1.117
 4142SOL    HW213326   6.768   4.475   0.993
 4143SOL     OW13327   6.560   2.908   1.000
 4143SOL    HW113328   6.501   2.839   0.959
 4143SOL    HW213329   6.507   2.963   1.065
 4144SOL     OW13330   5.231   1.407   1.690
 4144SOL    HW113331   5.311   1.405   1.751
 4144SOL    HW213332   5.187   1.317   1.689
 4145SOL     OW13333   1.569   0.182   1.612
 4145SOL    HW113334   1.579   0.131   1.527
 4145SOL    HW213335   1.535   0.274   1.592
 4146SOL     OW13336   5.202   0.132   6.637
 4146SOL    HW113337   5.114   0.087   6.621
 4146SOL    HW213338   5.259   0.125   6.555
 4147SOL     OW13339   3.420   2.313   6.019
 4147SOL    HW113340   3.497   2.249   6.021
 4147SOL    HW213341   3.412   2.353   5.928
 4148SOL     OW13342   6.664   0.300   3.563
 4148SOL    HW113343   6.567   0.322   3.577
 4148SOL    HW213344   6.686   0.310   3.466
 4149SOL     OW13345   6.531   3.425   1.047
 4149SOL    HW113346   6.580   3.498   0.999
 4149SOL    HW213347   6.569   3.415   1.140
 4150SOL     OW13348   5.468   0.443   6.467
 4150SOL    HW113349   5.517   0.519   6.507
 4150SOL    HW213350   5.467   0.453   6.367
 4151SOL     OW13351   0.049   6.098   0.899
 4151SOL    HW113352   0.065   6.051   0.812
 4151SOL    HW213353   6.972   6.123   0.906
 4152SOL     OW13354   4.245   4.637   2.194
 4152SOL    HW113355   4.249   4.701   2.117
 4152SOL    HW213356   4.175   4.568   2.176
 4153SOL     OW13357   6.149   5.010   6.488
 4153SOL    HW113358   6.068   5.067   6.474
 4153SOL    HW213359   6.122   4.927   6.537
 4154SOL     OW13360   6.079   3.202   5.027
 4154SOL    HW113361   6.062   3.134   5.099
 4154SOL    HW213362   6.125   3.281   5.067
 4155SOL     OW13363   0.995   3.393   2.292
 4155SOL    HW113364   0.916   3.340   2.262
 4155SOL    HW213365   0.966   3.464   2.355
 4156SOL     OW13366   5.474   6.670   5.391
 4156SOL    HW113367   5.564   6.706   5.413
 4156SOL    HW213368   5.459   6.585   5.442
 4157SOL     OW13369   4.251   0.951   3.811
 4157SOL    HW113370   4.196   0.870   3.790
 4157SOL    HW213371   4.229   1.024   3.746
 4158SOL     OW13372   0.537   5.030   3.152
 4158SOL    HW113373   0.519   5.129   3.155
 4158SOL    HW213374   0.464   4.985   3.101
 4159SOL     OW13375   1.138   2.966   4.251
 4159SOL    HW113376   1.041   2.946   4.245
 4159SOL    HW213377   1.187   2.921   4.176
 4160SOL     OW13378   6.332   0.290   0.779
 4160SOL    HW113379   6.356   0.292   0.682
 4160SOL    HW213380   6.375   0.211   0.823
 4161SOL     OW13381   1.466   1.360   6.901
 4161SOL    HW113382   1.385   1.305   6.920
 4161SOL    HW213383   1.532   1.350   6.976
 4162SOL     OW13384   6.001   6.840   4.765
 4162SOL    HW113385   6.088   6.846   4.716
 4162SOL    HW213386   5.966   6.747   4.758
 4163SOL     OW13387   5.689   1.527   3.586
 4163SOL    HW113388   5.759   1.532   3.658
 4163SOL    HW213389   5.718   1.584   3.509
 4164SOL     OW13390   1.807   0.842   6.834
 4164SOL    HW113391   1.750   0.909   6.881
 4164SOL    HW213392   1.899   0.843   6.874
 4165SOL     OW13393   3.775   6.520   0.955
 4165SOL    HW113394   3.801   6.497   1.048
 4165SOL    HW213395   3.826   6.464   0.890
 4166SOL     OW13396   4.253   3.071   0.700
 4166SOL    HW113397   4.255   3.171   0.693
 4166SOL    HW213398   4.322   3.031   0.640
 4167SOL     OW13399   2.198   2.371   1.562
 4167SOL    HW113400   2.273   2.389   1.625
 4167SOL    HW213401   2.235   2.348   1.472
 4168SOL     OW13402   0.519   5.447   1.236
 4168SOL    HW113403   0.587   5.480   1.301
 4168SOL    HW213404   0.445   5.514   1.229
 4169SOL     OW13405   4.877   3.863   3.213
 4169SOL    HW113406   4.859   3.956   3.246
 4169SOL    HW213407   4.961   3.863   3.159
 4170SOL     OW13408   3.794   2.750   5.559
 4170SOL    HW113409   3.826   2.818   5.493
 4170SOL    HW213410   3.704   2.717   5.532
 4171SOL     OW13411   5.197   4.003   1.163
 4171SOL    HW113412   5.214   3.943   1.241
 4171SOL    HW213413   5.284   4.036   1.126
 4172SOL     OW13414   0.546   1.922   1.159
 4172SOL    HW113415   0.448   1.916   1.180
 4172SOL    HW213416   0.594   1.844   1.198
 4173SOL     OW13417   5.261   2.718   4.715
 4173SOL    HW113418   5.317   2.635   4.708
 4173SOL    HW213419   5.232   2.730   4.810
 4174SOL     OW13420   4.757   0.678   3.396
 4174SOL    HW113421   4.814   0.622   3.456
 4174SOL    HW213422   4.810   0.758   3.366
 4175SOL     OW13423   3.301   6.689   3.641
 4175SOL    HW113424   3.210   6.730   3.643
 4175SOL    HW213425   3.369   6.756   3.672
 4176SOL     OW13426   4.561   6.902   2.807
 4176SOL    HW113427   4.588   6.969   2.876
 4176SOL    HW213428   4.542   6.814   2.850
 4177SOL     OW13429   0.205   6.379   3.864
 4177SOL    HW113430   0.167   6.286   3.853
 4177SOL    HW213431   0.263   6.381   3.945
 4178SOL     OW13432   3.376   1.833   6.003
 4178SOL    HW113433   3.418   1.802   6.089
 4178SOL    HW213434   3.277   1.816   6.007
 4179SOL     OW13435   5.276   3.422   5.203
 4179SOL    HW113436   5.258   3.395   5.298
 4179SOL    HW213437   5.190   3.427   5.153
 4180SOL     OW13438   5.131   4.469   1.306
 4180SOL    HW113439   5.090   4.409   1.374
 4180SOL    HW213440   5.217   4.428   1.274
 4181SOL     OW13441   0.649   1.777   6.749
 4181SOL    HW113442   0.599   1.690   6.749
 4181SOL    HW213443   0.593   1.849   6.709
 4182SOL     OW13444   6.307   0.325   2.632
 4182SOL    HW113445   6.263   0.388   2.568
 4182SOL    HW213446   6.406   0.328   2.619
 4183SOL     OW13447   2.112   1.392   2.057
 4183SOL    HW113448   2.176   1.360   1.988
 4183SOL    HW213449   2.040   1.324   2.070
 4184SOL     OW13450   3.635   5.805   0.387
 4184SOL    HW113451   3.662   5.866   0.461
 4184SOL    HW213452   3.717   5.765   0.345
 4185SOL     OW13453   0.212   0.322   3.708
 4185SOL    HW113454   0.196   0.378   3.627
 4185SOL    HW213455   0.140   0.253   3.715
 4186SOL     OW13456   2.345   3.769   0.944
 4186SOL    HW113457   2.345   3.741   1.040
 4186SOL    HW213458   2.431   3.741   0.901
 4187SOL     OW13459   3.634   3.520   6.483
 4187SOL    HW113460   3.600   3.601   6.435
 4187SOL    HW213461   3.611   3.438   6.431
 4188SOL     OW13462   4.609   0.504   4.033
 4188SOL    HW113463   4.594   0.415   4.075
 4188SOL    HW213464   4.521   0.552   4.022
 4189SOL     OW13465   2.358   1.736   4.715
 4189SOL    HW113466   2.397   1.777   4.796
 4189SOL    HW213467   2.373   1.796   4.636
 4190SOL     OW13468   3.044   1.044   6.870
 4190SOL    HW113469   3.022   1.067   6.965
 4190SOL    HW213470   3.141   1.025   6.862
 4191SOL     OW13471   6.875   2.705   2.997
 4191SOL    HW113472   6.855   2.744   3.086
 4191SOL    HW213473   6.808   2.634   2.975
 4192SOL     OW13474   5.952   1.228   3.245
 4192SOL    HW113475   5.867   1.271   3.274
 4192SOL    HW213476   5.986   1.273   3.162
 4193SOL     OW13477   2.216   6.832   2.573
 4193SOL    HW113478   2.121   6.850   2.547
 4193SOL    HW213479   2.259   6.917   2.603
 4194SOL     OW13480   0.008   1.422   4.100
 4194SOL    HW113481   0.091   1.444   4.050
 4194SOL    HW213482   0.018   1.450   4.196
 4195SOL     OW13483   5.703   0.567   1.542
 4195SOL    HW113484   5.788   0.514   1.551
 4195SOL    HW213485   5.645   0.526   1.472
 4196SOL     OW13486   5.042   2.561   4.065
 4196SOL    HW113487   5.034   2.489   3.996
 4196SOL    HW213488   4.983   2.540   4.143
 4197SOL     OW13489   4.676   4.203   4.723
 4197SOL    HW113490   4.651   4.116   4.681
 4197SOL    HW213491   4.720   4.185   4.811
 4198SOL     OW13492   5.944   3.786   0.278
 4198SOL    HW113493   5.925   3.867   0.334
 4198SOL    HW213494   6.040   3.785   0.252
 4199SOL     OW13495   3.174   3.284   4.754
 4199SOL    HW113496   3.133   3.195   4.774
 4199SOL    HW213497   3.159   3.306   4.658
 4200SOL     OW13498   1.973   0.388   6.793
 4200SOL    HW113499   1.899   0.336   6.835
 4200SOL    HW213500   2.054   0.330   6.783
 4201SOL     OW13501   5.649   0.033   3.917
 4201SOL    HW113502   5.576   7.012   3.861
 4201SOL    HW213503   5.696   6.979   3.968
 4202SOL     OW13504   5.356   4.802   5.314
 4202SOL    HW113505   5.347   4.702   5.310
 4202SOL    HW213506   5.410   4.827   5.394
 4203SOL     OW13507   5.270   5.535   2.857
 4203SOL    HW113508   5.346   5.479   2.891
 4203SOL    HW213509   5.191   5.476   2.838
 4204SOL     OW13510   3.137   2.825   1.306
 4204SOL    HW113511   3.197   2.813   1.385
 4204SOL    HW213512   3.096   2.916   1.309
 4205SOL     OW13513   3.196   5.128   4.152
 4205SOL    HW113514   3.122   5.195   4.144
 4205SOL    HW213515   3.174   5.047   4.097
 4206SOL     OW13516   5.042   0.502   4.816
 4206SOL    HW113517   4.957   0.546   4.844
 4206SOL    HW213518   5.029   0.461   4.726
 4207SOL     OW13519   1.288   0.902   1.844
 4207SOL    HW113520   1.310   0.927   1.749
 4207SOL    HW213521   1.194   0.869   1.849
 4208SOL     OW13522   1.317   2.933   0.438
 4208SOL    HW113523   1.264   2.881   0.506
 4208SOL    HW213524   1.411   2.944   0.470
 4209SOL     OW13525   2.497   6.730   5.120
 4209SOL    HW113526   2.517   6.784   5.038
 4209SOL    HW213527   2.575   6.733   5.182
 4210SOL     OW13528   4.355   2.866   0.854
 4210SOL    HW113529   4.274   2.840   0.906
 4210SOL    HW213530   4.337   2.950   0.802
 4211SOL     OW13531   4.380   4.791   3.994
 4211SOL    HW113532   4.441   4.739   3.934
 4211SOL    HW213533   4.293   4.807   3.947
 4212SOL     OW13534   6.294   1.553   2.919
 4212SOL    HW113535   6.367   1.581   2.982
 4212SOL    HW213536   6.333   1.533   2.829
 4213SOL     OW13537   1.708   1.242   2.351
 4213SOL    HW113538   1.677   1.151   2.377
 4213SOL    HW213539   1.629   1.297   2.322
 4214SOL     OW13540   0.946   3.294   5.110
 4214SOL    HW113541   1.042   3.293   5.138
 4214SOL    HW213542   0.941   3.300   5.010
 4215SOL     OW13543   0.604   5.281   4.510
 4215SOL    HW113544   0.634   5.189   4.535
 4215SOL    HW213545   0.504   5.282   4.499
 4216SOL     OW13546   1.036   2.796   4.949
 4216SOL    HW113547   1.005   2.704   4.973
 4216SOL    HW213548   1.000   2.862   5.014
 4217SOL     OW13549   0.017   0.833   3.207
 4217SOL    HW113550   0.077   0.913   3.205
 4217SOL    HW213551   0.072   0.750   3.198
 4218SOL     OW13552   3.989   7.015   1.952
 4218SOL    HW113553   3.993   6.943   1.883
 4218SOL    HW213554   3.907   0.051   1.938
 4219SOL     OW13555   4.549   5.777   4.104
 4219SOL    HW113556   4.571   5.842   4.178
 4219SOL    HW213557   4.634   5.736   4.070
 4220SOL     OW13558   6.085   3.186   4.333
 4220SOL    HW113559   6.114   3.216   4.424
 4220SOL    HW213560   6.063   3.265   4.277
 4221SOL     OW13561   5.611   5.812   6.551
 4221SOL    HW113562   5.624   5.737   6.486
 4221SOL    HW213563   5.686   5.878   6.542
 4222SOL     OW13564   5.263   2.547   1.559
 4222SOL    HW113565   5.191   2.511   1.499
 4222SOL    HW213566   5.228   2.553   1.652
 4223SOL     OW13567   3.473   4.152   2.325
 4223SOL    HW113568   3.430   4.241   2.308
 4223SOL    HW213569   3.500   4.110   2.239
 4224SOL     OW13570   4.350   2.377   4.742
 4224SOL    HW113571   4.385   2.461   4.701
 4224SOL    HW213572   4.295   2.399   4.823
 4225SOL     OW13573   5.982   6.802   5.057
 4225SOL    HW113574   6.005   6.811   4.960
 4225SOL    HW213575   5.931   6.883   5.086
 4226SOL     OW13576   0.228   1.475   3.959
 4226SOL    HW113577   0.231   1.538   3.882
 4226SOL    HW213578   0.300   1.406   3.949
 4227SOL     OW13579   4.626   4.715   0.381
 4227SOL    HW113580   4.577   4.745   0.299
 4227SOL    HW213581   4.646   4.617   0.374
 4228SOL     OW13582   6.234   5.203   3.064
 4228SOL    HW113583   6.169   5.156   3.004
 4228SOL    HW213584   6.186   5.272   3.118
 4229SOL     OW13585   4.699   5.046   5.513
 4229SOL    HW113586   4.679   5.091   5.600
 4229SOL    HW213587   4.790   5.074   5.482
 4230SOL     OW13588   3.666   0.611   4.797
 4230SOL    HW113589   3.663   0.710   4.816
 4230SOL    HW213590   3.634   0.594   4.704
 4231SOL     OW13591   4.366   0.157   5.454
 4231SOL    HW113592   4.410   0.099   5.522
 4231SOL    HW213593   4.430   0.227   5.423
 4232SOL     OW13594   2.246   4.941   2.658
 4232SOL    HW113595   2.228   4.863   2.599
 4232SOL    HW213596   2.338   4.933   2.697
 4233SOL     OW13597   6.579   6.475   0.062
 4233SOL    HW113598   6.564   6.498   0.158
 4233SOL    HW213599   6.517   6.401   0.036
 4234SOL     OW13600   2.774   4.588   6.144
 4234SOL    HW113601   2.835   4.599   6.066
 4234SOL    HW213602   2.777   4.671   6.200
 4235SOL     OW13603   6.323   3.473   5.891
 4235SOL    HW113604   6.300   3.477   5.988
 4235SOL    HW213605   6.274   3.545   5.842
 4236SOL     OW13606   1.424   2.779   4.355
 4236SOL    HW113607   1.506   2.757   4.302
 4236SOL    HW213608   1.441   2.862   4.409
 4237SOL     OW13609   5.238   3.239   4.759
 4237SOL    HW113610   5.220   3.143   4.737
 4237SOL    HW213611   5.151   3.286   4.775
 4238SOL     OW13612   4.232   5.769   4.289
 4238SOL    HW113613   4.290   5.806   4.362
 4238SOL    HW213614   4.136   5.774   4.318
 4239SOL     OW13615   4.943   5.977   5.763
 4239SOL    HW113616   5.012   5.918   5.805
 4239SOL    HW213617   4.972   6.073   5.770
 4240SOL     OW13618   2.567   4.734   6.704
 4240SOL    HW113619   2.495   4.666   6.701
 4240SOL    HW213620   2.656   4.690   6.695
 4241SOL     OW13621   4.197   0.568   0.505
 4241SOL    HW113622   4.197   0.666   0.486
 4241SOL    HW213623   4.119   0.526   0.459
 4242SOL     OW13624   2.017   0.573   3.085
 4242SOL    HW113625   2.004   0.478   3.112
 4242SOL    HW213626   2.114   0.597   3.091
 4243SOL     OW13627   1.134   3.154   2.360
 4243SOL    HW113628   1.078   3.235   2.340
 4243SOL    HW213629   1.217   3.157   2.305
 4244SOL     OW13630   4.680   6.882   1.171
 4244SOL    HW113631   4.693   6.861   1.268
 4244SOL    HW213632   4.647   6.800   1.124
 4245SOL     OW13633   6.780   3.297   0.917
 4245SOL    HW113634   6.827   3.255   0.839
 4245SOL    HW213635   6.723   3.372   0.885
 4246SOL     OW13636   5.422   2.092   2.986
 4246SOL    HW113637   5.367   2.129   3.060
 4246SOL    HW213638   5.513   2.133   2.988
 4247SOL     OW13639   1.832   5.043   5.415
 4247SOL    HW113640   1.741   5.074   5.388
 4247SOL    HW213641   1.901   5.084   5.355
 4248SOL     OW13642   2.049   0.794   3.324
 4248SOL    HW113643   1.980   0.865   3.310
 4248SOL    HW213644   2.042   0.725   3.253
 4249SOL     OW13645   6.439   0.027   5.204
 4249SOL    HW113646   6.472   6.991   5.282
 4249SOL    HW213647   6.402   0.113   5.238
 4250SOL     OW13648   0.155   5.454   4.152
 4250SOL    HW113649   0.213   5.518   4.101
 4250SOL    HW213650   0.208   5.411   4.225
 4251SOL     OW13651   6.050   1.525   5.552
 4251SOL    HW113652   5.979   1.496   5.617
 4251SOL    HW213653   6.045   1.467   5.471
 4252SOL     OW13654   6.514   7.008   6.999
 4252SOL    HW113655   6.597   6.975   0.023
 4252SOL    HW213656   6.509   0.088   7.007
 4253SOL     OW13657   4.187   5.698   2.527
 4253SOL    HW113658   4.210   5.789   2.560
 4253SOL    HW213659   4.134   5.650   2.597
 4254SOL     OW13660   1.763   3.091   6.817
 4254SOL    HW113661   1.850   3.124   6.853
 4254SOL    HW213662   1.715   3.040   6.888
 4255SOL     OW13663   1.126   3.912   2.546
 4255SOL    HW113664   1.063   3.881   2.475
 4255SOL    HW213665   1.149   4.008   2.531
 4256SOL     OW13666   0.546   5.226   1.572
 4256SOL    HW113667   0.496   5.153   1.526
 4256SOL    HW213668   0.637   5.234   1.532
 4257SOL     OW13669   5.774   0.672   4.895
 4257SOL    HW113670   5.806   0.734   4.967
 4257SOL    HW213671   5.674   0.675   4.890
 4258SOL     OW13672   3.866   5.646   7.017
 4258SOL    HW113673   3.770   5.643   6.990
 4258SOL    HW213674   3.918   5.702   6.952
 4259SOL     OW13675   1.098   0.082   2.126
 4259SOL    HW113676   1.103   0.135   2.041
 4259SOL    HW213677   1.077   0.143   2.202
 4260SOL     OW13678   5.274   0.712   4.416
 4260SOL    HW113679   5.228   0.798   4.437
 4260SOL    HW213680   5.240   0.676   4.329
 4261SOL     OW13681   2.045   7.000   3.845
 4261SOL    HW113682   1.978   0.019   3.781
 4261SOL    HW213683   2.136   7.002   3.804
 4262SOL     OW13684   1.377   4.145   6.771
 4262SOL    HW113685   1.398   4.067   6.713
 4262SOL    HW213686   1.347   4.113   6.861
 4263SOL     OW13687   2.595   2.468   3.889
 4263SOL    HW113688   2.608   2.494   3.793
 4263SOL    HW213689   2.509   2.507   3.923
 4264SOL     OW13690   5.217   0.926   4.632
 4264SOL    HW113691   5.238   0.992   4.560
 4264SOL    HW213692   5.120   0.905   4.630
 4265SOL     OW13693   3.998   0.990   0.425
 4265SOL    HW113694   3.911   1.033   0.451
 4265SOL    HW213695   3.989   0.952   0.333
 4266SOL     OW13696   1.693   6.537   1.029
 4266SOL    HW113697   1.774   6.503   0.982
 4266SOL    HW213698   1.691   6.637   1.024
 4267SOL     OW13699   1.487   4.328   4.997
 4267SOL    HW113700   1.477   4.366   4.905
 4267SOL    HW213701   1.557   4.257   4.997
 4268SOL     OW13702   1.229   4.270   6.364
 4268SOL    HW113703   1.277   4.303   6.446
 4268SOL    HW213704   1.295   4.224   6.304
 4269SOL     OW13705   2.834   1.411   4.638
 4269SOL    HW113706   2.854   1.452   4.549
 4269SOL    HW213707   2.744   1.441   4.670
 4270SOL     OW13708   4.121   2.579   0.547
 4270SOL    HW113709   4.048   2.512   0.546
 4270SOL    HW213710   4.202   2.542   0.500
 4271SOL     OW13711   6.916   0.557   1.056
 4271SOL    HW113712   7.007   0.551   1.014
 4271SOL    HW213713   6.925   0.563   1.155
 4272SOL     OW13714   6.738   1.285   6.358
 4272SOL    HW113715   6.783   1.298   6.446
 4272SOL    HW213716   6.651   1.237   6.371
 4273SOL     OW13717   3.818   5.321   4.663
 4273SOL    HW113718   3.839   5.262   4.585
 4273SOL    HW213719   3.843   5.275   4.748
 4274SOL     OW13720   6.971   1.321   2.066
 4274SOL    HW113721   0.040   1.288   2.100
 4274SOL    HW213722   6.932   1.255   2.003
 4275SOL     OW13723   0.098   2.740   3.698
 4275SOL    HW113724   0.092   2.808   3.771
 4275SOL    HW213725   0.031   2.667   3.714
 4276SOL     OW13726   2.073   5.756   4.332
 4276SOL    HW113727   2.082   5.828   4.263
 4276SOL    HW213728   2.109   5.670   4.295
 4277SOL     OW13729   6.114   5.400   3.223
 4277SOL    HW113730   6.042   5.435   3.283
 4277SOL    HW213731   6.194   5.460   3.228
 4278SOL     OW13732   1.157   6.505   1.708
 4278SOL    HW113733   1.111   6.450   1.639
 4278SOL    HW213734   1.124   6.600   1.704
 4279SOL     OW13735   1.850   1.816   3.286
 4279SOL    HW113736   1.766   1.871   3.288
 4279SOL    HW213737   1.921   1.862   3.339
 4280SOL     OW13738   0.780   6.755   6.132
 4280SOL    HW113739   0.702   6.722   6.077
 4280SOL    HW213740   0.747   6.781   6.223
 4281SOL     OW13741   4.460   5.800   3.465
 4281SOL    HW113742   4.376   5.746   3.462
 4281SOL    HW213743   4.484   5.819   3.560
 4282SOL     OW13744   3.641   3.955   1.161
 4282SOL    HW113745   3.705   3.905   1.103
 4282SOL    HW213746   3.624   3.904   1.244
 4283SOL     OW13747   4.979   1.554   3.797
 4283SOL    HW113748   4.968   1.490   3.873
 4283SOL    HW213749   5.075   1.559   3.771
 4284SOL     OW13750   4.816   5.830   5.981
 4284SOL    HW113751   4.810   5.901   5.911
 4284SOL    HW213752   4.911   5.801   5.991
 4285SOL     OW13753   3.072   0.517   5.565
 4285SOL    HW113754   3.038   0.490   5.475
 4285SOL    HW213755   3.020   0.469   5.636
 4286SOL     OW13756   5.530   0.890   6.484
 4286SOL    HW113757   5.629   0.875   6.491
 4286SOL    HW213758   5.511   0.946   6.404
 4287SOL     OW13759   4.840   0.616   0.075
 4287SOL    HW113760   4.793   0.528   0.088
 4287SOL    HW213761   4.834   0.642   6.997
 4288SOL     OW13762   6.721   6.650   2.547
 4288SOL    HW113763   6.738   6.556   2.577
 4288SOL    HW213764   6.670   6.699   2.618
 4289SOL     OW13765   0.627   3.488   4.692
 4289SOL    HW113766   0.576   3.459   4.611
 4289SOL    HW213767   0.630   3.588   4.696
 4290SOL     OW13768   0.218   0.929   3.605
 4290SOL    HW113769   0.165   1.014   3.604
 4290SOL    HW213770   0.173   0.862   3.663
 4291SOL     OW13771   5.290   3.068   6.445
 4291SOL    HW113772   5.379   3.041   6.408
 4291SOL    HW213773   5.217   3.031   6.387
 4292SOL     OW13774   5.939   2.126   0.849
 4292SOL    HW113775   5.933   2.102   0.946
 4292SOL    HW213776   5.942   2.225   0.840
 4293SOL     OW13777   3.424   4.302   7.012
 4293SOL    HW113778   3.400   4.221   6.959
 4293SOL    HW213779   3.520   4.325   6.998
 4294SOL     OW13780   2.451   1.711   6.505
 4294SOL    HW113781   2.380   1.767   6.548
 4294SOL    HW213782   2.442   1.616   6.536
 4295SOL     OW13783   3.773   5.995   3.071
 4295SOL    HW113784   3.770   5.996   2.971
 4295SOL    HW213785   3.683   6.020   3.107
 4296SOL     OW13786   2.868   6.138   2.046
 4296SOL    HW113787   2.854   6.233   2.017
 4296SOL    HW213788   2.897   6.136   2.142
 4297SOL     OW13789   6.027   4.822   0.817
 4297SOL    HW113790   6.117   4.794   0.850
 4297SOL    HW213791   6.038   4.887   0.742
 4298SOL     OW13792   3.051   6.512   7.005
 4298SOL    HW113793   3.147   6.528   6.983
 4298SOL    HW213794   2.999   6.498   6.920
 4299SOL     OW13795   0.956   2.915   0.120
 4299SOL    HW113796   0.909   2.991   0.074
 4299SOL    HW213797   1.037   2.890   0.068
 4300SOL     OW13798   2.982   1.339   0.932
 4300SOL    HW113799   2.986   1.406   1.007
 4300SOL    HW213800   3.074   1.327   0.893
 4301SOL     OW13801   2.919   6.619   1.532
 4301SOL    HW113802   2.872   6.694   1.578
 4301SOL    HW213803   3.011   6.607   1.571
 4302SOL     OW13804   2.013   5.441   6.039
 4302SOL    HW113805   1.913   5.437   6.033
 4302SOL    HW213806   2.040   5.509   6.107
 4303SOL     OW13807   6.200   4.252   3.388
 4303SOL    HW113808   6.116   4.249   3.442
 4303SOL    HW213809   6.259   4.324   3.421
 4304SOL     OW13810   3.385   3.722   1.539
 4304SOL    HW113811   3.426   3.799   1.586
 4304SOL    HW213812   3.400   3.638   1.592
 4305SOL     OW13813   1.734   0.646   5.225
 4305SOL    HW113814   1.658   0.584   5.241
 4305SOL    HW213815   1.774   0.674   5.312
 4306SOL     OW13816   5.457   3.167   4.891
 4306SOL    HW113817   5.419   3.081   4.926
 4306SOL    HW213818   5.391   3.210   4.830
 4307SOL     OW13819   6.973   1.515   5.391
 4307SOL    HW113820   6.948   1.480   5.481
 4307SOL    HW213821   0.050   1.492   5.372
 4308SOL     OW13822   4.971   5.422   6.863
 4308SOL    HW113823   5.002   5.504   6.912
 4308SOL    HW213824   5.013   5.421   6.772
 4309SOL     OW13825   1.299   3.074   0.687
 4309SOL    HW113826   1.237   3.003   0.656
 4309SOL    HW213827   1.392   3.055   0.654
 4310SOL     OW13828   6.958   1.575   2.951
 4310SOL    HW113829   6.994   1.539   3.037
 4310SOL    HW213830   6.859   1.558   2.946
 4311SOL     OW13831   0.733   0.567   2.806
 4311SOL    HW113832   0.769   0.483   2.765
 4311SOL    HW213833   0.786   0.588   2.889
 4312SOL     OW13834   0.564   4.852   2.618
 4312SOL    HW113835   0.589   4.762   2.581
 4312SOL    HW213836   0.645   4.894   2.660
 4313SOL     OW13837   5.977   1.909   0.131
 4313SOL    HW113838   6.070   1.945   0.121
 4313SOL    HW213839   5.976   1.840   0.204
 4314SOL     OW13840   6.602   2.114   5.306
 4314SOL    HW113841   6.696   2.137   5.328
 4314SOL    HW213842   6.543   2.135   5.384
 4315SOL     OW13843   2.857   1.463   4.302
 4315SOL    HW113844   2.833   1.461   4.205
 4315SOL    HW213845   2.889   1.372   4.331
 4316SOL     OW13846   5.324   6.831   1.495
 4316SOL    HW113847   5.265   6.762   1.453
 4316SOL    HW213848   5.270   6.885   1.561
 4317SOL     OW13849   4.273   0.930   5.962
 4317SOL    HW113850   4.354   0.891   5.917
 4317SOL    HW213851   4.211   0.856   5.989
 4318SOL     OW13852   0.449   1.235   4.314
 4318SOL    HW113853   0.458   1.190   4.225
 4318SOL    HW213854   0.452   1.166   4.386
 4319SOL     OW13855   1.383   4.692   2.672
 4319SOL    HW113856   1.294   4.675   2.715
 4319SOL    HW213857   1.401   4.791   2.672
 4320SOL     OW13858   3.417   6.186   0.602
 4320SOL    HW113859   3.372   6.249   0.665
 4320SOL    HW213860   3.349   6.143   0.542
 4321SOL     OW13861   6.351   6.922   2.533
 4321SOL    HW113862   6.321   6.840   2.582
 4321SOL    HW213863   6.435   6.956   2.575
 4322SOL     OW13864   0.876   3.040   5.388
 4322SOL    HW113865   0.808   2.978   5.428
 4322SOL    HW213866   0.950   3.054   5.453
 4323SOL     OW13867   4.088   5.134   6.683
 4323SOL    HW113868   4.155   5.160   6.613
 4323SOL    HW213869   4.124   5.157   6.773
 4324SOL     OW13870   6.614   4.137   5.785
 4324SOL    HW113871   6.615   4.059   5.722
 4324SOL    HW213872   6.569   4.112   5.870
 4325SOL     OW13873   2.482   0.597   2.265
 4325SOL    HW113874   2.522   0.537   2.333
 4325SOL    HW213875   2.550   0.664   2.235
 4326SOL     OW13876   4.536   2.468   2.766
 4326SOL    HW113877   4.458   2.466   2.829
 4326SOL    HW213878   4.502   2.469   2.672
 4327SOL     OW13879   3.009   5.508   4.131
 4327SOL    HW113880   3.074   5.474   4.063
 4327SOL    HW213881   2.921   5.462   4.119
 4328SOL     OW13882   5.555   6.545   4.549
 4328SOL    HW113883   5.533   6.480   4.621
 4328SOL    HW213884   5.589   6.630   4.589
 4329SOL     OW13885   6.779   1.942   5.840
 4329SOL    HW113886   6.791   1.967   5.936
 4329SOL    HW213887   6.751   2.022   5.788
 4330SOL     OW13888   2.992   4.835   4.927
 4330SOL    HW113889   3.060   4.800   4.991
 4330SOL    HW213890   2.905   4.788   4.942
 4331SOL     OW13891   6.031   0.874   2.204
 4331SOL    HW113892   5.941   0.915   2.188
 4331SOL    HW213893   6.024   0.774   2.194
 4332SOL     OW13894   0.162   5.083   2.724
 4332SOL    HW113895   0.140   5.113   2.817
 4332SOL    HW213896   0.232   5.143   2.685
 4333SOL     OW13897   3.486   2.191   5.535
 4333SOL    HW113898   3.469   2.132   5.614
 4333SOL    HW213899   3.422   2.168   5.462
 4334SOL     OW13900   0.253   2.332   4.188
 4334SOL    HW113901   0.181   2.289   4.242
 4334SOL    HW213902   0.268   2.425   4.221
 4335SOL     OW13903   2.703   3.774   1.493
 4335SOL    HW113904   2.608   3.754   1.517
 4335SOL    HW213905   2.714   3.767   1.394
 4336SOL     OW13906   2.931   4.849   5.532
 4336SOL    HW113907   2.907   4.834   5.436
 4336SOL    HW213908   3.031   4.853   5.541
 4337SOL     OW13909   1.453   5.359   3.797
 4337SOL    HW113910   1.519   5.310   3.740
 4337SOL    HW213911   1.443   5.453   3.763
 4338SOL     OW13912   4.146   0.674   6.034
 4338SOL    HW113913   4.216   0.602   6.029
 4338SOL    HW213914   4.066   0.646   5.982
 4339SOL     OW13915   4.075   3.242   5.940
 4339SOL    HW113916   3.980   3.230   5.912
 4339SOL    HW213917   4.083   3.325   5.995
 4340SOL     OW13918   0.007   3.533   0.730
 4340SOL    HW113919   0.007   3.561   0.826
 4340SOL    HW213920   6.963   3.591   0.678
 4341SOL     OW13921   0.070   6.764   2.654
 4341SOL    HW113922   0.147   6.709   2.687
 4341SOL    HW213923   0.039   6.729   2.565
 4342SOL     OW13924   5.469   4.070   2.682
 4342SOL    HW113925   5.443   4.164   2.707
 4342SOL    HW213926   5.407   4.006   2.728
 4343SOL     OW13927   4.307   0.460   5.984
 4343SOL    HW113928   4.380   0.436   5.920
 4343SOL    HW213929   4.218   0.450   5.940
 4344SOL     OW13930   0.626   3.391   3.880
 4344SOL    HW113931   0.624   3.443   3.795
 4344SOL    HW213932   0.650   3.296   3.860
 4345SOL     OW13933   2.982   3.479   2.255
 4345SOL    HW113934   3.055   3.547   2.251
 4345SOL    HW213935   2.960   3.448   2.163
 4346SOL     OW13936   1.057   3.258   2.049
 4346SOL    HW113937   1.019   3.332   1.993
 4346SOL    HW213938   1.084   3.293   2.138
 4347SOL     OW13939   5.984   5.234   1.142
 4347SOL    HW113940   5.901   5.212   1.193
 4347SOL    HW213941   6.019   5.322   1.173
 4348SOL     OW13942   5.463   5.758   4.271
 4348SOL    HW113943   5.466   5.805   4.182
 4348SOL    HW213944   5.380   5.784   4.320
 4349SOL     OW13945   6.985   3.385   4.749
 4349SOL    HW113946   6.914   3.329   4.791
 4349SOL    HW213947   0.015   3.329   4.681
 4350SOL     OW13948   4.355   1.294   4.692
 4350SOL    HW113949   4.372   1.379   4.641
 4350SOL    HW213950   4.435   1.272   4.747
 4351SOL     OW13951   1.005   6.668   0.363
 4351SOL    HW113952   1.082   6.613   0.395
 4351SOL    HW213953   0.963   6.716   0.440
 4352SOL     OW13954   3.466   3.939   0.864
 4352SOL    HW113955   3.491   3.880   0.941
 4352SOL    HW213956   3.459   4.033   0.895
 4353SOL     OW13957   3.042   3.137   0.875
 4353SOL    HW113958   3.067   3.040   0.869
 4353SOL    HW213959   2.988   3.163   0.795
 4354SOL     OW13960   5.565   6.844   3.690
 4354SOL    HW113961   5.646   6.788   3.708
 4354SOL    HW213962   5.494   6.788   3.648
 4355SOL     OW13963   1.254   6.204   3.578
 4355SOL    HW113964   1.272   6.134   3.509
 4355SOL    HW213965   1.185   6.171   3.643
 4356SOL     OW13966   5.654   2.707   5.695
 4356SOL    HW113967   5.745   2.665   5.690
 4356SOL    HW213968   5.592   2.660   5.633
 4357SOL     OW13969   6.395   1.057   2.465
 4357SOL    HW113970   6.430   0.974   2.507
 4357SOL    HW213971   6.378   1.039   2.368
 4358SOL     OW13972   1.437   6.630   6.536
 4358SOL    HW113973   1.498   6.629   6.616
 4358SOL    HW213974   1.477   6.689   6.466
 4359SOL     OW13975   2.356   1.651   0.222
 4359SOL    HW113976   2.451   1.633   0.244
 4359SOL    HW213977   2.296   1.598   0.282
 4360SOL     OW13978   1.400   3.315   3.798
 4360SOL    HW113979   1.328   3.270   3.745
 4360SOL    HW213980   1.478   3.333   3.739
 4361SOL     OW13981   6.880   1.549   0.703
 4361SOL    HW113982   6.837   1.471   0.748
 4361SOL    HW213983   6.816   1.626   0.703
 4362SOL     OW13984   1.375   5.840   3.881
 4362SOL    HW113985   1.276   5.825   3.875
 4362SOL    HW213986   1.404   5.898   3.805
 4363SOL     OW13987   4.780   1.441   2.052
 4363SOL    HW113988   4.789   1.419   2.149
 4363SOL    HW213989   4.741   1.533   2.043
 4364SOL     OW13990   3.926   3.949   2.846
 4364SOL    HW113991   4.008   4.005   2.848
 4364SOL    HW213992   3.899   3.932   2.751
 4365SOL     OW13993   2.929   2.061   1.635
 4365SOL    HW113994   2.900   2.098   1.547
 4365SOL    HW213995   2.968   2.134   1.691
 4366SOL     OW13996   4.085   6.310   5.040
 4366SOL    HW113997   4.041   6.400   5.037
 4366SOL    HW213998   4.165   6.310   4.979
 4367SOL     OW13999   2.105   5.423   3.663
 4367SOL    HW114000   2.067   5.478   3.738
 4367SOL    HW214001   2.127   5.483   3.586
 4368SOL     OW14002   4.861   4.388   2.832
 4368SOL    HW114003   4.829   4.379   2.738
 4368SOL    HW214004   4.783   4.387   2.895
 4369SOL     OW14005   3.846   4.804   3.249
 4369SOL    HW114006   3.897   4.728   3.289
 4369SOL    HW214007   3.824   4.783   3.154
 4370SOL     OW14008   3.902   4.273   1.687
 4370SOL    HW114009   3.854   4.207   1.629
 4370SOL    HW214010   3.996   4.242   1.702
 4371SOL     OW14011   3.240   1.457   1.311
 4371SOL    HW114012   3.206   1.409   1.230
 4371SOL    HW214013   3.289   1.394   1.370
 4372SOL     OW14014   2.199   3.136   4.673
 4372SOL    HW114015   2.193   3.109   4.769
 4372SOL    HW214016   2.117   3.187   4.648
 4373SOL     OW14017   4.313   1.322   5.694
 4373SOL    HW114018   4.265   1.332   5.607
 4373SOL    HW214019   4.321   1.411   5.738
 4374SOL     OW14020   2.009   1.205   1.675
 4374SOL    HW114021   1.973   1.278   1.617
 4374SOL    HW214022   2.109   1.206   1.672
 4375SOL     OW14023   4.502   0.806   3.433
 4375SOL    HW114024   4.475   0.884   3.376
 4375SOL    HW214025   4.599   0.785   3.418
 4376SOL     OW14026   0.525   6.817   1.171
 4376SOL    HW114027   0.580   6.789   1.249
 4376SOL    HW214028   0.511   6.916   1.173
 4377SOL     OW14029   5.806   6.797   6.350
 4377SOL    HW114030   5.756   6.870   6.396
 4377SOL    HW214031   5.742   6.734   6.306
 4378SOL     OW14032   2.032   5.342   2.881
 4378SOL    HW114033   2.051   5.247   2.855
 4378SOL    HW214034   2.061   5.403   2.807
 4379SOL     OW14035   1.162   0.567   2.016
 4379SOL    HW114036   1.105   0.533   1.941
 4379SOL    HW214037   1.244   0.512   2.023
 4380SOL     OW14038   1.590   5.845   5.446
 4380SOL    HW114039   1.678   5.800   5.462
 4380SOL    HW214040   1.552   5.812   5.359
 4381SOL     OW14041   3.424   6.215   4.885
 4381SOL    HW114042   3.425   6.305   4.841
 4381SOL    HW214043   3.472   6.149   4.827
 4382SOL     OW14044   4.886   3.745   3.878
 4382SOL    HW114045   4.818   3.819   3.883
 4382SOL    HW214046   4.952   3.757   3.953
 4383SOL     OW14047   0.818   3.209   5.928
 4383SOL    HW114048   0.876   3.274   5.977
 4383SOL    HW214049   0.778   3.144   5.993
 4384SOL     OW14050   3.653   5.847   0.790
 4384SOL    HW114051   3.594   5.894   0.856
 4384SOL    HW214052   3.663   5.902   0.708
 4385SOL     OW14053   0.475   2.020   2.324
 4385SOL    HW114054   0.403   2.083   2.295
 4385SOL    HW214055   0.561   2.070   2.333
 4386SOL     OW14056   0.804   3.250   6.825
 4386SOL    HW114057   0.846   3.189   6.758
 4386SOL    HW214058   0.769   3.196   6.902
 4387SOL     OW14059   0.315   3.459   1.942
 4387SOL    HW114060   0.404   3.495   1.915
 4387SOL    HW214061   0.259   3.443   1.860
 4388SOL     OW14062   3.416   1.127   5.746
 4388SOL    HW114063   3.339   1.064   5.737
 4388SOL    HW214064   3.388   1.219   5.718
 4389SOL     OW14065   5.287   2.685   3.025
 4389SOL    HW114066   5.218   2.755   3.006
 4389SOL    HW214067   5.371   2.705   2.973
 4390SOL     OW14068   4.814   2.847   2.123
 4390SOL    HW114069   4.757   2.789   2.064
 4390SOL    HW214070   4.816   2.939   2.085
 4391SOL     OW14071   1.506   5.270   0.619
 4391SOL    HW114072   1.578   5.315   0.671
 4391SOL    HW214073   1.508   5.303   0.524
 4392SOL     OW14074   4.860   3.142   4.225
 4392SOL    HW114075   4.813   3.199   4.157
 4392SOL    HW214076   4.894   3.199   4.299
 4393SOL     OW14077   4.756   6.250   2.891
 4393SOL    HW114078   4.853   6.240   2.916
 4393SOL    HW214079   4.700   6.204   2.959
 4394SOL     OW14080   5.129   0.124   2.830
 4394SOL    HW114081   5.176   0.161   2.911
 4394SOL    HW214082   5.091   0.199   2.777
 4395SOL     OW14083   5.671   1.670   2.077
 4395SOL    HW114084   5.600   1.717   2.024
 4395SOL    HW214085   5.672   1.573   2.053
 4396SOL     OW14086   0.920   0.338   4.239
 4396SOL    HW114087   0.998   0.388   4.202
 4396SOL    HW214088   0.951   0.275   4.310
 4397SOL     OW14089   6.261   0.449   5.572
 4397SOL    HW114090   6.255   0.470   5.474
 4397SOL    HW214091   6.331   0.507   5.613
 4398SOL     OW14092   0.313   3.987   4.704
 4398SOL    HW114093   0.221   3.949   4.713
 4398SOL    HW214094   0.346   3.973   4.611
 4399SOL     OW14095   2.135   1.347   1.095
 4399SOL    HW114096   2.105   1.433   1.053
 4399SOL    HW214097   2.056   1.288   1.110
 4400SOL     OW14098   3.193   6.545   4.643
 4400SOL    HW114099   3.188   6.446   4.634
 4400SOL    HW214100   3.276   6.570   4.692
 4401SOL     OW14101   5.279   5.874   4.439
 4401SOL    HW114102   5.330   5.961   4.432
 4401SOL    HW214103   5.181   5.892   4.430
 4402SOL     OW14104   0.758   6.773   2.736
 4402SOL    HW114105   0.848   6.734   2.757
 4402SOL    HW214106   0.750   6.788   2.637
 4403SOL     OW14107   0.627   0.478   3.635
 4403SOL    HW114108   0.628   0.450   3.539
 4403SOL    HW214109   0.684   0.415   3.688
 4404SOL     OW14110   1.113   4.034   3.535
 4404SOL    HW114111   1.047   4.000   3.602
 4404SOL    HW214112   1.180   3.962   3.514
 4405SOL     OW14113   3.212   4.007   5.602
 4405SOL    HW114114   3.293   3.948   5.608
 4405SOL    HW214115   3.242   4.103   5.604
 4406SOL     OW14116   5.824   4.193   1.322
 4406SOL    HW114117   5.741   4.160   1.367
 4406SOL    HW214118   5.898   4.128   1.337
 4407SOL     OW14119   6.134   0.114   6.815
 4407SOL    HW114120   6.182   0.202   6.816
 4407SOL    HW214121   6.114   0.088   6.720
 4408SOL     OW14122   4.434   6.607   6.444
 4408SOL    HW114123   4.499   6.663   6.394
 4408SOL    HW214124   4.471   6.515   6.455
 4409SOL     OW14125   3.500   0.911   1.639
 4409SOL    HW114126   3.536   0.866   1.721
 4409SOL    HW214127   3.545   1.000   1.627
 4410SOL     OW14128   2.301   5.203   1.751
 4410SOL    HW114129   2.338   5.273   1.812
 4410SOL    HW214130   2.202   5.199   1.761
 4411SOL     OW14131   4.138   3.331   2.756
 4411SOL    HW114132   4.111   3.424   2.733
 4411SOL    HW214133   4.175   3.329   2.849
 4412SOL     OW14134   3.731   1.504   6.616
 4412SOL    HW114135   3.638   1.519   6.650
 4412SOL    HW214136   3.779   1.442   6.678
 4413SOL     OW14137   4.472   6.442   4.403
 4413SOL    HW114138   4.508   6.450   4.496
 4413SOL    HW214139   4.389   6.497   4.394
 4414SOL     OW14140   4.023   4.861   1.999
 4414SOL    HW114141   3.973   4.878   2.084
 4414SOL    HW214142   3.961   4.825   1.930
 4415SOL     OW14143   5.456   2.302   6.788
 4415SOL    HW114144   5.546   2.309   6.745
 4415SOL    HW214145   5.413   2.392   6.791
 4416SOL     OW14146   3.492   0.402   3.809
 4416SOL    HW114147   3.562   0.331   3.821
 4416SOL    HW214148   3.502   0.471   3.880
 4417SOL     OW14149   0.027   6.419   2.700
 4417SOL    HW114150   0.091   6.348   2.730
 4417SOL    HW214151   6.962   6.412   2.753
 4418SOL     OW14152   3.558   0.062   3.577
 4418SOL    HW114153   3.605   0.044   3.490
 4418SOL    HW214154   3.531   6.995   3.619
 4419SOL     OW14155   0.255   5.168   6.714
 4419SOL    HW114156   0.239   5.266   6.703
 4419SOL    HW214157   0.212   5.136   6.798
 4420SOL     OW14158   5.236   1.677   6.350
 4420SOL    HW114159   5.172   1.606   6.322
 4420SOL    HW214160   5.192   1.738   6.416
 4421SOL     OW14161   1.312   1.571   3.531
 4421SOL    HW114162   1.228   1.574   3.477
 4421SOL    HW214163   1.384   1.623   3.484
 4422SOL     OW14164   1.809   4.064   6.059
 4422SOL    HW114165   1.833   3.974   6.024
 4422SOL    HW214166   1.737   4.104   6.002
 4423SOL     OW14167   1.554   1.982   6.229
 4423SOL    HW114168   1.459   2.005   6.208
 4423SOL    HW214169   1.569   1.985   6.327
 4424SOL     OW14170   6.782   0.473   3.067
 4424SOL    HW114171   6.728   0.534   3.009
 4424SOL    HW214172   6.796   0.515   3.156
 4425SOL     OW14173   4.467   4.627   6.435
 4425SOL    HW114174   4.430   4.658   6.347
 4425SOL    HW214175   4.534   4.555   6.420
 4426SOL     OW14176   0.688   0.457   5.687
 4426SOL    HW114177   0.671   0.359   5.687
 4426SOL    HW214178   0.602   0.507   5.674
 4427SOL     OW14179   1.149   0.323   3.233
 4427SOL    HW114180   1.094   0.273   3.166
 4427SOL    HW214181   1.149   0.275   3.320
 4428SOL     OW14182   2.489   5.364   3.698
 4428SOL    HW114183   2.526   5.412   3.777
 4428SOL    HW214184   2.523   5.405   3.614
 4429SOL     OW14185   3.714   6.841   3.303
 4429SOL    HW114186   3.794   6.782   3.312
 4429SOL    HW214187   3.631   6.784   3.307
 4430SOL     OW14188   2.262   0.729   2.362
 4430SOL    HW114189   2.317   0.800   2.406
 4430SOL    HW214190   2.321   0.670   2.308
 4431SOL     OW14191   2.380   2.283   3.298
 4431SOL    HW114192   2.460   2.336   3.269
 4431SOL    HW214193   2.403   2.232   3.380
 4432SOL     OW14194   2.940   3.729   3.201
 4432SOL    HW114195   2.920   3.772   3.113
 4432SOL    HW214196   2.970   3.799   3.266
 4433SOL     OW14197   6.293   0.068   2.302
 4433SOL    HW114198   6.312   0.000   2.373
 4433SOL    HW214199   6.209   0.117   2.325
 4434SOL     OW14200   6.124   2.545   4.333
 4434SOL    HW114201   6.112   2.626   4.276
 4434SOL    HW214202   6.137   2.572   4.428
 4435SOL     OW14203   3.430   3.217   1.624
 4435SOL    HW114204   3.504   3.273   1.587
 4435SOL    HW214205   3.469   3.135   1.667
 4436SOL     OW14206   5.064   1.796   6.583
 4436SOL    HW114207   4.981   1.742   6.570
 4436SOL    HW214208   5.080   1.808   6.681
 4437SOL     OW14209   3.452   0.883   4.501
 4437SOL    HW114210   3.475   0.838   4.415
 4437SOL    HW214211   3.526   0.871   4.567
 4438SOL     OW14212   4.485   3.030   0.019
 4438SOL    HW114213   4.415   2.961   0.000
 4438SOL    HW214214   4.474   3.064   0.112
 4439SOL     OW14215   2.234   6.090   2.192
 4439SOL    HW114216   2.319   6.141   2.181
 4439SOL    HW214217   2.253   5.992   2.182
 4440SOL     OW14218   1.016   6.956   6.870
 4440SOL    HW114219   1.082   6.991   6.937
 4440SOL    HW214220   0.960   0.013   6.837
 4441SOL     OW14221   5.819   2.941   3.003
 4441SOL    HW114222   5.744   2.883   3.036
 4441SOL    HW214223   5.808   2.957   2.905
 4442SOL     OW14224   3.318   6.265   3.515
 4442SOL    HW114225   3.416   6.276   3.527
 4442SOL    HW214226   3.299   6.179   3.468
 4443SOL     OW14227   2.379   1.556   5.684
 4443SOL    HW114228   2.429   1.564   5.597
 4443SOL    HW214229   2.441   1.578   5.760
 4444SOL     OW14230   5.661   0.636   0.924
 4444SOL    HW114231   5.640   0.731   0.900
 4444SOL    HW214232   5.575   0.587   0.941
 4445SOL     OW14233   1.069   0.837   6.252
 4445SOL    HW114234   1.035   0.798   6.166
 4445SOL    HW214235   1.049   0.935   6.254
 4446SOL     OW14236   6.560   0.506   2.806
 4446SOL    HW114237   6.571   0.528   2.709
 4446SOL    HW214238   6.487   0.563   2.844
 4447SOL     OW14239   5.837   2.535   5.577
 4447SOL    HW114240   5.839   2.445   5.534
 4447SOL    HW214241   5.827   2.605   5.506
 4448SOL     OW14242   2.307   3.779   6.744
 4448SOL    HW114243   2.290   3.875   6.721
 4448SOL    HW214244   2.323   3.770   6.843
 4449SOL     OW14245   1.246   1.633   4.935
 4449SOL    HW114246   1.236   1.727   4.967
 4449SOL    HW214247   1.163   1.605   4.887
 4450SOL     OW14248   4.026   3.657   3.308
 4450SOL    HW114249   4.039   3.699   3.218
 4450SOL    HW214250   4.090   3.581   3.318
 4451SOL     OW14251   6.545   4.867   2.005
 4451SOL    HW114252   6.571   4.846   1.911
 4451SOL    HW214253   6.507   4.785   2.048
 4452SOL     OW14254   6.460   6.282   6.250
 4452SOL    HW114255   6.390   6.327   6.195
 4452SOL    HW214256   6.494   6.202   6.202
 4453SOL     OW14257   5.543   2.589   1.198
 4453SOL    HW114258   5.611   2.554   1.262
 4453SOL    HW214259   5.570   2.565   1.105
 4454SOL     OW14260   5.407   3.278   1.515
 4454SOL    HW114261   5.452   3.216   1.452
 4454SOL    HW214262   5.315   3.300   1.481
 4455SOL     OW14263   3.768   1.503   2.456
 4455SOL    HW114264   3.726   1.560   2.386
 4455SOL    HW214265   3.756   1.407   2.432
 4456SOL     OW14266   1.348   5.256   3.469
 4456SOL    HW114267   1.333   5.232   3.374
 4456SOL    HW214268   1.384   5.176   3.518
 4457SOL     OW14269   5.468   2.337   6.071
 4457SOL    HW114270   5.435   2.336   5.977
 4457SOL    HW214271   5.555   2.288   6.077
 4458SOL     OW14272   3.886   2.351   6.126
 4458SOL    HW114273   3.825   2.428   6.105
 4458SOL    HW214274   3.979   2.374   6.098
 4459SOL     OW14275   4.847   6.578   4.649
 4459SOL    HW114276   4.890   6.638   4.716
 4459SOL    HW214277   4.866   6.482   4.673
 4460SOL     OW14278   2.877   1.861   6.395
 4460SOL    HW114279   2.805   1.849   6.326
 4460SOL    HW214280   2.891   1.958   6.411
 4461SOL     OW14281   2.111   0.245   2.418
 4461SOL    HW114282   2.045   0.319   2.427
 4461SOL    HW214283   2.196   0.280   2.378
 4462SOL     OW14284   6.976   5.320   1.308
 4462SOL    HW114285   0.011   5.396   1.343
 4462SOL    HW214286   6.983   5.242   1.372
 4463SOL     OW14287   1.404   3.619   6.026
 4463SOL    HW114288   1.469   3.693   6.040
 4463SOL    HW214289   1.454   3.532   6.016
 4464SOL     OW14290   5.560   3.376   6.771
 4464SOL    HW114291   5.476   3.327   6.796
 4464SOL    HW214292   5.536   3.452   6.711
 4465SOL     OW14293   1.306   6.358   2.130
 4465SOL    HW114294   1.369   6.362   2.208
 4465SOL    HW214295   1.238   6.287   2.146
 4466SOL     OW14296   0.929   1.689   3.046
 4466SOL    HW114297   0.841   1.687   2.999
 4466SOL    HW214298   0.930   1.765   3.111
 4467SOL     OW14299   1.056   6.668   3.572
 4467SOL    HW114300   1.122   6.725   3.621
 4467SOL    HW214301   0.980   6.725   3.540
 4468SOL     OW14302   1.176   2.783   0.255
 4468SOL    HW114303   1.229   2.846   0.312
 4468SOL    HW214304   1.112   2.836   0.199
 4469SOL     OW14305   4.092   0.171   0.722
 4469SOL    HW114306   4.125   0.087   0.763
 4469SOL    HW214307   4.158   0.245   0.738
 4470SOL     OW14308   5.025   3.768   1.015
 4470SOL    HW114309   4.935   3.728   1.032
 4470SOL    HW214310   5.026   3.863   1.048
 4471SOL     OW14311   6.640   3.097   1.203
 4471SOL    HW114312   6.703   3.048   1.263
 4471SOL    HW214313   6.691   3.153   1.139
 4472SOL     OW14314   1.915   4.141   2.203
 4472SOL    HW114315   1.894   4.045   2.221
 4472SOL    HW214316   1.883   4.197   2.279
 4473SOL     OW14317   6.584   6.681   4.323
 4473SOL    HW114318   6.621   6.612   4.261
 4473SOL    HW214319   6.615   6.772   4.294
 4474SOL     OW14320   4.400   0.191   2.852
 4474SOL    HW114321   4.497   0.212   2.864
 4474SOL    HW214322   4.345   0.265   2.891
 4475SOL     OW14323   1.842   3.815   0.312
 4475SOL    HW114324   1.908   3.833   0.386
 4475SOL    HW214325   1.892   3.796   0.228
 4476SOL     OW14326   5.054   6.182   2.214
 4476SOL    HW114327   4.957   6.158   2.212
 4476SOL    HW214328   5.078   6.229   2.129
 4477SOL     OW14329   1.464   1.387   0.691
 4477SOL    HW114330   1.476   1.467   0.633
 4477SOL    HW214331   1.515   1.400   0.776
 4478SOL     OW14332   2.161   6.643   2.075
 4478SOL    HW114333   2.219   6.662   1.995
 4478SOL    HW214334   2.150   6.727   2.128
 4479SOL     OW14335   1.438   6.994   5.342
 4479SOL    HW114336   1.348   7.001   5.386
 4479SOL    HW214337   1.471   0.067   5.321
 4480SOL     OW14338   0.807   4.847   4.150
 4480SOL    HW114339   0.725   4.896   4.180
 4480SOL    HW214340   0.812   4.759   4.197
 4481SOL     OW14341   1.195   6.477   4.587
 4481SOL    HW114342   1.179   6.559   4.642
 4481SOL    HW214343   1.218   6.401   4.647
 4482SOL     OW14344   0.265   4.626   4.076
 4482SOL    HW114345   0.234   4.570   3.999
 4482SOL    HW214346   0.346   4.585   4.117
 4483SOL     OW14347   5.399   3.167   2.046
 4483SOL    HW114348   5.409   3.245   2.108
 4483SOL    HW214349   5.434   3.192   1.955
 4484SOL     OW14350   4.149   2.667   5.663
 4484SOL    HW114351   4.191   2.586   5.623
 4484SOL    HW214352   4.141   2.739   5.593
 4485SOL     OW14353   5.447   1.678   6.516
 4485SOL    HW114354   5.535   1.722   6.498
 4485SOL    HW214355   5.394   1.674   6.432
 4486SOL     OW14356   6.249   2.960   4.640
 4486SOL    HW114357   6.215   3.049   4.668
 4486SOL    HW214358   6.344   2.949   4.672
 4487SOL     OW14359   3.107   3.363   6.087
 4487SOL    HW114360   3.064   3.316   6.164
 4487SOL    HW214361   3.069   3.455   6.079
 4488SOL     OW14362   6.792   1.482   4.481
 4488SOL    HW114363   6.729   1.539   4.428
 4488SOL    HW214364   6.882   1.481   4.437
 4489SOL     OW14365   5.849   6.717   4.287
 4489SOL    HW114366   5.842   6.623   4.322
 4489SOL    HW214367   5.911   6.769   4.346
 4490SOL     OW14368   6.719   1.992   2.748
 4490SOL    HW114369   6.723   1.900   2.785
 4490SOL    HW214370   6.801   2.011   2.695
 4491SOL     OW14371   0.961   3.556   2.503
 4491SOL    HW114372   1.055   3.552   2.535
 4491SOL    HW214373   0.908   3.618   2.561
 4492SOL     OW14374   4.832   3.197   0.374
 4492SOL    HW114375   4.853   3.266   0.444
 4492SOL    HW214376   4.734   3.177   0.376
 4493SOL     OW14377   5.718   5.529   4.498
 4493SOL    HW114378   5.778   5.449   4.494
 4493SOL    HW214379   5.625   5.501   4.521
 4494SOL     OW14380   6.165   4.293   5.171
 4494SOL    HW114381   6.194   4.292   5.076
 4494SOL    HW214382   6.165   4.199   5.207
 4495SOL     OW14383   4.661   5.992   1.919
 4495SOL    HW114384   4.741   5.943   1.884
 4495SOL    HW214385   4.617   6.042   1.844
 4496SOL     OW14386   4.733   3.656   5.575
 4496SOL    HW114387   4.792   3.576   5.576
 4496SOL    HW214388   4.639   3.629   5.599
 4497SOL     OW14389   6.253   5.249   0.286
 4497SOL    HW114390   6.235   5.150   0.291
 4497SOL    HW214391   6.335   5.270   0.339
 4498SOL     OW14392   6.862   3.327   0.054
 4498SOL    HW114393   6.944   3.341   7.018
 4498SOL    HW214394   6.883   3.271   0.134
 4499SOL     OW14395   0.012   2.821   6.048
 4499SOL    HW114396   7.016   2.915   6.078
 4499SOL    HW214397   0.026   2.820   5.949
 4500SOL     OW14398   3.074   3.616   4.495
 4500SOL    HW114399   2.983   3.591   4.529
 4500SOL    HW214400   3.139   3.542   4.516
 4501SOL     OW14401   6.679   4.584   5.555
 4501SOL    HW114402   6.715   4.631   5.636
 4501SOL    HW214403   6.732   4.501   5.538
 4502SOL     OW14404   0.427   2.601   6.968
 4502SOL    HW114405   0.511   2.640   6.931
 4502SOL    HW214406   0.369   2.568   6.894
 4503SOL     OW14407   0.972   1.575   3.827
 4503SOL    HW114408   0.895   1.633   3.800
 4503SOL    HW214409   0.943   1.513   3.900
 4504SOL     OW14410   5.423   2.341   4.232
 4504SOL    HW114411   5.432   2.306   4.139
 4504SOL    HW214412   5.394   2.437   4.229
 4505SOL     OW14413   1.780   6.486   5.511
 4505SOL    HW114414   1.721   6.535   5.447
 4505SOL    HW214415   1.752   6.507   5.605
 4506SOL     OW14416   3.945   0.271   5.085
 4506SOL    HW114417   3.886   0.317   5.019
 4506SOL    HW214418   3.889   0.214   5.145
 4507SOL     OW14419   5.867   4.637   0.647
 4507SOL    HW114420   5.926   4.697   0.700
 4507SOL    HW214421   5.787   4.612   0.703
 4508SOL     OW14422   1.237   3.775   6.866
 4508SOL    HW114423   1.255   3.698   6.929
 4508SOL    HW214424   1.252   3.861   6.915
 4509SOL     OW14425   3.028   1.659   4.350
 4509SOL    HW114426   3.005   1.698   4.439
 4509SOL    HW214427   2.957   1.594   4.322
 4510SOL     OW14428   4.724   6.741   5.326
 4510SOL    HW114429   4.769   6.662   5.369
 4510SOL    HW214430   4.626   6.726   5.321
 4511SOL     OW14431   6.461   2.637   0.904
 4511SOL    HW114432   6.465   2.624   0.805
 4511SOL    HW214433   6.366   2.640   0.934
 4512SOL     OW14434   2.896   5.864   0.246
 4512SOL    HW114435   2.930   5.849   0.153
 4512SOL    HW214436   2.876   5.961   0.259
 4513SOL     OW14437   4.988   0.638   1.732
 4513SOL    HW114438   4.940   0.717   1.694
 4513SOL    HW214439   5.071   0.668   1.779
 4514SOL     OW14440   2.379   1.341   5.232
 4514SOL    HW114441   2.283   1.338   5.204
 4514SOL    HW214442   2.423   1.253   5.212
 4515SOL     OW14443   0.307   4.929   0.899
 4515SOL    HW114444   0.390   4.973   0.867
 4515SOL    HW214445   0.295   4.947   0.997
 4516SOL     OW14446   0.926   1.072   4.957
 4516SOL    HW114447   0.876   1.030   5.033
 4516SOL    HW214448   0.958   1.001   4.895
 4517SOL     OW14449   3.581   6.663   5.658
 4517SOL    HW114450   3.680   6.645   5.659
 4517SOL    HW214451   3.532   6.578   5.642
 4518SOL     OW14452   0.941   2.362   3.921
 4518SOL    HW114453   1.007   2.366   3.996
 4518SOL    HW214454   0.930   2.267   3.892
 4519SOL     OW14455   0.099   3.122   3.866
 4519SOL    HW114456   0.165   3.195   3.850
 4519SOL    HW214457   0.010   3.150   3.831
 4520SOL     OW14458   0.121   4.378   3.287
 4520SOL    HW114459   0.206   4.428   3.301
 4520SOL    HW214460   0.105   4.366   3.189
 4521SOL     OW14461   5.273   2.513   6.774
 4521SOL    HW114462   5.188   2.563   6.760
 4521SOL    HW214463   5.340   2.573   6.818
 4522SOL     OW14464   6.143   0.072   4.267
 4522SOL    HW114465   6.214   0.134   4.301
 4522SOL    HW214466   6.053   0.106   4.294
 4523SOL     OW14467   3.190   4.097   6.682
 4523SOL    HW114468   3.134   4.165   6.635
 4523SOL    HW214469   3.131   4.026   6.720
 4524SOL     OW14470   5.178   0.267   4.751
 4524SOL    HW114471   5.210   0.315   4.669
 4524SOL    HW214472   5.162   0.333   4.824
 4525SOL     OW14473   6.336   1.609   4.894
 4525SOL    HW114474   6.400   1.533   4.908
 4525SOL    HW214475   6.365   1.662   4.815
 4526SOL     OW14476   4.765   6.862   0.800
 4526SOL    HW114477   4.744   6.785   0.740
 4526SOL    HW214478   4.827   6.831   0.873
 4527SOL     OW14479   5.015   0.722   2.195
 4527SOL    HW114480   5.040   0.802   2.249
 4527SOL    HW214481   5.092   0.695   2.137
 4528SOL     OW14482   5.803   0.240   0.750
 4528SOL    HW114483   5.795   0.247   0.651
 4528SOL    HW214484   5.747   0.164   0.783
 4529SOL     OW14485   3.434   6.769   3.271
 4529SOL    HW114486   3.360   6.755   3.206
 4529SOL    HW214487   3.416   6.850   3.326
 4530SOL     OW14488   0.446   2.993   5.792
 4530SOL    HW114489   0.414   2.935   5.867
 4530SOL    HW214490   0.516   2.945   5.740
 4531SOL     OW14491   0.290   3.210   4.324
 4531SOL    HW114492   0.362   3.141   4.333
 4531SOL    HW214493   0.208   3.168   4.287
 4532SOL     OW14494   6.341   1.304   0.918
 4532SOL    HW114495   6.391   1.266   0.840
 4532SOL    HW214496   6.276   1.235   0.953
 4533SOL     OW14497   2.144   5.560   3.056
 4533SOL    HW114498   2.180   5.625   2.989
 4533SOL    HW214499   2.091   5.489   3.010
 4534SOL     OW14500   5.787   3.742   4.878
 4534SOL    HW114501   5.839   3.692   4.947
 4534SOL    HW214502   5.765   3.681   4.802
 4535SOL     OW14503   4.908   3.253   2.071
 4535SOL    HW114504   4.902   3.242   2.170
 4535SOL    HW214505   4.843   3.190   2.027
 4536SOL     OW14506   5.953   0.893   4.396
 4536SOL    HW114507   5.988   0.945   4.318
 4536SOL    HW214508   5.859   0.923   4.416
 4537SOL     OW14509   3.796   2.897   6.766
 4537SOL    HW114510   3.697   2.900   6.784
 4537SOL    HW214511   3.829   2.804   6.778
 4538SOL     OW14512   3.256   1.279   2.738
 4538SOL    HW114513   3.173   1.229   2.763
 4538SOL    HW214514   3.243   1.321   2.648
 4539SOL     OW14515   2.067   1.677   2.706
 4539SOL    HW114516   2.137   1.747   2.719
 4539SOL    HW214517   2.033   1.647   2.796
 4540SOL     OW14518   3.720   3.462   4.508
 4540SOL    HW114519   3.718   3.447   4.409
 4540SOL    HW214520   3.780   3.395   4.551
 4541SOL     OW14521   4.909   2.111   1.394
 4541SOL    HW114522   4.928   2.174   1.318
 4541SOL    HW214523   4.848   2.038   1.361
 4542SOL     OW14524   5.994   6.767   2.526
 4542SOL    HW114525   6.028   6.740   2.436
 4542SOL    HW214526   6.035   6.854   2.553
 4543SOL     OW14527   5.748   1.582   1.182
 4543SOL    HW114528   5.705   1.668   1.153
 4543SOL    HW214529   5.835   1.570   1.134
 4544SOL     OW14530   3.259   5.350   6.554
 4544SOL    HW114531   3.251   5.334   6.652
 4544SOL    HW214532   3.193   5.419   6.525
 4545SOL     OW14533   3.868   2.453   5.505
 4545SOL    HW114534   3.947   2.440   5.446
 4545SOL    HW214535   3.874   2.543   5.548
 4546SOL     OW14536   1.207   6.229   6.465
 4546SOL    HW114537   1.284   6.288   6.490
 4546SOL    HW214538   1.224   6.136   6.500
 4547SOL     OW14539   5.166   2.559   1.822
 4547SOL    HW114540   5.258   2.579   1.855
 4547SOL    HW214541   5.133   2.474   1.864
 4548SOL     OW14542   0.724   4.022   3.614
 4548SOL    HW114543   0.704   3.995   3.519
 4548SOL    HW214544   0.818   4.054   3.620
 4549SOL     OW14545   6.826   3.095   2.932
 4549SOL    HW114546   6.880   3.096   3.017
 4549SOL    HW214547   6.867   3.031   2.867
 4550SOL     OW14548   0.899   5.664   3.756
 4550SOL    HW114549   0.924   5.571   3.782
 4550SOL    HW214550   0.928   5.681   3.662
 4551SOL     OW14551   0.930   2.772   5.672
 4551SOL    HW114552   1.006   2.798   5.611
 4551SOL    HW214553   0.878   2.698   5.630
 4552SOL     OW14554   0.178   3.548   4.775
 4552SOL    HW114555   0.098   3.490   4.757
 4552SOL    HW214556   0.228   3.563   4.689
 4553SOL     OW14557   4.276   5.039   0.365
 4553SOL    HW114558   4.215   5.022   0.288
 4553SOL    HW214559   4.304   4.951   0.406
 4554SOL     OW14560   4.953   6.680   2.734
 4554SOL    HW114561   4.886   6.614   2.768
 4554SOL    HW214562   4.974   6.747   2.805
 4555SOL     OW14563   5.162   2.382   6.386
 4555SOL    HW114564   5.172   2.480   6.406
 4555SOL    HW214565   5.064   2.360   6.378
 4556SOL     OW14566   4.226   0.815   3.362
 4556SOL    HW114567   4.269   0.786   3.276
 4556SOL    HW214568   4.288   0.797   3.438
 4557SOL     OW14569   5.285   6.980   6.160
 4557SOL    HW114570   5.268   7.000   6.256
 4557SOL    HW214571   5.284   6.881   6.146
 4558SOL     OW14572   6.679   3.362   6.854
 4558SOL    HW114573   6.718   3.327   6.939
 4558SOL    HW214574   6.749   3.363   6.783
 4559SOL     OW14575   1.680   6.669   1.319
 4559SOL    HW114576   1.669   6.570   1.315
 4559SOL    HW214577   1.596   6.714   1.289
 4560SOL     OW14578   5.152   3.200   2.900
 4560SOL    HW114579   5.136   3.239   2.809
 4560SOL    HW214580   5.064   3.185   2.945
 4561SOL     OW14581   3.552   0.249   6.617
 4561SOL    HW114582   3.524   0.298   6.535
 4561SOL    HW214583   3.534   0.151   6.606
 4562SOL     OW14584   2.957   4.909   6.729
 4562SOL    HW114585   2.914   4.994   6.698
 4562SOL    HW214586   2.961   4.844   6.653
 4563SOL     OW14587   5.664   1.824   6.438
 4563SOL    HW114588   5.675   1.898   6.372
 4563SOL    HW214589   5.742   1.824   6.502
 4564SOL     OW14590   1.721   6.312   0.525
 4564SOL    HW114591   1.755   6.367   0.449
 4564SOL    HW214592   1.785   6.238   0.545
 4565SOL     OW14593   1.109   0.696   5.163
 4565SOL    HW114594   1.019   0.696   5.118
 4565SOL    HW214595   1.124   0.784   5.207
 4566SOL     OW14596   6.829   0.888   6.983
 4566SOL    HW114597   6.904   0.953   6.968
 4566SOL    HW214598   6.868   0.796   6.995
 4567SOL     OW14599   6.733   1.374   1.061
 4567SOL    HW114600   6.759   1.280   1.082
 4567SOL    HW214601   6.711   1.382   0.963
 4568SOL     OW14602   3.109   4.514   5.578
 4568SOL    HW114603   3.148   4.604   5.595
 4568SOL    HW214604   3.013   4.514   5.604
 4569SOL     OW14605   0.860   1.175   4.251
 4569SOL    HW114606   0.827   1.260   4.290
 4569SOL    HW214607   0.908   1.122   4.321
 4570SOL     OW14608   0.004   5.871   3.907
 4570SOL    HW114609   6.997   5.795   3.847
 4570SOL    HW214610   6.950   5.887   3.974
 4571SOL     OW14611   3.322   3.277   4.254
 4571SOL    HW114612   3.236   3.227   4.247
 4571SOL    HW214613   3.396   3.221   4.217
 4572SOL     OW14614   1.484   6.902   1.222
 4572SOL    HW114615   1.507   6.927   1.128
 4572SOL    HW214616   1.478   6.985   1.278
 4573SOL     OW14617   5.591   5.997   0.836
 4573SOL    HW114618   5.639   6.044   0.761
 4573SOL    HW214619   5.574   6.061   0.910
 4574SOL     OW14620   6.960   4.479   1.501
 4574SOL    HW114621   6.978   4.459   1.404
 4574SOL    HW214622   7.012   4.560   1.528
 4575SOL     OW14623   6.730   0.418   2.120
 4575SOL    HW114624   6.693   0.486   2.057
 4575SOL    HW214625   6.662   0.398   2.191
 4576SOL     OW14626   3.424   5.229   6.229
 4576SOL    HW114627   3.393   5.219   6.324
 4576SOL    HW214628   3.357   5.189   6.167
 4577SOL     OW14629   1.314   3.336   3.312
 4577SOL    HW114630   1.340   3.431   3.331
 4577SOL    HW214631   1.315   3.320   3.214
 4578SOL     OW14632   7.012   3.705   4.125
 4578SOL    HW114633   6.981   3.610   4.135
 4578SOL    HW214634   0.088   3.712   4.155
 4579SOL     OW14635   5.784   2.037   3.290
 4579SOL    HW114636   5.742   1.999   3.208
 4579SOL    HW214637   5.737   2.002   3.371
 4580SOL     OW14638   6.321   6.275   0.798
 4580SOL    HW114639   6.383   6.284   0.876
 4580SOL    HW214640   6.248   6.211   0.821
 4581SOL     OW14641   3.025   5.224   3.236
 4581SOL    HW114642   3.027   5.305   3.178
 4581SOL    HW214643   3.011   5.251   3.331
 4582SOL     OW14644   5.517   6.197   2.971
 4582SOL    HW114645   5.474   6.199   2.881
 4582SOL    HW214646   5.486   6.276   3.025
 4583SOL     OW14647   3.260   1.934   5.732
 4583SOL    HW114648   3.303   1.953   5.820
 4583SOL    HW214649   3.232   2.020   5.689
 4584SOL     OW14650   0.788   5.302   5.327
 4584SOL    HW114651   0.759   5.391   5.291
 4584SOL    HW214652   0.766   5.230   5.261
 4585SOL     OW14653   3.496   6.039   3.156
 4585SOL    HW114654   3.403   6.076   3.149
 4585SOL    HW214655   3.493   5.947   3.195
 4586SOL     OW14656   3.634   6.071   1.756
 4586SOL    HW114657   3.717   6.104   1.801
 4586SOL    HW214658   3.653   6.055   1.659
 4587SOL     OW14659   2.651   3.524   1.251
 4587SOL    HW114660   2.745   3.556   1.261
 4587SOL    HW214661   2.649   3.424   1.260
 4588SOL     OW14662   3.865   3.583   5.303
 4588SOL    HW114663   3.946   3.598   5.245
 4588SOL    HW214664   3.848   3.485   5.312
 4589SOL     OW14665   6.526   2.167   4.430
 4589SOL    HW114666   6.475   2.213   4.357
 4589SOL    HW214667   6.487   2.191   4.518
 4590SOL     OW14668   4.355   5.197   2.785
 4590SOL    HW114669   4.449   5.233   2.791
 4590SOL    HW214670   4.356   5.099   2.803
 4591SOL     OW14671   5.394   5.803   5.574
 4591SOL    HW114672   5.466   5.796   5.642
 4591SOL    HW214673   5.424   5.863   5.499
 4592SOL     OW14674   3.963   2.364   6.778
 4592SOL    HW114675   3.970   2.310   6.695
 4592SOL    HW214676   4.002   2.314   6.855
 4593SOL     OW14677   3.672   6.597   2.683
 4593SOL    HW114678   3.638   6.647   2.604
 4593SOL    HW214679   3.608   6.524   2.707
 4594SOL     OW14680   2.218   1.578   2.237
 4594SOL    HW114681   2.210   1.553   2.334
 4594SOL    HW214682   2.176   1.506   2.181
 4595SOL     OW14683   4.327   3.141   6.653
 4595SOL    HW114684   4.255   3.152   6.585
 4595SOL    HW214685   4.383   3.062   6.629
 4596SOL     OW14686   5.500   0.084   1.702
 4596SOL    HW114687   5.563   0.077   1.779
 4596SOL    HW214688   5.518   0.168   1.651
 4597SOL     OW14689   5.140   3.853   6.539
 4597SOL    HW114690   5.134   3.798   6.622
 4597SOL    HW214691   5.122   3.949   6.561
 4598SOL     OW14692   2.475   5.310   6.910
 4598SOL    HW114693   2.393   5.294   6.856
 4598SOL    HW214694   2.453   5.305   7.008
 4599SOL     OW14695   1.578   4.866   1.358
 4599SOL    HW114696   1.527   4.937   1.310
 4599SOL    HW214697   1.541   4.776   1.334
 4600SOL     OW14698   3.049   5.597   0.712
 4600SOL    HW114699   2.987   5.675   0.701
 4600SOL    HW214700   3.075   5.562   0.623
 4601SOL     OW14701   1.963   0.250   5.144
 4601SOL    HW114702   1.940   0.266   5.240
 4601SOL    HW214703   2.041   0.307   5.118
 4602SOL     OW14704   1.523   0.301   2.224
 4602SOL    HW114705   1.516   0.222   2.164
 4602SOL    HW214706   1.541   0.271   2.318
 4603SOL     OW14707   3.238   6.769   1.382
 4603SOL    HW114708   3.199   6.829   1.452
 4603SOL    HW214709   3.316   6.720   1.420
 4604SOL     OW14710   3.284   6.947   1.880
 4604SOL    HW114711   3.347   6.956   1.958
 4604SOL    HW214712   3.284   0.014   1.828
 4605SOL     OW14713   5.346   0.027   4.851
 4605SOL    HW114714   5.348   6.981   4.775
 4605SOL    HW214715   5.290   0.107   4.826
 4606SOL     OW14716   6.653   6.384   5.140
 4606SOL    HW114717   6.664   6.478   5.107
 4606SOL    HW214718   6.731   6.329   5.111
 4607SOL     OW14719   3.274   1.665   1.707
 4607SOL    HW114720   3.243   1.737   1.769
 4607SOL    HW214721   3.195   1.612   1.677
 4608SOL     OW14722   2.205   3.921   5.742
 4608SOL    HW114723   2.273   3.989   5.717
 4608SOL    HW214724   2.135   3.916   5.670
 4609SOL     OW14725   4.940   6.727   6.717
 4609SOL    HW114726   5.024   6.779   6.705
 4609SOL    HW214727   4.932   6.659   6.644
 4610SOL     OW14728   0.332   3.184   6.368
 4610SOL    HW114729   0.391   3.258   6.335
 4610SOL    HW214730   0.342   3.175   6.467
 4611SOL     OW14731   0.720   3.994   0.057
 4611SOL    HW114732   0.754   4.065   0.118
 4611SOL    HW214733   0.750   4.013   6.983
 4612SOL     OW14734   2.522   6.672   6.818
 4612SOL    HW114735   2.523   6.627   6.907
 4612SOL    HW214736   2.593   6.742   6.816
 4613SOL     OW14737   3.148   5.639   2.345
 4613SOL    HW114738   3.248   5.649   2.340
 4613SOL    HW214739   3.125   5.548   2.380
 4614SOL     OW14740   1.456   5.357   0.358
 4614SOL    HW114741   1.494   5.319   0.273
 4614SOL    HW214742   1.357   5.343   0.358
 4615SOL     OW14743   1.322   2.349   0.361
 4615SOL    HW114744   1.246   2.410   0.338
 4615SOL    HW214745   1.401   2.403   0.388
 4616SOL     OW14746   5.419   1.300   6.260
 4616SOL    HW114747   5.340   1.360   6.252
 4616SOL    HW214748   5.493   1.334   6.202
 4617SOL     OW14749   0.401   2.477   1.554
 4617SOL    HW114750   0.347   2.537   1.613
 4617SOL    HW214751   0.403   2.385   1.592
 4618SOL     OW14752   1.276   2.068   6.228
 4618SOL    HW114753   1.203   2.079   6.296
 4618SOL    HW214754   1.267   2.140   6.159
 4619SOL     OW14755   4.133   0.509   3.433
 4619SOL    HW114756   4.174   0.558   3.510
 4619SOL    HW214757   4.039   0.541   3.419
 4620SOL     OW14758   2.731   4.466   6.631
 4620SOL    HW114759   2.692   4.484   6.541
 4620SOL    HW214760   2.673   4.401   6.680
 4621SOL     OW14761   0.683   0.153   5.375
 4621SOL    HW114762   0.672   0.175   5.278
 4621SOL    HW214763   0.644   0.063   5.393
 4622SOL     OW14764   1.406   4.073   0.649
 4622SOL    HW114765   1.431   3.983   0.613
 4622SOL    HW214766   1.462   4.094   0.729
 4623SOL     OW14767   6.957   5.145   1.526
 4623SOL    HW114768   6.931   5.191   1.611
 4623SOL    HW214769   6.889   5.075   1.504
 4624SOL     OW14770   5.179   0.245   4.349
 4624SOL    HW114771   5.215   0.299   4.425
 4624SOL    HW214772   5.229   0.159   4.341
 4625SOL     OW14773   0.987   4.328   6.613
 4625SOL    HW114774   0.894   4.290   6.616
 4625SOL    HW214775   1.035   4.292   6.533
 4626SOL     OW14776   6.810   5.176   1.116
 4626SOL    HW114777   6.870   5.219   1.184
 4626SOL    HW214778   6.865   5.117   1.056
 4627SOL     OW14779   3.447   6.024   5.412
 4627SOL    HW114780   3.415   5.940   5.456
 4627SOL    HW214781   3.419   6.024   5.316
 4628SOL     OW14782   6.725   4.512   1.898
 4628SOL    HW114783   6.713   4.469   1.987
 4628SOL    HW214784   6.662   4.471   1.832
 4629SOL     OW14785   1.839   4.478   5.438
 4629SOL    HW114786   1.908   4.425   5.487
 4629SOL    HW214787   1.820   4.435   5.350
 4630SOL     OW14788   2.393   5.752   2.704
 4630SOL    HW114789   2.404   5.654   2.719
 4630SOL    HW214790   2.483   5.794   2.694
 4631SOL     OW14791   2.983   6.541   2.582
 4631SOL    HW114792   3.032   6.628   2.586
 4631SOL    HW214793   2.886   6.556   2.604
 4632SOL     OW14794   5.116   5.494   4.199
 4632SOL    HW114795   5.064   5.415   4.167
 4632SOL    HW214796   5.053   5.567   4.226
 4633SOL     OW14797   6.806   1.944   4.321
 4633SOL    HW114798   6.777   1.956   4.416
 4633SOL    HW214799   6.787   1.850   4.292
 4634SOL     OW14800   3.197   4.661   0.868
 4634SOL    HW114801   3.135   4.595   0.825
 4634SOL    HW214802   3.147   4.716   0.935
 4635SOL     OW14803   5.140   3.414   2.116
 4635SOL    HW114804   5.056   3.367   2.089
 4635SOL    HW214805   5.202   3.420   2.038
 4636SOL     OW14806   3.229   5.432   0.436
 4636SOL    HW114807   3.318   5.474   0.457
 4636SOL    HW214808   3.162   5.504   0.417
 4637SOL     OW14809   1.237   1.041   5.172
 4637SOL    HW114810   1.233   1.019   5.270
 4637SOL    HW214811   1.277   1.132   5.160
 4638SOL     OW14812   4.837   3.431   5.772
 4638SOL    HW114813   4.763   3.364   5.781
 4638SOL    HW214814   4.895   3.428   5.853
 4639SOL     OW14815   0.196   3.870   5.579
 4639SOL    HW114816   0.178   3.792   5.518
 4639SOL    HW214817   0.242   3.838   5.661
 4640SOL     OW14818   5.624   4.299   2.877
 4640SOL    HW114819   5.643   4.348   2.962
 4640SOL    HW214820   5.648   4.356   2.799
 4641SOL     OW14821   2.005   4.772   4.651
 4641SOL    HW114822   1.907   4.758   4.639
 4641SOL    HW214823   2.036   4.719   4.730
 4642SOL     OW14824   5.942   5.985   4.571
 4642SOL    HW114825   5.904   5.980   4.663
 4642SOL    HW214826   5.960   6.080   4.547
 4643SOL     OW14827   3.939   2.259   1.882
 4643SOL    HW114828   3.987   2.327   1.826
 4643SOL    HW214829   3.841   2.275   1.875
 4644SOL     OW14830   1.793   5.916   4.757
 4644SOL    HW114831   1.890   5.936   4.750
 4644SOL    HW214832   1.752   5.972   4.829
 4645SOL     OW14833   1.974   6.237   4.655
 4645SOL    HW114834   1.880   6.267   4.671
 4645SOL    HW214835   1.991   6.152   4.705
 4646SOL     OW14836   3.574   0.776   2.050
 4646SOL    HW114837   3.584   0.733   1.960
 4646SOL    HW214838   3.638   0.735   2.114
 4647SOL     OW14839   6.182   0.532   4.229
 4647SOL    HW114840   6.214   0.578   4.146
 4647SOL    HW214841   6.091   0.565   4.253
 4648SOL     OW14842   2.173   5.744   2.497
 4648SOL    HW114843   2.236   5.728   2.573
 4648SOL    HW214844   2.106   5.814   2.523
 4649SOL     OW14845   5.199   0.531   5.446
 4649SOL    HW114846   5.163   0.624   5.449
 4649SOL    HW214847   5.133   0.471   5.401
 4650SOL     OW14848   5.323   5.060   2.245
 4650SOL    HW114849   5.358   5.113   2.323
 4650SOL    HW214850   5.400   5.021   2.195
 4651SOL     OW14851   0.411   2.199   1.632
 4651SOL    HW114852   0.423   2.170   1.727
 4651SOL    HW214853   0.326   2.159   1.596
 4652SOL     OW14854   6.706   0.173   5.720
 4652SOL    HW114855   6.779   0.149   5.657
 4652SOL    HW214856   6.714   0.118   5.803
 4653SOL     OW14857   0.195   6.384   6.891
 4653SOL    HW114858   0.164   6.365   6.798
 4653SOL    HW214859   0.185   6.482   6.910
 4654SOL     OW14860   1.280   0.520   0.153
 4654SOL    HW114861   1.336   0.585   0.100
 4654SOL    HW214862   1.215   0.475   0.093
 4655SOL     OW14863   0.473   4.697   3.164
 4655SOL    HW114864   0.410   4.653   3.228
 4655SOL    HW214865   0.567   4.690   3.199
 4656SOL     OW14866   1.160   0.591   3.848
 4656SOL    HW114867   1.244   0.553   3.886
 4656SOL    HW214868   1.180   0.633   3.759
 4657SOL     OW14869   5.206   7.008   1.083
 4657SOL    HW114870   5.189   6.985   0.988
 4657SOL    HW214871   5.119   0.010   1.129
 4658SOL     OW14872   4.900   0.373   2.936
 4658SOL    HW114873   4.805   0.362   2.906
 4658SOL    HW214874   4.942   0.449   2.886
 4659SOL     OW14875   1.823   2.597   4.840
 4659SOL    HW114876   1.741   2.614   4.784
 4659SOL    HW214877   1.827   2.665   4.913
 4660SOL     OW14878   0.217   1.122   6.156
 4660SOL    HW114879   0.176   1.195   6.210
 4660SOL    HW214880   0.144   1.064   6.119
 4661SOL     OW14881   3.089   3.723   3.976
 4661SOL    HW114882   3.059   3.785   3.903
 4661SOL    HW214883   3.048   3.751   4.062
 4662SOL     OW14884   4.832   0.385   5.450
 4662SOL    HW114885   4.851   0.473   5.406
 4662SOL    HW214886   4.879   0.312   5.400
 4663SOL     OW14887   0.115   2.236   2.556
 4663SOL    HW114888   0.089   2.153   2.605
 4663SOL    HW214889   0.078   2.232   2.463
 4664SOL     OW14890   3.347   2.479   0.290
 4664SOL    HW114891   3.303   2.503   0.204
 4664SOL    HW214892   3.384   2.562   0.332
 4665SOL     OW14893   5.098   0.092   0.022
 4665SOL    HW114894   5.117   0.184   0.057
 4665SOL    HW214895   5.007   0.063   0.051
 4666SOL     OW14896   2.456   1.243   0.602
 4666SOL    HW114897   2.515   1.258   0.681
 4666SOL    HW214898   2.427   1.147   0.600
 4667SOL     OW14899   6.955   5.323   6.537
 4667SOL    HW114900   0.002   5.334   6.463
 4667SOL    HW214901   6.950   5.227   6.563
 4668SOL     OW14902   6.545   1.500   4.181
 4668SOL    HW114903   6.639   1.465   4.192
 4668SOL    HW214904   6.506   1.518   4.272
 4669SOL     OW14905   1.335   0.193   0.557
 4669SOL    HW114906   1.356   0.280   0.512
 4669SOL    HW214907   1.270   0.208   0.631
 4670SOL     OW14908   2.671   2.069   4.344
 4670SOL    HW114909   2.579   2.095   4.315
 4670SOL    HW214910   2.670   2.050   4.442
 4671SOL     OW14911   5.388   3.631   1.804
 4671SOL    HW114912   5.333   3.551   1.825
 4671SOL    HW214913   5.448   3.610   1.727
 4672SOL     OW14914   2.189   3.624   6.395
 4672SOL    HW114915   2.163   3.719   6.407
 4672SOL    HW214916   2.264   3.602   6.457
 4673SOL     OW14917   3.850   1.107   2.605
 4673SOL    HW114918   3.924   1.045   2.632
 4673SOL    HW214919   3.879   1.159   2.524
 4674SOL     OW14920   4.520   5.657   5.135
 4674SOL    HW114921   4.471   5.683   5.218
 4674SOL    HW214922   4.549   5.739   5.086
 4675SOL     OW14923   0.884   4.177   0.291
 4675SOL    HW114924   0.820   4.237   0.242
 4675SOL    HW214925   0.938   4.231   0.355
 4676SOL     OW14926   1.360   5.562   3.345
 4676SOL    HW114927   1.298   5.511   3.405
 4676SOL    HW214928   1.454   5.546   3.375
 4677SOL     OW14929   1.840   2.865   0.244
 4677SOL    HW114930   1.819   2.921   0.325
 4677SOL    HW214931   1.862   2.772   0.273
 4678SOL     OW14932   2.162   4.565   2.909
 4678SOL    HW114933   2.132   4.649   2.864
 4678SOL    HW214934   2.211   4.508   2.844
 4679SOL     OW14935   5.214   7.002   1.684
 4679SOL    HW114936   5.304   0.025   1.685
 4679SOL    HW214937   5.177   7.000   1.777
 4680SOL     OW14938   2.303   1.257   1.926
 4680SOL    HW114939   2.278   1.237   1.831
 4680SOL    HW214940   2.333   1.172   1.971
 4681SOL     OW14941   5.626   4.080   1.501
 4681SOL    HW114942   5.554   4.017   1.530
 4681SOL    HW214943   5.710   4.062   1.553
 4682SOL     OW14944   4.141   3.663   6.483
 4682SOL    HW114945   4.205   3.613   6.541
 4682SOL    HW214946   4.091   3.730   6.538
 4683SOL     OW14947   6.294   4.094   3.658
 4683SOL    HW114948   6.256   4.099   3.750
 4683SOL    HW214949   6.392   4.071   3.663
 4684SOL     OW14950   4.370   6.134   0.024
 4684SOL    HW114951   4.425   6.089   0.095
 4684SOL    HW214952   4.431   6.175   6.975
 4685SOL     OW14953   2.881   3.660   5.719
 4685SOL    HW114954   2.880   3.614   5.807
 4685SOL    HW214955   2.928   3.602   5.652
 4686SOL     OW14956   2.829   6.123   0.273
 4686SOL    HW114957   2.731   6.128   0.254
 4686SOL    HW214958   2.872   6.211   0.251
 4687SOL     OW14959   2.970   0.579   2.594
 4687SOL    HW114960   2.891   0.537   2.640
 4687SOL    HW214961   2.997   0.661   2.644
 4688SOL     OW14962   5.699   3.457   5.791
 4688SOL    HW114963   5.658   3.527   5.733
 4688SOL    HW214964   5.704   3.370   5.741
 4689SOL     OW14965   5.451   0.844   0.710
 4689SOL    HW114966   5.398   0.898   0.645
 4689SOL    HW214967   5.428   0.748   0.701
 4690SOL     OW14968   2.739   1.277   0.476
 4690SOL    HW114969   2.771   1.195   0.428
 4690SOL    HW214970   2.643   1.292   0.455
 4691SOL     OW14971   6.265   4.820   0.948
 4691SOL    HW114972   6.257   4.871   1.033
 4691SOL    HW214973   6.325   4.869   0.885
 4692SOL     OW14974   6.562   4.167   2.769
 4692SOL    HW114975   6.564   4.094   2.700
 4692SOL    HW214976   6.556   4.127   2.860
 4693SOL     OW14977   2.013   0.797   3.946
 4693SOL    HW114978   1.994   0.820   3.851
 4693SOL    HW214979   1.979   0.705   3.966
 4694SOL     OW14980   2.439   1.267   0.173
 4694SOL    HW114981   2.393   1.291   0.087
 4694SOL    HW214982   2.390   1.310   0.249
 4695SOL     OW14983   1.130   5.818   1.344
 4695SOL    HW114984   1.215   5.835   1.294
 4695SOL    HW214985   1.151   5.767   1.428
 4696SOL     OW14986   1.044   4.885   6.431
 4696SOL    HW114987   1.107   4.807   6.433
 4696SOL    HW214988   1.011   4.898   6.337
 4697SOL     OW14989   2.707   4.608   0.830
 4697SOL    HW114990   2.773   4.624   0.757
 4697SOL    HW214991   2.742   4.645   0.916
 4698SOL     OW14992   4.655   0.921   2.938
 4698SOL    HW114993   4.677   0.842   2.997
 4698SOL    HW214994   4.708   0.915   2.854
 4699SOL     OW14995   1.087   0.209   2.382
 4699SOL    HW114996   1.147   0.286   2.363
 4699SOL    HW214997   1.120   0.160   2.462
 4700SOL     OW14998   6.075   2.210   2.725
 4700SOL    HW114999   6.095   2.113   2.712
 4700SOL    HW215000   5.977   2.226   2.719
 4701SOL     OW15001   3.199   1.900   1.861
 4701SOL    HW115002   3.255   1.983   1.856
 4701SOL    HW215003   3.110   1.922   1.901
 4702SOL     OW15004   5.418   4.761   6.347
 4702SOL    HW115005   5.375   4.696   6.285
 4702SOL    HW215006   5.348   4.815   6.394
 4703SOL     OW15007   0.944   4.570   3.381
 4703SOL    HW115008   1.002   4.622   3.444
 4703SOL    HW215009   0.946   4.473   3.406
 4704SOL     OW15010   0.706   5.121   5.539
 4704SOL    HW115011   0.762   5.199   5.510
 4704SOL    HW215012   0.688   5.062   5.460
 4705SOL     OW15013   3.175   2.959   1.840
 4705SOL    HW115014   3.250   2.928   1.898
 4705SOL    HW215015   3.088   2.932   1.882
 4706SOL     OW15016   1.435   0.915   0.451
 4706SOL    HW115017   1.383   0.999   0.436
 4706SOL    HW215018   1.486   0.922   0.536
 4707SOL     OW15019   1.126   0.512   1.551
 4707SOL    HW115020   1.056   0.551   1.611
 4707SOL    HW215021   1.083   0.454   1.482
 4708SOL     OW15022   0.609   2.668   4.096
 4708SOL    HW115023   0.653   2.582   4.069
 4708SOL    HW215024   0.528   2.682   4.039
 4709SOL     OW15025   4.674   4.000   5.267
 4709SOL    HW115026   4.671   4.005   5.167
 4709SOL    HW215027   4.758   3.954   5.296
 4710SOL     OW15028   5.669   6.280   4.242
 4710SOL    HW115029   5.692   6.183   4.235
 4710SOL    HW215030   5.572   6.293   4.220
 4711SOL     OW15031   6.180   3.189   3.146
 4711SOL    HW115032   6.123   3.253   3.198
 4711SOL    HW215033   6.148   3.186   3.051
 4712SOL     OW15034   4.426   4.288   5.311
 4712SOL    HW115035   4.357   4.319   5.247
 4712SOL    HW215036   4.511   4.267   5.261
 4713SOL     OW15037   5.845   4.217   1.054
 4713SOL    HW115038   5.836   4.201   1.152
 4713SOL    HW215039   5.754   4.220   1.012
 4714SOL     OW15040   6.304   0.824   6.001
 4714SOL    HW115041   6.290   0.847   5.905
 4714SOL    HW215042   6.247   0.882   6.059
 4715SOL     OW15043   6.099   1.780   1.763
 4715SOL    HW115044   6.010   1.738   1.748
 4715SOL    HW215045   6.110   1.858   1.701
 4716SOL     OW15046   3.712   4.625   5.857
 4716SOL    HW115047   3.643   4.674   5.804
 4716SOL    HW215048   3.728   4.535   5.815
 4717SOL     OW15049   2.954   5.182   5.323
 4717SOL    HW115050   2.959   5.202   5.225
 4717SOL    HW215051   2.867   5.216   5.359
 4718SOL     OW15052   5.428   4.241   1.483
 4718SOL    HW115053   5.347   4.202   1.527
 4718SOL    HW215054   5.502   4.175   1.484
 4719SOL     OW15055   6.676   3.389   3.542
 4719SOL    HW115056   6.632   3.414   3.629
 4719SOL    HW215057   6.637   3.443   3.468
 4720SOL     OW15058   2.806   4.161   6.931
 4720SOL    HW115059   2.871   4.195   6.999
 4720SOL    HW215060   2.851   4.157   6.842
 4721SOL     OW15061   6.473   3.653   2.611
 4721SOL    HW115062   6.432   3.671   2.522
 4721SOL    HW215063   6.409   3.601   2.668
 4722SOL     OW15064   1.004   4.194   6.239
 4722SOL    HW115065   0.918   4.238   6.262
 4722SOL    HW215066   1.078   4.232   6.295
 4723SOL     OW15067   3.879   3.991   6.486
 4723SOL    HW115068   3.872   3.978   6.585
 4723SOL    HW215069   3.788   3.984   6.445
 4724SOL     OW15070   1.074   6.769   4.369
 4724SOL    HW115071   1.146   6.703   4.347
 4724SOL    HW215072   0.992   6.748   4.314
 4725SOL     OW15073   6.187   5.861   0.730
 4725SOL    HW115074   6.285   5.846   0.740
 4725SOL    HW215075   6.151   5.798   0.660
 4726SOL     OW15076   1.888   3.129   5.541
 4726SOL    HW115077   1.890   3.224   5.511
 4726SOL    HW215078   1.833   3.122   5.625
 4727SOL     OW15079   0.930   5.718   0.423
 4727SOL    HW115080   1.026   5.714   0.450
 4727SOL    HW215081   0.920   5.778   0.344
 4728SOL     OW15082   6.174   1.211   3.982
 4728SOL    HW115083   6.140   1.142   4.046
 4728SOL    HW215084   6.124   1.203   3.895
 4729SOL     OW15085   6.188   0.716   0.564
 4729SOL    HW115086   6.274   0.689   0.521
 4729SOL    HW215087   6.133   0.768   0.499
 4730SOL     OW15088   3.657   0.109   5.036
 4730SOL    HW115089   3.632   0.206   5.030
 4730SOL    HW215090   3.684   0.087   5.129
 4731SOL     OW15091   3.134   0.397   0.846
 4731SOL    HW115092   3.079   0.321   0.880
 4731SOL    HW215093   3.193   0.431   0.920
 4732SOL     OW15094   6.960   3.757   4.503
 4732SOL    HW115095   6.941   3.665   4.469
 4732SOL    HW215096   6.877   3.796   4.544
 4733SOL     OW15097   2.101   3.313   3.022
 4733SOL    HW115098   2.068   3.405   2.999
 4733SOL    HW215099   2.091   3.297   3.120
 4734SOL     OW15100   4.858   3.828   6.499
 4734SOL    HW115101   4.958   3.823   6.495
 4734SOL    HW215102   4.830   3.848   6.593
 4735SOL     OW15103   0.376   6.376   4.935
 4735SOL    HW115104   0.383   6.282   4.968
 4735SOL    HW215105   0.406   6.439   5.007
 4736SOL     OW15106   6.601   2.213   2.890
 4736SOL    HW115107   6.644   2.148   2.827
 4736SOL    HW215108   6.502   2.209   2.878
 4737SOL     OW15109   2.198   5.000   1.082
 4737SOL    HW115110   2.188   5.038   1.174
 4737SOL    HW215111   2.143   4.917   1.074
 4738SOL     OW15112   1.988   0.240   3.623
 4738SOL    HW115113   2.085   0.228   3.644
 4738SOL    HW215114   1.959   0.331   3.653
 4739SOL     OW15115   5.663   3.455   4.272
 4739SOL    HW115116   5.613   3.504   4.200
 4739SOL    HW215117   5.653   3.505   4.358
 4740SOL     OW15118   0.297   1.020   1.470
 4740SOL    HW115119   0.259   1.080   1.540
 4740SOL    HW215120   0.315   1.072   1.387
 4741SOL     OW15121   4.607   4.870   1.632
 4741SOL    HW115122   4.518   4.844   1.595
 4741SOL    HW215123   4.622   4.822   1.719
 4742SOL     OW15124   2.791   5.685   1.270
 4742SOL    HW115125   2.789   5.665   1.368
 4742SOL    HW215126   2.836   5.773   1.255
 4743SOL     OW15127   2.356   2.160   0.289
 4743SOL    HW115128   2.300   2.088   0.331
 4743SOL    HW215129   2.451   2.130   0.284
 4744SOL     OW15130   2.211   3.619   5.565
 4744SOL    HW115131   2.178   3.707   5.600
 4744SOL    HW215132   2.189   3.612   5.467
 4745SOL     OW15133   3.447   5.533   4.759
 4745SOL    HW115134   3.477   5.463   4.694
 4745SOL    HW215135   3.461   5.499   4.853
 4746SOL     OW15136   6.662   6.558   1.070
 4746SOL    HW115137   6.628   6.637   1.120
 4746SOL    HW215138   6.758   6.541   1.095
 4747SOL     OW15139   6.594   1.996   0.530
 4747SOL    HW115140   6.563   2.079   0.482
 4747SOL    HW215141   6.566   2.000   0.625
 4748SOL     OW15142   1.027   0.833   1.334
 4748SOL    HW115143   1.122   0.801   1.336
 4748SOL    HW215144   1.009   0.887   1.417
 4749SOL     OW15145   2.200   6.735   0.078
 4749SOL    HW115146   2.185   6.765   0.172
 4749SOL    HW215147   2.213   6.815   0.019
 4750SOL     OW15148   0.037   0.461   4.230
 4750SOL    HW115149   6.989   0.430   4.297
 4750SOL    HW215150   0.126   0.421   4.251
 4751SOL     OW15151   1.592   4.526   6.388
 4751SOL    HW115152   1.613   4.481   6.301
 4751SOL    HW215153   1.610   4.462   6.463
 4752SOL     OW15154   2.968   6.049   1.785
 4752SOL    HW115155   3.042   6.098   1.830
 4752SOL    HW215156   2.902   6.017   1.853
 4753SOL     OW15157   5.798   6.532   5.280
 4753SOL    HW115158   5.752   6.443   5.278
 4753SOL    HW215159   5.897   6.518   5.278
 4754SOL     OW15160   0.445   0.561   5.637
 4754SOL    HW115161   0.442   0.622   5.558
 4754SOL    HW215162   0.373   0.492   5.629
 4755SOL     OW15163   2.230   1.166   5.993
 4755SOL    HW115164   2.227   1.207   6.084
 4755SOL    HW215165   2.203   1.070   5.998
 4756SOL     OW15166   4.653   2.797   1.424
 4756SOL    HW115167   4.708   2.714   1.420
 4756SOL    HW215168   4.631   2.826   1.330
 4757SOL     OW15169   2.310   1.958   1.591
 4757SOL    HW115170   2.301   2.046   1.638
 4757SOL    HW215171   2.316   1.885   1.659
 4758SOL     OW15172   4.914   5.170   5.392
 4758SOL    HW115173   4.928   5.268   5.382
 4758SOL    HW215174   4.979   5.133   5.458
 4759SOL     OW15175   5.598   5.572   6.383
 4759SOL    HW115176   5.668   5.503   6.402
 4759SOL    HW215177   5.568   5.564   6.288
 4760SOL     OW15178   2.101   0.888   1.545
 4760SOL    HW115179   2.119   0.936   1.631
 4760SOL    HW215180   2.164   0.919   1.475
 4761SOL     OW15181   6.763   6.720   6.465
 4761SOL    HW115182   6.853   6.706   6.424
 4761SOL    HW215183   6.698   6.655   6.425
 4762SOL     OW15184   2.523   5.758   1.941
 4762SOL    HW115185   2.616   5.793   1.930
 4762SOL    HW215186   2.458   5.824   1.904
 4763SOL     OW15187   5.990   6.598   3.451
 4763SOL    HW115188   6.062   6.560   3.394
 4763SOL    HW215189   6.018   6.595   3.547
 4764SOL     OW15190   4.036   3.707   4.952
 4764SOL    HW115191   4.033   3.733   4.856
 4764SOL    HW215192   4.082   3.619   4.962
 4765SOL     OW15193   4.959   5.743   4.789
 4765SOL    HW115194   5.040   5.697   4.825
 4765SOL    HW215195   4.955   5.731   4.690
 4766SOL     OW15196   2.513   6.916   3.320
 4766SOL    HW115197   2.604   6.897   3.283
 4766SOL    HW215198   2.487   6.842   3.382
 4767SOL     OW15199   4.199   6.557   6.530
 4767SOL    HW115200   4.152   6.641   6.555
 4767SOL    HW215201   4.294   6.578   6.507
 4768SOL     OW15202   6.133   0.421   4.675
 4768SOL    HW115203   6.197   0.347   4.693
 4768SOL    HW215204   6.159   0.468   4.590
 4769SOL     OW15205   4.264   6.478   2.019
 4769SOL    HW115206   4.302   6.386   2.007
 4769SOL    HW215207   4.199   6.497   1.945
 4770SOL     OW15208   2.793   0.485   2.786
 4770SOL    HW115209   2.715   0.423   2.798
 4770SOL    HW215210   2.855   0.476   2.864
 4771SOL     OW15211   3.872   4.070   5.747
 4771SOL    HW115212   3.796   4.060   5.683
 4771SOL    HW215213   3.959   4.057   5.699
 4772SOL     OW15214   2.893   1.510   1.457
 4772SOL    HW115215   2.796   1.513   1.481
 4772SOL    HW215216   2.913   1.583   1.392
 4773SOL     OW15217   6.982   5.777   3.533
 4773SOL    HW115218   6.985   5.713   3.609
 4773SOL    HW215219   0.038   5.757   3.470
 4774SOL     OW15220   0.759   3.779   1.047
 4774SOL    HW115221   0.836   3.840   1.064
 4774SOL    HW215222   0.753   3.760   0.949
 4775SOL     OW15223   4.249   0.122   2.643
 4775SOL    HW115224   4.179   0.191   2.621
 4775SOL    HW215225   4.304   0.154   2.721
 4776SOL     OW15226   2.746   5.891   2.275
 4776SOL    HW115227   2.660   5.937   2.295
 4776SOL    HW215228   2.822   5.950   2.304
 4777SOL     OW15229   2.766   4.476   1.210
 4777SOL    HW115230   2.713   4.398   1.242
 4777SOL    HW215231   2.723   4.561   1.242
 4778SOL     OW15232   4.880   3.784   2.172
 4778SOL    HW115233   4.858   3.705   2.114
 4778SOL    HW215234   4.859   3.868   2.122
 4779SOL     OW15235   6.351   0.557   3.187
 4779SOL    HW115236   6.418   0.617   3.229
 4779SOL    HW215237   6.347   0.574   3.089
 4780SOL     OW15238   1.088   6.637   6.333
 4780SOL    HW115239   1.140   6.616   6.415
 4780SOL    HW215240   0.994   6.663   6.358
 4781SOL     OW15241   2.768   5.285   1.316
 4781SOL    HW115242   2.714   5.337   1.382
 4781SOL    HW215243   2.738   5.308   1.223
 4782SOL     OW15244   5.533   6.599   0.028
 4782SOL    HW115245   5.451   6.565   0.072
 4782SOL    HW215246   5.600   6.525   0.019
 4783SOL     OW15247   5.600   4.248   0.920
 4783SOL    HW115248   5.605   4.271   0.823
 4783SOL    HW215249   5.511   4.276   0.956
 4784SOL     OW15250   5.437   5.009   5.108
 4784SOL    HW115251   5.421   4.941   5.179
 4784SOL    HW215252   5.502   4.974   5.041
 4785SOL     OW15253   6.760   6.265   1.128
 4785SOL    HW115254   6.769   6.194   1.058
 4785SOL    HW215255   6.674   6.314   1.114
 4786SOL     OW15256   1.886   3.243   2.116
 4786SOL    HW115257   1.830   3.293   2.182
 4786SOL    HW215258   1.827   3.192   2.053
 4787SOL     OW15259   3.081   2.116   3.231
 4787SOL    HW115260   3.082   2.107   3.331
 4787SOL    HW215261   3.007   2.176   3.203
 4788SOL     OW15262   1.109   4.887   4.564
 4788SOL    HW115263   1.166   4.960   4.529
 4788SOL    HW215264   1.013   4.908   4.546
 4789SOL     OW15265   5.616   0.568   6.841
 4789SOL    HW115266   5.659   0.578   6.752
 4789SOL    HW215267   5.537   0.629   6.848
 4790SOL     OW15268   5.730   2.513   6.238
 4790SOL    HW115269   5.758   2.607   6.254
 4790SOL    HW215270   5.745   2.459   6.321
 4791SOL     OW15271   5.436   6.750   1.779
 4791SOL    HW115272   5.404   6.662   1.744
 4791SOL    HW215273   5.380   6.778   1.856
 4792SOL     OW15274   2.115   2.624   2.852
 4792SOL    HW115275   2.103   2.540   2.797
 4792SOL    HW215276   2.060   2.697   2.812
 4793SOL     OW15277   1.639   7.005   6.483
 4793SOL    HW115278   1.686   7.012   6.395
 4793SOL    HW215279   1.577   0.063   6.494
 4794SOL     OW15280   2.832   0.113   2.853
 4794SOL    HW115281   2.779   0.189   2.814
 4794SOL    HW215282   2.803   0.027   2.812
 4795SOL     OW15283   6.487   2.983   4.398
 4795SOL    HW115284   6.525   2.986   4.490
 4795SOL    HW215285   6.478   2.887   4.369
 4796SOL     OW15286   6.084   3.714   1.057
 4796SOL    HW115287   6.003   3.771   1.065
 4796SOL    HW215288   6.061   3.628   1.012
 4797SOL     OW15289   0.638   4.897   5.801
 4797SOL    HW115290   0.545   4.930   5.790
 4797SOL    HW215291   0.694   4.967   5.845
 4798SOL     OW15292   0.318   3.640   4.148
 4798SOL    HW115293   0.363   3.714   4.198
 4798SOL    HW215294   0.286   3.571   4.214
 4799SOL     OW15295   3.934   1.390   5.082
 4799SOL    HW115296   3.878   1.437   5.013
 4799SOL    HW215297   3.888   1.394   5.170
 4800SOL     OW15298   2.408   2.675   5.472
 4800SOL    HW115299   2.430   2.693   5.376
 4800SOL    HW215300   2.398   2.762   5.520
 4801SOL     OW15301   1.373   1.609   0.957
 4801SOL    HW115302   1.306   1.562   1.014
 4801SOL    HW215303   1.332   1.633   0.869
 4802SOL     OW15304   2.836   0.232   1.737
 4802SOL    HW115305   2.770   0.262   1.806
 4802SOL    HW215306   2.788   0.211   1.652
 4803SOL     OW15307   0.753   0.002   0.396
 4803SOL    HW115308   0.783   0.089   0.437
 4803SOL    HW215309   0.819   6.993   0.327
 4804SOL     OW15310   4.033   5.391   6.215
 4804SOL    HW115311   4.060   5.394   6.118
 4804SOL    HW215312   4.108   5.354   6.269
 4805SOL     OW15313   0.178   1.727   0.459
 4805SOL    HW115314   0.207   1.701   0.552
 4805SOL    HW215315   0.205   1.821   0.441
 4806SOL     OW15316   0.218   3.312   2.904
 4806SOL    HW115317   0.184   3.307   2.811
 4806SOL    HW215318   0.204   3.224   2.949
 4807SOL     OW15319   0.502   6.298   1.292
 4807SOL    HW115320   0.523   6.392   1.263
 4807SOL    HW215321   0.499   6.295   1.392
 4808SOL     OW15322   5.276   3.552   1.405
 4808SOL    HW115323   5.365   3.536   1.446
 4808SOL    HW215324   5.211   3.484   1.437
 4809SOL     OW15325   3.504   5.112   6.902
 4809SOL    HW115326   3.558   5.059   6.837
 4809SOL    HW215327   3.525   5.080   6.995
 4810SOL     OW15328   0.883   6.359   1.731
 4810SOL    HW115329   0.939   6.354   1.814
 4810SOL    HW215330   0.816   6.284   1.732
 4811SOL     OW15331   3.716   5.139   2.001
 4811SOL    HW115332   3.647   5.097   1.942
 4811SOL    HW215333   3.690   5.126   2.097
 4812SOL     OW15334   0.307   5.466   4.536
 4812SOL    HW115335   0.398   5.485   4.574
 4812SOL    HW215336   0.317   5.411   4.453
 4813SOL     OW15337   4.931   2.077   2.692
 4813SOL    HW115338   5.019   2.123   2.680
 4813SOL    HW215339   4.860   2.127   2.641
 4814SOL     OW15340   0.268   3.979   0.936
 4814SOL    HW115341   0.356   3.980   0.889
 4814SOL    HW215342   0.201   4.030   0.881
 4815SOL     OW15343   4.945   5.648   1.392
 4815SOL    HW115344   4.946   5.677   1.296
 4815SOL    HW215345   4.936   5.548   1.396
 4816SOL     OW15346   4.955   5.173   2.760
 4816SOL    HW115347   5.037   5.129   2.725
 4816SOL    HW215348   4.980   5.254   2.814
 4817SOL     OW15349   1.681   2.250   6.106
 4817SOL    HW115350   1.617   2.249   6.184
 4817SOL    HW215351   1.644   2.196   6.032
 4818SOL     OW15352   0.094   6.801   3.829
 4818SOL    HW115353   0.173   6.775   3.773
 4818SOL    HW215354   0.104   6.897   3.857
 4819SOL     OW15355   1.456   3.023   0.019
 4819SOL    HW115356   1.378   3.052   0.075
 4819SOL    HW215357   1.540   3.035   0.071
 4820SOL     OW15358   0.017   3.163   1.989
 4820SOL    HW115359   6.964   3.130   2.050
 4820SOL    HW215360   0.101   3.174   2.040
 4821SOL     OW15361   6.663   5.832   2.656
 4821SOL    HW115362   6.658   5.854   2.559
 4821SOL    HW215363   6.571   5.821   2.693
 4822SOL     OW15364   1.156   3.723   4.427
 4822SOL    HW115365   1.249   3.750   4.405
 4822SOL    HW215366   1.154   3.626   4.451
 4823SOL     OW15367   1.626   2.574   2.125
 4823SOL    HW115368   1.587   2.483   2.137
 4823SOL    HW215369   1.564   2.642   2.164
 4824SOL     OW15370   6.155   1.059   5.029
 4824SOL    HW115371   6.138   1.135   4.966
 4824SOL    HW215372   6.150   0.972   4.979
 4825SOL     OW15373   1.879   6.792   3.874
 4825SOL    HW115374   1.965   6.840   3.861
 4825SOL    HW215375   1.868   6.768   3.970
 4826SOL     OW15376   4.644   0.281   1.757
 4826SOL    HW115377   4.704   0.335   1.816
 4826SOL    HW215378   4.549   0.308   1.772
 4827SOL     OW15379   6.794   1.893   1.156
 4827SOL    HW115380   6.798   1.795   1.174
 4827SOL    HW215381   6.884   1.925   1.128
 4828SOL     OW15382   4.468   0.726   2.181
 4828SOL    HW115383   4.473   0.673   2.266
 4828SOL    HW215384   4.555   0.772   2.165
 4829SOL     OW15385   3.710   0.074   5.301
 4829SOL    HW115386   3.791   0.015   5.295
 4829SOL    HW215387   3.733   0.157   5.351
 4830SOL     OW15388   3.338   5.923   3.710
 4830SOL    HW115389   3.405   5.863   3.665
 4830SOL    HW215390   3.257   5.931   3.652
 4831SOL     OW15391   3.257   4.970   6.423
 4831SOL    HW115392   3.186   4.900   6.428
 4831SOL    HW215393   3.279   5.002   6.515
 4832SOL     OW15394   3.264   3.038   3.889
 4832SOL    HW115395   3.329   3.112   3.871
 4832SOL    HW215396   3.171   3.076   3.892
 4833SOL     OW15397   0.239   2.631   4.191
 4833SOL    HW115398   0.296   2.688   4.250
 4833SOL    HW215399   0.145   2.665   4.193
 4834SOL     OW15400   1.917   4.967   1.689
 4834SOL    HW115401   1.926   5.053   1.740
 4834SOL    HW215402   1.842   4.976   1.623
 4835SOL     OW15403   0.034   2.352   5.277
 4835SOL    HW115404   6.969   2.391   5.241
 4835SOL    HW215405   0.093   2.425   5.310
 4836SOL     OW15406   4.822   1.238   5.204
 4836SOL    HW115407   4.840   1.142   5.182
 4836SOL    HW215408   4.727   1.260   5.182
 4837SOL     OW15409   6.761   3.836   4.731
 4837SOL    HW115410   6.783   3.740   4.745
 4837SOL    HW215411   6.743   3.879   4.819
 4838SOL     OW15412   1.294   4.626   6.662
 4838SOL    HW115413   1.291   4.630   6.563
 4838SOL    HW215414   1.377   4.670   6.695
 4839SOL     OW15415   2.417   1.659   6.910
 4839SOL    HW115416   2.332   1.605   6.906
 4839SOL    HW215417   2.400   1.743   6.962
 4840SOL     OW15418   5.547   3.419   4.977
 4840SOL    HW115419   5.496   3.336   4.953
 4840SOL    HW215420   5.602   3.447   4.899
 4841SOL     OW15421   3.021   5.459   3.061
 4841SOL    HW115422   3.109   5.505   3.074
 4841SOL    HW215423   2.948   5.516   3.098
 4842SOL     OW15424   2.801   5.586   3.163
 4842SOL    HW115425   2.783   5.488   3.176
 4842SOL    HW215426   2.714   5.634   3.153
 4843SOL     OW15427   0.497   2.446   2.167
 4843SOL    HW115428   0.490   2.522   2.231
 4843SOL    HW215429   0.500   2.481   2.073
 4844SOL     OW15430   1.065   5.701   4.799
 4844SOL    HW115431   1.113   5.657   4.875
 4844SOL    HW215432   1.130   5.725   4.728
 4845SOL     OW15433   5.026   3.774   5.028
 4845SOL    HW115434   4.956   3.702   5.024
 4845SOL    HW215435   5.097   3.748   5.094
 4846SOL     OW15436   6.868   3.752   5.188
 4846SOL    HW115437   6.962   3.776   5.210
 4846SOL    HW215438   6.829   3.697   5.263
 4847SOL     OW15439   2.316   6.805   6.395
 4847SOL    HW115440   2.377   6.728   6.412
 4847SOL    HW215441   2.345   6.854   6.313
 4848SOL     OW15442   2.835   0.929   3.968
 4848SOL    HW115443   2.800   0.851   3.917
 4848SOL    HW215444   2.832   0.910   4.066
 4849SOL     OW15445   1.936   6.757   0.979
 4849SOL    HW115446   1.973   6.840   0.936
 4849SOL    HW215447   1.841   6.745   0.950
 4850SOL     OW15448   4.737   0.570   0.600
 4850SOL    HW115449   4.705   0.505   0.669
 4850SOL    HW215450   4.663   0.632   0.575
 4851SOL     OW15451   3.807   5.228   6.530
 4851SOL    HW115452   3.761   5.206   6.445
 4851SOL    HW215453   3.881   5.163   6.546
 4852SOL     OW15454   4.794   5.113   4.651
 4852SOL    HW115455   4.702   5.146   4.675
 4852SOL    HW215456   4.832   5.170   4.578
 4853SOL     OW15457   3.674   0.168   2.508
 4853SOL    HW115458   3.605   0.234   2.478
 4853SOL    HW215459   3.690   0.179   2.606
 4854SOL     OW15460   5.839   6.138   1.632
 4854SOL    HW115461   5.821   6.076   1.556
 4854SOL    HW215462   5.818   6.092   1.719
 4855SOL     OW15463   6.176   5.179   4.715
 4855SOL    HW115464   6.272   5.160   4.696
 4855SOL    HW215465   6.168   5.260   4.773
 4856SOL     OW15466   0.252   4.003   2.934
 4856SOL    HW115467   0.227   3.993   3.030
 4856SOL    HW215468   0.172   4.034   2.882
 4857SOL     OW15469   2.698   2.041   4.831
 4857SOL    HW115470   2.722   1.957   4.879
 4857SOL    HW215471   2.705   2.119   4.894
 4858SOL     OW15472   0.226   5.836   4.052
 4858SOL    HW115473   0.170   5.870   3.976
 4858SOL    HW215474   0.190   5.871   4.138
 4859SOL     OW15475   0.635   5.892   2.355
 4859SOL    HW115476   0.583   5.844   2.285
 4859SOL    HW215477   0.577   5.906   2.435
 4860SOL     OW15478   4.299   5.686   1.013
 4860SOL    HW115479   4.382   5.650   1.056
 4860SOL    HW215480   4.243   5.732   1.082
 4861SOL     OW15481   0.227   4.853   6.776
 4861SOL    HW115482   0.296   4.866   6.847
 4861SOL    HW215483   0.271   4.858   6.686
 4862SOL     OW15484   2.548   4.646   5.365
 4862SOL    HW115485   2.588   4.697   5.289
 4862SOL    HW215486   2.448   4.640   5.353
 4863SOL     OW15487   4.391   1.847   3.034
 4863SOL    HW115488   4.475   1.816   3.079
 4863SOL    HW215489   4.406   1.936   2.991
 4864SOL     OW15490   3.098   1.470   1.644
 4864SOL    HW115491   3.042   1.493   1.565
 4864SOL    HW215492   3.041   1.466   1.726
 4865SOL     OW15493   3.812   5.753   5.281
 4865SOL    HW115494   3.830   5.813   5.359
 4865SOL    HW215495   3.895   5.746   5.225
 4866SOL     OW15496   6.605   4.773   1.002
 4866SOL    HW115497   6.546   4.699   0.971
 4866SOL    HW215498   6.654   4.811   0.923
 4867SOL     OW15499   4.882   5.763   2.819
 4867SOL    HW115500   4.895   5.683   2.760
 4867SOL    HW215501   4.900   5.847   2.767
 4868SOL     OW15502   0.658   5.896   1.247
 4868SOL    HW115503   0.643   5.834   1.170
 4868SOL    HW215504   0.579   5.894   1.308
 4869SOL     OW15505   6.525   0.761   0.523
 4869SOL    HW115506   6.515   0.741   0.621
 4869SOL    HW215507   6.520   0.675   0.471
 4870SOL     OW15508   5.927   6.440   2.465
 4870SOL    HW115509   5.964   6.533   2.472
 4870SOL    HW215510   5.993   6.375   2.503
 4871SOL     OW15511   1.389   3.161   4.247
 4871SOL    HW115512   1.380   3.125   4.154
 4871SOL    HW215513   1.418   3.257   4.243
 4872SOL     OW15514   1.092   0.940   2.780
 4872SOL    HW115515   1.055   0.885   2.706
 4872SOL    HW215516   1.023   0.948   2.853
 4873SOL     OW15517   0.189   5.801   5.644
 4873SOL    HW115518   0.225   5.749   5.721
 4873SOL    HW215519   0.096   5.770   5.623
 4874SOL     OW15520   5.366   3.678   3.235
 4874SOL    HW115521   5.278   3.651   3.194
 4874SOL    HW215522   5.356   3.685   3.334
 4875SOL     OW15523   5.970   2.230   6.980
 4875SOL    HW115524   5.905   2.213   0.036
 4875SOL    HW215525   6.030   2.305   7.004
 4876SOL     OW15526   0.233   1.559   6.644
 4876SOL    HW115527   0.227   1.649   6.687
 4876SOL    HW215528   0.325   1.523   6.656
 4877SOL     OW15529   6.418   1.227   1.388
 4877SOL    HW115530   6.402   1.289   1.312
 4877SOL    HW215531   6.516   1.215   1.402
 4878SOL     OW15532   0.008   1.866   1.932
 4878SOL    HW115533   0.060   1.787   1.962
 4878SOL    HW215534   6.933   1.859   1.966
 4879SOL     OW15535   4.196   5.178   3.463
 4879SOL    HW115536   4.159   5.109   3.400
 4879SOL    HW215537   4.270   5.138   3.516
 4880SOL     OW15538   5.472   1.650   5.658
 4880SOL    HW115539   5.472   1.639   5.559
 4880SOL    HW215540   5.459   1.746   5.682
 4881SOL     OW15541   3.580   6.361   6.401
 4881SOL    HW115542   3.650   6.380   6.469
 4881SOL    HW215543   3.622   6.318   6.321
 4882SOL     OW15544   5.400   0.065   5.577
 4882SOL    HW115545   5.498   0.084   5.590
 4882SOL    HW215546   5.361   0.131   5.513
 4883SOL     OW15547   0.174   5.319   1.783
 4883SOL    HW115548   0.179   5.321   1.684
 4883SOL    HW215549   0.266   5.331   1.822
 4884SOL     OW15550   3.170   6.527   1.613
 4884SOL    HW115551   3.241   6.585   1.655
 4884SOL    HW215552   3.212   6.445   1.575
 4885SOL     OW15553   1.601   0.225   1.862
 4885SOL    HW115554   1.695   0.253   1.880
 4885SOL    HW215555   1.595   0.185   1.770
 4886SOL     OW15556   6.518   0.564   6.735
 4886SOL    HW115557   6.472   0.648   6.763
 4886SOL    HW215558   6.512   0.555   6.635
 4887SOL     OW15559   0.723   1.992   3.881
 4887SOL    HW115560   0.641   1.950   3.921
 4887SOL    HW215561   0.697   2.072   3.827
 4888SOL     OW15562   2.692   5.476   2.843
 4888SOL    HW115563   2.708   5.485   2.941
 4888SOL    HW215564   2.774   5.504   2.793
 4889SOL     OW15565   0.916   1.946   0.133
 4889SOL    HW115566   0.886   1.940   0.038
 4889SOL    HW215567   0.932   1.853   0.168
 4890SOL     OW15568   1.311   0.613   4.632
 4890SOL    HW115569   1.360   0.608   4.718
 4890SOL    HW215570   1.377   0.622   4.557
 4891SOL     OW15571   0.920   4.817   0.269
 4891SOL    HW115572   0.934   4.847   0.175
 4891SOL    HW215573   0.898   4.720   0.270
 4892SOL     OW15574   0.981   5.331   0.838
 4892SOL    HW115575   0.910   5.317   0.769
 4892SOL    HW215576   0.940   5.374   0.918
 4893SOL     OW15577   0.381   3.557   6.400
 4893SOL    HW115578   0.462   3.568   6.458
 4893SOL    HW215579   0.405   3.504   6.319
 4894SOL     OW15580   2.585   0.998   2.959
 4894SOL    HW115581   2.538   1.021   3.044
 4894SOL    HW215582   2.617   0.904   2.962
 4895SOL     OW15583   0.868   3.612   6.983
 4895SOL    HW115584   0.833   3.579   0.052
 4895SOL    HW215585   0.809   3.685   6.950
 4896SOL     OW15586   3.823   5.590   4.716
 4896SOL    HW115587   3.754   5.622   4.651
 4896SOL    HW215588   3.838   5.492   4.703
 4897SOL     OW15589   3.269   5.618   6.388
 4897SOL    HW115590   3.240   5.577   6.302
 4897SOL    HW215591   3.341   5.563   6.430
 4898SOL     OW15592   5.570   2.031   5.219
 4898SOL    HW115593   5.583   2.116   5.271
 4898SOL    HW215594   5.659   1.991   5.198
 4899SOL     OW15595   5.787   3.896   4.141
 4899SOL    HW115596   5.702   3.862   4.100
 4899SOL    HW215597   5.767   3.976   4.197
 4900SOL     OW15598   1.096   6.788   5.536
 4900SOL    HW115599   1.173   6.770   5.476
 4900SOL    HW215600   1.109   6.740   5.623
 4901SOL     OW15601   0.838   0.131   4.003
 4901SOL    HW115602   0.876   0.209   4.052
 4901SOL    HW215603   0.892   0.050   4.020
 4902SOL     OW15604   2.462   4.619   1.718
 4902SOL    HW115605   2.558   4.592   1.711
 4902SOL    HW215606   2.404   4.551   1.673
 4903SOL     OW15607   4.878   0.174   6.691
 4903SOL    HW115608   4.905   0.234   6.766
 4903SOL    HW215609   4.875   0.227   6.606
 4904SOL     OW15610   2.710   5.858   3.790
 4904SOL    HW115611   2.766   5.813   3.859
 4904SOL    HW215612   2.649   5.790   3.748
 4905SOL     OW15613   5.470   3.642   2.143
 4905SOL    HW115614   5.452   3.628   2.046
 4905SOL    HW215615   5.440   3.561   2.194
 4906SOL     OW15616   5.142   0.509   0.611
 4906SOL    HW115617   5.134   0.499   0.511
 4906SOL    HW215618   5.086   0.586   0.641
 4907SOL     OW15619   3.369   0.738   2.563
 4907SOL    HW115620   3.413   0.698   2.643
 4907SOL    HW215621   3.428   0.809   2.524
 4908SOL     OW15622   2.906   5.986   6.729
 4908SOL    HW115623   2.846   6.051   6.682
 4908SOL    HW215624   2.996   5.987   6.685
 4909SOL     OW15625   0.103   6.794   5.241
 4909SOL    HW115626   0.049   6.747   5.311
 4909SOL    HW215627   0.150   6.726   5.184
 4910SOL     OW15628   5.695   6.816   4.933
 4910SOL    HW115629   5.601   6.798   4.961
 4910SOL    HW215630   5.745   6.858   5.008
 4911SOL     OW15631   6.798   2.463   6.171
 4911SOL    HW115632   6.782   2.432   6.078
 4911SOL    HW215633   6.861   2.400   6.217
 4912SOL     OW15634   2.538   2.078   2.230
 4912SOL    HW115635   2.510   2.092   2.324
 4912SOL    HW215636   2.555   2.166   2.186
 4913SOL     OW15637   2.848   3.590   3.407
 4913SOL    HW115638   2.896   3.632   3.483
 4913SOL    HW215639   2.864   3.643   3.323
 4914SOL     OW15640   1.806   6.445   3.594
 4914SOL    HW115641   1.830   6.436   3.691
 4914SOL    HW215642   1.764   6.534   3.578
 4915SOL     OW15643   3.073   5.614   3.728
 4915SOL    HW115644   3.115   5.652   3.646
 4915SOL    HW215645   3.079   5.680   3.802
 4916SOL     OW15646   2.381   1.344   2.310
 4916SOL    HW115647   2.349   1.419   2.369
 4916SOL    HW215648   2.443   1.381   2.241
 4917SOL     OW15649   1.891   5.136   0.863
 4917SOL    HW115650   1.874   5.039   0.845
 4917SOL    HW215651   1.846   5.163   0.948
 4918SOL     OW15652   2.486   0.195   1.732
 4918SOL    HW115653   2.450   0.258   1.800
 4918SOL    HW215654   2.473   0.101   1.762
 4919SOL     OW15655   2.456   2.497   2.018
 4919SOL    HW115656   2.440   2.594   2.037
 4919SOL    HW215657   2.411   2.472   1.933
 4920SOL     OW15658   4.461   0.924   0.364
 4920SOL    HW115659   4.475   0.859   0.289
 4920SOL    HW215660   4.378   0.899   0.415
 4921SOL     OW15661   1.282   5.067   1.515
 4921SOL    HW115662   1.279   4.977   1.558
 4921SOL    HW215663   1.335   5.130   1.571
 4922SOL     OW15664   1.793   2.732   5.581
 4922SOL    HW115665   1.773   2.681   5.497
 4922SOL    HW215666   1.886   2.768   5.577
 4923SOL     OW15667   4.644   1.173   1.006
 4923SOL    HW115668   4.664   1.146   0.912
 4923SOL    HW215669   4.673   1.268   1.020
 4924SOL     OW15670   0.443   3.885   4.916
 4924SOL    HW115671   0.521   3.931   4.958
 4924SOL    HW215672   0.406   3.942   4.843
 4925SOL     OW15673   4.639   5.919   0.054
 4925SOL    HW115674   4.679   5.974   0.127
 4925SOL    HW215675   4.678   5.947   6.985
 4926SOL     OW15676   4.800   2.608   1.992
 4926SOL    HW115677   4.794   2.509   1.998
 4926SOL    HW215678   4.864   2.633   1.919
 4927SOL     OW15679   3.614   3.102   3.306
 4927SOL    HW115680   3.595   3.033   3.236
 4927SOL    HW215681   3.668   3.176   3.267
 4928SOL     OW15682   0.391   6.048   6.785
 4928SOL    HW115683   0.438   5.998   6.857
 4928SOL    HW215684   0.429   6.140   6.778
 4929SOL     OW15685   0.792   5.294   4.049
 4929SOL    HW115686   0.876   5.250   4.017
 4929SOL    HW215687   0.749   5.343   3.973
 4930SOL     OW15688   0.342   2.365   0.990
 4930SOL    HW115689   0.430   2.394   1.030
 4930SOL    HW215690   0.297   2.301   1.052
 4931SOL     OW15691   6.826   0.629   0.353
 4931SOL    HW115692   6.816   0.728   0.340
 4931SOL    HW215693   6.764   0.581   0.292
 4932SOL     OW15694   2.827   2.503   1.598
 4932SOL    HW115695   2.772   2.452   1.665
 4932SOL    HW215696   2.909   2.537   1.642
 4933SOL     OW15697   3.217   0.659   4.094
 4933SOL    HW115698   3.162   0.620   4.167
 4933SOL    HW215699   3.234   0.756   4.113
 4934SOL     OW15700   1.001   6.096   4.719
 4934SOL    HW115701   0.998   6.033   4.641
 4934SOL    HW215702   0.927   6.073   4.783
 4935SOL     OW15703   1.517   1.111   0.675
 4935SOL    HW115704   1.502   1.100   0.773
 4935SOL    HW215705   1.465   1.189   0.641
 4936SOL     OW15706   4.032   5.596   0.685
 4936SOL    HW115707   4.091   5.674   0.663
 4936SOL    HW215708   3.986   5.613   0.772
 4937SOL     OW15709   0.696   2.969   6.101
 4937SOL    HW115710   0.700   2.870   6.084
 4937SOL    HW215711   0.602   3.001   6.086
 4938SOL     OW15712   3.623   4.751   1.564
 4938SOL    HW115713   3.613   4.728   1.661
 4938SOL    HW215714   3.549   4.707   1.512
 4939SOL     OW15715   1.805   1.767   2.030
 4939SOL    HW115716   1.789   1.694   1.963
 4939SOL    HW215717   1.734   1.836   2.022
 4940SOL     OW15718   0.461   2.219   4.940
 4940SOL    HW115719   0.506   2.145   4.991
 4940SOL    HW215720   0.456   2.195   4.843
 4941SOL     OW15721   4.068   2.151   5.282
 4941SOL    HW115722   4.101   2.238   5.319
 4941SOL    HW215723   4.125   2.077   5.315
 4942SOL     OW15724   6.276   1.917   4.188
 4942SOL    HW115725   6.253   1.841   4.128
 4942SOL    HW215726   6.304   1.996   4.134
 4943SOL     OW15727   5.680   2.969   6.612
 4943SOL    HW115728   5.777   2.950   6.625
 4943SOL    HW215729   5.659   3.060   6.649
 4944SOL     OW15730   1.594   5.504   1.116
 4944SOL    HW115731   1.494   5.510   1.114
 4944SOL    HW215732   1.627   5.540   1.203
 4945SOL     OW15733   2.001   1.229   4.709
 4945SOL    HW115734   2.098   1.249   4.721
 4945SOL    HW215735   1.951   1.261   4.790
 4946SOL     OW15736   2.194   5.284   6.917
 4946SOL    HW115737   2.144   5.198   6.929
 4946SOL    HW215738   2.180   5.342   6.998
 4947SOL     OW15739   1.681   0.812   1.715
 4947SOL    HW115740   1.598   0.837   1.665
 4947SOL    HW215741   1.683   0.713   1.729
 4948SOL     OW15742   1.324   2.392   1.670
 4948SOL    HW115743   1.403   2.369   1.727
 4948SOL    HW215744   1.240   2.380   1.724
 4949SOL     OW15745   6.833   4.172   0.403
 4949SOL    HW115746   6.781   4.137   0.324
 4949SOL    HW215747   6.898   4.241   0.372
 4950SOL     OW15748   2.154   3.943   5.247
 4950SOL    HW115749   2.117   4.023   5.200
 4950SOL    HW215750   2.253   3.939   5.234
 4951SOL     OW15751   4.904   5.333   3.867
 4951SOL    HW115752   4.865   5.308   3.778
 4951SOL    HW215753   4.893   5.431   3.883
 4952SOL     OW15754   0.503   6.692   6.038
 4952SOL    HW115755   0.449   6.769   6.073
 4952SOL    HW215756   0.499   6.692   5.938
 4953SOL     OW15757   0.761   2.275   4.686
 4953SOL    HW115758   0.786   2.354   4.743
 4953SOL    HW215759   0.778   2.298   4.590
 4954SOL     OW15760   3.205   4.100   5.051
 4954SOL    HW115761   3.244   4.118   5.141
 4954SOL    HW215762   3.274   4.119   4.981
 4955SOL     OW15763   3.281   5.239   6.818
 4955SOL    HW115764   3.222   5.288   6.882
 4955SOL    HW215765   3.351   5.188   6.868
 4956SOL     OW15766   2.697   6.904   4.831
 4956SOL    HW115767   2.737   6.940   4.916
 4956SOL    HW215768   2.603   6.876   4.848
 4957SOL     OW15769   5.807   4.357   0.227
 4957SOL    HW115770   5.809   4.436   0.289
 4957SOL    HW215771   5.712   4.333   0.208
 4958SOL     OW15772   2.930   6.362   0.206
 4958SOL    HW115773   2.936   6.443   0.149
 4958SOL    HW215774   3.010   6.357   0.266
 4959SOL     OW15775   0.893   3.296   2.591
 4959SOL    HW115776   0.898   3.395   2.572
 4959SOL    HW215777   0.842   3.281   2.676
 4960SOL     OW15778   4.377   5.864   4.503
 4960SOL    HW115779   4.325   5.944   4.533
 4960SOL    HW215780   4.411   5.815   4.584
 4961SOL     OW15781   4.033   1.274   0.456
 4961SOL    HW115782   4.058   1.178   0.446
 4961SOL    HW215783   4.115   1.331   0.454
 4962SOL     OW15784   1.235   4.530   1.108
 4962SOL    HW115785   1.252   4.626   1.129
 4962SOL    HW215786   1.234   4.516   1.009
 4963SOL     OW15787   0.985   3.865   5.993
 4963SOL    HW115788   1.052   3.936   5.971
 4963SOL    HW215789   0.958   3.872   6.089
 4964SOL     OW15790   2.847   6.939   4.357
 4964SOL    HW115791   2.833   6.841   4.366
 4964SOL    HW215792   2.839   6.983   4.447
 4965SOL     OW15793   1.691   6.238   2.784
 4965SOL    HW115794   1.638   6.182   2.720
 4965SOL    HW215795   1.629   6.290   2.843
 4966SOL     OW15796   3.612   6.229   4.626
 4966SOL    HW115797   3.643   6.135   4.634
 4966SOL    HW215798   3.572   6.243   4.536
 4967SOL     OW15799   4.355   4.772   5.022
 4967SOL    HW115800   4.442   4.821   5.018
 4967SOL    HW215801   4.368   4.678   4.989
 4968SOL     OW15802   6.646   1.864   3.159
 4968SOL    HW115803   6.688   1.852   3.248
 4968SOL    HW215804   6.671   1.954   3.122
 4969SOL     OW15805   0.696   6.282   3.130
 4969SOL    HW115806   0.610   6.263   3.179
 4969SOL    HW215807   0.769   6.296   3.197
 4970SOL     OW15808   1.419   1.455   1.900
 4970SOL    HW115809   1.431   1.452   1.801
 4970SOL    HW215810   1.492   1.402   1.944
 4971SOL     OW15811   6.905   6.204   3.146
 4971SOL    HW115812   6.818   6.201   3.098
 4971SOL    HW215813   6.900   6.269   3.222
 4972SOL     OW15814   1.654   4.547   1.289
 4972SOL    HW115815   1.579   4.482   1.296
 4972SOL    HW215816   1.680   4.558   1.193
 4973SOL     OW15817   6.773   0.794   0.907
 4973SOL    HW115818   6.711   0.724   0.870
 4973SOL    HW215819   6.840   0.750   0.967
 4974SOL     OW15820   3.704   5.282   5.149
 4974SOL    HW115821   3.664   5.202   5.103
 4974SOL    HW215822   3.803   5.269   5.156
 4975SOL     OW15823   5.891   3.619   0.492
 4975SOL    HW115824   5.888   3.673   0.408
 4975SOL    HW215825   5.912   3.678   0.569
 4976SOL     OW15826   1.842   6.853   4.226
 4976SOL    HW115827   1.752   6.897   4.225
 4976SOL    HW215828   1.878   6.852   4.319
 4977SOL     OW15829   2.360   4.778   6.397
 4977SOL    HW115830   2.365   4.837   6.477
 4977SOL    HW215831   2.341   4.832   6.315
 4978SOL     OW15832   5.079   4.499   5.034
 4978SOL    HW115833   5.008   4.530   4.970
 4978SOL    HW215834   5.143   4.439   4.987
 4979SOL     OW15835   1.954   6.687   6.431
 4979SOL    HW115836   2.052   6.668   6.439
 4979SOL    HW215837   1.912   6.624   6.366
 4980SOL     OW15838   5.867   3.580   3.074
 4980SOL    HW115839   5.961   3.581   3.040
 4980SOL    HW215840   5.866   3.601   3.172
 4981SOL     OW15841   3.602   4.959   1.785
 4981SOL    HW115842   3.600   4.904   1.702
 4981SOL    HW215843   3.594   4.900   1.865
 4982SOL     OW15844   4.358   1.546   6.713
 4982SOL    HW115845   4.293   1.491   6.660
 4982SOL    HW215846   4.403   1.489   6.781
 4983SOL     OW15847   7.000   5.341   3.465
 4983SOL    HW115848   0.065   5.388   3.437
 4983SOL    HW215849   0.005   5.252   3.504
 4984SOL     OW15850   5.345   4.308   3.059
 4984SOL    HW115851   5.408   4.232   3.078
 4984SOL    HW215852   5.327   4.358   3.144
 4985SOL     OW15853   5.798   6.180   2.932
 4985SOL    HW115854   5.711   6.191   2.979
 4985SOL    HW215855   5.834   6.088   2.951
 4986SOL     OW15856   0.998   5.039   2.923
 4986SOL    HW115857   1.026   4.951   2.962
 4986SOL    HW215858   1.068   5.071   2.860
 4987SOL     OW15859   0.644   0.892   2.158
 4987SOL    HW115860   0.590   0.974   2.136
 4987SOL    HW215861   0.585   0.812   2.153
 4988SOL     OW15862   5.979   0.207   3.551
 4988SOL    HW115863   5.903   0.169   3.603
 4988SOL    HW215864   5.979   0.168   3.458
 4989SOL     OW15865   4.053   0.630   2.781
 4989SOL    HW115866   4.144   0.659   2.751
 4989SOL    HW215867   4.002   0.596   2.703
 4990SOL     OW15868   4.538   1.749   5.521
 4990SOL    HW115869   4.481   1.809   5.578
 4990SOL    HW215870   4.628   1.792   5.508
 4991SOL     OW15871   1.196   5.421   4.878
 4991SOL    HW115872   1.238   5.447   4.965
 4991SOL    HW215873   1.111   5.371   4.895
 4992SOL     OW15874   0.017   1.455   3.538
 4992SOL    HW115875   6.943   1.466   3.502
 4992SOL    HW215876   0.069   1.393   3.480
 4993SOL     OW15877   3.965   6.687   4.578
 4993SOL    HW115878   3.955   6.762   4.643
 4993SOL    HW215879   3.876   6.642   4.566
 4994SOL     OW15880   3.201   5.021   5.744
 4994SOL    HW115881   3.140   5.035   5.822
 4994SOL    HW215882   3.203   5.103   5.687
 4995SOL     OW15883   0.960   0.217   5.389
 4995SOL    HW115884   1.003   0.132   5.356
 4995SOL    HW215885   0.861   0.203   5.393
 4996SOL     OW15886   6.851   0.837   4.751
 4996SOL    HW115887   6.771   0.849   4.691
 4996SOL    HW215888   6.833   0.763   4.816
 4997SOL     OW15889   3.549   2.095   1.302
 4997SOL    HW115890   3.538   1.997   1.286
 4997SOL    HW215891   3.578   2.111   1.396
 4998SOL     OW15892   1.009   3.125   3.953
 4998SOL    HW115893   1.010   3.028   3.977
 4998SOL    HW215894   1.005   3.179   4.037
 4999SOL     OW15895   0.694   3.756   4.767
 4999SOL    HW115896   0.607   3.793   4.800
 4999SOL    HW215897   0.755   3.740   4.844
 5000SOL     OW15898   2.993   5.326   3.498
 5000SOL    HW115899   2.924   5.394   3.520
 5000SOL    HW215900   3.082   5.370   3.486
 5001SOL     OW15901   0.755   5.216   2.938
 5001SOL    HW115902   0.842   5.169   2.952
 5001SOL    HW215903   0.757   5.306   2.981
 5002SOL     OW15904   0.555   3.734   3.069
 5002SOL    HW115905   0.588   3.646   3.104
 5002SOL    HW215906   0.498   3.719   2.989
 5003SOL     OW15907   4.568   6.376   3.786
 5003SOL    HW115908   4.604   6.467   3.805
 5003SOL    HW215909   4.507   6.380   3.706
 5004SOL     OW15910   2.525   5.889   6.444
 5004SOL    HW115911   2.502   5.946   6.523
 5004SOL    HW215912   2.542   5.796   6.475
 5005SOL     OW15913   2.928   2.753   6.629
 5005SOL    HW115914   2.981   2.799   6.699
 5005SOL    HW215915   2.979   2.752   6.543
 5006SOL     OW15916   5.502   1.890   1.961
 5006SOL    HW115917   5.464   1.873   1.870
 5006SOL    HW215918   5.476   1.982   1.991
 5007SOL     OW15919   5.936   0.083   1.818
 5007SOL    HW115920   5.989   0.033   1.886
 5007SOL    HW215921   5.971   0.176   1.811
 5008SOL     OW15922   6.191   6.526   1.699
 5008SOL    HW115923   6.147   6.440   1.723
 5008SOL    HW215924   6.123   6.592   1.668
 5009SOL     OW15925   0.707   2.678   0.396
 5009SOL    HW115926   0.610   2.670   0.373
 5009SOL    HW215927   0.730   2.612   0.468
 5010SOL     OW15928   3.668   3.347   0.657
 5010SOL    HW115929   3.721   3.304   0.584
 5010SOL    HW215930   3.575   3.310   0.656
 5011SOL     OW15931   1.886   4.095   6.630
 5011SOL    HW115932   1.802   4.113   6.579
 5011SOL    HW215933   1.964   4.130   6.579
 5012SOL     OW15934   6.080   1.522   4.958
 5012SOL    HW115935   6.012   1.549   5.025
 5012SOL    HW215936   6.169   1.562   4.982
 5013SOL     OW15937   5.731   0.276   5.685
 5013SOL    HW115938   5.679   0.358   5.659
 5013SOL    HW215939   5.686   0.231   5.761
 5014SOL     OW15940   6.564   3.503   1.615
 5014SOL    HW115941   6.537   3.412   1.645
 5014SOL    HW215942   6.601   3.498   1.522
 5015SOL     OW15943   5.414   6.562   3.662
 5015SOL    HW115944   5.404   6.549   3.761
 5015SOL    HW215945   5.435   6.473   3.620
 5016SOL     OW15946   1.775   3.315   4.791
 5016SOL    HW115947   1.854   3.375   4.779
 5016SOL    HW215948   1.729   3.303   4.704
 5017SOL     OW15949   0.683   2.467   1.434
 5017SOL    HW115950   0.654   2.396   1.370
 5017SOL    HW215951   0.610   2.485   1.499
 5018SOL     OW15952   0.747   6.117   1.710
 5018SOL    HW115953   0.664   6.149   1.665
 5018SOL    HW215954   0.794   6.052   1.650
 5019SOL     OW15955   1.249   5.131   5.280
 5019SOL    HW115956   1.310   5.123   5.201
 5019SOL    HW215957   1.210   5.223   5.284
 5020SOL     OW15958   0.986   0.014   4.330
 5020SOL    HW115959   1.024   6.943   4.353
 5020SOL    HW215960   0.887   0.005   4.314
 5021SOL     OW15961   1.755   0.758   1.238
 5021SOL    HW115962   1.666   0.801   1.224
 5021SOL    HW215963   1.801   0.798   1.317
 5022SOL     OW15964   0.709   3.264   1.295
 5022SOL    HW115965   0.626   3.250   1.241
 5022SOL    HW215966   0.751   3.351   1.270
 5023SOL     OW15967   0.577   4.253   2.333
 5023SOL    HW115968   0.578   4.251   2.433
 5023SOL    HW215969   0.664   4.220   2.298
 5024SOL     OW15970   5.445   3.894   1.551
 5024SOL    HW115971   5.516   3.828   1.525
 5024SOL    HW215972   5.366   3.882   1.490
 5025SOL     OW15973   4.216   1.238   3.202
 5025SOL    HW115974   4.131   1.206   3.245
 5025SOL    HW215975   4.293   1.182   3.233
 5026SOL     OW15976   6.045   6.173   5.162
 5026SOL    HW115977   6.114   6.240   5.190
 5026SOL    HW215978   5.996   6.140   5.243
 5027SOL     OW15979   5.162   1.102   6.787
 5027SOL    HW115980   5.136   1.026   6.847
 5027SOL    HW215981   5.247   1.080   6.740
 5028SOL     OW15982   0.291   2.640   2.727
 5028SOL    HW115983   0.229   2.718   2.733
 5028SOL    HW215984   0.353   2.641   2.806
 5029SOL     OW15985   6.426   2.119   2.203
 5029SOL    HW115986   6.336   2.161   2.189
 5029SOL    HW215987   6.462   2.148   2.291
 5030SOL     OW15988   6.924   5.260   6.948
 5030SOL    HW115989   6.958   5.181   6.897
 5030SOL    HW215990   6.970   5.264   0.018
 5031SOL     OW15991   6.843   0.585   5.619
 5031SOL    HW115992   6.838   0.529   5.536
 5031SOL    HW215993   6.776   0.551   5.685
 5032SOL     OW15994   3.546   2.761   5.280
 5032SOL    HW115995   3.450   2.764   5.252
 5032SOL    HW215996   3.604   2.787   5.203
 5033SOL     OW15997   2.045   1.346   0.487
 5033SOL    HW115998   1.992   1.284   0.429
 5033SOL    HW215999   2.073   1.298   0.570
 5034SOL     OW16000   4.796   5.981   3.814
 5034SOL    HW116001   4.784   5.882   3.819
 5034SOL    HW216002   4.753   6.023   3.894
 5035SOL     OW16003   0.569   4.380   4.461
 5035SOL    HW116004   0.667   4.380   4.439
 5035SOL    HW216005   0.537   4.285   4.467
 5036SOL     OW16006   6.522   3.451   5.135
 5036SOL    HW116007   6.605   3.502   5.110
 5036SOL    HW216008   6.457   3.513   5.178
 5037SOL     OW16009   4.449   4.389   1.070
 5037SOL    HW116010   4.421   4.295   1.050
 5037SOL    HW216011   4.392   4.452   1.017
 5038SOL     OW16012   3.111   3.397   4.019
 5038SOL    HW116013   3.177   3.440   4.082
 5038SOL    HW216014   3.150   3.397   3.926
 5039SOL     OW16015   1.804   2.987   6.560
 5039SOL    HW116016   1.809   2.887   6.570
 5039SOL    HW216017   1.792   3.029   6.649
 5040SOL     OW16018   1.134   5.489   5.952
 5040SOL    HW116019   1.231   5.501   5.971
 5040SOL    HW216020   1.080   5.543   6.017
 5041SOL     OW16021   0.245   3.254   2.153
 5041SOL    HW116022   0.325   3.244   2.212
 5041SOL    HW216023   0.257   3.334   2.094
 5042SOL     OW16024   6.829   3.194   5.934
 5042SOL    HW116025   6.763   3.161   5.866
 5042SOL    HW216026   6.920   3.199   5.892
 5043SOL     OW16027   4.401   0.530   0.901
 5043SOL    HW116028   4.464   0.458   0.927
 5043SOL    HW216029   4.333   0.543   0.973
 5044SOL     OW16030   7.014   5.569   0.525
 5044SOL    HW116031   6.971   5.659   0.524
 5044SOL    HW216032   6.993   5.524   0.611
 5045SOL     OW16033   5.875   3.955   6.484
 5045SOL    HW116034   5.857   3.973   6.580
 5045SOL    HW216035   5.822   4.018   6.427
 5046SOL     OW16036   3.437   3.247   3.898
 5046SOL    HW116037   3.464   3.215   3.989
 5046SOL    HW216038   3.519   3.268   3.844
 5047SOL     OW16039   1.814   3.630   3.194
 5047SOL    HW116040   1.813   3.718   3.147
 5047SOL    HW216041   1.798   3.557   3.129
 5048SOL     OW16042   1.410   1.292   5.748
 5048SOL    HW116043   1.358   1.337   5.676
 5048SOL    HW216044   1.351   1.224   5.794
 5049SOL     OW16045   6.181   0.630   6.247
 5049SOL    HW116046   6.264   0.664   6.204
 5049SOL    HW216047   6.115   0.603   6.177
 5050SOL     OW16048   1.967   0.933   0.592
 5050SOL    HW116049   2.044   0.960   0.534
 5050SOL    HW216050   1.912   1.014   0.614
 5051SOL     OW16051   3.893   4.858   1.542
 5051SOL    HW116052   3.802   4.818   1.531
 5051SOL    HW216053   3.948   4.836   1.461
 5052SOL     OW16054   3.315   1.789   5.479
 5052SOL    HW116055   3.285   1.839   5.561
 5052SOL    HW216056   3.350   1.700   5.506
 5053SOL     OW16057   0.379   5.300   2.653
 5053SOL    HW116058   0.336   5.271   2.567
 5053SOL    HW216059   0.421   5.222   2.698
 5054SOL     OW16060   4.022   4.829   5.192
 5054SOL    HW116061   4.067   4.905   5.237
 5054SOL    HW216062   3.997   4.759   5.259
 5055SOL     OW16063   6.487   3.100   6.410
 5055SOL    HW116064   6.546   3.180   6.426
 5055SOL    HW216065   6.451   3.067   6.497
 5056SOL     OW16066   4.970   3.579   5.280
 5056SOL    HW116067   4.901   3.558   5.210
 5056SOL    HW216068   4.966   3.509   5.352
 5057SOL     OW16069   1.089   6.574   2.451
 5057SOL    HW116070   1.008   6.534   2.494
 5057SOL    HW216071   1.103   6.667   2.487
 5058SOL     OW16072   2.974   4.623   6.628
 5058SOL    HW116073   2.895   4.563   6.643
 5058SOL    HW216074   3.012   4.650   6.716
 5059SOL     OW16075   0.471   0.777   2.966
 5059SOL    HW116076   0.437   0.690   2.930
 5059SOL    HW216077   0.404   0.849   2.949
 5060SOL     OW16078   5.926   1.837   6.263
 5060SOL    HW116079   5.980   1.820   6.181
 5060SOL    HW216080   5.843   1.886   6.239
 5061SOL     OW16081   4.668   3.423   0.537
 5061SOL    HW116082   4.600   3.422   0.463
 5061SOL    HW216083   4.645   3.352   0.603
 5062SOL     OW16084   0.173   0.030   1.280
 5062SOL    HW116085   0.099   0.090   1.248
 5062SOL    HW216086   0.160   0.009   1.376
 5063SOL     OW16087   1.042   6.858   2.240
 5063SOL    HW116088   0.944   6.841   2.246
 5063SOL    HW216089   1.059   6.944   2.193
 5064SOL     OW16090   4.473   2.950   0.534
 5064SOL    HW116091   4.551   2.991   0.581
 5064SOL    HW216092   4.479   2.850   0.540
 5065SOL     OW16093   2.648   6.562   5.480
 5065SOL    HW116094   2.599   6.485   5.521
 5065SOL    HW216095   2.742   6.563   5.514
 5066SOL     OW16096   5.804   4.920   1.504
 5066SOL    HW116097   5.716   4.920   1.456
 5066SOL    HW216098   5.863   4.850   1.465
 5067SOL     OW16099   4.975   0.714   0.670
 5067SOL    HW116100   4.884   0.672   0.664
 5067SOL    HW216101   4.978   0.778   0.746
 5068SOL     OW16102   2.970   4.684   0.040
 5068SOL    HW116103   3.015   4.634   6.985
 5068SOL    HW216104   2.879   4.714   0.011
 5069SOL     OW16105   0.934   4.543   2.926
 5069SOL    HW116106   0.880   4.511   3.004
 5069SOL    HW216107   0.884   4.525   2.841
 5070SOL     OW16108   4.871   3.208   3.917
 5070SOL    HW116109   4.859   3.192   3.819
 5070SOL    HW216110   4.957   3.257   3.932
 5071SOL     OW16111   4.475   2.011   5.700
 5071SOL    HW116112   4.517   2.051   5.782
 5071SOL    HW216113   4.387   2.055   5.682
 5072SOL     OW16114   0.122   4.327   1.097
 5072SOL    HW116115   0.162   4.239   1.123
 5072SOL    HW216116   0.175   4.367   1.022
 5073SOL     OW16117   6.068   0.064   2.074
 5073SOL    HW116118   6.160   0.097   2.094
 5073SOL    HW216119   6.035   0.009   2.149
 5074SOL     OW16120   2.892   4.054   6.671
 5074SOL    HW116121   2.843   4.118   6.612
 5074SOL    HW216122   2.857   3.962   6.658
 5075SOL     OW16123   0.267   5.253   4.783
 5075SOL    HW116124   0.319   5.175   4.819
 5075SOL    HW216125   0.326   5.334   4.780
 5076SOL     OW16126   3.216   0.974   0.837
 5076SOL    HW116127   3.211   0.892   0.894
 5076SOL    HW216128   3.131   1.024   0.843
 5077SOL     OW16129   1.277   2.728   3.625
 5077SOL    HW116130   1.357   2.788   3.622
 5077SOL    HW216131   1.224   2.739   3.540
 5078SOL     OW16132   1.442   2.139   4.403
 5078SOL    HW116133   1.496   2.058   4.427
 5078SOL    HW216134   1.498   2.204   4.352
 5079SOL     OW16135   3.608   4.760   5.656
 5079SOL    HW116136   3.615   4.845   5.709
 5079SOL    HW216137   3.559   4.779   5.571
 5080SOL     OW16138   5.471   6.388   5.478
 5080SOL    HW116139   5.425   6.300   5.485
 5080SOL    HW216140   5.566   6.374   5.451
 5081SOL     OW16141   3.551   3.505   3.354
 5081SOL    HW116142   3.552   3.531   3.257
 5081SOL    HW216143   3.513   3.580   3.408
 5082SOL     OW16144   5.410   5.898   6.031
 5082SOL    HW116145   5.378   5.872   6.123
 5082SOL    HW216146   5.500   5.940   6.038
 5083SOL     OW16147   1.773   6.818   1.970
 5083SOL    HW116148   1.722   6.899   1.996
 5083SOL    HW216149   1.818   6.834   1.882
 5084SOL     OW16150   1.205   5.843   4.241
 5084SOL    HW116151   1.149   5.836   4.324
 5084SOL    HW216152   1.225   5.940   4.223
 5085SOL     OW16153   5.714   1.605   6.246
 5085SOL    HW116154   5.788   1.555   6.291
 5085SOL    HW216155   5.657   1.649   6.316
 5086SOL     OW16156   6.466   4.392   4.057
 5086SOL    HW116157   6.395   4.362   3.993
 5086SOL    HW216158   6.424   4.445   4.131
 5087SOL     OW16159   6.702   5.560   5.042
 5087SOL    HW116160   6.789   5.603   5.017
 5087SOL    HW216161   6.627   5.606   4.995
 5088SOL     OW16162   6.073   0.545   5.912
 5088SOL    HW116163   5.975   0.534   5.929
 5088SOL    HW216164   6.125   0.477   5.964
 5089SOL     OW16165   5.780   3.568   2.806
 5089SOL    HW116166   5.765   3.494   2.741
 5089SOL    HW216167   5.808   3.530   2.894
 5090SOL     OW16168   1.668   5.003   1.559
 5090SOL    HW116169   1.596   5.072   1.566
 5090SOL    HW216170   1.640   4.931   1.496
 5091SOL     OW16171   0.928   6.136   2.616
 5091SOL    HW116172   0.941   6.120   2.518
 5091SOL    HW216173   1.017   6.140   2.661
 5092SOL     OW16174   3.438   2.196   1.076
 5092SOL    HW116175   3.387   2.129   1.022
 5092SOL    HW216176   3.479   2.151   1.155
 5093SOL     OW16177   1.573   1.920   2.018
 5093SOL    HW116178   1.499   1.964   1.966
 5093SOL    HW216179   1.568   1.950   2.114
 5094SOL     OW16180   0.638   6.184   5.161
 5094SOL    HW116181   0.652   6.278   5.194
 5094SOL    HW216182   0.716   6.156   5.106
 5095SOL     OW16183   2.714   0.518   5.115
 5095SOL    HW116184   2.780   0.591   5.099
 5095SOL    HW216185   2.762   0.430   5.116
 5096SOL     OW16186   5.197   3.593   0.918
 5096SOL    HW116187   5.129   3.646   0.969
 5096SOL    HW216188   5.176   3.496   0.926
 5097SOL     OW16189   1.650   6.664   6.110
 5097SOL    HW116190   1.673   6.740   6.049
 5097SOL    HW216191   1.638   6.581   6.056
 5098SOL     OW16192   0.079   1.540   2.676
 5098SOL    HW116193   0.123   1.613   2.623
 5098SOL    HW216194   0.029   1.581   2.753
 5099SOL     OW16195   1.502   0.225   5.231
 5099SOL    HW116196   1.464   0.308   5.271
 5099SOL    HW216197   1.577   0.248   5.169
 5100SOL     OW16198   5.843   5.890   0.416
 5100SOL    HW116199   5.820   5.975   0.464
 5100SOL    HW216200   5.761   5.834   0.406
 5101SOL     OW16201   4.217   6.069   6.822
 5101SOL    HW116202   4.261   6.076   6.911
 5101SOL    HW216203   4.251   6.140   6.761
 5102SOL     OW16204   4.060   6.835   4.962
 5102SOL    HW116205   3.989   6.865   4.898
 5102SOL    HW216206   4.148   6.830   4.914
 5103SOL     OW16207   0.056   0.248   3.987
 5103SOL    HW116208   0.086   0.324   3.930
 5103SOL    HW216209   6.977   0.253   4.002
 5104SOL     OW16210   1.442   0.698   1.974
 5104SOL    HW116211   1.379   0.760   1.927
 5104SOL    HW216212   1.511   0.752   2.023
 5105SOL     OW16213   3.538   3.708   6.318
 5105SOL    HW116214   3.570   3.795   6.356
 5105SOL    HW216215   3.438   3.709   6.312
 5106SOL     OW16216   3.547   0.497   2.356
 5106SOL    HW116217   3.556   0.534   2.448
 5106SOL    HW216218   3.608   0.546   2.293
 5107SOL     OW16219   2.453   0.127   6.131
 5107SOL    HW116220   2.540   0.159   6.092
 5107SOL    HW216221   2.385   0.200   6.123
 5108SOL     OW16222   2.959   3.759   4.196
 5108SOL    HW116223   3.012   3.687   4.241
 5108SOL    HW216224   2.977   3.846   4.242
 5109SOL     OW16225   0.100   0.820   1.358
 5109SOL    HW116226   0.149   0.907   1.358
 5109SOL    HW216227   0.059   0.805   1.448
 5110SOL     OW16228   1.895   5.663   5.864
 5110SOL    HW116229   1.885   5.645   5.962
 5110SOL    HW216230   1.902   5.576   5.815
 5111SOL     OW16231   1.621   1.398   0.309
 5111SOL    HW116232   1.684   1.320   0.315
 5111SOL    HW216233   1.639   1.449   0.225
 5112SOL     OW16234   0.328   6.118   3.678
 5112SOL    HW116235   0.393   6.050   3.713
 5112SOL    HW216236   0.240   6.107   3.725
 5113SOL     OW16237   1.472   0.747   0.037
 5113SOL    HW116238   1.521   0.775   0.119
 5113SOL    HW216239   1.442   0.828   7.006
 5114SOL     OW16240   3.501   4.694   6.856
 5114SOL    HW116241   3.442   4.657   6.785
 5114SOL    HW216242   3.445   4.721   6.935
 5115SOL     OW16243   1.704   3.436   5.356
 5115SOL    HW116244   1.618   3.449   5.406
 5115SOL    HW216245   1.688   3.376   5.277
 5116SOL     OW16246   6.235   4.832   0.168
 5116SOL    HW116247   6.288   4.813   0.086
 5116SOL    HW216248   6.296   4.849   0.245
 5117SOL     OW16249   2.437   4.461   4.672
 5117SOL    HW116250   2.517   4.505   4.714
 5117SOL    HW216251   2.402   4.390   4.733
 5118SOL     OW16252   4.351   6.016   0.340
 5118SOL    HW116253   4.291   6.087   0.304
 5118SOL    HW216254   4.296   5.946   0.386
 5119SOL     OW16255   5.627   0.778   2.166
 5119SOL    HW116256   5.655   0.774   2.262
 5119SOL    HW216257   5.643   0.689   2.123
 5120SOL     OW16258   4.980   1.811   2.730
 5120SOL    HW116259   4.981   1.909   2.709
 5120SOL    HW216260   5.041   1.793   2.807
 5121SOL     OW16261   0.007   3.414   5.269
 5121SOL    HW116262   0.037   3.368   5.353
 5121SOL    HW216263   6.926   3.421   5.269
 5122SOL     OW16264   2.117   6.792   3.457
 5122SOL    HW116265   2.110   6.706   3.408
 5122SOL    HW216266   2.077   6.866   3.402
 5123SOL     OW16267   5.021   4.619   2.357
 5123SOL    HW116268   5.042   4.710   2.320
 5123SOL    HW216269   4.991   4.629   2.452
 5124SOL     OW16270   3.228   6.606   6.347
 5124SOL    HW116271   3.197   6.648   6.432
 5124SOL    HW216272   3.267   6.516   6.366
 5125SOL     OW16273   0.431   2.685   4.639
 5125SOL    HW116274   0.404   2.589   4.641
 5125SOL    HW216275   0.481   2.704   4.555
 5126SOL     OW16276   5.846   4.208   6.325
 5126SOL    HW116277   5.747   4.225   6.330
 5126SOL    HW216278   5.895   4.287   6.363
 5127SOL     OW16279   5.761   3.206   6.796
 5127SOL    HW116280   5.840   3.243   6.845
 5127SOL    HW216281   5.688   3.274   6.794
 5128SOL     OW16282   0.188   0.598   6.857
 5128SOL    HW116283   0.136   0.564   6.779
 5128SOL    HW216284   0.217   0.521   6.914
 5129SOL     OW16285   4.737   1.812   2.251
 5129SOL    HW116286   4.707   1.897   2.293
 5129SOL    HW216287   4.776   1.752   2.321
 5130SOL     OW16288   0.750   5.657   4.011
 5130SOL    HW116289   0.811   5.649   3.932
 5130SOL    HW216290   0.658   5.682   3.979
 5131SOL     OW16291   3.092   4.890   3.238
 5131SOL    HW116292   3.129   4.857   3.151
 5131SOL    HW216293   2.996   4.916   3.225
 5132SOL     OW16294   3.881   1.383   6.792
 5132SOL    HW116295   3.935   1.394   6.875
 5132SOL    HW216296   3.805   1.320   6.809
 5133SOL     OW16297   4.266   4.269   6.888
 5133SOL    HW116298   4.355   4.311   6.868
 5133SOL    HW216299   4.245   4.280   6.985
 5134SOL     OW16300   6.533   5.965   1.489
 5134SOL    HW116301   6.614   5.917   1.457
 5134SOL    HW216302   6.506   6.035   1.423
 5135SOL     OW16303   6.393   3.177   2.107
 5135SOL    HW116304   6.435   3.266   2.127
 5135SOL    HW216305   6.457   3.121   2.056
 5136SOL     OW16306   0.933   0.546   5.823
 5136SOL    HW116307   0.997   0.471   5.840
 5136SOL    HW216308   0.848   0.509   5.783
 5137SOL     OW16309   5.310   0.885   4.892
 5137SOL    HW116310   5.347   0.955   4.953
 5137SOL    HW216311   5.298   0.923   4.801
 5138SOL     OW16312   3.653   2.895   4.015
 5138SOL    HW116313   3.565   2.853   4.038
 5138SOL    HW216314   3.722   2.869   4.083
 5139SOL     OW16315   2.337   0.084   4.818
 5139SOL    HW116316   2.377   0.175   4.829
 5139SOL    HW216317   2.243   0.093   4.786
 5140SOL     OW16318   4.751   2.289   6.594
 5140SOL    HW116319   4.766   2.224   6.668
 5140SOL    HW216320   4.655   2.286   6.566
 5141SOL     OW16321   6.174   2.968   2.097
 5141SOL    HW116322   6.162   2.971   2.196
 5141SOL    HW216323   6.244   3.034   2.070
 5142SOL     OW16324   0.160   0.238   2.634
 5142SOL    HW116325   0.097   0.316   2.644
 5142SOL    HW216326   0.248   0.261   2.676
 5143SOL     OW16327   0.385   5.546   3.789
 5143SOL    HW116328   0.412   5.562   3.694
 5143SOL    HW216329   0.302   5.491   3.791
 5144SOL     OW16330   2.703   2.954   5.631
 5144SOL    HW116331   2.672   3.049   5.629
 5144SOL    HW216332   2.633   2.897   5.673
 5145SOL     OW16333   2.750   6.230   6.688
 5145SOL    HW116334   2.761   6.291   6.609
 5145SOL    HW216335   2.785   6.275   6.770
 5146SOL     OW16336   5.310   4.662   6.124
 5146SOL    HW116337   5.296   4.563   6.128
 5146SOL    HW216338   5.323   4.691   6.029
 5147SOL     OW16339   4.657   2.691   3.463
 5147SOL    HW116340   4.608   2.777   3.452
 5147SOL    HW216341   4.755   2.710   3.473
 5148SOL     OW16342   0.478   0.076   0.323
 5148SOL    HW116343   0.485   0.159   0.379
 5148SOL    HW216344   0.558   0.018   0.339
 5149SOL     OW16345   5.083   4.566   3.344
 5149SOL    HW116346   5.079   4.520   3.255
 5149SOL    HW216347   5.026   4.517   3.409
 5150SOL     OW16348   0.117   6.113   3.844
 5150SOL    HW116349   0.045   6.164   3.797
 5150SOL    HW216350   0.083   6.022   3.869
 5151SOL     OW16351   5.851   5.304   1.862
 5151SOL    HW116352   5.846   5.393   1.816
 5151SOL    HW216353   5.795   5.237   1.813
 5152SOL     OW16354   0.918   1.353   6.581
 5152SOL    HW116355   0.896   1.260   6.551
 5152SOL    HW216356   0.879   1.370   6.671
 5153SOL     OW16357   1.178   1.969   0.814
 5153SOL    HW116358   1.087   1.945   0.847
 5153SOL    HW216359   1.217   1.891   0.764
 5154SOL     OW16360   6.821   3.010   6.855
 5154SOL    HW116361   6.872   3.041   6.774
 5154SOL    HW216362   6.863   3.048   6.937
 5155SOL     OW16363   1.826   1.659   0.798
 5155SOL    HW116364   1.869   1.746   0.776
 5155SOL    HW216365   1.751   1.674   0.863
 5156SOL     OW16366   5.544   5.707   5.809
 5156SOL    HW116367   5.598   5.644   5.866
 5156SOL    HW216368   5.475   5.752   5.866
 5157SOL     OW16369   4.132   0.243   1.409
 5157SOL    HW116370   4.164   0.330   1.446
 5157SOL    HW216371   4.081   0.259   1.325
 5158SOL     OW16372   2.433   1.754   2.186
 5158SOL    HW116373   2.448   1.778   2.282
 5158SOL    HW216374   2.374   1.674   2.181
 5159SOL     OW16375   6.317   3.125   5.300
 5159SOL    HW116376   6.352   3.091   5.213
 5159SOL    HW216377   6.288   3.048   5.357
 5160SOL     OW16378   6.501   6.221   3.602
 5160SOL    HW116379   6.540   6.177   3.521
 5160SOL    HW216380   6.508   6.159   3.680
 5161SOL     OW16381   0.941   3.754   0.389
 5161SOL    HW116382   0.933   3.854   0.393
 5161SOL    HW216383   1.037   3.728   0.393
 5162SOL     OW16384   0.226   6.977   3.403
 5162SOL    HW116385   0.299   6.987   3.470
 5162SOL    HW216386   0.139   7.001   3.444
 5163SOL     OW16387   3.056   6.843   2.020
 5163SOL    HW116388   3.012   6.902   1.952
 5163SOL    HW216389   3.155   6.850   2.012
 5164SOL     OW16390   3.160   3.633   0.718
 5164SOL    HW116391   3.232   3.589   0.771
 5164SOL    HW216392   3.136   3.574   0.640
 5165SOL     OW16393   1.294   4.480   0.027
 5165SOL    HW116394   1.229   4.419   7.001
 5165SOL    HW216395   1.258   4.506   0.117
 5166SOL     OW16396   1.757   5.875   1.669
 5166SOL    HW116397   1.740   5.943   1.741
 5166SOL    HW216398   1.692   5.799   1.680
 5167SOL     OW16399   5.224   2.216   5.097
 5167SOL    HW116400   5.254   2.134   5.048
 5167SOL    HW216401   5.285   2.292   5.074
 5168SOL     OW16402   4.451   2.354   2.208
 5168SOL    HW116403   4.457   2.258   2.181
 5168SOL    HW216404   4.402   2.362   2.295
 5169SOL     OW16405   4.195   6.269   3.954
 5169SOL    HW116406   4.214   6.365   3.974
 5169SOL    HW216407   4.244   6.242   3.871
 5170SOL     OW16408   1.625   3.351   6.084
 5170SOL    HW116409   1.704   3.395   6.127
 5170SOL    HW216410   1.554   3.337   6.152
 5171SOL     OW16411   1.850   6.017   5.544
 5171SOL    HW116412   1.762   6.045   5.582
 5171SOL    HW216413   1.843   6.012   5.444
 5172SOL     OW16414   6.950   5.076   4.217
 5172SOL    HW116415   6.883   5.002   4.213
 5172SOL    HW216416   6.909   5.156   4.260
 5173SOL     OW16417   4.276   4.431   5.594
 5173SOL    HW116418   4.254   4.477   5.508
 5173SOL    HW216419   4.375   4.432   5.608
 5174SOL     OW16420   2.239   6.238   3.408
 5174SOL    HW116421   2.300   6.283   3.343
 5174SOL    HW216422   2.162   6.298   3.429
 5175SOL     OW16423   3.063   3.927   6.890
 5175SOL    HW116424   3.002   3.985   6.836
 5175SOL    HW216425   3.015   3.843   6.916
 5176SOL     OW16426   5.854   5.582   0.714
 5176SOL    HW116427   5.900   5.614   0.797
 5176SOL    HW216428   5.766   5.630   0.705
 5177SOL     OW16429   5.698   0.172   0.137
 5177SOL    HW116430   5.659   0.186   0.046
 5177SOL    HW216431   5.667   0.245   0.198
 5178SOL     OW16432   0.959   4.178   1.732
 5178SOL    HW116433   0.910   4.264   1.745
 5178SOL    HW216434   0.923   4.109   1.794
 5179SOL     OW16435   5.597   5.189   2.674
 5179SOL    HW116436   5.583   5.195   2.575
 5179SOL    HW216437   5.679   5.239   2.699
 5180SOL     OW16438   2.470   0.011   2.273
 5180SOL    HW116439   2.437   6.944   2.312
 5180SOL    HW216440   2.561   0.031   2.309
 5181SOL     OW16441   0.625   0.120   6.022
 5181SOL    HW116442   0.556   0.077   5.964
 5181SOL    HW216443   0.715   0.083   5.999
 5182SOL     OW16444   3.523   5.531   3.263
 5182SOL    HW116445   3.617   5.533   3.231
 5182SOL    HW216446   3.493   5.437   3.276
 5183SOL     OW16447   3.899   1.739   3.571
 5183SOL    HW116448   3.910   1.837   3.586
 5183SOL    HW216449   3.940   1.689   3.648
 5184SOL     OW16450   2.739   1.207   4.086
 5184SOL    HW116451   2.762   1.173   4.177
 5184SOL    HW216452   2.815   1.259   4.048
 5185SOL     OW16453   6.032   0.696   1.502
 5185SOL    HW116454   6.126   0.663   1.489
 5185SOL    HW216455   5.971   0.617   1.515
 5186SOL     OW16456   6.700   3.287   6.395
 5186SOL    HW116457   6.703   3.302   6.296
 5186SOL    HW216458   6.654   3.365   6.438
 5187SOL     OW16459   1.923   4.743   5.273
 5187SOL    HW116460   1.962   4.725   5.363
 5187SOL    HW216461   1.963   4.681   5.206
 5188SOL     OW16462   6.333   6.495   2.098
 5188SOL    HW116463   6.245   6.525   2.061
 5188SOL    HW216464   6.365   6.561   2.165
 5189SOL     OW16465   5.259   6.834   6.441
 5189SOL    HW116466   5.279   6.782   6.358
 5189SOL    HW216467   5.171   6.881   6.431
 5190SOL     OW16468   1.154   4.029   0.831
 5190SOL    HW116469   1.101   4.113   0.836
 5190SOL    HW216470   1.236   4.037   0.887
 5191SOL     OW16471   3.141   4.850   2.640
 5191SOL    HW116472   3.152   4.751   2.637
 5191SOL    HW216473   3.065   4.876   2.580
 5192SOL     OW16474   1.986   4.737   1.955
 5192SOL    HW116475   1.988   4.637   1.953
 5192SOL    HW216476   2.049   4.773   1.886
 5193SOL     OW16477   5.284   0.155   6.383
 5193SOL    HW116478   5.233   0.232   6.345
 5193SOL    HW216479   5.382   0.167   6.363
 5194SOL     OW16480   5.204   1.960   6.387
 5194SOL    HW116481   5.287   2.014   6.402
 5194SOL    HW216482   5.164   1.935   6.475
 5195SOL     OW16483   6.748   0.348   4.564
 5195SOL    HW116484   6.703   0.259   4.558
 5195SOL    HW216485   6.847   0.336   4.553
 5196SOL     OW16486   5.428   6.478   2.575
 5196SOL    HW116487   5.359   6.439   2.514
 5196SOL    HW216488   5.519   6.446   2.548
 5197SOL     OW16489   1.042   3.880   5.658
 5197SOL    HW116490   1.058   3.814   5.585
 5197SOL    HW216491   0.947   3.871   5.690
 5198SOL     OW16492   5.963   5.653   2.493
 5198SOL    HW116493   6.032   5.706   2.542
 5198SOL    HW216494   6.007   5.601   2.419
 5199SOL     OW16495   6.759   4.853   0.801
 5199SOL    HW116496   6.844   4.800   0.810
 5199SOL    HW216497   6.781   4.950   0.792
 5200SOL     OW16498   0.273   3.663   5.000
 5200SOL    HW116499   0.233   3.616   4.921
 5200SOL    HW216500   0.316   3.748   4.970
 5201SOL     OW16501   1.536   5.298   4.211
 5201SOL    HW116502   1.474   5.347   4.149
 5201SOL    HW216503   1.576   5.220   4.162
 5202SOL     OW16504   0.227   4.665   0.858
 5202SOL    HW116505   0.131   4.692   0.867
 5202SOL    HW216506   0.286   4.744   0.875
 5203SOL     OW16507   1.313   2.185   0.079
 5203SOL    HW116508   1.272   2.270   0.111
 5203SOL    HW216509   1.329   2.190   7.000
 5204SOL     OW16510   4.858   5.048   6.960
 5204SOL    HW116511   4.916   5.126   6.985
 5204SOL    HW216512   4.876   5.021   6.866
 5205SOL     OW16513   1.170   0.273   1.943
 5205SOL    HW116514   1.261   0.315   1.945
 5205SOL    HW216515   1.168   0.203   1.872
 5206SOL     OW16516   0.521   4.270   6.438
 5206SOL    HW116517   0.427   4.301   6.430
 5206SOL    HW216518   0.529   4.207   6.515
 5207SOL     OW16519   1.921   4.832   4.094
 5207SOL    HW116520   1.873   4.893   4.031
 5207SOL    HW216521   1.871   4.745   4.101
 5208SOL     OW16522   3.629   1.210   6.750
 5208SOL    HW116523   3.656   1.115   6.734
 5208SOL    HW216524   3.552   1.233   6.691
 5209SOL     OW16525   5.780   5.911   3.006
 5209SOL    HW116526   5.705   5.886   2.945
 5209SOL    HW216527   5.748   5.913   3.100
 5210SOL     OW16528   5.270   4.864   4.040
 5210SOL    HW116529   5.282   4.824   3.949
 5210SOL    HW216530   5.176   4.849   4.071
 5211SOL     OW16531   4.164   3.435   3.318
 5211SOL    HW116532   4.086   3.374   3.311
 5211SOL    HW216533   4.220   3.409   3.397
 5212SOL     OW16534   0.923   1.880   0.910
 5212SOL    HW116535   0.892   1.794   0.950
 5212SOL    HW216536   0.847   1.945   0.909
 5213SOL     OW16537   4.818   2.560   5.544
 5213SOL    HW116538   4.734   2.611   5.559
 5213SOL    HW216539   4.796   2.464   5.525
 5214SOL     OW16540   5.326   1.150   5.640
 5214SOL    HW116541   5.359   1.084   5.572
 5214SOL    HW216542   5.396   1.220   5.655
 5215SOL     OW16543   5.236   4.594   3.043
 5215SOL    HW116544   5.173   4.518   3.060
 5215SOL    HW216545   5.317   4.583   3.101
 5216SOL     OW16546   5.043   4.848   0.657
 5216SOL    HW116547   4.980   4.818   0.586
 5216SOL    HW216548   5.010   4.933   0.698
 5217SOL     OW16549   2.504   5.238   4.352
 5217SOL    HW116550   2.448   5.224   4.433
 5217SOL    HW216551   2.519   5.151   4.306
 5218SOL     OW16552   1.494   6.735   3.360
 5218SOL    HW116553   1.496   6.651   3.305
 5218SOL    HW216554   1.481   6.712   3.456
 5219SOL     OW16555   3.454   6.986   6.237
 5219SOL    HW116556   3.488   6.893   6.250
 5219SOL    HW216557   3.388   7.008   6.309
 5220SOL     OW16558   0.964   6.518   2.838
 5220SOL    HW116559   0.877   6.475   2.861
 5220SOL    HW216560   1.016   6.458   2.778
 5221SOL     OW16561   5.057   1.201   4.757
 5221SOL    HW116562   5.063   1.114   4.708
 5221SOL    HW216563   5.148   1.244   4.759
 5222SOL     OW16564   1.772   0.452   3.652
 5222SOL    HW116565   1.765   0.381   3.582
 5222SOL    HW216566   1.722   0.423   3.733
 5223SOL     OW16567   4.578   0.666   1.547
 5223SOL    HW116568   4.518   0.665   1.467
 5223SOL    HW216569   4.526   0.635   1.627
 5224SOL     OW16570   6.273   1.892   2.117
 5224SOL    HW116571   6.261   1.843   2.203
 5224SOL    HW216572   6.247   1.988   2.129
 5225SOL     OW16573   5.829   6.046   4.279
 5225SOL    HW116574   5.888   6.111   4.328
 5225SOL    HW216575   5.811   5.967   4.338
 5226SOL     OW16576   1.267   6.550   4.325
 5226SOL    HW116577   1.262   6.492   4.407
 5226SOL    HW216578   1.319   6.502   4.254
 5227SOL     OW16579   5.956   4.553   2.854
 5227SOL    HW116580   5.959   4.569   2.756
 5227SOL    HW216581   5.863   4.567   2.888
 5228SOL     OW16582   5.462   1.500   0.711
 5228SOL    HW116583   5.497   1.491   0.618
 5228SOL    HW216584   5.448   1.597   0.731
 5229SOL     OW16585   1.344   3.713   5.318
 5229SOL    HW116586   1.260   3.685   5.271
 5229SOL    HW216587   1.319   3.763   5.401
 5230SOL     OW16588   0.208   0.439   0.315
 5230SOL    HW116589   0.182   0.482   0.402
 5230SOL    HW216590   0.145   0.469   0.243
 5231SOL     OW16591   3.967   3.348   3.898
 5231SOL    HW116592   3.959   3.372   3.801
 5231SOL    HW216593   3.875   3.343   3.938
 5232SOL     OW16594   4.233   2.356   6.943
 5232SOL    HW116595   4.329   2.345   6.919
 5232SOL    HW216596   4.226   2.404   0.012
 5233SOL     OW16597   0.633   6.454   2.531
 5233SOL    HW116598   0.599   6.369   2.573
 5233SOL    HW216599   0.624   6.448   2.432
 5234SOL     OW16600   3.464   6.638   0.535
 5234SOL    HW116601   3.549   6.650   0.483
 5234SOL    HW216602   3.389   6.618   0.472
 5235SOL     OW16603   1.128   3.299   0.484
 5235SOL    HW116604   1.227   3.299   0.496
 5235SOL    HW216605   1.092   3.208   0.505
 5236SOL     OW16606   4.985   3.499   1.217
 5236SOL    HW116607   5.057   3.526   1.282
 5236SOL    HW216608   4.900   3.484   1.267
 5237SOL     OW16609   2.536   2.251   5.376
 5237SOL    HW116610   2.528   2.239   5.277
 5237SOL    HW216611   2.559   2.346   5.396
 5238SOL     OW16612   2.103   4.669   0.825
 5238SOL    HW116613   2.075   4.695   0.917
 5238SOL    HW216614   2.044   4.596   0.791
 5239SOL     OW16615   3.448   2.840   3.381
 5239SOL    HW116616   3.508   2.778   3.431
 5239SOL    HW216617   3.392   2.892   3.446
 5240SOL     OW16618   3.425   2.037   5.162
 5240SOL    HW116619   3.361   2.080   5.225
 5240SOL    HW216620   3.407   2.069   5.069
 5241SOL     OW16621   1.835   6.407   6.547
 5241SOL    HW116622   1.795   6.494   6.573
 5241SOL    HW216623   1.927   6.400   6.584
 5242SOL     OW16624   6.165   1.199   5.515
 5242SOL    HW116625   6.108   1.133   5.565
 5242SOL    HW216626   6.251   1.156   5.489
 5243SOL     OW16627   1.260   5.326   1.157
 5243SOL    HW116628   1.199   5.301   1.233
 5243SOL    HW216629   1.274   5.425   1.157
 5244SOL     OW16630   4.991   4.594   5.478
 5244SOL    HW116631   4.917   4.621   5.540
 5244SOL    HW216632   5.056   4.670   5.468
 5245SOL     OW16633   4.837   3.957   6.747
 5245SOL    HW116634   4.776   4.036   6.751
 5245SOL    HW216635   4.839   3.911   6.836
 5246SOL     OW16636   1.214   3.535   2.637
 5246SOL    HW116637   1.290   3.576   2.586
 5246SOL    HW216638   1.226   3.436   2.639
 5247SOL     OW16639   0.120   5.270   0.747
 5247SOL    HW116640   0.213   5.295   0.772
 5247SOL    HW216641   0.119   5.177   0.710
 5248SOL     OW16642   5.264   0.608   5.913
 5248SOL    HW116643   5.175   0.643   5.942
 5248SOL    HW216644   5.250   0.535   5.845
 5249SOL     OW16645   0.903   4.933   4.980
 5249SOL    HW116646   0.980   4.895   4.929
 5249SOL    HW216647   0.833   4.964   4.916
 5250SOL     OW16648   0.369   1.764   6.381
 5250SOL    HW116649   0.386   1.666   6.390
 5250SOL    HW216650   0.433   1.802   6.315
 5251SOL     OW16651   6.311   3.352   1.221
 5251SOL    HW116652   6.351   3.268   1.258
 5251SOL    HW216653   6.375   3.393   1.156
 5252SOL     OW16654   4.045   5.938   0.389
 5252SOL    HW116655   3.997   5.997   0.454
 5252SOL    HW216656   4.094   5.866   0.438
 5253SOL     OW16657   5.558   3.638   4.436
 5253SOL    HW116658   5.478   3.597   4.479
 5253SOL    HW216659   5.534   3.729   4.401
 5254SOL     OW16660   4.245   0.667   3.671
 5254SOL    HW116661   4.324   0.623   3.629
 5254SOL    HW216662   4.232   0.632   3.764
 5255SOL     OW16663   3.005   6.441   5.140
 5255SOL    HW116664   3.055   6.374   5.085
 5255SOL    HW216665   2.956   6.395   5.213
 5256SOL     OW16666   5.039   0.291   3.179
 5256SOL    HW116667   4.966   0.310   3.114
 5256SOL    HW216668   5.121   0.264   3.130
 5257SOL     OW16669   4.069   0.129   0.054
 5257SOL    HW116670   4.033   0.116   6.980
 5257SOL    HW216671   3.994   0.155   0.115
 5258SOL     OW16672   5.117   4.379   2.305
 5258SOL    HW116673   5.049   4.311   2.332
 5258SOL    HW216674   5.084   4.471   2.327
 5259SOL     OW16675   4.776   5.474   2.906
 5259SOL    HW116676   4.721   5.514   2.979
 5259SOL    HW216677   4.715   5.435   2.837
 5260SOL     OW16678   5.560   3.553   1.575
 5260SOL    HW116679   5.626   3.576   1.504
 5260SOL    HW216680   5.536   3.456   1.568
 5261SOL     OW16681   0.620   1.980   4.686
 5261SOL    HW116682   0.679   1.911   4.645
 5261SOL    HW216683   0.664   2.070   4.678
 5262SOL     OW16684   2.938   6.583   2.038
 5262SOL    HW116685   2.985   6.663   1.999
 5262SOL    HW216686   2.997   6.542   2.108
 5263SOL     OW16687   1.797   0.021   6.248
 5263SOL    HW116688   1.838   0.112   6.241
 5263SOL    HW216689   1.865   6.971   6.227
 5264SOL     OW16690   0.043   2.232   1.220
 5264SOL    HW116691   0.142   2.220   1.220
 5264SOL    HW216692   0.013   2.257   1.312
 5265SOL     OW16693   5.306   4.882   1.794
 5265SOL    HW116694   5.271   4.974   1.774
 5265SOL    HW216695   5.351   4.845   1.714
 5266SOL     OW16696   1.481   6.710   1.684
 5266SOL    HW116697   1.456   6.715   1.780
 5266SOL    HW216698   1.572   6.751   1.671
 5267SOL     OW16699   5.021   4.815   5.093
 5267SOL    HW116700   5.029   4.860   5.182
 5267SOL    HW216701   5.076   4.732   5.093
 5268SOL     OW16702   6.138   5.574   5.130
 5268SOL    HW116703   6.219   5.616   5.091
 5268SOL    HW216704   6.078   5.540   5.057
 5269SOL     OW16705   1.986   5.337   4.226
 5269SOL    HW116706   2.011   5.348   4.130
 5269SOL    HW216707   1.970   5.241   4.246
 5270SOL     OW16708   6.165   2.766   1.737
 5270SOL    HW116709   6.100   2.797   1.806
 5270SOL    HW216710   6.152   2.669   1.719
 5271SOL     OW16711   5.346   4.462   5.489
 5271SOL    HW116712   5.372   4.471   5.393
 5271SOL    HW216713   5.280   4.387   5.499
 5272SOL     OW16714   0.293   6.911   4.404
 5272SOL    HW116715   0.344   6.831   4.438
 5272SOL    HW216716   0.226   6.881   4.337
 5273SOL     OW16717   0.601   1.458   3.740
 5273SOL    HW116718   0.602   1.554   3.767
 5273SOL    HW216719   0.617   1.450   3.642
 5274SOL     OW16720   6.691   5.135   3.957
 5274SOL    HW116721   6.790   5.123   3.951
 5274SOL    HW216722   6.659   5.107   4.047
 5275SOL     OW16723   2.679   0.347   7.010
 5275SOL    HW116724   2.679   0.446   0.009
 5275SOL    HW216725   2.767   0.309   0.018
 5276SOL     OW16726   6.880   6.997   1.887
 5276SOL    HW116727   6.877   0.061   1.944
 5276SOL    HW216728   6.860   0.002   1.792
 5277SOL     OW16729   1.068   1.560   3.375
 5277SOL    HW116730   1.032   1.624   3.306
 5277SOL    HW216731   1.007   1.482   3.384
 5278SOL     OW16732   0.548   5.554   5.692
 5278SOL    HW116733   0.618   5.493   5.727
 5278SOL    HW216734   0.542   5.635   5.750
 5279SOL     OW16735   1.657   5.623   6.211
 5279SOL    HW116736   1.667   5.701   6.149
 5279SOL    HW216737   1.726   5.630   6.284
 5280SOL     OW16738   3.796   5.856   4.882
 5280SOL    HW116739   3.718   5.800   4.854
 5280SOL    HW216740   3.875   5.835   4.824
 5281SOL     OW16741   2.112   0.490   4.707
 5281SOL    HW116742   2.099   0.576   4.756
 5281SOL    HW216743   2.040   0.426   4.732
 5282SOL     OW16744   1.254   0.445   2.292
 5282SOL    HW116745   1.321   0.400   2.232
 5282SOL    HW216746   1.211   0.521   2.243
 5283SOL     OW16747   6.939   0.742   4.168
 5283SOL    HW116748   6.882   0.783   4.240
 5283SOL    HW216749   6.939   0.643   4.178
 5284SOL     OW16750   5.542   2.199   1.996
 5284SOL    HW116751   5.478   2.213   1.920
 5284SOL    HW216752   5.492   2.201   2.082
 5285SOL     OW16753   0.946   2.870   4.016
 5285SOL    HW116754   0.965   2.850   3.920
 5285SOL    HW216755   0.967   2.790   4.072
 5286SOL     OW16756   6.388   3.091   1.273
 5286SOL    HW116757   6.356   3.016   1.215
 5286SOL    HW216758   6.486   3.106   1.257
 5287SOL     OW16759   3.312   4.883   1.483
 5287SOL    HW116760   3.395   4.894   1.428
 5287SOL    HW216761   3.335   4.840   1.570
 5288SOL     OW16762   5.229   0.389   2.172
 5288SOL    HW116763   5.259   0.316   2.110
 5288SOL    HW216764   5.219   0.474   2.121
 5289SOL     OW16765   1.875   4.976   6.661
 5289SOL    HW116766   1.849   4.898   6.604
 5289SOL    HW216767   1.967   4.961   6.699
 5290SOL     OW16768   1.845   3.552   5.751
 5290SOL    HW116769   1.842   3.538   5.652
 5290SOL    HW216770   1.822   3.647   5.772
 5291SOL     OW16771   2.778   4.457   5.369
 5291SOL    HW116772   2.840   4.506   5.308
 5291SOL    HW216773   2.690   4.505   5.372
 5292SOL     OW16774   6.516   4.351   6.593
 5292SOL    HW116775   6.577   4.377   6.667
 5292SOL    HW216776   6.432   4.405   6.599
 5293SOL     OW16777   1.935   5.033   4.726
 5293SOL    HW116778   1.990   4.953   4.701
 5293SOL    HW216779   1.855   5.038   4.667
 5294SOL     OW16780   4.129   0.752   5.170
 5294SOL    HW116781   4.112   0.664   5.215
 5294SOL    HW216782   4.143   0.737   5.072
 5295SOL     OW16783   3.326   0.886   2.170
 5295SOL    HW116784   3.256   0.818   2.186
 5295SOL    HW216785   3.410   0.841   2.138
 5296SOL     OW16786   3.890   4.212   1.101
 5296SOL    HW116787   3.944   4.274   1.044
 5296SOL    HW216788   3.951   4.155   1.155
 5297SOL     OW16789   2.247   4.020   0.259
 5297SOL    HW116790   2.339   4.020   0.298
 5297SOL    HW216791   2.213   3.926   0.253
 5298SOL     OW16792   2.734   6.829   0.029
 5298SOL    HW116793   2.659   6.805   0.091
 5298SOL    HW216794   2.697   6.866   6.963
 5299SOL     OW16795   3.105   1.934   0.423
 5299SOL    HW116796   3.122   1.906   0.328
 5299SOL    HW216797   3.190   1.970   0.462
 5300SOL     OW16798   1.863   4.593   0.537
 5300SOL    HW116799   1.898   4.570   0.446
 5300SOL    HW216800   1.836   4.690   0.539
 5301SOL     OW16801   4.857   0.697   6.556
 5301SOL    HW116802   4.786   0.705   6.625
 5301SOL    HW216803   4.911   0.614   6.573
 5302SOL     OW16804   4.907   5.520   3.411
 5302SOL    HW116805   4.886   5.466   3.329
 5302SOL    HW216806   4.982   5.583   3.391
 5303SOL     OW16807   6.745   4.887   6.090
 5303SOL    HW116808   6.723   4.940   6.008
 5303SOL    HW216809   6.711   4.793   6.080
 5304SOL     OW16810   6.097   1.430   1.203
 5304SOL    HW116811   6.095   1.447   1.301
 5304SOL    HW216812   6.127   1.336   1.186
 5305SOL     OW16813   1.139   5.375   2.789
 5305SOL    HW116814   1.042   5.397   2.795
 5305SOL    HW216815   1.192   5.450   2.828
 5306SOL     OW16816   6.495   4.192   6.103
 5306SOL    HW116817   6.562   4.118   6.104
 5306SOL    HW216818   6.436   4.184   6.183
 5307SOL     OW16819   4.806   2.475   0.677
 5307SOL    HW116820   4.790   2.376   0.680
 5307SOL    HW216821   4.772   2.511   0.590
 5308SOL     OW16822   1.600   4.534   2.997
 5308SOL    HW116823   1.537   4.476   3.050
 5308SOL    HW216824   1.577   4.527   2.900
 5309SOL     OW16825   4.208   5.986   2.565
 5309SOL    HW116826   4.202   6.060   2.633
 5309SOL    HW216827   4.304   5.965   2.546
 5310SOL     OW16828   6.032   3.423   2.725
 5310SOL    HW116829   5.952   3.412   2.666
 5310SOL    HW216830   6.112   3.384   2.679
 5311SOL     OW16831   5.855   6.709   0.417
 5311SOL    HW116832   5.933   6.769   0.399
 5311SOL    HW216833   5.883   6.614   0.402
 5312SOL     OW16834   0.648   6.579   1.601
 5312SOL    HW116835   0.558   6.581   1.556
 5312SOL    HW216836   0.645   6.635   1.683
 5313SOL     OW16837   6.813   5.257   5.267
 5313SOL    HW116838   6.803   5.212   5.355
 5313SOL    HW216839   6.825   5.356   5.281
 5314SOL     OW16840   5.764   6.588   0.962
 5314SOL    HW116841   5.690   6.653   0.941
 5314SOL    HW216842   5.839   6.601   0.897
 5315SOL     OW16843   4.440   2.100   3.352
 5315SOL    HW116844   4.513   2.081   3.287
 5315SOL    HW216845   4.373   2.026   3.350
 5316SOL     OW16846   0.904   2.977   5.106
 5316SOL    HW116847   0.880   2.984   5.203
 5316SOL    HW216848   0.893   3.067   5.063
 5317SOL     OW16849   6.733   1.120   5.616
 5317SOL    HW116850   6.800   1.053   5.584
 5317SOL    HW216851   6.710   1.102   5.711
 5318SOL     OW16852   6.587   2.994   0.253
 5318SOL    HW116853   6.549   2.964   0.165
 5318SOL    HW216854   6.633   3.082   0.241
 5319SOL     OW16855   4.302   6.714   0.883
 5319SOL    HW116856   4.207   6.701   0.912
 5319SOL    HW216857   4.323   6.812   0.878
 5320SOL     OW16858   3.942   5.532   1.380
 5320SOL    HW116859   3.977   5.607   1.437
 5320SOL    HW216860   3.991   5.447   1.404
 5321SOL     OW16861   1.422   4.856   5.226
 5321SOL    HW116862   1.521   4.846   5.233
 5321SOL    HW216863   1.400   4.945   5.185
 5322SOL     OW16864   5.612   6.679   1.492
 5322SOL    HW116865   5.696   6.680   1.438
 5322SOL    HW216866   5.545   6.618   1.448
 5323SOL     OW16867   4.683   1.332   5.817
 5323SOL    HW116868   4.631   1.417   5.821
 5323SOL    HW216869   4.639   1.268   5.754
 5324SOL     OW16870   2.691   2.525   6.681
 5324SOL    HW116871   2.638   2.510   6.765
 5324SOL    HW216872   2.634   2.572   6.614
 5325SOL     OW16873   2.813   1.903   5.173
 5325SOL    HW116874   2.895   1.947   5.135
 5325SOL    HW216875   2.826   1.889   5.271
 5326SOL     OW16876   6.412   5.864   3.016
 5326SOL    HW116877   6.396   5.962   3.023
 5326SOL    HW216878   6.427   5.827   3.108
 5327SOL     OW16879   5.314   2.454   4.763
 5327SOL    HW116880   5.221   2.418   4.760
 5327SOL    HW216881   5.377   2.390   4.718
 5328SOL     OW16882   4.256   4.112   5.889
 5328SOL    HW116883   4.242   4.023   5.933
 5328SOL    HW216884   4.186   4.126   5.819
 5329SOL     OW16885   1.333   5.731   6.450
 5329SOL    HW116886   1.357   5.789   6.371
 5329SOL    HW216887   1.405   5.737   6.519
 5330SOL     OW16888   3.654   3.976   0.539
 5330SOL    HW116889   3.589   3.899   0.533
 5330SOL    HW216890   3.666   4.001   0.635
 5331SOL     OW16891   6.962   2.224   6.648
 5331SOL    HW116892   6.865   2.237   6.630
 5331SOL    HW216893   7.008   2.313   6.653
 5332SOL     OW16894   1.436   4.442   1.683
 5332SOL    HW116895   1.362   4.386   1.645
 5332SOL    HW216896   1.397   4.507   1.749
 5333SOL     OW16897   1.483   0.725   3.229
 5333SOL    HW116898   1.572   0.720   3.275
 5333SOL    HW216899   1.433   0.640   3.244
 5334SOL     OW16900   3.092   0.284   4.886
 5334SOL    HW116901   3.097   0.301   4.788
 5334SOL    HW216902   3.164   0.220   4.913
 5335SOL     OW16903   6.540   5.702   0.421
 5335SOL    HW116904   6.588   5.650   0.351
 5335SOL    HW216905   6.508   5.788   0.383
 5336SOL     OW16906   1.833   3.594   2.291
 5336SOL    HW116907   1.774   3.641   2.225
 5336SOL    HW216908   1.776   3.556   2.364
 5337SOL     OW16909   4.782   3.995   1.413
 5337SOL    HW116910   4.819   4.042   1.334
 5337SOL    HW216911   4.853   3.983   1.482
 5338SOL     OW16912   6.568   1.719   6.725
 5338SOL    HW116913   6.494   1.688   6.665
 5338SOL    HW216914   6.536   1.719   6.820
 5339SOL     OW16915   6.735   1.946   4.019
 5339SOL    HW116916   6.695   1.885   3.950
 5339SOL    HW216917   6.766   1.892   4.098
 5340SOL     OW16918   5.770   2.765   6.788
 5340SOL    HW116919   5.701   2.837   6.796
 5340SOL    HW216920   5.733   2.679   6.824
 5341SOL     OW16921   3.868   2.046   5.638
 5341SOL    HW116922   3.851   1.967   5.579
 5341SOL    HW216923   3.833   2.027   5.729
 5342SOL     OW16924   3.853   0.421   4.833
 5342SOL    HW116925   3.945   0.462   4.827
 5342SOL    HW216926   3.785   0.490   4.807
 5343SOL     OW16927   4.028   3.586   2.729
 5343SOL    HW116928   4.021   3.641   2.812
 5343SOL    HW216929   3.938   3.548   2.706
 5344SOL     OW16930   1.510   2.637   2.534
 5344SOL    HW116931   1.559   2.708   2.584
 5344SOL    HW216932   1.412   2.644   2.553
 5345SOL     OW16933   4.569   6.413   0.979
 5345SOL    HW116934   4.600   6.343   0.915
 5345SOL    HW216935   4.507   6.371   1.046
 5346SOL     OW16936   3.082   5.961   3.606
 5346SOL    HW116937   3.002   5.958   3.546
 5346SOL    HW216938   3.055   6.000   3.694
 5347SOL     OW16939   0.182   2.141   1.967
 5347SOL    HW116940   0.237   2.083   1.907
 5347SOL    HW216941   0.130   2.207   1.911
 5348SOL     OW16942   0.963   1.370   0.867
 5348SOL    HW116943   1.059   1.347   0.847
 5348SOL    HW216944   0.949   1.468   0.853
 5349SOL     OW16945   0.233   2.119   0.239
 5349SOL    HW116946   0.281   2.123   0.151
 5349SOL    HW216947   0.176   2.200   0.249
 5350SOL     OW16948   2.376   0.399   6.216
 5350SOL    HW116949   2.432   0.356   6.287
 5350SOL    HW216950   2.411   0.490   6.197
 5351SOL     OW16951   4.966   6.244   1.330
 5351SOL    HW116952   4.871   6.211   1.320
 5351SOL    HW216953   5.001   6.270   1.240
 5352SOL     OW16954   2.208   5.935   4.119
 5352SOL    HW116955   2.276   5.962   4.187
 5352SOL    HW216956   2.253   5.915   4.032
 5353SOL     OW16957   4.585   6.537   4.645
 5353SOL    HW116958   4.578   6.465   4.714
 5353SOL    HW216959   4.677   6.578   4.649
 5354SOL     OW16960   2.699   4.684   2.480
 5354SOL    HW116961   2.762   4.695   2.403
 5354SOL    HW216962   2.625   4.751   2.472
 5355SOL     OW16963   4.464   1.650   3.690
 5355SOL    HW116964   4.423   1.663   3.600
 5355SOL    HW216965   4.563   1.667   3.685
 5356SOL     OW16966   6.317   3.941   1.711
 5356SOL    HW116967   6.369   3.939   1.625
 5356SOL    HW216968   6.337   4.026   1.760
 5357SOL     OW16969   3.942   0.500   0.426
 5357SOL    HW116970   3.901   0.410   0.436
 5357SOL    HW216971   3.890   0.553   0.359
 5358SOL     OW16972   4.071   2.024   0.591
 5358SOL    HW116973   4.091   2.101   0.651
 5358SOL    HW216974   4.047   1.944   0.645
 5359SOL     OW16975   2.613   1.799   1.147
 5359SOL    HW116976   2.625   1.700   1.142
 5359SOL    HW216977   2.619   1.838   1.055
 5360SOL     OW16978   3.468   6.650   4.954
 5360SOL    HW116979   3.515   6.738   4.946
 5360SOL    HW216980   3.504   6.600   5.033
 5361SOL     OW16981   2.214   1.348   4.434
 5361SOL    HW116982   2.294   1.408   4.432
 5361SOL    HW216983   2.157   1.370   4.513
 5362SOL     OW16984   5.009   4.441   3.114
 5362SOL    HW116985   4.984   4.344   3.115
 5362SOL    HW216986   4.953   4.489   3.046
 5363SOL     OW16987   0.995   6.227   5.926
 5363SOL    HW116988   1.033   6.161   5.861
 5363SOL    HW216989   1.070   6.271   5.976
 5364SOL     OW16990   6.461   5.842   0.768
 5364SOL    HW116991   6.482   5.848   0.866
 5364SOL    HW216992   6.546   5.845   0.715
 5365SOL     OW16993   4.686   3.034   6.133
 5365SOL    HW116994   4.610   3.096   6.111
 5365SOL    HW216995   4.734   3.068   6.214
 5366SOL     OW16996   4.127   4.800   0.611
 5366SOL    HW116997   4.120   4.751   0.524
 5366SOL    HW216998   4.148   4.736   0.684
 5367SOL     OW16999   0.502   5.127   0.823
 5367SOL    HW117000   0.479   5.120   0.726
 5367SOL    HW217001   0.587   5.077   0.841
 5368SOL     OW17002   5.594   1.737   2.362
 5368SOL    HW117003   5.685   1.704   2.386
 5368SOL    HW217004   5.593   1.768   2.267
 5369SOL     OW17005   2.340   4.713   3.348
 5369SOL    HW117006   2.253   4.727   3.301
 5369SOL    HW217007   2.379   4.801   3.374
 5370SOL     OW17008   4.172   3.215   1.519
 5370SOL    HW117009   4.147   3.312   1.525
 5370SOL    HW217010   4.153   3.171   1.607
 5371SOL     OW17011   1.891   4.220   4.725
 5371SOL    HW117012   1.877   4.211   4.626
 5371SOL    HW217013   1.916   4.131   4.763
 5372SOL     OW17014   3.103   5.492   2.068
 5372SOL    HW117015   3.197   5.515   2.090
 5372SOL    HW217016   3.047   5.575   2.069
 5373SOL     OW17017   3.052   4.878   4.358
 5373SOL    HW117018   3.117   4.804   4.379
 5373SOL    HW217019   3.100   4.965   4.359
 5374SOL     OW17020   1.480   3.331   6.334
 5374SOL    HW117021   1.494   3.236   6.363
 5374SOL    HW217022   1.555   3.387   6.367
 5375SOL     OW17023   1.367   4.050   5.230
 5375SOL    HW117024   1.336   4.141   5.202
 5375SOL    HW217025   1.301   3.982   5.197
 5376SOL     OW17026   1.784   3.469   1.692
 5376SOL    HW117027   1.874   3.432   1.672
 5376SOL    HW217028   1.783   3.508   1.784
 5377SOL     OW17029   6.657   6.865   1.569
 5377SOL    HW117030   6.609   6.879   1.656
 5377SOL    HW217031   6.751   6.900   1.577
 5378SOL     OW17032   6.313   0.241   0.494
 5378SOL    HW117033   6.225   0.276   0.526
 5378SOL    HW217034   6.310   0.229   0.395
 5379SOL     OW17035   0.402   4.856   3.905
 5379SOL    HW117036   0.422   4.946   3.944
 5379SOL    HW217037   0.352   4.801   3.972
 5380SOL     OW17038   2.430   0.704   3.670
 5380SOL    HW117039   2.373   0.715   3.588
 5380SOL    HW217040   2.512   0.653   3.647
 5381SOL     OW17041   6.530   4.055   0.724
 5381SOL    HW117042   6.453   4.084   0.781
 5381SOL    HW217043   6.603   4.123   0.731
 5382SOL     OW17044   3.063   0.347   1.576
 5382SOL    HW117045   2.991   0.294   1.622
 5382SOL    HW217046   3.023   0.429   1.536
 5383SOL     OW17047   2.781   2.230   5.480
 5383SOL    HW117048   2.827   2.270   5.401
 5383SOL    HW217049   2.682   2.239   5.469
 5384SOL     OW17050   6.421   6.501   4.442
 5384SOL    HW117051   6.329   6.527   4.412
 5384SOL    HW217052   6.486   6.572   4.417
 5385SOL     OW17053   2.966   3.753   2.694
 5385SOL    HW117054   2.908   3.761   2.775
 5385SOL    HW217055   2.929   3.682   2.634
 5386SOL     OW17056   4.907   6.281   4.042
 5386SOL    HW117057   4.952   6.310   3.957
 5386SOL    HW217058   4.822   6.234   4.020
 5387SOL     OW17059   2.786   5.690   2.469
 5387SOL    HW117060   2.803   5.739   2.384
 5387SOL    HW217061   2.728   5.745   2.528
 5388SOL     OW17062   5.326   6.471   2.206
 5388SOL    HW117063   5.390   6.403   2.169
 5388SOL    HW217064   5.251   6.424   2.253
 5389SOL     OW17065   5.122   1.173   1.704
 5389SOL    HW117066   5.071   1.201   1.622
 5389SOL    HW217067   5.193   1.107   1.678
 5390SOL     OW17068   5.219   4.825   4.339
 5390SOL    HW117069   5.263   4.870   4.416
 5390SOL    HW217070   5.266   4.849   4.254
 5391SOL     OW17071   2.766   3.370   0.263
 5391SOL    HW117072   2.701   3.445   0.247
 5391SOL    HW217073   2.839   3.374   0.194
 5392SOL     OW17074   5.928   3.031   1.436
 5392SOL    HW117075   6.024   3.009   1.418
 5392SOL    HW217076   5.923   3.116   1.490
 5393SOL     OW17077   6.982   0.084   6.971
 5393SOL    HW117078   6.947   0.140   0.027
 5393SOL    HW217079   0.002   7.019   7.009
 5394SOL     OW17080   0.775   3.890   6.201
 5394SOL    HW117081   0.731   3.803   6.223
 5394SOL    HW217082   0.844   3.911   6.270
 5395SOL     OW17083   4.701   0.426   0.829
 5395SOL    HW117084   4.637   0.355   0.860
 5395SOL    HW217085   4.791   0.385   0.814
 5396SOL     OW17086   5.307   3.792   2.403
 5396SOL    HW117087   5.246   3.870   2.418
 5396SOL    HW217088   5.259   3.721   2.352
 5397SOL     OW17089   6.538   3.059   1.922
 5397SOL    HW117090   6.489   2.986   1.874
 5397SOL    HW217091   6.633   3.062   1.890
 5398SOL     OW17092   3.302   2.717   1.810
 5398SOL    HW117093   3.281   2.729   1.906
 5398SOL    HW217094   3.217   2.721   1.756
 5399SOL     OW17095   2.960   6.324   0.891
 5399SOL    HW117096   2.970   6.423   0.882
 5399SOL    HW217097   2.948   6.283   0.801
 5400SOL     OW17098   2.673   4.190   0.574
 5400SOL    HW117099   2.759   4.143   0.554
 5400SOL    HW217100   2.690   4.288   0.583
 5401SOL     OW17101   5.750   3.175   2.156
 5401SOL    HW117102   5.798   3.191   2.070
 5401SOL    HW217103   5.812   3.191   2.233
 5402SOL     OW17104   2.683   5.864   1.681
 5402SOL    HW117105   2.635   5.949   1.658
 5402SOL    HW217106   2.754   5.883   1.748
 5403SOL     OW17107   0.060   3.526   6.347
 5403SOL    HW117108   0.050   3.437   6.391
 5403SOL    HW217109   0.149   3.531   6.301
 5404SOL     OW17110   1.218   2.778   3.363
 5404SOL    HW117111   1.146   2.845   3.380
 5404SOL    HW217112   1.177   2.688   3.349
 5405SOL     OW17113   6.875   5.704   6.926
 5405SOL    HW117114   6.931   5.762   6.984
 5405SOL    HW217115   6.878   5.737   6.832
 5406SOL     OW17116   1.802   2.260   0.241
 5406SOL    HW117117   1.707   2.242   0.217
 5406SOL    HW217118   1.855   2.275   0.158
 5407SOL     OW17119   4.344   3.628   0.670
 5407SOL    HW117120   4.392   3.649   0.756
 5407SOL    HW217121   4.308   3.535   0.674
 5408SOL     OW17122   2.423   0.769   5.496
 5408SOL    HW117123   2.337   0.809   5.465
 5408SOL    HW217124   2.437   0.790   5.593
 5409SOL     OW17125   5.299   0.190   3.074
 5409SOL    HW117126   5.384   0.212   3.121
 5409SOL    HW217127   5.284   0.091   3.075
 5410SOL     OW17128   3.055   2.278   1.733
 5410SOL    HW117129   3.121   2.317   1.669
 5410SOL    HW217130   3.006   2.352   1.780
 5411SOL     OW17131   6.674   5.049   5.887
 5411SOL    HW117132   6.665   4.981   5.814
 5411SOL    HW217133   6.629   5.134   5.859
 5412SOL     OW17134   5.180   2.849   0.644
 5412SOL    HW117135   5.103   2.797   0.607
 5412SOL    HW217136   5.251   2.785   0.674
 5413SOL     OW17137   2.658   1.949   1.368
 5413SOL    HW117138   2.640   1.893   1.287
 5413SOL    HW217139   2.642   1.894   1.451
 5414SOL     OW17140   5.048   1.582   4.657
 5414SOL    HW117141   4.989   1.644   4.709
 5414SOL    HW217142   5.032   1.595   4.559
 5415SOL     OW17143   0.354   6.082   1.235
 5415SOL    HW117144   0.400   6.166   1.265
 5415SOL    HW217145   0.376   6.008   1.298
 5416SOL     OW17146   4.024   5.222   5.431
 5416SOL    HW117147   4.030   5.303   5.373
 5416SOL    HW217148   4.090   5.154   5.401
 5417SOL     OW17149   3.728   6.780   5.429
 5417SOL    HW117150   3.741   6.773   5.330
 5417SOL    HW217151   3.634   6.754   5.452
 5418SOL     OW17152   3.693   0.140   2.235
 5418SOL    HW117153   3.683   0.139   2.335
 5418SOL    HW217154   3.766   0.078   2.208
 5419SOL     OW17155   3.481   4.744   0.255
 5419SOL    HW117156   3.404   4.714   0.198
 5419SOL    HW217157   3.462   4.722   0.351
 5420SOL     OW17158   2.133   2.723   3.252
 5420SOL    HW117159   2.095   2.748   3.341
 5420SOL    HW217160   2.225   2.762   3.243
 5421SOL     OW17161   1.768   3.806   1.265
 5421SOL    HW117162   1.751   3.879   1.331
 5421SOL    HW217163   1.808   3.727   1.312
 5422SOL     OW17164   1.136   4.975   1.053
 5422SOL    HW117165   1.183   5.062   1.068
 5422SOL    HW217166   1.099   4.972   0.960
 5423SOL     OW17167   6.071   3.136   6.722
 5423SOL    HW117168   6.015   3.214   6.750
 5423SOL    HW217169   6.011   3.062   6.691
 5424SOL     OW17170   5.048   3.487   3.991
 5424SOL    HW117171   5.092   3.398   3.998
 5424SOL    HW217172   4.949   3.476   4.003
 5425SOL     OW17173   4.111   1.131   5.049
 5425SOL    HW117174   4.086   1.056   5.111
 5425SOL    HW217175   4.037   1.199   5.049
 5426SOL     OW17176   5.403   6.304   4.253
 5426SOL    HW117177   5.368   6.276   4.343
 5426SOL    HW217178   5.363   6.391   4.228
 5427SOL     OW17179   4.427   5.851   6.490
 5427SOL    HW117180   4.448   5.904   6.572
 5427SOL    HW217181   4.338   5.879   6.455
 5428SOL     OW17182   0.651   0.401   0.772
 5428SOL    HW117183   0.682   0.413   0.866
 5428SOL    HW217184   0.681   0.312   0.738
 5429SOL     OW17185   1.683   1.543   0.089
 5429SOL    HW117186   1.732   1.515   0.006
 5429SOL    HW217187   1.674   1.643   0.091
 5430SOL     OW17188   0.178   1.961   6.383
 5430SOL    HW117189   0.191   2.035   6.449
 5430SOL    HW217190   0.243   1.887   6.403
 5431SOL     OW17191   3.553   6.586   6.563
 5431SOL    HW117192   3.510   6.586   6.654
 5431SOL    HW217193   3.523   6.505   6.513
 5432SOL     OW17194   5.574   0.060   6.741
 5432SOL    HW117195   5.566   0.159   6.753
 5432SOL    HW217196   5.497   0.015   6.787
 5433SOL     OW17197   0.318   1.919   4.407
 5433SOL    HW117198   0.260   1.993   4.441
 5433SOL    HW217199   0.305   1.838   4.465
 5434SOL     OW17200   2.886   0.340   5.695
 5434SOL    HW117201   2.825   0.369   5.769
 5434SOL    HW217202   2.830   0.310   5.617
 5435SOL     OW17203   4.966   6.916   2.118
 5435SOL    HW117204   4.868   6.902   2.103
 5435SOL    HW217205   4.991   6.882   2.208
 5436SOL     OW17206   4.706   4.272   3.266
 5436SOL    HW117207   4.753   4.185   3.279
 5436SOL    HW217208   4.713   4.300   3.170
 5437SOL     OW17209   2.521   4.079   0.381
 5437SOL    HW117210   2.582   4.053   0.306
 5437SOL    HW217211   2.575   4.112   0.458
 5438SOL     OW17212   6.821   2.680   1.794
 5438SOL    HW117213   6.910   2.699   1.752
 5438SOL    HW217214   6.750   2.685   1.724
 5439SOL     OW17215   1.656   1.965   1.315
 5439SOL    HW117216   1.646   2.029   1.391
 5439SOL    HW217217   1.738   1.987   1.263
 5440SOL     OW17218   1.545   1.514   1.453
 5440SOL    HW117219   1.488   1.579   1.505
 5440SOL    HW217220   1.586   1.562   1.375
 5441SOL     OW17221   3.818   1.903   4.081
 5441SOL    HW117222   3.891   1.972   4.080
 5441SOL    HW217223   3.785   1.889   3.988
 5442SOL     OW17224   4.393   6.607   2.597
 5442SOL    HW117225   4.361   6.680   2.657
 5442SOL    HW217226   4.346   6.612   2.509
 5443SOL     OW17227   2.844   0.253   5.072
 5443SOL    HW117228   2.939   0.244   5.043
 5443SOL    HW217229   2.794   0.169   5.050
 5444SOL     OW17230   0.721   0.488   4.288
 5444SOL    HW117231   0.653   0.430   4.244
 5444SOL    HW217232   0.812   0.447   4.279
 5445SOL     OW17233   6.561   4.075   3.347
 5445SOL    HW117234   6.494   4.002   3.361
 5445SOL    HW217235   6.650   4.045   3.384
 5446SOL     OW17236   5.725   5.630   5.050
 5446SOL    HW117237   5.819   5.629   5.015
 5446SOL    HW217238   5.688   5.537   5.047
 5447SOL     OW17239   3.271   2.617   0.006
 5447SOL    HW117240   3.175   2.591   0.020
 5447SOL    HW217241   3.289   2.705   0.049
 5448SOL     OW17242   4.978   2.232   5.077
 5448SOL    HW117243   5.075   2.249   5.093
 5448SOL    HW217244   4.956   2.136   5.100
 5449SOL     OW17245   1.528   2.235   6.345
 5449SOL    HW117246   1.484   2.294   6.413
 5449SOL    HW217247   1.501   2.140   6.361
 5450SOL     OW17248   2.466   0.958   2.088
 5450SOL    HW117249   2.508   0.897   2.022
 5450SOL    HW217250   2.373   0.927   2.109
 5451SOL     OW17251   1.329   6.012   3.314
 5451SOL    HW117252   1.284   5.923   3.314
 5451SOL    HW217253   1.394   6.018   3.238
 5452SOL     OW17254   1.988   4.153   0.165
 5452SOL    HW117255   1.954   4.187   0.252
 5452SOL    HW217256   2.074   4.103   0.179
 5453SOL     OW17257   6.734   4.238   0.675
 5453SOL    HW117258   6.767   4.227   0.581
 5453SOL    HW217259   6.812   4.238   0.737
 5454SOL     OW17260   6.991   4.510   6.586
 5454SOL    HW117261   6.908   4.515   6.529
 5454SOL    HW217262   7.001   4.595   6.637
 5455SOL     OW17263   0.052   3.216   1.014
 5455SOL    HW117264   7.009   3.249   0.943
 5455SOL    HW217265   0.041   3.117   1.024
 5456SOL     OW17266   3.317   0.830   6.325
 5456SOL    HW117267   3.254   0.789   6.259
 5456SOL    HW217268   3.374   0.759   6.365
 5457SOL     OW17269   5.581   2.586   0.903
 5457SOL    HW117270   5.491   2.546   0.887
 5457SOL    HW217271   5.573   2.686   0.906
 5458SOL     OW17272   0.981   4.593   0.001
 5458SOL    HW117273   1.040   4.536   0.058
 5458SOL    HW217274   1.007   4.582   6.924
 5459SOL     OW17275   1.852   5.071   0.245
 5459SOL    HW117276   1.904   5.002   0.295
 5459SOL    HW217277   1.867   5.059   0.147
 5460SOL     OW17278   3.356   0.294   1.607
 5460SOL    HW117279   3.370   0.199   1.581
 5460SOL    HW217280   3.263   0.322   1.583
 5461SOL     OW17281   5.307   6.334   5.173
 5461SOL    HW117282   5.350   6.424   5.188
 5461SOL    HW217283   5.378   6.264   5.174
 5462SOL     OW17284   1.610   0.843   0.905
 5462SOL    HW117285   1.606   0.925   0.962
 5462SOL    HW217286   1.703   0.833   0.869
 5463SOL     OW17287   6.299   2.406   0.812
 5463SOL    HW117288   6.262   2.443   0.727
 5463SOL    HW217289   6.283   2.472   0.886
 5464SOL     OW17290   1.699   0.588   4.185
 5464SOL    HW117291   1.687   0.610   4.282
 5464SOL    HW217292   1.635   0.642   4.131
 5465SOL     OW17293   3.920   6.890   3.693
 5465SOL    HW117294   4.002   6.832   3.696
 5465SOL    HW217295   3.839   6.833   3.691
 5466SOL     OW17296   5.315   4.355   4.972
 5466SOL    HW117297   5.409   4.342   5.002
 5466SOL    HW217298   5.314   4.397   4.881
 5467SOL     OW17299   5.353   2.097   2.722
 5467SOL    HW117300   5.427   2.067   2.661
 5467SOL    HW217301   5.387   2.102   2.816
 5468SOL     OW17302   4.733   1.819   4.473
 5468SOL    HW117303   4.657   1.885   4.471
 5468SOL    HW217304   4.784   1.830   4.558
 5469SOL     OW17305   4.015   4.663   6.437
 5469SOL    HW117306   4.094   4.724   6.436
 5469SOL    HW217307   3.964   4.673   6.351
 5470SOL     OW17308   2.013   5.089   3.943
 5470SOL    HW117309   2.057   5.017   3.890
 5470SOL    HW217310   1.915   5.090   3.922
 5471SOL     OW17311   5.395   6.060   1.158
 5471SOL    HW117312   5.411   6.110   1.073
 5471SOL    HW217313   5.376   6.126   1.232
 5472SOL     OW17314   4.406   3.945   6.153
 5472SOL    HW117315   4.319   3.942   6.103
 5472SOL    HW217316   4.477   3.899   6.098
 5473SOL     OW17317   0.910   3.850   2.739
 5473SOL    HW117318   0.974   3.901   2.682
 5473SOL    HW217319   0.960   3.799   2.809
 5474SOL     OW17320   2.100   4.927   4.281
 5474SOL    HW117321   2.194   4.894   4.276
 5474SOL    HW217322   2.047   4.887   4.206
 5475SOL     OW17323   3.625   2.642   1.215
 5475SOL    HW117324   3.609   2.552   1.255
 5475SOL    HW217325   3.537   2.686   1.197
 5476SOL     OW17326   1.923   3.393   6.191
 5476SOL    HW117327   1.958   3.432   6.106
 5476SOL    HW217328   1.924   3.293   6.185
 5477SOL     OW17329   2.087   3.362   3.326
 5477SOL    HW117330   2.172   3.415   3.321
 5477SOL    HW217331   2.105   3.275   3.372
 5478SOL     OW17332   5.389   5.830   6.300
 5478SOL    HW117333   5.435   5.913   6.332
 5478SOL    HW217334   5.414   5.753   6.359
 5479SOL     OW17335   4.942   0.673   4.534
 5479SOL    HW117336   4.941   0.575   4.553
 5479SOL    HW217337   4.900   0.690   4.445
 5480SOL     OW17338   0.833   4.102   4.567
 5480SOL    HW117339   0.831   4.182   4.626
 5480SOL    HW217340   0.877   4.026   4.615
 5481SOL     OW17341   2.898   0.146   4.578
 5481SOL    HW117342   2.812   0.196   4.586
 5481SOL    HW217343   2.892   0.062   4.633
 5482SOL     OW17344   3.600   4.442   1.669
 5482SOL    HW117345   3.598   4.530   1.716
 5482SOL    HW217346   3.510   4.424   1.630
 5483SOL     OW17347   0.596   2.422   6.165
 5483SOL    HW117348   0.618   2.465   6.077
 5483SOL    HW217349   0.520   2.358   6.152
 5484SOL     OW17350   4.580   0.456   4.439
 5484SOL    HW117351   4.514   0.480   4.510
 5484SOL    HW217352   4.664   0.423   4.481
 5485SOL     OW17353   2.543   6.070   5.274
 5485SOL    HW117354   2.463   6.065   5.215
 5485SOL    HW217355   2.626   6.064   5.218
 5486SOL     OW17356   2.694   5.934   4.923
 5486SOL    HW117357   2.714   5.976   5.011
 5486SOL    HW217358   2.737   5.844   4.918
 5487SOL     OW17359   2.927   4.421   5.926
 5487SOL    HW117360   2.885   4.335   5.955
 5487SOL    HW217361   2.889   4.448   5.837
 5488SOL     OW17362   5.833   1.318   0.769
 5488SOL    HW117363   5.751   1.262   0.758
 5488SOL    HW217364   5.907   1.262   0.807
 5489SOL     OW17365   6.832   3.167   2.227
 5489SOL    HW117366   6.827   3.261   2.261
 5489SOL    HW217367   6.752   3.116   2.258
 5490SOL     OW17368   1.052   6.752   2.740
 5490SOL    HW117369   1.143   6.750   2.700
 5490SOL    HW217370   1.030   6.662   2.779
 5491SOL     OW17371   6.978   3.239   0.760
 5491SOL    HW117372   0.001   3.320   0.721
 5491SOL    HW217373   6.911   3.201   0.695
 5492SOL     OW17374   0.425   2.212   5.573
 5492SOL    HW117375   0.500   2.223   5.638
 5492SOL    HW217376   0.338   2.232   5.618
 5493SOL     OW17377   4.086   3.602   1.941
 5493SOL    HW117378   4.138   3.680   1.906
 5493SOL    HW217379   4.082   3.607   2.040
 5494SOL     OW17380   5.903   4.304   5.253
 5494SOL    HW117381   5.987   4.357   5.239
 5494SOL    HW217382   5.922   4.228   5.316
 5495SOL     OW17383   5.896   0.479   0.273
 5495SOL    HW117384   5.815   0.468   0.217
 5495SOL    HW217385   5.954   0.397   0.265
 5496SOL     OW17386   4.409   1.097   4.412
 5496SOL    HW117387   4.478   1.082   4.483
 5496SOL    HW217388   4.389   1.011   4.365
 5497SOL     OW17389   0.579   1.231   5.907
 5497SOL    HW117390   0.651   1.294   5.938
 5497SOL    HW217391   0.612   1.180   5.827
 5498SOL     OW17392   0.845   4.965   1.977
 5498SOL    HW117393   0.919   5.031   1.993
 5498SOL    HW217394   0.827   4.914   2.062
 5499SOL     OW17395   0.544   0.427   4.878
 5499SOL    HW117396   0.556   0.411   4.976
 5499SOL    HW217397   0.612   0.492   4.846
 5500SOL     OW17398   2.455   0.624   0.248
 5500SOL    HW117399   2.365   0.660   0.222
 5500SOL    HW217400   2.443   0.535   0.291
 5501SOL     OW17401   4.045   2.159   6.949
 5501SOL    HW117402   4.123   2.223   6.951
 5501SOL    HW217403   4.079   2.066   6.955
 5502SOL     OW17404   5.000   2.845   0.067
 5502SOL    HW117405   4.981   2.938   0.098
 5502SOL    HW217406   4.922   2.809   0.016
 5503SOL     OW17407   0.537   3.501   0.146
 5503SOL    HW117408   0.572   3.409   0.163
 5503SOL    HW217409   0.606   3.568   0.171
 5504SOL     OW17410   3.589   0.847   6.937
 5504SOL    HW117411   3.650   0.889   6.869
 5504SOL    HW217412   3.587   0.748   6.923
 5505SOL     OW17413   2.668   4.714   4.383
 5505SOL    HW117414   2.690   4.720   4.481
 5505SOL    HW217415   2.735   4.767   4.331
 5506SOL     OW17416   0.420   3.475   5.849
 5506SOL    HW117417   0.469   3.561   5.860
 5506SOL    HW217418   0.479   3.409   5.801
 5507SOL     OW17419   2.917   0.133   6.219
 5507SOL    HW117420   2.857   0.206   6.252
 5507SOL    HW217421   3.001   0.173   6.182
 5508SOL     OW17422   0.703   0.850   6.459
 5508SOL    HW117423   0.700   0.850   6.359
 5508SOL    HW217424   0.738   0.761   6.491
 5509SOL     OW17425   7.007   5.493   0.771
 5509SOL    HW117426   6.943   5.499   0.847
 5509SOL    HW217427   0.015   5.398   0.757
 5510SOL     OW17428   4.266   5.169   6.908
 5510SOL    HW117429   4.306   5.077   6.909
 5510SOL    HW217430   4.241   5.196   7.000
 5511SOL     OW17431   0.562   1.353   5.538
 5511SOL    HW117432   0.523   1.339   5.447
 5511SOL    HW217433   0.540   1.445   5.570
 5512SOL     OW17434   3.987   1.017   2.238
 5512SOL    HW117435   3.970   1.015   2.139
 5512SOL    HW217436   3.904   0.987   2.286
 5513SOL     OW17437   4.125   4.996   0.144
 5513SOL    HW117438   4.158   4.929   0.078
 5513SOL    HW217439   4.059   5.057   0.099
 5514SOL     OW17440   2.999   0.125   5.844
 5514SOL    HW117441   2.994   0.207   5.785
 5514SOL    HW217442   3.018   0.045   5.787
 5515SOL     OW17443   2.316   5.950   1.915
 5515SOL    HW117444   2.344   6.045   1.930
 5515SOL    HW217445   2.225   5.948   1.875
 5516SOL     OW17446   2.430   2.730   5.206
 5516SOL    HW117447   2.416   2.706   5.110
 5516SOL    HW217448   2.461   2.825   5.212
 5517SOL     OW17449   1.805   3.820   3.016
 5517SOL    HW117450   1.772   3.914   3.009
 5517SOL    HW217451   1.855   3.795   2.933
 5518SOL     OW17452   4.482   4.428   5.830
 5518SOL    HW117453   4.472   4.402   5.926
 5518SOL    HW217454   4.491   4.345   5.775
 5519SOL     OW17455   4.496   2.511   3.639
 5519SOL    HW117456   4.580   2.543   3.594
 5519SOL    HW217457   4.457   2.436   3.586
 5520SOL     OW17458   5.872   6.630   1.936
 5520SOL    HW117459   5.891   6.589   1.847
 5520SOL    HW217460   5.782   6.601   1.969
 5521SOL     OW17461   5.929   5.852   1.612
 5521SOL    HW117462   6.008   5.832   1.554
 5521SOL    HW217463   5.883   5.767   1.637
 5522SOL     OW17464   6.360   5.094   0.786
 5522SOL    HW117465   6.435   5.134   0.837
 5522SOL    HW217466   6.273   5.123   0.826
 5523SOL     OW17467   5.717   1.418   2.220
 5523SOL    HW117468   5.663   1.406   2.303
 5523SOL    HW217469   5.677   1.364   2.146
 5524SOL     OW17470   3.084   0.610   4.674
 5524SOL    HW117471   3.053   0.575   4.763
 5524SOL    HW217472   3.183   0.621   4.675
 5525SOL     OW17473   6.409   2.492   1.396
 5525SOL    HW117474   6.501   2.515   1.364
 5525SOL    HW217475   6.414   2.415   1.460
 5526SOL     OW17476   4.759   4.835   3.232
 5526SOL    HW117477   4.666   4.859   3.260
 5526SOL    HW217478   4.824   4.899   3.274
 5527SOL     OW17479   5.633   2.143   4.136
 5527SOL    HW117480   5.637   2.183   4.228
 5527SOL    HW217481   5.604   2.213   4.070
 5528SOL     OW17482   1.009   1.848   1.613
 5528SOL    HW117483   1.055   1.936   1.600
 5528SOL    HW217484   1.077   1.775   1.619
 5529SOL     OW17485   3.772   0.631   2.182
 5529SOL    HW117486   3.831   0.636   2.262
 5529SOL    HW217487   3.819   0.669   2.103
 5530SOL     OW17488   6.689   2.551   1.355
 5530SOL    HW117489   6.707   2.453   1.367
 5530SOL    HW217490   6.776   2.600   1.351
 5531SOL     OW17491   3.165   3.961   1.028
 5531SOL    HW117492   3.189   3.886   1.090
 5531SOL    HW217493   3.185   4.048   1.072
 5532SOL     OW17494   1.694   3.104   1.505
 5532SOL    HW117495   1.716   3.009   1.529
 5532SOL    HW217496   1.735   3.165   1.573
 5533SOL     OW17497   4.077   1.562   3.717
 5533SOL    HW117498   4.087   1.552   3.816
 5533SOL    HW217499   4.160   1.602   3.679
 5534SOL     OW17500   1.217   1.255   4.753
 5534SOL    HW117501   1.224   1.315   4.673
 5534SOL    HW217502   1.294   1.191   4.753
 5535SOL     OW17503   0.809   2.029   3.380
 5535SOL    HW117504   0.885   2.073   3.426
 5535SOL    HW217505   0.724   2.048   3.429
 5536SOL     OW17506   3.221   0.355   4.300
 5536SOL    HW117507   3.169   0.437   4.323
 5536SOL    HW217508   3.193   0.321   4.210
 5537SOL     OW17509   2.970   1.125   2.772
 5537SOL    HW117510   2.984   1.081   2.683
 5537SOL    HW217511   2.893   1.188   2.766
 5538SOL     OW17512   4.772   5.910   4.524
 5538SOL    HW117513   4.708   5.919   4.600
 5538SOL    HW217514   4.811   5.818   4.524
 5539SOL     OW17515   2.767   2.867   0.865
 5539SOL    HW117516   2.714   2.890   0.784
 5539SOL    HW217517   2.704   2.843   0.940
 5540SOL     OW17518   5.362   4.555   2.614
 5540SOL    HW117519   5.446   4.519   2.656
 5540SOL    HW217520   5.283   4.524   2.667
 5541SOL     OW17521   4.543   1.239   5.608
 5541SOL    HW117522   4.461   1.275   5.654
 5541SOL    HW217523   4.522   1.220   5.512
 5542SOL     OW17524   4.688   4.459   6.342
 5542SOL    HW117525   4.767   4.511   6.312
 5542SOL    HW217526   4.657   4.399   6.268
 5543SOL     OW17527   6.427   2.409   5.749
 5543SOL    HW117528   6.435   2.480   5.819
 5543SOL    HW217529   6.403   2.322   5.792
 5544SOL     OW17530   5.815   0.956   6.003
 5544SOL    HW117531   5.903   0.971   5.958
 5544SOL    HW217532   5.746   0.930   5.936
 5545SOL     OW17533   2.924   2.184   2.196
 5545SOL    HW117534   3.023   2.182   2.208
 5545SOL    HW217535   2.901   2.240   2.117
 5546SOL     OW17536   1.706   4.900   5.806
 5546SOL    HW117537   1.757   4.854   5.734
 5546SOL    HW217538   1.622   4.850   5.825
 5547SOL     OW17539   3.625   5.643   4.525
 5547SOL    HW117540   3.604   5.669   4.431
 5547SOL    HW217541   3.540   5.619   4.572
 5548SOL     OW17542   6.194   3.387   5.219
 5548SOL    HW117543   6.261   3.453   5.252
 5548SOL    HW217544   6.209   3.299   5.264
 5549SOL     OW17545   2.490   4.951   0.012
 5549SOL    HW117546   2.500   4.852   0.020
 5549SOL    HW217547   2.571   4.990   6.987
 5550SOL     OW17548   4.270   6.548   1.369
 5550SOL    HW117549   4.240   6.637   1.334
 5550SOL    HW217550   4.277   6.552   1.468
 5551SOL     OW17551   0.932   1.472   2.854
 5551SOL    HW117552   0.932   1.546   2.921
 5551SOL    HW217553   0.926   1.384   2.900
 5552SOL     OW17554   0.201   2.611   1.706
 5552SOL    HW117555   0.206   2.611   1.806
 5552SOL    HW217556   0.210   2.705   1.673
 5553SOL     OW17557   5.077   5.625   0.468
 5553SOL    HW117558   5.075   5.633   0.567
 5553SOL    HW217559   5.128   5.701   0.429
 5554SOL     OW17560   2.892   2.212   4.556
 5554SOL    HW117561   2.871   2.116   4.575
 5554SOL    HW217562   2.987   2.230   4.580
 5555SOL     OW17563   0.400   5.774   2.711
 5555SOL    HW117564   0.317   5.718   2.713
 5555SOL    HW217565   0.388   5.850   2.647
 5556SOL     OW17566   6.999   1.069   4.754
 5556SOL    HW117567   6.953   0.981   4.736
 5556SOL    HW217568   0.026   1.065   4.842
 5557SOL     OW17569   2.272   0.200   3.619
 5557SOL    HW117570   2.325   0.138   3.676
 5557SOL    HW217571   2.334   0.252   3.560
 5558SOL     OW17572   5.177   2.740   4.985
 5558SOL    HW117573   5.182   2.779   5.077
 5558SOL    HW217574   5.085   2.705   4.969
 5559SOL     OW17575   2.368   0.642   1.288
 5559SOL    HW117576   2.301   0.614   1.219
 5559SOL    HW217577   2.390   0.565   1.347
 5560SOL     OW17578   0.176   0.867   4.225
 5560SOL    HW117579   0.094   0.847   4.172
 5560SOL    HW217580   0.210   0.958   4.201
 5561SOL     OW17581   1.632   3.053   3.753
 5561SOL    HW117582   1.626   3.126   3.685
 5561SOL    HW217583   1.651   2.966   3.707
 5562SOL     OW17584   2.693   2.417   5.789
 5562SOL    HW117585   2.668   2.493   5.849
 5562SOL    HW217586   2.670   2.330   5.833
 5563SOL     OW17587   4.295   5.636   1.428
 5563SOL    HW117588   4.287   5.554   1.371
 5563SOL    HW217589   4.384   5.678   1.415
 5564SOL     OW17590   5.405   4.463   1.698
 5564SOL    HW117591   5.435   4.486   1.606
 5564SOL    HW217592   5.315   4.419   1.693
 5565SOL     OW17593   3.375   3.686   5.361
 5565SOL    HW117594   3.392   3.618   5.290
 5565SOL    HW217595   3.280   3.717   5.356
 5566SOL     OW17596   2.017   4.745   1.058
 5566SOL    HW117597   1.940   4.785   1.108
 5566SOL    HW217598   2.084   4.709   1.122
 5567SOL     OW17599   1.345   5.185   2.188
 5567SOL    HW117600   1.389   5.200   2.099
 5567SOL    HW217601   1.286   5.262   2.209
 5568SOL     OW17602   3.214   2.495   1.508
 5568SOL    HW117603   3.164   2.435   1.445
 5568SOL    HW217604   3.311   2.492   1.486
 5569SOL     OW17605   5.638   1.870   6.954
 5569SOL    HW117606   5.685   1.876   6.866
 5569SOL    HW217607   5.639   1.959   6.999
 5570SOL     OW17608   6.730   4.403   6.049
 5570SOL    HW117609   6.676   4.486   6.032
 5570SOL    HW217610   6.669   4.328   6.072
 5571SOL     OW17611   6.767   4.736   5.791
 5571SOL    HW117612   6.846   4.786   5.826
 5571SOL    HW217613   6.704   4.717   5.866
 5572SOL     OW17614   5.200   2.683   5.679
 5572SOL    HW117615   5.123   2.698   5.742
 5572SOL    HW217616   5.273   2.748   5.699
 5573SOL     OW17617   0.923   3.914   0.694
 5573SOL    HW117618   0.980   3.967   0.757
 5573SOL    HW217619   0.973   3.832   0.665
 5574SOL     OW17620   0.376   6.002   4.550
 5574SOL    HW117621   0.310   5.930   4.569
 5574SOL    HW217622   0.469   5.965   4.557
 5575SOL     OW17623   2.005   1.101   0.908
 5575SOL    HW117624   2.007   1.068   1.003
 5575SOL    HW217625   1.925   1.159   0.895
 5576SOL     OW17626   6.066   6.159   6.785
 5576SOL    HW117627   6.055   6.252   6.820
 5576SOL    HW217628   6.162   6.143   6.763
 5577SOL     OW17629   2.052   3.859   5.487
 5577SOL    HW117630   1.973   3.799   5.503
 5577SOL    HW217631   2.067   3.867   5.388
 5578SOL     OW17632   3.957   2.506   6.367
 5578SOL    HW117633   4.010   2.570   6.310
 5578SOL    HW217634   3.878   2.474   6.315
 5579SOL     OW17635   4.866   4.743   0.179
 5579SOL    HW117636   4.838   4.677   0.249
 5579SOL    HW217637   4.819   4.830   0.194
 5580SOL     OW17638   5.858   1.556   0.893
 5580SOL    HW117639   5.832   1.468   0.854
 5580SOL    HW217640   5.844   1.628   0.825
 5581SOL     OW17641   3.001   2.533   6.988
 5581SOL    HW117642   2.960   2.534   6.897
 5581SOL    HW217643   2.963   2.457   0.022
 5582SOL     OW17644   3.791   3.560   3.465
 5582SOL    HW117645   3.717   3.522   3.410
 5582SOL    HW217646   3.858   3.604   3.406
 5583SOL     OW17647   3.930   0.260   0.916
 5583SOL    HW117648   3.865   0.312   0.860
 5583SOL    HW217649   3.992   0.209   0.857
 5584SOL     OW17650   6.224   2.736   3.231
 5584SOL    HW117651   6.308   2.768   3.188
 5584SOL    HW217652   6.159   2.812   3.239
 5585SOL     OW17653   6.041   6.855   4.420
 5585SOL    HW117654   6.096   6.937   4.406
 5585SOL    HW217655   6.085   6.797   4.488
 5586SOL     OW17656   2.151   0.779   6.382
 5586SOL    HW117657   2.234   0.835   6.380
 5586SOL    HW217658   2.121   0.768   6.477
 5587SOL     OW17659   3.235   6.831   4.030
 5587SOL    HW117660   3.207   6.906   3.970
 5587SOL    HW217661   3.160   6.765   4.038
 5588SOL     OW17662   4.236   0.357   6.663
 5588SOL    HW117663   4.335   0.375   6.663
 5588SOL    HW217664   4.219   0.262   6.635
 5589SOL     OW17665   4.229   3.388   6.333
 5589SOL    HW117666   4.271   3.301   6.359
 5589SOL    HW217667   4.213   3.443   6.415
 5590SOL     OW17668   0.138   6.752   3.235
 5590SOL    HW117669   0.194   6.826   3.272
 5590SOL    HW217670   0.075   6.720   3.306
 5591SOL     OW17671   5.009   0.787   0.240
 5591SOL    HW117672   4.946   0.716   0.210
 5591SOL    HW217673   5.103   0.759   0.217
 5592SOL     OW17674   2.023   2.078   2.613
 5592SOL    HW117675   2.010   2.002   2.550
 5592SOL    HW217676   1.961   2.068   2.691
 5593SOL     OW17677   1.758   3.317   5.083
 5593SOL    HW117678   1.782   3.318   4.986
 5593SOL    HW217679   1.671   3.269   5.095
 5594SOL     OW17680   2.860   0.792   6.870
 5594SOL    HW117681   2.818   0.709   6.833
 5594SOL    HW217682   2.907   0.771   6.955
 5595SOL     OW17683   0.146   1.108   5.105
 5595SOL    HW117684   0.084   1.030   5.109
 5595SOL    HW217685   0.199   1.114   5.190
 5596SOL     OW17686   5.395   1.813   3.014
 5596SOL    HW117687   5.393   1.912   3.009
 5596SOL    HW217688   5.419   1.784   3.107
 5597SOL     OW17689   0.364   1.063   5.930
 5597SOL    HW117690   0.301   1.058   6.007
 5597SOL    HW217691   0.432   1.134   5.947
 5598SOL     OW17692   6.701   2.383   4.260
 5598SOL    HW117693   6.781   2.323   4.260
 5598SOL    HW217694   6.617   2.328   4.261
 5599SOL     OW17695   5.002   2.737   3.136
 5599SOL    HW117696   4.939   2.681   3.081
 5599SOL    HW217697   5.045   2.805   3.077
 5600SOL     OW17698   2.669   1.157   1.921
 5600SOL    HW117699   2.591   1.131   1.978
 5600SOL    HW217700   2.740   1.087   1.926
 5601SOL     OW17701   6.205   2.895   5.483
 5601SOL    HW117702   6.191   2.826   5.412
 5601SOL    HW217703   6.272   2.862   5.549
 5602SOL     OW17704   6.770   2.438   2.940
 5602SOL    HW117705   6.861   2.425   2.900
 5602SOL    HW217706   6.717   2.353   2.931
 5603SOL     OW17707   4.377   1.143   5.390
 5603SOL    HW117708   4.318   1.224   5.391
 5603SOL    HW217709   4.331   1.069   5.340
 5604SOL     OW17710   0.784   0.344   3.816
 5604SOL    HW117711   0.782   0.274   3.887
 5604SOL    HW217712   0.798   0.434   3.859
 5605SOL     OW17713   4.364   6.782   4.335
 5605SOL    HW117714   4.444   6.793   4.276
 5605SOL    HW217715   4.337   6.686   4.338
 5606SOL     OW17716   4.977   2.972   0.384
 5606SOL    HW117717   4.904   2.904   0.378
 5606SOL    HW217718   4.939   3.063   0.375
 5607SOL     OW17719   6.613   2.695   2.404
 5607SOL    HW117720   6.524   2.685   2.448
 5607SOL    HW217721   6.613   2.777   2.347
 5608SOL     OW17722   4.787   0.737   3.072
 5608SOL    HW117723   4.800   0.753   3.170
 5608SOL    HW217724   4.876   0.737   3.027
 5609SOL     OW17725   0.400   0.271   0.473
 5609SOL    HW117726   0.323   0.306   0.420
 5609SOL    HW217727   0.377   0.275   0.570
 5610SOL     OW17728   5.408   4.784   1.152
 5610SOL    HW117729   5.446   4.841   1.225
 5610SOL    HW217730   5.320   4.746   1.181
 5611SOL     OW17731   6.359   5.298   1.834
 5611SOL    HW117732   6.366   5.329   1.739
 5611SOL    HW217733   6.450   5.277   1.870
 5612SOL     OW17734   3.425   1.796   0.716
 5612SOL    HW117735   3.487   1.821   0.790
 5612SOL    HW217736   3.351   1.739   0.751
 5613SOL     OW17737   5.783   4.627   6.025
 5613SOL    HW117738   5.880   4.631   6.048
 5613SOL    HW217739   5.733   4.588   6.103
 5614SOL     OW17740   5.286   3.567   3.840
 5614SOL    HW117741   5.337   3.484   3.817
 5614SOL    HW217742   5.241   3.556   3.928
 5615SOL     OW17743   6.972   2.304   3.158
 5615SOL    HW117744   0.019   2.349   3.098
 5615SOL    HW217745   7.007   2.305   3.252
 5616SOL     OW17746   1.619   3.160   2.322
 5616SOL    HW117747   1.617   3.064   2.352
 5616SOL    HW217748   1.710   3.197   2.338
 5617SOL     OW17749   1.910   5.039   5.930
 5617SOL    HW117750   1.830   4.990   5.897
 5617SOL    HW217751   1.993   4.994   5.897
 5618SOL     OW17752   5.761   6.657   2.608
 5618SOL    HW117753   5.841   6.701   2.567
 5618SOL    HW217754   5.715   6.602   2.539
 5619SOL     OW17755   3.940   3.142   3.580
 5619SOL    HW117756   3.888   3.077   3.525
 5619SOL    HW217757   3.951   3.106   3.672
 5620SOL     OW17758   5.287   4.096   5.114
 5620SOL    HW117759   5.373   4.111   5.162
 5620SOL    HW217760   5.244   4.185   5.095
 5621SOL     OW17761   0.857   2.067   5.881
 5621SOL    HW117762   0.810   2.005   5.944
 5621SOL    HW217763   0.793   2.139   5.851
 5622SOL     OW17764   4.721   6.074   3.564
 5622SOL    HW117765   4.790   6.031   3.505
 5622SOL    HW217766   4.707   6.016   3.644
 5623SOL     OW17767   4.908   5.322   4.126
 5623SOL    HW117768   4.961   5.246   4.164
 5623SOL    HW217769   4.909   5.316   4.027
 5624SOL     OW17770   6.071   4.756   3.293
 5624SOL    HW117771   6.144   4.710   3.244
 5624SOL    HW217772   6.104   4.844   3.328
 5625SOL     OW17773   1.644   6.177   5.698
 5625SOL    HW117774   1.715   6.185   5.768
 5625SOL    HW217775   1.581   6.103   5.722
 5626SOL     OW17776   0.776   4.917   6.482
 5626SOL    HW117777   0.734   4.874   6.562
 5626SOL    HW217778   0.872   4.887   6.475
 5627SOL     OW17779   0.659   5.803   0.164
 5627SOL    HW117780   0.703   5.728   0.214
 5627SOL    HW217781   0.580   5.767   0.114
 5628SOL     OW17782   2.582   2.804   1.067
 5628SOL    HW117783   2.495   2.847   1.090
 5628SOL    HW217784   2.654   2.841   1.125
 5629SOL     OW17785   5.768   3.375   2.631
 5629SOL    HW117786   5.742   3.424   2.547
 5629SOL    HW217787   5.751   3.277   2.618
 5630SOL     OW17788   0.999   3.918   6.337
 5630SOL    HW117789   1.088   3.876   6.318
 5630SOL    HW217790   0.996   4.010   6.299
 5631SOL     OW17791   3.679   1.760   1.912
 5631SOL    HW117792   3.691   1.846   1.862
 5631SOL    HW217793   3.629   1.778   1.997
 5632SOL     OW17794   5.133   6.987   5.764
 5632SOL    HW117795   5.110   0.017   5.848
 5632SOL    HW217796   5.228   6.955   5.769
 5633SOL     OW17797   0.715   4.766   5.301
 5633SOL    HW117798   0.814   4.755   5.309
 5633SOL    HW217799   0.674   4.762   5.392
 5634SOL     OW17800   2.313   7.017   1.038
 5634SOL    HW117801   2.336   6.919   1.039
 5634SOL    HW217802   2.377   0.048   1.097
 5635SOL     OW17803   2.753   0.307   0.531
 5635SOL    HW117804   2.735   0.212   0.505
 5635SOL    HW217805   2.703   0.328   0.615
 5636SOL     OW17806   5.493   1.335   5.447
 5636SOL    HW117807   5.411   1.299   5.402
 5636SOL    HW217808   5.570   1.274   5.429
 5637SOL     OW17809   5.024   6.442   4.342
 5637SOL    HW117810   5.080   6.419   4.422
 5637SOL    HW217811   4.930   6.409   4.357
 5638SOL     OW17812   6.146   5.181   0.918
 5638SOL    HW117813   6.080   5.148   0.986
 5638SOL    HW217814   6.132   5.278   0.902
 5639SOL     OW17815   2.101   0.296   1.311
 5639SOL    HW117816   2.082   0.390   1.341
 5639SOL    HW217817   2.122   0.240   1.391
 5640SOL     OW17818   3.147   6.341   2.696
 5640SOL    HW117819   3.111   6.400   2.623
 5640SOL    HW217820   3.082   6.268   2.715
 5641SOL     OW17821   0.680   4.505   4.015
 5641SOL    HW117822   0.664   4.580   3.951
 5641SOL    HW217823   0.727   4.430   3.969
 5642SOL     OW17824   1.710   4.323   0.116
 5642SOL    HW117825   1.794   4.291   0.073
 5642SOL    HW217826   1.635   4.324   0.049
 5643SOL     OW17827   4.537   2.079   5.248
 5643SOL    HW117828   4.457   2.102   5.192
 5643SOL    HW217829   4.572   1.990   5.221
 5644SOL     OW17830   4.158   1.113   4.788
 5644SOL    HW117831   4.138   1.125   4.885
 5644SOL    HW217832   4.236   1.170   4.762
 5645SOL     OW17833   6.056   5.759   4.090
 5645SOL    HW117834   6.093   5.674   4.126
 5645SOL    HW217835   6.045   5.825   4.164
 5646SOL     OW17836   0.407   5.717   4.292
 5646SOL    HW117837   0.456   5.799   4.320
 5646SOL    HW217838   0.320   5.743   4.249
 5647SOL     OW17839   5.638   5.049   6.418
 5647SOL    HW117840   5.597   5.137   6.443
 5647SOL    HW217841   5.653   5.045   6.320
 5648SOL     OW17842   2.185   1.855   5.193
 5648SOL    HW117843   2.104   1.848   5.135
 5648SOL    HW217844   2.181   1.785   5.265
 5649SOL     OW17845   1.080   0.578   5.439
 5649SOL    HW117846   1.051   0.674   5.443
 5649SOL    HW217847   1.089   0.550   5.343
 5650SOL     OW17848   6.413   4.823   6.971
 5650SOL    HW117849   6.372   4.899   6.920
 5650SOL    HW217850   6.370   4.737   6.943
 5651SOL     OW17851   6.386   1.264   2.916
 5651SOL    HW117852   6.345   1.232   2.831
 5651SOL    HW217853   6.381   1.193   2.986
 5652SOL     OW17854   4.800   4.848   0.541
 5652SOL    HW117855   4.743   4.808   0.469
 5652SOL    HW217856   4.808   4.947   0.526
 5653SOL     OW17857   1.633   6.147   6.027
 5653SOL    HW117858   1.562   6.102   5.974
 5653SOL    HW217859   1.597   6.176   6.115
 5654SOL     OW17860   0.747   6.222   5.582
 5654SOL    HW117861   0.662   6.201   5.532
 5654SOL    HW217862   0.725   6.258   5.672
 5655SOL     OW17863   0.249   3.477   3.545
 5655SOL    HW117864   0.319   3.510   3.481
 5655SOL    HW217865   0.161   3.517   3.522
 5656SOL     OW17866   3.196   4.406   0.130
 5656SOL    HW117867   3.289   4.377   0.107
 5656SOL    HW217868   3.184   4.403   0.229
 5657SOL     OW17869   4.394   6.259   1.948
 5657SOL    HW117870   4.356   6.182   2.000
 5657SOL    HW217871   4.460   6.225   1.881
 5658SOL     OW17872   4.701   0.092   5.630
 5658SOL    HW117873   4.647   0.013   5.659
 5658SOL    HW217874   4.748   0.071   5.544
 5659SOL     OW17875   3.635   3.726   2.825
 5659SOL    HW117876   3.674   3.818   2.835
 5659SOL    HW217877   3.607   3.712   2.730
 5660SOL     OW17878   5.803   6.418   0.690
 5660SOL    HW117879   5.715   6.463   0.706
 5660SOL    HW217880   5.878   6.481   0.710
 5661SOL     OW17881   6.482   5.860   4.425
 5661SOL    HW117882   6.406   5.887   4.484
 5661SOL    HW217883   6.475   5.907   4.338
 5662SOL     OW17884   2.432   4.559   4.422
 5662SOL    HW117885   2.529   4.577   4.406
 5662SOL    HW217886   2.420   4.519   4.512
 5663SOL     OW17887   1.267   4.016   6.997
 5663SOL    HW117888   1.171   4.042   7.012
 5663SOL    HW217889   1.319   4.034   0.061
 5664SOL     OW17890   0.443   4.611   2.906
 5664SOL    HW117891   0.407   4.684   2.848
 5664SOL    HW217892   0.444   4.641   3.001
 5665SOL     OW17893   2.295   2.527   6.091
 5665SOL    HW117894   2.369   2.473   6.133
 5665SOL    HW217895   2.219   2.466   6.067
 5666SOL     OW17896   5.906   5.308   0.745
 5666SOL    HW117897   5.984   5.272   0.694
 5666SOL    HW217898   5.900   5.407   0.731
 5667SOL     OW17899   0.170   5.159   3.627
 5667SOL    HW117900   0.259   5.113   3.627
 5667SOL    HW217901   0.100   5.095   3.658
 5668SOL     OW17902   6.152   2.193   5.592
 5668SOL    HW117903   6.070   2.247   5.611
 5668SOL    HW217904   6.143   2.102   5.633
 5669SOL     OW17905   6.679   3.614   6.066
 5669SOL    HW117906   6.747   3.678   6.104
 5669SOL    HW217907   6.594   3.663   6.049
 5670SOL     OW17908   0.835   4.286   3.921
 5670SOL    HW117909   0.883   4.306   3.836
 5670SOL    HW217910   0.897   4.237   3.983
 5671SOL     OW17911   1.688   1.475   6.012
 5671SOL    HW117912   1.600   1.484   6.060
 5671SOL    HW217913   1.671   1.453   5.916
 5672SOL     OW17914   5.088   5.327   5.889
 5672SOL    HW117915   4.994   5.360   5.882
 5672SOL    HW217916   5.095   5.235   5.850
 5673SOL     OW17917   0.592   0.492   2.192
 5673SOL    HW117918   0.676   0.532   2.156
 5673SOL    HW217919   0.522   0.562   2.199
 5674SOL     OW17920   6.838   3.483   1.647
 5674SOL    HW117921   6.739   3.488   1.638
 5674SOL    HW217922   6.874   3.414   1.584
 5675SOL     OW17923   4.341   2.456   5.512
 5675SOL    HW117924   4.394   2.438   5.595
 5675SOL    HW217925   4.392   2.425   5.432
 5676SOL     OW17926   2.615   0.539   1.776
 5676SOL    HW117927   2.627   0.490   1.863
 5676SOL    HW217928   2.704   0.549   1.731
 5677SOL     OW17929   6.655   0.514   4.150
 5677SOL    HW117930   6.624   0.585   4.213
 5677SOL    HW217931   6.626   0.424   4.182
 5678SOL     OW17932   1.714   5.558   2.956
 5678SOL    HW117933   1.617   5.536   2.959
 5678SOL    HW217934   1.765   5.494   3.012
 5679SOL     OW17935   1.823   6.190   5.158
 5679SOL    HW117936   1.890   6.263   5.147
 5679SOL    HW217937   1.866   6.112   5.203
 5680SOL     OW17938   2.492   6.597   6.463
 5680SOL    HW117939   2.580   6.643   6.455
 5680SOL    HW217940   2.495   6.511   6.411
 5681SOL     OW17941   1.162   2.881   6.970
 5681SOL    HW117942   1.258   2.866   6.990
 5681SOL    HW217943   1.152   2.954   6.903
 5682SOL     OW17944   1.168   3.439   4.490
 5682SOL    HW117945   1.128   3.364   4.543
 5682SOL    HW217946   1.263   3.419   4.469
 5683SOL     OW17947   3.648   2.319   5.769
 5683SOL    HW117948   3.636   2.416   5.789
 5683SOL    HW217949   3.603   2.264   5.839
 5684SOL     OW17950   3.100   4.036   4.018
 5684SOL    HW117951   3.062   4.122   4.051
 5684SOL    HW217952   3.125   4.045   3.921
 5685SOL     OW17953   0.421   5.386   2.172
 5685SOL    HW117954   0.425   5.316   2.101
 5685SOL    HW217955   0.326   5.397   2.203
 5686SOL     OW17956   3.594   6.714   6.979
 5686SOL    HW117957   3.533   6.794   6.981
 5686SOL    HW217958   3.591   6.673   6.888
 5687SOL     OW17959   5.381   5.462   5.898
 5687SOL    HW117960   5.453   5.424   5.839
 5687SOL    HW217961   5.304   5.398   5.902
 5688SOL     OW17962   5.737   1.952   1.234
 5688SOL    HW117963   5.764   1.998   1.319
 5688SOL    HW217964   5.816   1.945   1.174
 5689SOL     OW17965   3.439   2.824   0.889
 5689SOL    HW117966   3.382   2.790   0.964
 5689SOL    HW217967   3.533   2.793   0.902
 5690SOL     OW17968   4.770   6.519   1.242
 5690SOL    HW117969   4.778   6.589   1.313
 5690SOL    HW217970   4.713   6.554   1.167
 5691SOL     OW17971   0.933   0.349   2.046
 5691SOL    HW117972   0.901   0.289   2.119
 5691SOL    HW217973   1.023   0.318   2.015
 5692SOL     OW17974   5.831   2.790   6.297
 5692SOL    HW117975   5.838   2.874   6.243
 5692SOL    HW217976   5.822   2.814   6.394
 5693SOL     OW17977   4.845   2.644   2.919
 5693SOL    HW117978   4.777   2.680   2.855
 5693SOL    HW217979   4.846   2.544   2.915
 5694SOL     OW17980   6.904   1.800   3.701
 5694SOL    HW117981   6.833   1.870   3.691
 5694SOL    HW217982   6.994   1.844   3.698
 5695SOL     OW17983   1.698   3.451   3.359
 5695SOL    HW117984   1.611   3.500   3.366
 5695SOL    HW217985   1.765   3.509   3.312
 5696SOL     OW17986   2.950   0.474   5.319
 5696SOL    HW117987   2.914   0.559   5.281
 5696SOL    HW217988   3.017   0.435   5.256
 5697SOL     OW17989   6.260   2.938   0.116
 5697SOL    HW117990   6.186   2.971   0.174
 5697SOL    HW217991   6.337   3.002   0.120
 5698SOL     OW17992   0.199   3.613   2.125
 5698SOL    HW117993   0.146   3.679   2.071
 5698SOL    HW217994   0.237   3.543   2.064
 5699SOL     OW17995   6.236   0.702   5.232
 5699SOL    HW117996   6.194   0.775   5.287
 5699SOL    HW217997   6.165   0.636   5.205
 5700SOL     OW17998   1.710   5.749   3.808
 5700SOL    HW117999   1.741   5.746   3.713
 5700SOL    HW218000   1.658   5.666   3.828
 5701SOL     OW18001   6.303   5.536   1.371
 5701SOL    HW118002   6.374   5.499   1.431
 5701SOL    HW218003   6.339   5.543   1.278
 5702SOL     OW18004   1.714   0.742   6.593
 5702SOL    HW118005   1.774   0.662   6.587
 5702SOL    HW218006   1.741   0.797   6.673
 5703SOL     OW18007   4.437   4.750   0.804
 5703SOL    HW118008   4.412   4.808   0.882
 5703SOL    HW218009   4.380   4.668   0.803
 5704SOL     OW18010   3.831   5.365   3.510
 5704SOL    HW118011   3.917   5.355   3.561
 5704SOL    HW218012   3.852   5.388   3.415
 5705SOL     OW18013   6.438   0.921   1.822
 5705SOL    HW118014   6.380   0.918   1.740
 5705SOL    HW218015   6.394   0.869   1.895
 5706SOL     OW18016   1.243   1.193   6.986
 5706SOL    HW118017   1.249   1.133   0.047
 5706SOL    HW218018   1.147   1.209   6.963
 5707SOL     OW18019   2.793   1.920   0.487
 5707SOL    HW118020   2.787   2.009   0.532
 5707SOL    HW218021   2.752   1.850   0.546
 5708SOL     OW18022   5.252   6.526   1.764
 5708SOL    HW118023   5.161   6.564   1.744
 5708SOL    HW218024   5.277   6.460   1.693
 5709SOL     OW18025   1.374   0.653   2.724
 5709SOL    HW118026   1.391   0.609   2.636
 5709SOL    HW218027   1.383   0.752   2.714
 5710SOL     OW18028   3.021   3.637   6.133
 5710SOL    HW118029   2.929   3.673   6.149
 5710SOL    HW218030   3.077   3.653   6.215
 5711SOL     OW18031   4.201   1.166   3.657
 5711SOL    HW118032   4.243   1.250   3.692
 5711SOL    HW218033   4.105   1.183   3.637
 5712SOL     OW18034   0.024   6.006   6.165
 5712SOL    HW118035   0.090   5.943   6.204
 5712SOL    HW218036   7.009   5.970   6.078
 5713SOL     OW18037   6.977   2.200   2.335
 5713SOL    HW118038   6.957   2.159   2.246
 5713SOL    HW218039   6.891   2.215   2.384
 5714SOL     OW18040   1.443   0.883   6.383
 5714SOL    HW118041   1.387   0.863   6.303
 5714SOL    HW218042   1.525   0.934   6.354
 5715SOL     OW18043   0.979   6.627   3.096
 5715SOL    HW118044   0.897   6.672   3.132
 5715SOL    HW218045   0.958   6.586   3.007
 5716SOL     OW18046   2.237   3.487   6.175
 5716SOL    HW118047   2.218   3.503   6.272
 5716SOL    HW218048   2.211   3.568   6.122
 5717SOL     OW18049   1.202   3.777   0.436
 5717SOL    HW118050   1.174   3.868   0.465
 5717SOL    HW218051   1.272   3.742   0.498
 5718SOL     OW18052   2.672   4.203   6.001
 5718SOL    HW118053   2.643   4.249   5.917
 5718SOL    HW218054   2.695   4.108   5.981
 5719SOL     OW18055   3.506   0.953   6.495
 5719SOL    HW118056   3.423   0.948   6.551
 5719SOL    HW218057   3.530   0.861   6.462
 5720SOL     OW18058   1.117   4.829   4.833
 5720SOL    HW118059   1.139   4.734   4.855
 5720SOL    HW218060   1.093   4.836   4.737
 5721SOL     OW18061   0.614   4.173   1.448
 5721SOL    HW118062   0.546   4.104   1.422
 5721SOL    HW218063   0.705   4.143   1.420
 5722SOL     OW18064   5.532   6.614   4.111
 5722SOL    HW118065   5.591   6.548   4.156
 5722SOL    HW218066   5.484   6.669   4.180
 5723SOL     OW18067   2.995   5.149   0.869
 5723SOL    HW118068   2.918   5.086   0.877
 5723SOL    HW218069   3.042   5.156   0.957
 5724SOL     OW18070   4.923   1.520   6.514
 5724SOL    HW118071   5.008   1.483   6.551
 5724SOL    HW218072   4.855   1.524   6.587
 5725SOL     OW18073   5.164   5.504   6.120
 5725SOL    HW118074   5.150   5.439   6.045
 5725SOL    HW218075   5.254   5.545   6.112
 5726SOL     OW18076   5.487   3.620   6.020
 5726SOL    HW118077   5.458   3.556   6.091
 5726SOL    HW218078   5.449   3.592   5.932
 5727SOL     OW18079   6.037   2.013   3.243
 5727SOL    HW118080   6.071   2.100   3.209
 5727SOL    HW218081   5.940   2.020   3.263
 5728SOL     OW18082   6.188   0.729   5.733
 5728SOL    HW118083   6.135   0.658   5.780
 5728SOL    HW218084   6.279   0.695   5.711
 5729SOL     OW18085   0.590   2.092   6.432
 5729SOL    HW118086   0.680   2.074   6.473
 5729SOL    HW218087   0.521   2.038   6.480
 5730SOL     OW18088   5.092   4.933   6.005
 5730SOL    HW118089   5.060   4.873   6.078
 5730SOL    HW218090   5.152   4.882   5.944
 5731SOL     OW18091   3.432   0.852   3.912
 5731SOL    HW118092   3.518   0.901   3.900
 5731SOL    HW218093   3.367   0.880   3.842
 5732SOL     OW18094   5.630   4.914   4.946
 5732SOL    HW118095   5.704   4.915   5.014
 5732SOL    HW218096   5.667   4.887   4.857
 5733SOL     OW18097   3.511   1.278   0.413
 5733SOL    HW118098   3.560   1.335   0.347
 5733SOL    HW218099   3.451   1.215   0.363
 5734SOL     OW18100   2.355   6.274   5.878
 5734SOL    HW118101   2.436   6.330   5.860
 5734SOL    HW218102   2.383   6.181   5.899
 5735SOL     OW18103   4.241   0.741   2.053
 5735SOL    HW118104   4.333   0.762   2.086
 5735SOL    HW218105   4.237   0.645   2.025
 5736SOL     OW18106   4.772   4.400   6.866
 5736SOL    HW118107   4.807   4.374   6.776
 5736SOL    HW218108   4.691   4.458   6.855
 5737SOL     OW18109   4.140   5.447   0.965
 5737SOL    HW118110   4.216   5.510   0.984
 5737SOL    HW218111   4.055   5.486   1.000
 5738SOL     OW18112   3.470   1.314   6.563
 5738SOL    HW118113   3.376   1.332   6.536
 5738SOL    HW218114   3.507   1.394   6.610
 5739SOL     OW18115   2.082   0.360   5.608
 5739SOL    HW118116   2.160   0.304   5.582
 5739SOL    HW218117   2.022   0.309   5.669
 5740SOL     OW18118   5.546   3.731   2.507
 5740SOL    HW118119   5.464   3.774   2.471
 5740SOL    HW218120   5.523   3.675   2.587
 5741SOL     OW18121   0.190   3.470   4.318
 5741SOL    HW118122   0.223   3.375   4.324
 5741SOL    HW218123   0.109   3.481   4.376
 5742SOL     OW18124   5.153   0.215   3.561
 5742SOL    HW118125   5.093   0.184   3.487
 5742SOL    HW218126   5.247   0.225   3.527
 5743SOL     OW18127   3.866   3.689   5.571
 5743SOL    HW118128   3.895   3.783   5.554
 5743SOL    HW218129   3.870   3.637   5.486
 5744SOL     OW18130   5.663   6.375   2.488
 5744SOL    HW118131   5.757   6.408   2.501
 5744SOL    HW218132   5.643   6.305   2.557
 5745SOL     OW18133   1.963   2.305   2.938
 5745SOL    HW118134   2.026   2.349   2.874
 5745SOL    HW218135   1.939   2.214   2.904
 5746SOL     OW18136   4.629   0.222   3.389
 5746SOL    HW118137   4.727   0.240   3.397
 5746SOL    HW218138   4.603   0.222   3.292
 5747SOL     OW18139   1.037   6.410   1.485
 5747SOL    HW118140   1.037   6.360   1.399
 5747SOL    HW218141   0.980   6.362   1.552
 5748SOL     OW18142   0.540   5.987   0.639
 5748SOL    HW118143   0.525   6.028   0.729
 5748SOL    HW218144   0.618   5.924   0.643
 5749SOL     OW18145   1.976   5.985   5.285
 5749SOL    HW118146   2.003   5.891   5.303
 5749SOL    HW218147   2.038   6.047   5.334
 5750SOL     OW18148   6.485   4.200   4.304
 5750SOL    HW118149   6.492   4.247   4.216
 5750SOL    HW218150   6.508   4.103   4.292
 5751SOL     OW18151   2.038   3.586   4.174
 5751SOL    HW118152   2.088   3.504   4.202
 5751SOL    HW218153   2.049   3.657   4.243
 5752SOL     OW18154   5.082   0.463   0.969
 5752SOL    HW118155   5.118   0.557   0.969
 5752SOL    HW218156   4.998   0.459   1.022
 5753SOL     OW18157   3.107   3.919   4.872
 5753SOL    HW118158   3.137   3.995   4.929
 5753SOL    HW218159   3.024   3.878   4.911
 5754SOL     OW18160   1.052   6.086   1.408
 5754SOL    HW118161   1.093   6.002   1.373
 5754SOL    HW218162   1.022   6.143   1.331
 5755SOL     OW18163   1.703   2.361   6.885
 5755SOL    HW118164   1.743   2.271   6.865
 5755SOL    HW218165   1.704   2.417   6.802
 5756SOL     OW18166   5.692   5.948   1.465
 5756SOL    HW118167   5.740   5.871   1.507
 5756SOL    HW218168   5.697   5.940   1.365
 5757SOL     OW18169   6.367   0.102   4.039
 5757SOL    HW118170   6.271   0.126   4.054
 5757SOL    HW218171   6.372   0.020   3.981
 5758SOL     OW18172   0.433   0.508   2.908
 5758SOL    HW118173   0.488   0.476   2.985
 5758SOL    HW218174   0.423   0.434   2.841
 5759SOL     OW18175   3.321   0.028   0.753
 5759SOL    HW118176   3.416   0.001   0.737
 5759SOL    HW218177   3.311   0.060   0.848
 5760SOL     OW18178   0.369   3.169   1.284
 5760SOL    HW118179   0.330   3.252   1.325
 5760SOL    HW218180   0.314   3.090   1.311
 5761SOL     OW18181   5.426   5.729   5.288
 5761SOL    HW118182   5.419   5.644   5.236
 5761SOL    HW218183   5.363   5.797   5.250
 5762SOL     OW18184   5.583   4.735   0.029
 5762SOL    HW118185   5.551   4.742   6.954
 5762SOL    HW218186   5.683   4.731   0.030
 5763SOL     OW18187   5.454   0.314   0.036
 5763SOL    HW118188   5.403   0.358   6.981
 5763SOL    HW218189   5.395   0.305   0.117
 5764SOL     OW18190   4.148   5.678   3.803
 5764SOL    HW118191   4.189   5.708   3.890
 5764SOL    HW218192   4.120   5.758   3.750
 5765SOL     OW18193   6.632   5.718   1.406
 5765SOL    HW118194   6.595   5.694   1.316
 5765SOL    HW218195   6.557   5.734   1.470
 5766SOL     OW18196   0.708   1.587   4.222
 5766SOL    HW118197   0.623   1.640   4.231
 5766SOL    HW218198   0.716   1.523   4.297
 5767SOL     OW18199   2.459   0.365   0.953
 5767SOL    HW118200   2.370   0.408   0.969
 5767SOL    HW218201   2.516   0.425   0.898
 5768SOL     OW18202   0.327   6.506   4.704
 5768SOL    HW118203   0.326   6.480   4.801
 5768SOL    HW218204   0.327   6.423   4.648
 5769SOL     OW18205   1.211   5.159   6.173
 5769SOL    HW118206   1.117   5.181   6.148
 5769SOL    HW218207   1.235   5.207   6.258
 5770SOL     OW18208   1.847   5.222   1.333
 5770SOL    HW118209   1.946   5.210   1.344
 5770SOL    HW218210   1.799   5.149   1.382
 5771SOL     OW18211   2.423   5.420   4.147
 5771SOL    HW118212   2.433   5.349   4.218
 5771SOL    HW218213   2.394   5.378   4.061
 5772SOL     OW18214   4.115   0.532   1.967
 5772SOL    HW118215   4.136   0.452   2.023
 5772SOL    HW218216   4.078   0.501   1.879
 5773SOL     OW18217   4.151   2.278   2.273
 5773SOL    HW118218   4.158   2.246   2.179
 5773SOL    HW218219   4.055   2.279   2.301
 5774SOL     OW18220   0.312   6.027   3.431
 5774SOL    HW118221   0.238   6.055   3.370
 5774SOL    HW218222   0.317   6.088   3.509
 5775SOL     OW18223   0.536   5.646   2.229
 5775SOL    HW118224   0.472   5.594   2.172
 5775SOL    HW218225   0.520   5.625   2.325
 5776SOL     OW18226   2.329   0.372   3.073
 5776SOL    HW118227   2.422   0.354   3.105
 5776SOL    HW218228   2.315   0.471   3.065
 5777SOL     OW18229   1.683   0.404   3.273
 5777SOL    HW118230   1.691   0.346   3.191
 5777SOL    HW218231   1.771   0.405   3.321
 5778SOL     OW18232   0.825   1.316   6.836
 5778SOL    HW118233   0.783   1.226   6.843
 5778SOL    HW218234   0.813   1.365   6.922
 5779SOL     OW18235   5.427   2.362   6.340
 5779SOL    HW118236   5.455   2.366   6.244
 5779SOL    HW218237   5.329   2.383   6.348
 5780SOL     OW18238   5.308   5.005   3.444
 5780SOL    HW118239   5.288   4.924   3.389
 5780SOL    HW218240   5.242   5.013   3.518
 5781SOL     OW18241   0.447   3.630   5.580
 5781SOL    HW118242   0.504   3.548   5.590
 5781SOL    HW218243   0.469   3.694   5.654
 5782SOL     OW18244   0.157   1.288   0.491
 5782SOL    HW118245   0.229   1.341   0.447
 5782SOL    HW218246   0.182   1.191   0.490
 5783SOL     OW18247   2.234   1.976   2.404
 5783SOL    HW118248   2.256   2.072   2.419
 5783SOL    HW218249   2.191   1.966   2.314
 5784SOL     OW18250   0.508   6.258   6.672
 5784SOL    HW118251   0.497   6.189   6.601
 5784SOL    HW218252   0.604   6.262   6.700
 5785SOL     OW18253   1.992   1.596   1.042
 5785SOL    HW118254   1.973   1.585   1.139
 5785SOL    HW218255   1.907   1.586   0.990
 5786SOL     OW18256   0.444   3.569   0.613
 5786SOL    HW118257   0.380   3.511   0.663
 5786SOL    HW218258   0.516   3.601   0.676
 5787SOL     OW18259   2.844   1.653   5.769
 5787SOL    HW118260   2.760   1.599   5.771
 5787SOL    HW218261   2.821   1.749   5.751
 5788SOL     OW18262   2.663   0.745   2.894
 5788SOL    HW118263   2.580   0.741   2.838
 5788SOL    HW218264   2.726   0.673   2.866
 5789SOL     OW18265   4.237   4.828   6.358
 5789SOL    HW118266   4.185   4.844   6.275
 5789SOL    HW218267   4.312   4.894   6.364
 5790SOL     OW18268   0.706   2.944   4.104
 5790SOL    HW118269   0.802   2.918   4.087
 5790SOL    HW218270   0.651   2.861   4.112
 5791SOL     OW18271   2.599   0.313   2.759
 5791SOL    HW118272   2.500   0.300   2.761
 5791SOL    HW218273   2.636   0.279   2.672
 5792SOL     OW18274   6.949   2.067   2.983
 5792SOL    HW118275   6.998   2.007   2.919
 5792SOL    HW218276   6.915   2.147   2.934
 5793SOL     OW18277   6.407   1.235   3.764
 5793SOL    HW118278   6.504   1.260   3.758
 5793SOL    HW218279   6.351   1.318   3.756
 5794SOL     OW18280   3.798   3.631   0.003
 5794SOL    HW118281   3.846   3.715   0.030
 5794SOL    HW218282   3.826   3.556   0.063
 5795SOL     OW18283   5.911   4.237   5.913
 5795SOL    HW118284   5.820   4.230   5.953
 5795SOL    HW218285   5.961   4.311   5.959
 5796SOL     OW18286   3.666   1.759   0.056
 5796SOL    HW118287   3.594   1.758   7.005
 5796SOL    HW218288   3.679   1.852   0.089
 5797SOL     OW18289   3.526   2.019   4.732
 5797SOL    HW118290   3.498   2.055   4.821
 5797SOL    HW218291   3.584   1.939   4.745
 5798SOL     OW18292   6.436   4.693   5.173
 5798SOL    HW118293   6.369   4.656   5.109
 5798SOL    HW218294   6.513   4.732   5.121
 5799SOL     OW18295   5.416   6.938   3.038
 5799SOL    HW118296   5.401   6.917   2.942
 5799SOL    HW218297   5.496   6.997   3.048
 5800SOL     OW18298   5.691   4.875   1.110
 5800SOL    HW118299   5.791   4.880   1.113
 5800SOL    HW218300   5.663   4.780   1.097
 5801SOL     OW18301   0.804   0.953   3.384
 5801SOL    HW118302   0.728   0.992   3.437
 5801SOL    HW218303   0.828   1.017   3.310
 5802SOL     OW18304   6.989   3.884   5.941
 5802SOL    HW118305   6.920   3.822   5.903
 5802SOL    HW218306   6.993   3.968   5.886
 5803SOL     OW18307   1.231   4.546   0.837
 5803SOL    HW118308   1.302   4.490   0.795
 5803SOL    HW218309   1.157   4.562   0.771
 5804SOL     OW18310   6.149   4.006   4.609
 5804SOL    HW118311   6.146   4.105   4.596
 5804SOL    HW218312   6.068   3.977   4.659
 5805SOL     OW18313   4.482   4.030   6.391
 5805SOL    HW118314   4.452   4.015   6.297
 5805SOL    HW218315   4.454   3.952   6.448
 5806SOL     OW18316   0.919   6.487   0.160
 5806SOL    HW118317   0.975   6.444   0.090
 5806SOL    HW218318   0.968   6.488   0.247
 5807SOL     OW18319   1.645   3.670   0.945
 5807SOL    HW118320   1.738   3.643   0.922
 5807SOL    HW218321   1.616   3.625   1.030
 5808SOL     OW18322   5.780   4.341   2.404
 5808SOL    HW118323   5.695   4.308   2.363
 5808SOL    HW218324   5.852   4.273   2.391
 5809SOL     OW18325   6.878   3.085   4.473
 5809SOL    HW118326   6.868   3.090   4.572
 5809SOL    HW218327   6.825   3.008   4.437
 5810SOL     OW18328   3.310   1.467   3.750
 5810SOL    HW118329   3.375   1.515   3.691
 5810SOL    HW218330   3.286   1.526   3.828
 5811SOL     OW18331   2.662   0.284   4.532
 5811SOL    HW118332   2.655   0.356   4.600
 5811SOL    HW218333   2.582   0.287   4.471
 5812SOL     OW18334   4.662   0.173   2.933
 5812SOL    HW118335   4.730   0.109   2.970
 5812SOL    HW218336   4.606   0.210   3.007
 5813SOL     OW18337   1.261   0.995   5.454
 5813SOL    HW118338   1.267   0.935   5.534
 5813SOL    HW218339   1.341   1.055   5.451
 5814SOL     OW18340   6.998   4.771   0.893
 5814SOL    HW118341   6.981   4.727   0.981
 5814SOL    HW218342   7.012   4.869   0.907
 5815SOL     OW18343   4.036   2.234   2.901
 5815SOL    HW118344   4.023   2.139   2.870
 5815SOL    HW218345   3.984   2.249   2.985
 5816SOL     OW18346   4.561   0.137   0.076
 5816SOL    HW118347   4.598   0.228   0.096
 5816SOL    HW218348   4.617   0.093   0.005
 5817SOL     OW18349   5.148   3.232   5.709
 5817SOL    HW118350   5.061   3.193   5.741
 5817SOL    HW218351   5.194   3.277   5.784
 5818SOL     OW18352   5.638   6.716   5.749
 5818SOL    HW118353   5.738   6.726   5.749
 5818SOL    HW218354   5.614   6.620   5.745
 5819SOL     OW18355   5.423   0.508   0.985
 5819SOL    HW118356   5.461   0.420   1.015
 5819SOL    HW218357   5.347   0.533   1.044
 5820SOL     OW18358   4.881   6.763   3.319
 5820SOL    HW118359   4.884   6.702   3.398
 5820SOL    HW218360   4.823   6.723   3.248
 5821SOL     OW18361   3.041   0.613   2.031
 5821SOL    HW118362   2.945   0.597   2.005
 5821SOL    HW218363   3.059   0.570   2.119
 5822SOL     OW18364   0.713   2.180   1.858
 5822SOL    HW118365   0.807   2.209   1.839
 5822SOL    HW218366   0.678   2.128   1.780
 5823SOL     OW18367   1.842   1.267   4.957
 5823SOL    HW118368   1.900   1.292   5.034
 5823SOL    HW218369   1.753   1.312   4.967
 5824SOL     OW18370   6.845   6.659   3.277
 5824SOL    HW118371   6.750   6.652   3.306
 5824SOL    HW218372   6.851   6.722   3.200
 5825SOL     OW18373   2.043   1.010   6.775
 5825SOL    HW118374   2.106   1.085   6.759
 5825SOL    HW218375   1.987   1.030   6.855
 5826SOL     OW18376   6.319   6.250   4.987
 5826SOL    HW118377   6.367   6.332   5.020
 5826SOL    HW218378   6.329   6.177   5.055
 5827SOL     OW18379   0.458   5.463   4.796
 5827SOL    HW118380   0.518   5.443   4.874
 5827SOL    HW218381   0.473   5.557   4.765
 5828SOL     OW18382   0.258   4.063   2.261
 5828SOL    HW118383   0.196   4.116   2.203
 5828SOL    HW218384   0.239   3.965   2.249
 5829SOL     OW18385   2.994   1.403   1.903
 5829SOL    HW118386   2.997   1.503   1.909
 5829SOL    HW218387   2.954   1.366   1.987
 5830SOL     OW18388   3.656   0.728   5.544
 5830SOL    HW118389   3.648   0.818   5.502
 5830SOL    HW218390   3.666   0.738   5.643
 5831SOL     OW18391   6.062   6.664   2.788
 5831SOL    HW118392   6.019   6.703   2.707
 5831SOL    HW218393   6.064   6.564   2.781
 5832SOL     OW18394   4.163   3.952   5.251
 5832SOL    HW118395   4.182   3.904   5.166
 5832SOL    HW218396   4.244   3.948   5.310
 5833SOL     OW18397   3.023   3.140   3.971
 5833SOL    HW118398   3.039   3.235   3.996
 5833SOL    HW218399   2.937   3.132   3.920
 5834SOL     OW18400   5.841   1.311   0.475
 5834SOL    HW118401   5.793   1.294   0.561
 5834SOL    HW218402   5.809   1.397   0.435
 5835SOL     OW18403   5.008   2.416   3.435
 5835SOL    HW118404   5.063   2.338   3.464
 5835SOL    HW218405   5.067   2.486   3.395
 5836SOL     OW18406   2.976   6.097   2.303
 5836SOL    HW118407   2.941   6.177   2.352
 5836SOL    HW218408   3.076   6.101   2.299
 5837SOL     OW18409   4.704   4.448   0.362
 5837SOL    HW118410   4.776   4.411   0.420
 5837SOL    HW218411   4.710   4.408   0.270
 5838SOL     OW18412   1.164   1.467   5.911
 5838SOL    HW118413   1.246   1.524   5.912
 5838SOL    HW218414   1.146   1.431   6.002
 5839SOL     OW18415   6.733   3.524   2.789
 5839SOL    HW118416   6.691   3.576   2.863
 5839SOL    HW218417   6.665   3.505   2.718
 5840SOL     OW18418   1.532   5.836   6.837
 5840SOL    HW118419   1.555   5.836   6.740
 5840SOL    HW218420   1.524   5.930   6.870
 5841SOL     OW18421   6.361   2.925   3.791
 5841SOL    HW118422   6.415   2.910   3.708
 5841SOL    HW218423   6.272   2.881   3.780
 5842SOL     OW18424   4.012   3.000   0.786
 5842SOL    HW118425   3.999   2.922   0.725
 5842SOL    HW218426   4.097   3.046   0.764
 5843SOL     OW18427   1.930   3.329   2.650
 5843SOL    HW118428   1.944   3.427   2.661
 5843SOL    HW218429   2.011   3.280   2.681
 5844SOL     OW18430   0.250   5.773   6.144
 5844SOL    HW118431   0.173   5.709   6.148
 5844SOL    HW218432   0.289   5.784   6.236
 5845SOL     OW18433   0.958   2.468   3.669
 5845SOL    HW118434   0.955   2.427   3.760
 5845SOL    HW218435   0.891   2.424   3.610
 5846SOL     OW18436   6.988   2.627   5.428
 5846SOL    HW118437   0.062   2.656   5.448
 5846SOL    HW218438   6.974   2.623   5.329
 5847SOL     OW18439   2.120   2.400   2.686
 5847SOL    HW118440   2.194   2.342   2.722
 5847SOL    HW218441   2.075   2.352   2.611
 5848SOL     OW18442   2.078   4.800   3.351
 5848SOL    HW118443   2.055   4.740   3.275
 5848SOL    HW218444   2.059   4.753   3.438
 5849SOL     OW18445   1.333   0.580   5.598
 5849SOL    HW118446   1.358   0.535   5.684
 5849SOL    HW218447   1.242   0.551   5.571
 5850SOL     OW18448   1.535   4.216   2.147
 5850SOL    HW118449   1.458   4.185   2.203
 5850SOL    HW218450   1.586   4.286   2.196
 5851SOL     OW18451   6.210   4.015   2.614
 5851SOL    HW118452   6.219   3.935   2.673
 5851SOL    HW218453   6.155   3.991   2.534
 5852SOL     OW18454   3.859   5.967   2.804
 5852SOL    HW118455   3.847   6.019   2.719
 5852SOL    HW218456   3.953   5.935   2.810
 5853SOL     OW18457   3.026   4.856   6.142
 5853SOL    HW118458   3.034   4.895   6.234
 5853SOL    HW218459   3.012   4.930   6.076
 5854SOL     OW18460   6.966   1.959   5.578
 5854SOL    HW118461   0.010   2.013   5.522
 5854SOL    HW218462   6.907   1.906   5.518
 5855SOL     OW18463   1.165   0.811   4.518
 5855SOL    HW118464   1.223   0.733   4.539
 5855SOL    HW218465   1.219   0.881   4.471
 5856SOL     OW18466   2.398   4.999   3.372
 5856SOL    HW118467   2.454   5.013   3.290
 5856SOL    HW218468   2.312   5.049   3.363
 5857SOL     OW18469   6.530   2.244   4.901
 5857SOL    HW118470   6.464   2.313   4.872
 5857SOL    HW218471   6.483   2.174   4.955
 5858SOL     OW18472   3.148   0.912   2.556
 5858SOL    HW118473   3.244   0.890   2.570
 5858SOL    HW218474   3.094   0.883   2.635
 5859SOL     OW18475   6.539   6.346   0.951
 5859SOL    HW118476   6.559   6.438   0.984
 5859SOL    HW218477   6.614   6.315   0.892
 5860SOL     OW18478   1.392   4.202   1.365
 5860SOL    HW118479   1.382   4.205   1.464
 5860SOL    HW218480   1.483   4.167   1.342
 5861SOL     OW18481   5.565   2.355   3.960
 5861SOL    HW118482   5.475   2.311   3.952
 5861SOL    HW218483   5.571   2.429   3.893
 5862SOL     OW18484   3.910   5.091   2.953
 5862SOL    HW118485   3.917   5.079   2.854
 5862SOL    HW218486   3.827   5.142   2.975
 5863SOL     OW18487   1.962   0.844   6.194
 5863SOL    HW118488   2.042   0.806   6.240
 5863SOL    HW218489   1.903   0.888   6.261
 5864SOL     OW18490   4.180   4.188   1.634
 5864SOL    HW118491   4.246   4.263   1.642
 5864SOL    HW218492   4.226   4.101   1.652
 5865SOL     OW18493   5.150   0.856   3.237
 5865SOL    HW118494   5.137   0.806   3.323
 5865SOL    HW218495   5.229   0.917   3.246
 5866SOL     OW18496   4.181   6.953   5.353
 5866SOL    HW118497   4.257   7.016   5.347
 5866SOL    HW218498   4.161   6.934   5.450
 5867SOL     OW18499   0.594   2.973   1.306
 5867SOL    HW118500   0.521   3.025   1.262
 5867SOL    HW218501   0.644   3.032   1.370
 5868SOL     OW18502   1.511   0.289   5.585
 5868SOL    HW118503   1.474   0.354   5.651
 5868SOL    HW218504   1.492   0.320   5.492
 5869SOL     OW18505   2.776   4.768   4.632
 5869SOL    HW118506   2.700   4.729   4.682
 5869SOL    HW218507   2.836   4.818   4.695
 5870SOL     OW18508   5.288   5.201   4.169
 5870SOL    HW118509   5.332   5.134   4.109
 5870SOL    HW218510   5.344   5.284   4.172
 5871SOL     OW18511   3.827   3.111   6.941
 5871SOL    HW118512   3.823   3.042   6.868
 5871SOL    HW218513   3.735   3.128   6.976
 5872SOL     OW18514   4.372   5.776   6.227
 5872SOL    HW118515   4.273   5.770   6.231
 5872SOL    HW218516   4.408   5.784   6.320
 5873SOL     OW18517   2.889   3.126   0.324
 5873SOL    HW118518   2.821   3.195   0.299
 5873SOL    HW218519   2.843   3.049   0.367
 5874SOL     OW18520   2.444   3.357   1.624
 5874SOL    HW118521   2.425   3.410   1.707
 5874SOL    HW218522   2.377   3.283   1.615
 5875SOL     OW18523   3.589   2.288   0.006
 5875SOL    HW118524   3.594   2.385   7.002
 5875SOL    HW218525   3.496   2.264   0.031
 5876SOL     OW18526   3.309   3.392   6.270
 5876SOL    HW118527   3.287   3.378   6.173
 5876SOL    HW218528   3.247   3.461   6.307
 5877SOL     OW18529   6.305   0.640   1.541
 5877SOL    HW118530   6.339   0.593   1.623
 5877SOL    HW218531   6.325   0.737   1.547
 5878SOL     OW18532   4.456   5.482   1.948
 5878SOL    HW118533   4.541   5.436   1.973
 5878SOL    HW218534   4.461   5.578   1.975
 5879SOL     OW18535   3.563   3.329   6.290
 5879SOL    HW118536   3.574   3.234   6.261
 5879SOL    HW218537   3.466   3.352   6.293
 5880SOL     OW18538   5.107   3.697   5.713
 5880SOL    HW118539   5.156   3.782   5.734
 5880SOL    HW218540   5.104   3.684   5.614
 5881SOL     OW18541   0.898   6.431   2.549
 5881SOL    HW118542   0.917   6.336   2.573
 5881SOL    HW218543   0.801   6.451   2.566
 5882SOL     OW18544   1.472   6.471   5.528
 5882SOL    HW118545   1.511   6.527   5.455
 5882SOL    HW218546   1.482   6.374   5.504
 5883SOL     OW18547   0.430   3.931   0.673
 5883SOL    HW118548   0.506   3.870   0.694
 5883SOL    HW218549   0.373   3.890   0.602
 5884SOL     OW18550   5.546   1.790   3.670
 5884SOL    HW118551   5.511   1.847   3.744
 5884SOL    HW218552   5.614   1.726   3.706
 5885SOL     OW18553   0.312   5.856   0.229
 5885SOL    HW118554   0.301   5.951   0.255
 5885SOL    HW218555   0.316   5.799   0.311
 5886SOL     OW18556   1.432   4.100   3.447
 5886SOL    HW118557   1.387   4.031   3.390
 5886SOL    HW218558   1.477   4.055   3.524
 5887SOL     OW18559   2.103   2.758   1.346
 5887SOL    HW118560   2.078   2.722   1.256
 5887SOL    HW218561   2.075   2.693   1.417
 5888SOL     OW18562   2.817   6.384   1.618
 5888SOL    HW118563   2.893   6.338   1.572
 5888SOL    HW218564   2.817   6.481   1.594
 5889SOL     OW18565   6.693   0.431   0.977
 5889SOL    HW118566   6.787   0.463   0.989
 5889SOL    HW218567   6.651   0.478   0.900
 5890SOL     OW18568   2.698   6.767   2.441
 5890SOL    HW118569   2.748   6.798   2.361
 5890SOL    HW218570   2.681   6.669   2.434
 5891SOL     OW18571   2.564   3.317   0.809
 5891SOL    HW118572   2.617   3.373   0.872
 5891SOL    HW218573   2.467   3.340   0.817
 5892SOL     OW18574   0.644   2.846   0.919
 5892SOL    HW118575   0.663   2.940   0.949
 5892SOL    HW218576   0.600   2.847   0.830
 5893SOL     OW18577   0.987   5.845   1.821
 5893SOL    HW118578   1.035   5.909   1.761
 5893SOL    HW218579   0.915   5.893   1.871
 5894SOL     OW18580   1.440   5.918   5.684
 5894SOL    HW118581   1.482   5.893   5.597
 5894SOL    HW218582   1.430   5.836   5.740
 5895SOL     OW18583   5.574   3.033   4.316
 5895SOL    HW118584   5.532   2.946   4.341
 5895SOL    HW218585   5.665   3.040   4.358
 5896SOL     OW18586   5.820   2.122   1.446
 5896SOL    HW118587   5.744   2.126   1.510
 5896SOL    HW218588   5.838   2.213   1.409
 5897SOL     OW18589   4.547   1.563   0.620
 5897SOL    HW118590   4.570   1.607   0.707
 5897SOL    HW218591   4.476   1.494   0.635
 5898SOL     OW18592   1.591   1.717   5.784
 5898SOL    HW118593   1.683   1.753   5.799
 5898SOL    HW218594   1.559   1.745   5.694
 5899SOL     OW18595   0.086   5.306   5.888
 5899SOL    HW118596   0.035   5.224   5.911
 5899SOL    HW218597   0.144   5.332   5.965
 5900SOL     OW18598   6.639   6.208   3.093
 5900SOL    HW118599   6.599   6.288   3.048
 5900SOL    HW218600   6.566   6.144   3.117
 5901SOL     OW18601   2.042   6.925   6.259
 5901SOL    HW118602   2.075   6.889   6.346
 5901SOL    HW218603   2.096   6.887   6.185
 5902SOL     OW18604   5.521   4.126   5.260
 5902SOL    HW118605   5.574   4.049   5.226
 5902SOL    HW218606   5.535   4.136   5.359
 5903SOL     OW18607   6.209   1.907   6.576
 5903SOL    HW118608   6.175   1.946   6.662
 5903SOL    HW218609   6.296   1.949   6.553
 5904SOL     OW18610   1.883   4.547   2.825
 5904SOL    HW118611   1.791   4.518   2.854
 5904SOL    HW218612   1.930   4.590   2.902
 5905SOL     OW18613   5.716   0.975   4.431
 5905SOL    HW118614   5.687   1.013   4.518
 5905SOL    HW218615   5.636   0.963   4.371
 5906SOL     OW18616   5.187   0.663   5.007
 5906SOL    HW118617   5.128   0.615   4.942
 5906SOL    HW218618   5.232   0.739   4.961
 5907SOL     OW18619   2.079   1.981   0.099
 5907SOL    HW118620   2.003   1.918   0.081
 5907SOL    HW218621   2.166   1.933   0.087
 5908SOL     OW18622   4.540   3.445   6.173
 5908SOL    HW118623   4.493   3.520   6.221
 5908SOL    HW218624   4.623   3.481   6.129
 5909SOL     OW18625   6.825   4.566   4.994
 5909SOL    HW118626   6.811   4.534   5.087
 5909SOL    HW218627   6.918   4.542   4.963
 5910SOL     OW18628   2.036   4.058   1.405
 5910SOL    HW118629   1.967   4.032   1.338
 5910SOL    HW218630   2.056   4.156   1.396
 5911SOL     OW18631   6.379   5.349   6.151
 5911SOL    HW118632   6.303   5.379   6.208
 5911SOL    HW218633   6.453   5.417   6.156
 5912SOL     OW18634   6.232   4.147   0.089
 5912SOL    HW118635   6.305   4.192   0.140
 5912SOL    HW218636   6.229   4.050   0.113
 5913SOL     OW18637   1.921   1.767   5.774
 5913SOL    HW118638   1.980   1.848   5.769
 5913SOL    HW218639   1.971   1.687   5.742
 5914SOL     OW18640   1.986   5.545   0.732
 5914SOL    HW118641   1.990   5.638   0.695
 5914SOL    HW218642   1.897   5.531   0.777
 5915SOL     OW18643   4.793   2.881   2.392
 5915SOL    HW118644   4.838   2.796   2.421
 5915SOL    HW218645   4.793   2.886   2.292
 5916SOL     OW18646   3.788   0.094   5.659
 5916SOL    HW118647   3.718   0.052   5.716
 5916SOL    HW218648   3.745   0.163   5.600
 5917SOL     OW18649   3.545   3.454   2.807
 5917SOL    HW118650   3.511   3.384   2.870
 5917SOL    HW218651   3.505   3.542   2.832
 5918SOL     OW18652   1.846   3.377   4.057
 5918SOL    HW118653   1.939   3.414   4.060
 5918SOL    HW218654   1.844   3.296   3.999
 5919SOL     OW18655   1.937   2.690   6.649
 5919SOL    HW118656   1.879   2.665   6.572
 5919SOL    HW218657   2.017   2.630   6.652
 5920SOL     OW18658   3.720   0.614   6.627
 5920SOL    HW118659   3.784   0.663   6.686
 5920SOL    HW218660   3.770   0.552   6.568
 5921SOL     OW18661   3.814   4.785   5.448
 5921SOL    HW118662   3.770   4.761   5.534
 5921SOL    HW218663   3.809   4.708   5.385
 5922SOL     OW18664   6.264   4.508   2.839
 5922SOL    HW118665   6.274   4.428   2.780
 5922SOL    HW218666   6.168   4.537   2.840
 5923SOL     OW18667   6.825   6.946   3.666
 5923SOL    HW118668   6.810   6.937   3.567
 5923SOL    HW218669   6.909   6.998   3.682
 5924SOL     OW18670   5.136   2.402   4.448
 5924SOL    HW118671   5.169   2.494   4.467
 5924SOL    HW218672   5.049   2.408   4.399
 5925SOL     OW18673   5.320   5.851   0.928
 5925SOL    HW118674   5.251   5.825   0.995
 5925SOL    HW218675   5.361   5.939   0.953
 5926SOL     OW18676   3.770   5.155   1.576
 5926SOL    HW118677   3.766   5.058   1.599
 5926SOL    HW218678   3.752   5.167   1.478
 5927SOL     OW18679   2.782   5.866   1.960
 5927SOL    HW118680   2.851   5.798   1.987
 5927SOL    HW218681   2.791   5.946   2.019
 5928SOL     OW18682   1.362   6.983   2.791
 5928SOL    HW118683   1.453   0.007   2.800
 5928SOL    HW218684   1.349   6.918   2.866
 5929SOL     OW18685   1.543   6.765   6.349
 5929SOL    HW118686   1.586   6.848   6.382
 5929SOL    HW218687   1.587   6.736   6.264
 5930SOL     OW18688   6.405   1.207   4.710
 5930SOL    HW118689   6.325   1.151   4.692
 5930SOL    HW218690   6.449   1.232   4.624
 5931SOL     OW18691   6.289   5.914   1.668
 5931SOL    HW118692   6.293   6.007   1.703
 5931SOL    HW218693   6.373   5.893   1.618
 5932SOL     OW18694   2.175   6.845   0.703
 5932SOL    HW118695   2.128   6.911   0.761
 5932SOL    HW218696   2.229   6.783   0.759
 5933SOL     OW18697   6.835   3.699   3.123
 5933SOL    HW118698   6.909   3.632   3.112
 5933SOL    HW218699   6.828   3.754   3.040
 5934SOL     OW18700   3.430   3.603   3.030
 5934SOL    HW118701   3.406   3.631   3.123
 5934SOL    HW218702   3.492   3.671   2.990
 5935SOL     OW18703   4.054   3.714   4.448
 5935SOL    HW118704   3.963   3.722   4.491
 5935SOL    HW218705   4.084   3.619   4.452
 5936SOL     OW18706   5.097   5.207   7.003
 5936SOL    HW118707   5.105   5.253   0.073
 5936SOL    HW218708   5.057   5.270   6.937
 5937SOL     OW18709   1.942   3.396   1.098
 5937SOL    HW118710   1.855   3.415   1.144
 5937SOL    HW218711   1.945   3.300   1.071
 5938SOL     OW18712   1.797   4.112   2.955
 5938SOL    HW118713   1.870   4.110   2.887
 5938SOL    HW218714   1.709   4.126   2.909
 5939SOL     OW18715   3.060   0.240   2.603
 5939SOL    HW118716   3.107   0.286   2.528
 5939SOL    HW218717   2.966   0.274   2.608
 5940SOL     OW18718   4.119   6.673   3.040
 5940SOL    HW118719   4.138   6.721   3.126
 5940SOL    HW218720   4.119   6.575   3.057
 5941SOL     OW18721   6.394   5.087   2.741
 5941SOL    HW118722   6.398   5.061   2.644
 5941SOL    HW218723   6.304   5.064   2.778
 5942SOL     OW18724   4.338   3.588   5.916
 5942SOL    HW118725   4.302   3.529   5.989
 5942SOL    HW218726   4.397   3.658   5.956
 5943SOL     OW18727   1.889   6.066   0.559
 5943SOL    HW118728   1.948   6.124   0.616
 5943SOL    HW218729   1.945   6.011   0.497
 5944SOL     OW18730   5.110   1.632   2.416
 5944SOL    HW118731   5.022   1.657   2.457
 5944SOL    HW218732   5.131   1.696   2.342
 5945SOL     OW18733   6.319   4.956   5.830
 5945SOL    HW118734   6.418   4.960   5.814
 5945SOL    HW218735   6.293   5.027   5.896
 5946SOL     OW18736   5.037   3.160   6.025
 5946SOL    HW118737   4.957   3.128   5.974
 5946SOL    HW218738   5.110   3.091   6.020
 5947SOL     OW18739   4.338   3.571   1.659
 5947SOL    HW118740   4.306   3.490   1.709
 5947SOL    HW218741   4.310   3.653   1.708
 5948SOL     OW18742   3.829   4.830   2.973
 5948SOL    HW118743   3.865   4.923   2.970
 5948SOL    HW218744   3.743   4.826   2.921
 5949SOL     OW18745   4.226   5.033   1.448
 5949SOL    HW118746   4.308   5.091   1.455
 5949SOL    HW218747   4.212   5.007   1.352
 5950SOL     OW18748   6.154   1.881   4.448
 5950SOL    HW118749   6.209   1.886   4.365
 5950SOL    HW218750   6.213   1.890   4.528
 5951SOL     OW18751   1.810   5.855   4.034
 5951SOL    HW118752   1.759   5.805   4.103
 5951SOL    HW218753   1.780   5.826   3.943
 5952SOL     OW18754   6.836   6.633   3.702
 5952SOL    HW118755   6.806   6.564   3.768
 5952SOL    HW218756   6.757   6.670   3.655
 5953SOL     OW18757   6.550   2.850   6.211
 5953SOL    HW118758   6.498   2.926   6.171
 5953SOL    HW218759   6.634   2.836   6.159
 5954SOL     OW18760   0.170   4.920   6.500
 5954SOL    HW118761   0.182   4.892   6.405
 5954SOL    HW218762   0.080   4.962   6.511
 5955SOL     OW18763   5.026   5.364   1.909
 5955SOL    HW118764   5.012   5.458   1.939
 5955SOL    HW218765   5.120   5.336   1.929
 5956SOL     OW18766   5.213   2.488   0.056
 5956SOL    HW118767   5.250   2.568   0.009
 5956SOL    HW218768   5.162   2.432   7.010
 5957SOL     OW18769   5.980   6.217   6.095
 5957SOL    HW118770   6.050   6.280   6.130
 5957SOL    HW218771   5.999   6.125   6.127
 5958SOL     OW18772   6.766   5.770   2.081
 5958SOL    HW118773   6.720   5.804   1.998
 5958SOL    HW218774   6.773   5.845   2.147
 5959SOL     OW18775   2.662   1.876   6.009
 5959SOL    HW118776   2.604   1.935   5.953
 5959SOL    HW218777   2.757   1.910   6.005
 5960SOL     OW18778   2.899   0.066   3.640
 5960SOL    HW118779   2.966   0.128   3.599
 5960SOL    HW218780   2.828   0.119   3.686
 5961SOL     OW18781   3.371   0.382   4.781
 5961SOL    HW118782   3.337   0.341   4.697
 5961SOL    HW218783   3.367   0.482   4.773
 5962SOL     OW18784   4.838   5.400   2.291
 5962SOL    HW118785   4.868   5.356   2.375
 5962SOL    HW218786   4.801   5.490   2.311
 5963SOL     OW18787   3.804   3.791   2.605
 5963SOL    HW118788   3.892   3.798   2.558
 5963SOL    HW218789   3.788   3.696   2.632
 5964SOL     OW18790   0.202   5.347   6.130
 5964SOL    HW118791   0.150   5.270   6.167
 5964SOL    HW218792   0.288   5.356   6.180
 5965SOL     OW18793   2.305   2.802   6.133
 5965SOL    HW118794   2.314   2.703   6.145
 5965SOL    HW218795   2.362   2.832   6.057
 5966SOL     OW18796   2.908   6.088   4.552
 5966SOL    HW118797   2.992   6.038   4.530
 5966SOL    HW218798   2.835   6.024   4.572
 5967SOL     OW18799   4.756   6.517   2.798
 5967SOL    HW118800   4.763   6.426   2.838
 5967SOL    HW218801   4.689   6.571   2.849
 5968SOL     OW18802   6.761   2.407   3.372
 5968SOL    HW118803   6.721   2.448   3.290
 5968SOL    HW218804   6.724   2.315   3.385
 5969SOL     OW18805   5.788   3.820   3.621
 5969SOL    HW118806   5.746   3.862   3.702
 5969SOL    HW218807   5.731   3.838   3.541
 5970SOL     OW18808   1.455   3.331   2.485
 5970SOL    HW118809   1.395   3.282   2.550
 5970SOL    HW218810   1.475   3.271   2.408
 5971SOL     OW18811   1.925   6.372   2.808
 5971SOL    HW118812   2.006   6.321   2.778
 5971SOL    HW218813   1.843   6.327   2.773
 5972SOL     OW18814   4.834   0.008   0.086
 5972SOL    HW118815   4.808   0.022   0.182
 5972SOL    HW218816   4.802   6.937   0.056
 5973SOL     OW18817   1.617   4.191   2.757
 5973SOL    HW118818   1.645   4.282   2.726
 5973SOL    HW218819   1.539   4.160   2.702
 5974SOL     OW18820   0.231   4.181   0.322
 5974SOL    HW118821   0.227   4.259   0.384
 5974SOL    HW218822   0.174   4.199   0.242
 5975SOL     OW18823   3.082   2.845   0.903
 5975SOL    HW118824   3.117   2.773   0.843
 5975SOL    HW218825   3.110   2.826   0.997
 5976SOL     OW18826   2.922   3.363   4.870
 5976SOL    HW118827   2.988   3.315   4.813
 5976SOL    HW218828   2.915   3.318   4.959
 5977SOL     OW18829   1.299   4.521   2.110
 5977SOL    HW118830   1.384   4.511   2.059
 5977SOL    HW218831   1.231   4.456   2.074
 5978SOL     OW18832   5.565   4.938   2.156
 5978SOL    HW118833   5.631   4.982   2.095
 5978SOL    HW218834   5.553   4.843   2.129
 5979SOL     OW18835   6.390   0.775   3.612
 5979SOL    HW118836   6.471   0.810   3.565
 5979SOL    HW218837   6.365   0.838   3.686
 5980SOL     OW18838   5.231   4.050   0.813
 5980SOL    HW118839   5.247   4.081   0.719
 5980SOL    HW218840   5.303   3.986   0.839
 5981SOL     OW18841   5.223   1.220   2.160
 5981SOL    HW118842   5.191   1.262   2.245
 5981SOL    HW218843   5.148   1.168   2.118
 5982SOL     OW18844   0.107   2.259   6.887
 5982SOL    HW118845   0.073   2.345   6.926
 5982SOL    HW218846   0.048   2.232   6.810
 5983SOL     OW18847   1.610   1.406   4.180
 5983SOL    HW118848   1.519   1.408   4.222
 5983SOL    HW218849   1.642   1.311   4.176
 5984SOL     OW18850   0.182   6.047   4.874
 5984SOL    HW118851   0.166   6.111   4.799
 5984SOL    HW218852   0.264   6.074   4.925
 5985SOL     OW18853   4.823   2.025   3.915
 5985SOL    HW118854   4.791   1.980   3.832
 5985SOL    HW218855   4.765   2.103   3.936
 5986SOL     OW18856   3.492   3.250   2.641
 5986SOL    HW118857   3.470   3.265   2.545
 5986SOL    HW218858   3.532   3.333   2.680
 5987SOL     OW18859   4.310   6.879   4.850
 5987SOL    HW118860   4.390   6.820   4.844
 5987SOL    HW218861   4.313   6.946   4.776
 5988SOL     OW18862   4.451   6.996   3.906
 5988SOL    HW118863   4.352   6.988   3.913
 5988SOL    HW218864   4.478   0.073   3.920
 5989SOL     OW18865   3.125   0.300   6.149
 5989SOL    HW118866   3.061   0.363   6.105
 5989SOL    HW218867   3.218   0.334   6.136
 5990SOL     OW18868   3.438   5.318   0.772
 5990SOL    HW118869   3.367   5.388   0.772
 5990SOL    HW218870   3.527   5.361   0.785
 5991SOL     OW18871   3.165   5.562   4.358
 5991SOL    HW118872   3.246   5.502   4.353
 5991SOL    HW218873   3.116   5.557   4.271
 5992SOL     OW18874   3.902   0.447   3.648
 5992SOL    HW118875   3.841   0.373   3.621
 5992SOL    HW218876   3.883   0.528   3.593
 5993SOL     OW18877   2.437   6.033   5.981
 5993SOL    HW118878   2.487   6.059   6.064
 5993SOL    HW218879   2.495   5.976   5.923
 5994SOL     OW18880   5.815   2.748   2.339
 5994SOL    HW118881   5.830   2.841   2.373
 5994SOL    HW218882   5.780   2.752   2.245
 5995SOL     OW18883   6.766   5.125   0.721
 5995SOL    HW118884   6.730   5.210   0.759
 5995SOL    HW218885   6.818   5.145   0.639
 5996SOL     OW18886   0.048   5.573   6.149
 5996SOL    HW118887   0.109   5.497   6.171
 5996SOL    HW218888   0.004   5.556   6.061
 5997SOL     OW18889   0.664   6.646   1.856
 5997SOL    HW118890   0.698   6.602   1.939
 5997SOL    HW218891   0.575   6.688   1.874
 5998SOL     OW18892   5.486   2.158   2.271
 5998SOL    HW118893   5.469   2.148   2.369
 5998SOL    HW218894   5.580   2.132   2.250
 5999SOL     OW18895   1.612   2.156   2.741
 5999SOL    HW118896   1.591   2.183   2.835
 5999SOL    HW218897   1.646   2.235   2.691
 6000SOL     OW18898   4.331   5.492   2.398
 6000SOL    HW118899   4.297   5.401   2.420
 6000SOL    HW218900   4.296   5.557   2.466
 6001SOL     OW18901   6.374   2.852   6.699
 6001SOL    HW118902   6.437   2.775   6.690
 6001SOL    HW218903   6.280   2.821   6.685
 6002SOL     OW18904   1.861   0.318   1.883
 6002SOL    HW118905   1.923   0.270   1.945
 6002SOL    HW218906   1.894   0.412   1.870
 6003SOL     OW18907   4.986   4.042   5.029
 6003SOL    HW118908   5.071   4.086   5.000
 6003SOL    HW218909   4.990   3.945   5.008
 6004SOL     OW18910   0.611   3.519   2.595
 6004SOL    HW118911   0.667   3.516   2.512
 6004SOL    HW218912   0.640   3.595   2.652
 6005SOL     OW18913   3.235   5.445   3.468
 6005SOL    HW118914   3.301   5.507   3.427
 6005SOL    HW218915   3.274   5.353   3.473
 6006SOL     OW18916   2.770   6.763   6.357
 6006SOL    HW118917   2.773   6.674   6.310
 6006SOL    HW218918   2.847   6.819   6.327
 6007SOL     OW18919   5.707   2.446   4.273
 6007SOL    HW118920   5.805   2.438   4.255
 6007SOL    HW218921   5.660   2.470   4.189
 6008SOL     OW18922   2.798   4.848   5.825
 6008SOL    HW118923   2.811   4.796   5.741
 6008SOL    HW218924   2.727   4.804   5.881
 6009SOL     OW18925   2.560   1.751   4.058
 6009SOL    HW118926   2.619   1.671   4.075
 6009SOL    HW218927   2.617   1.832   4.045
 6010SOL     OW18928   1.979   4.375   2.611
 6010SOL    HW118929   1.962   4.424   2.696
 6010SOL    HW218930   2.049   4.422   2.558
 6011SOL     OW18931   5.420   2.677   2.502
 6011SOL    HW118932   5.332   2.693   2.545
 6011SOL    HW218933   5.445   2.756   2.446
 6012SOL     OW18934   6.443   3.024   0.761
 6012SOL    HW118935   6.511   3.005   0.831
 6012SOL    HW218936   6.482   3.008   0.671
 6013SOL     OW18937   5.889   0.957   2.521
 6013SOL    HW118938   5.864   1.007   2.604
 6013SOL    HW218939   5.989   0.956   2.512
 6014SOL     OW18940   5.631   0.458   0.198
 6014SOL    HW118941   5.565   0.398   0.151
 6014SOL    HW218942   5.610   0.460   0.296
 6015SOL     OW18943   5.092   1.892   4.539
 6015SOL    HW118944   5.118   1.988   4.547
 6015SOL    HW218945   5.062   1.873   4.445
 6016SOL     OW18946   2.242   0.872   5.113
 6016SOL    HW118947   2.183   0.945   5.149
 6016SOL    HW218948   2.206   0.783   5.141
 6017SOL     OW18949   6.636   5.048   2.900
 6017SOL    HW118950   6.552   5.056   2.846
 6017SOL    HW218951   6.614   5.050   2.997
 6018SOL     OW18952   2.627   3.490   1.004
 6018SOL    HW118953   2.626   3.542   1.089
 6018SOL    HW218954   2.629   3.553   0.926
 6019SOL     OW18955   4.021   1.006   4.102
 6019SOL    HW118956   4.097   1.065   4.073
 6019SOL    HW218957   3.985   0.958   4.022
 6020SOL     OW18958   3.904   0.506   2.563
 6020SOL    HW118959   3.937   0.414   2.543
 6020SOL    HW218960   3.935   0.569   2.491
 6021SOL     OW18961   4.191   1.391   2.149
 6021SOL    HW118962   4.241   1.444   2.080
 6021SOL    HW218963   4.250   1.376   2.228
 6022SOL     OW18964   4.066   1.579   3.371
 6022SOL    HW118965   4.030   1.528   3.293
 6022SOL    HW218966   3.992   1.596   3.437
 6023SOL     OW18967   0.413   1.645   2.945
 6023SOL    HW118968   0.344   1.689   3.003
 6023SOL    HW218969   0.420   1.548   2.969
 6024SOL     OW18970   0.783   5.189   1.809
 6024SOL    HW118971   0.747   5.247   1.883
 6024SOL    HW218972   0.820   5.105   1.848
 6025SOL     OW18973   4.665   1.313   1.447
 6025SOL    HW118974   4.666   1.295   1.545
 6025SOL    HW218975   4.731   1.254   1.402
 6026SOL     OW18976   6.519   4.408   5.182
 6026SOL    HW118977   6.490   4.353   5.104
 6026SOL    HW218978   6.486   4.501   5.172
 6027SOL     OW18979   2.859   3.114   6.510
 6027SOL    HW118980   2.858   3.182   6.437
 6027SOL    HW218981   2.806   3.034   6.481
 6028SOL     OW18982   1.535   3.853   0.237
 6028SOL    HW118983   1.633   3.861   0.259
 6028SOL    HW218984   1.498   3.944   0.218
 6029SOL     OW18985   1.991   6.262   1.252
 6029SOL    HW118986   2.091   6.268   1.254
 6029SOL    HW218987   1.960   6.198   1.322
 6030SOL     OW18988   2.284   0.790   1.850
 6030SOL    HW118989   2.366   0.845   1.835
 6030SOL    HW218990   2.203   0.850   1.845
 6031SOL     OW18991   5.042   6.398   5.322
 6031SOL    HW118992   5.118   6.388   5.257
 6031SOL    HW218993   4.965   6.342   5.292
 6032SOL     OW18994   1.073   2.974   2.065
 6032SOL    HW118995   1.061   3.073   2.056
 6032SOL    HW218996   0.990   2.933   2.102
 6033SOL     OW18997   1.286   1.936   3.505
 6033SOL    HW118998   1.215   1.871   3.533
 6033SOL    HW218999   1.348   1.951   3.582
 6034SOL     OW19000   1.651   4.479   5.154
 6034SOL    HW119001   1.571   4.446   5.104
 6034SOL    HW219002   1.646   4.578   5.163
 6035SOL     OW19003   6.080   0.384   3.954
 6035SOL    HW119004   6.023   0.453   3.910
 6035SOL    HW219005   6.049   0.369   4.048
 6036SOL     OW19006   0.576   6.920   5.445
 6036SOL    HW119007   0.606   6.861   5.520
 6036SOL    HW219008   0.498   6.974   5.474
 6037SOL     OW19009   5.708   5.984   5.193
 6037SOL    HW119010   5.673   5.933   5.115
 6037SOL    HW219011   5.797   5.948   5.220
 6038SOL     OW19012   6.380   4.426   6.023
 6038SOL    HW119013   6.410   4.446   5.929
 6038SOL    HW219014   6.412   4.336   6.050
 6039SOL     OW19015   3.282   3.413   2.447
 6039SOL    HW119016   3.360   3.402   2.386
 6039SOL    HW219017   3.262   3.511   2.459
 6040SOL     OW19018   0.585   2.227   0.207
 6040SOL    HW119019   0.532   2.309   0.184
 6040SOL    HW219020   0.682   2.249   0.205
 6041SOL     OW19021   0.919   1.564   6.991
 6041SOL    HW119022   1.012   1.532   7.005
 6041SOL    HW219023   0.916   1.621   6.909
 6042SOL     OW19024   5.436   5.057   2.831
 6042SOL    HW119025   5.512   5.077   2.769
 6042SOL    HW219026   5.405   4.963   2.817
 6043SOL     OW19027   1.158   4.609   4.568
 6043SOL    HW119028   1.123   4.700   4.588
 6043SOL    HW219029   1.257   4.614   4.552
 6044SOL     OW19030   0.165   0.530   0.879
 6044SOL    HW119031   0.118   0.549   0.793
 6044SOL    HW219032   0.193   0.616   0.922
 6045SOL     OW19033   6.292   4.727   1.263
 6045SOL    HW119034   6.259   4.700   1.354
 6045SOL    HW219035   6.268   4.823   1.247
 6046SOL     OW19036   3.139   3.013   0.425
 6046SOL    HW119037   3.084   3.017   0.508
 6046SOL    HW219038   3.083   3.044   0.347
 6047SOL     OW19039   6.349   0.012   4.574
 6047SOL    HW119040   6.360   0.040   4.478
 6047SOL    HW219041   6.401   6.947   4.590
 6048SOL     OW19042   4.277   0.289   4.071
 6048SOL    HW119043   4.278   0.264   3.974
 6048SOL    HW219044   4.216   0.227   4.121
 6049SOL     OW19045   5.089   4.083   6.706
 6049SOL    HW119046   4.997   4.119   6.693
 6049SOL    HW219047   5.145   4.150   6.754
 6050SOL     OW19048   4.338   4.660   5.360
 6050SOL    HW119049   4.256   4.666   5.303
 6050SOL    HW219050   4.365   4.752   5.389
 6051SOL     OW19051   1.840   2.065   2.802
 6051SOL    HW119052   1.746   2.082   2.772
 6051SOL    HW219053   1.841   1.994   2.872
 6052SOL     OW19054   0.642   1.481   0.956
 6052SOL    HW119055   0.543   1.480   0.941
 6052SOL    HW219056   0.677   1.388   0.954
 6053SOL     OW19057   1.611   0.121   6.766
 6053SOL    HW119058   1.656   0.167   6.843
 6053SOL    HW219059   1.656   0.148   6.681
 6054SOL     OW19060   1.547   4.763   0.236
 6054SOL    HW119061   1.452   4.759   0.204
 6054SOL    HW219062   1.571   4.857   0.257
 6055SOL     OW19063   4.767   1.140   4.830
 6055SOL    HW119064   4.748   1.089   4.745
 6055SOL    HW219065   4.860   1.176   4.826
 6056SOL     OW19066   4.225   2.120   6.507
 6056SOL    HW119067   4.183   2.047   6.561
 6056SOL    HW219068   4.256   2.083   6.420
 6057SOL     OW19069   3.377   0.686   4.686
 6057SOL    HW119070   3.372   0.750   4.609
 6057SOL    HW219071   3.422   0.731   4.763
 6058SOL     OW19072   5.763   2.031   4.483
 6058SOL    HW119073   5.688   1.966   4.471
 6058SOL    HW219074   5.844   1.983   4.515
 6059SOL     OW19075   5.132   4.177   0.005
 6059SOL    HW119076   5.078   4.257   0.032
 6059SOL    HW219077   5.208   4.206   6.966
 6060SOL     OW19078   4.362   5.303   5.456
 6060SOL    HW119079   4.315   5.239   5.395
 6060SOL    HW219080   4.456   5.317   5.423
 6061SOL     OW19081   3.227   1.955   6.685
 6061SOL    HW119082   3.198   1.885   6.751
 6061SOL    HW219083   3.270   2.031   6.735
 6062SOL     OW19084   1.827   0.959   4.941
 6062SOL    HW119085   1.825   1.058   4.957
 6062SOL    HW219086   1.737   0.921   4.962
 6063SOL     OW19087   4.318   0.817   0.024
 6063SOL    HW119088   4.318   0.917   0.026
 6063SOL    HW219089   4.410   0.783   0.042
 6064SOL     OW19090   0.945   5.695   3.359
 6064SOL    HW119091   0.866   5.707   3.418
 6064SOL    HW219092   1.001   5.620   3.393
 6065SOL     OW19093   6.605   6.875   0.914
 6065SOL    HW119094   6.578   6.782   0.888
 6065SOL    HW219095   6.680   6.871   0.979
 6066SOL     OW19096   4.163   2.307   0.701
 6066SOL    HW119097   4.211   2.259   0.775
 6066SOL    HW219098   4.205   2.396   0.686
 6067SOL     OW19099   6.142   1.349   6.198
 6067SOL    HW119100   6.096   1.283   6.257
 6067SOL    HW219101   6.162   1.432   6.250
 6068SOL     OW19102   4.757   2.800   4.656
 6068SOL    HW119103   4.727   2.837   4.744
 6068SOL    HW219104   4.774   2.876   4.593
 6069SOL     OW19105   6.508   4.012   5.199
 6069SOL    HW119106   6.429   3.958   5.170
 6069SOL    HW219107   6.497   4.038   5.295
 6070SOL     OW19108   4.351   2.560   6.547
 6070SOL    HW119109   4.360   2.586   6.451
 6070SOL    HW219110   4.404   2.623   6.603
 6071SOL     OW19111   4.100   6.716   5.236
 6071SOL    HW119112   4.038   6.760   5.171
 6071SOL    HW219113   4.150   6.786   5.287
 6072SOL     OW19114   0.789   1.277   2.020
 6072SOL    HW119115   0.708   1.222   2.000
 6072SOL    HW219116   0.856   1.221   2.069
 6073SOL     OW19117   6.803   2.787   1.021
 6073SOL    HW119118   6.781   2.694   1.051
 6073SOL    HW219119   6.718   2.836   1.001
 6074SOL     OW19120   0.422   7.010   5.001
 6074SOL    HW119121   0.380   6.965   4.923
 6074SOL    HW219122   0.360   7.008   5.079
 6075SOL     OW19123   6.073   3.425   0.542
 6075SOL    HW119124   6.017   3.505   0.520
 6075SOL    HW219125   6.016   3.342   0.537
 6076SOL     OW19126   1.990   6.613   3.261
 6076SOL    HW119127   1.897   6.648   3.255
 6076SOL    HW219128   2.003   6.541   3.193
 6077SOL     OW19129   5.817   5.930   2.261
 6077SOL    HW119130   5.861   5.841   2.271
 6077SOL    HW219131   5.718   5.917   2.251
 6078SOL     OW19132   2.956   4.799   3.787
 6078SOL    HW119133   2.932   4.890   3.819
 6078SOL    HW219134   2.947   4.795   3.687
 6079SOL     OW19135   2.450   2.297   6.869
 6079SOL    HW119136   2.491   2.310   6.959
 6079SOL    HW219137   2.435   2.386   6.826
 6080SOL     OW19138   6.116   2.171   1.263
 6080SOL    HW119139   6.112   2.101   1.191
 6080SOL    HW219140   6.033   2.227   1.259
 6081SOL     OW19141   6.701   3.170   3.976
 6081SOL    HW119142   6.744   3.079   3.979
 6081SOL    HW219143   6.696   3.208   4.068
 6082SOL     OW19144   4.273   1.186   2.769
 6082SOL    HW119145   4.256   1.236   2.684
 6082SOL    HW219146   4.312   1.097   2.748
 6083SOL     OW19147   1.516   6.083   6.959
 6083SOL    HW119148   1.427   6.112   6.923
 6083SOL    HW219149   1.508   6.065   0.038
 6084SOL     OW19150   6.795   5.553   5.301
 6084SOL    HW119151   6.866   5.623   5.310
 6084SOL    HW219152   6.780   5.532   5.205
 6085SOL     OW19153   6.088   3.833   6.908
 6085SOL    HW119154   6.105   3.835   6.810
 6085SOL    HW219155   6.080   3.738   6.939
 6086SOL     OW19156   3.434   1.910   4.347
 6086SOL    HW119157   3.411   1.987   4.406
 6086SOL    HW219158   3.495   1.941   4.274
 6087SOL     OW19159   5.668   6.530   6.671
 6087SOL    HW119160   5.757   6.556   6.635
 6087SOL    HW219161   5.675   6.442   6.718
 6088SOL     OW19162   0.920   0.083   5.104
 6088SOL    HW119163   1.000   0.029   5.130
 6088SOL    HW219164   0.948   0.157   5.042
 6089SOL     OW19165   0.555   3.283   1.055
 6089SOL    HW119166   0.618   3.333   0.995
 6089SOL    HW219167   0.509   3.212   1.002
 6090SOL     OW19168   0.778   5.482   5.063
 6090SOL    HW119169   0.815   5.574   5.050
 6090SOL    HW219170   0.679   5.488   5.080
 6091SOL     OW19171   6.245   1.404   1.754
 6091SOL    HW119172   6.242   1.493   1.709
 6091SOL    HW219173   6.336   1.390   1.793
 6092SOL     OW19174   2.056   1.317   2.611
 6092SOL    HW119175   2.006   1.329   2.697
 6092SOL    HW219176   1.995   1.337   2.534
 6093SOL     OW19177   1.381   2.716   1.325
 6093SOL    HW119178   1.379   2.674   1.234
 6093SOL    HW219179   1.476   2.719   1.357
 6094SOL     OW19180   0.595   0.875   1.441
 6094SOL    HW119181   0.562   0.950   1.498
 6094SOL    HW219182   0.518   0.817   1.414
 6095SOL     OW19183   6.191   3.484   6.363
 6095SOL    HW119184   6.182   3.443   6.272
 6095SOL    HW219185   6.111   3.542   6.382
 6096SOL     OW19186   3.897   2.106   3.658
 6096SOL    HW119187   3.798   2.122   3.659
 6096SOL    HW219188   3.936   2.133   3.746
 6097SOL     OW19189   2.800   1.072   2.361
 6097SOL    HW119190   2.877   1.113   2.410
 6097SOL    HW219191   2.716   1.123   2.382
 6098SOL     OW19192   2.294   2.206   5.737
 6098SOL    HW119193   2.215   2.183   5.681
 6098SOL    HW219194   2.280   2.296   5.779
 6099SOL     OW19195   5.593   5.864   4.977
 6099SOL    HW119196   5.496   5.859   4.997
 6099SOL    HW219197   5.633   5.772   4.980
 6100SOL     OW19198   6.379   2.603   0.119
 6100SOL    HW119199   6.337   2.666   0.054
 6100SOL    HW219200   6.478   2.617   0.120
 6101SOL     OW19201   6.375   1.278   5.939
 6101SOL    HW119202   6.368   1.317   5.847
 6101SOL    HW219203   6.284   1.275   5.981
 6102SOL     OW19204   3.206   1.002   4.960
 6102SOL    HW119205   3.271   0.933   4.928
 6102SOL    HW219206   3.117   0.988   4.917
 6103SOL     OW19207   6.696   6.676   5.070
 6103SOL    HW119208   6.645   6.762   5.063
 6103SOL    HW219209   6.781   6.692   5.120
 6104SOL     OW19210   6.147   1.718   6.407
 6104SOL    HW119211   6.186   1.790   6.463
 6104SOL    HW219212   6.057   1.746   6.373
 6105SOL     OW19213   3.340   5.778   5.472
 6105SOL    HW119214   3.259   5.789   5.416
 6105SOL    HW219215   3.411   5.730   5.421
 6106SOL     OW19216   3.184   4.720   5.959
 6106SOL    HW119217   3.273   4.728   6.004
 6106SOL    HW219218   3.112   4.747   6.022
 6107SOL     OW19219   2.030   4.522   5.155
 6107SOL    HW119220   1.951   4.461   5.156
 6107SOL    HW219221   2.087   4.500   5.075
 6108SOL     OW19222   0.823   1.856   4.325
 6108SOL    HW119223   0.854   1.932   4.269
 6108SOL    HW219224   0.839   1.770   4.277
 6109SOL     OW19225   5.818   3.491   1.078
 6109SOL    HW119226   5.890   3.420   1.074
 6109SOL    HW219227   5.793   3.517   0.985
 6110SOL     OW19228   3.295   1.423   5.004
 6110SOL    HW119229   3.242   1.507   4.996
 6110SOL    HW219230   3.269   1.360   4.930
 6111SOL     OW19231   1.389   4.781   3.288
 6111SOL    HW119232   1.322   4.845   3.327
 6111SOL    HW219233   1.347   4.692   3.275
 6112SOL     OW19234   1.094   1.811   2.699
 6112SOL    HW119235   1.084   1.835   2.795
 6112SOL    HW219236   1.032   1.867   2.644
 6113SOL     OW19237   2.011   6.834   5.499
 6113SOL    HW119238   1.928   6.829   5.443
 6113SOL    HW219239   1.988   6.859   5.592
 6114SOL     OW19240   4.614   6.207   0.804
 6114SOL    HW119241   4.670   6.140   0.756
 6114SOL    HW219242   4.521   6.205   0.767
 6115SOL     OW19243   5.206   5.090   2.695
 6115SOL    HW119244   5.204   4.990   2.705
 6115SOL    HW219245   5.301   5.121   2.694
 6116SOL     OW19246   3.725   1.214   1.974
 6116SOL    HW119247   3.744   1.262   1.889
 6116SOL    HW219248   3.783   1.251   2.047
 6117SOL     OW19249   5.680   6.775   4.655
 6117SOL    HW119250   5.739   6.841   4.610
 6117SOL    HW219251   5.707   6.765   4.750
 6118SOL     OW19252   6.089   1.188   3.534
 6118SOL    HW119253   6.028   1.184   3.455
 6118SOL    HW219254   6.177   1.226   3.505
 6119SOL     OW19255   6.931   4.945   4.550
 6119SOL    HW119256   6.874   4.865   4.562
 6119SOL    HW219257   0.000   4.918   4.511
 6120SOL     OW19258   2.398   6.777   2.371
 6120SOL    HW119259   2.339   6.787   2.450
 6120SOL    HW219260   2.472   6.713   2.392
 6121SOL     OW19261   0.514   2.291   3.947
 6121SOL    HW119262   0.529   2.287   4.046
 6121SOL    HW219263   0.554   2.375   3.911
 6122SOL     OW19264   4.010   5.976   3.191
 6122SOL    HW119265   4.024   5.885   3.230
 6122SOL    HW219266   3.919   5.982   3.151
 6123SOL     OW19267   6.073   1.219   2.345
 6123SOL    HW119268   5.990   1.174   2.377
 6123SOL    HW219269   6.105   1.176   2.261
 6124SOL     OW19270   3.417   0.300   5.802
 6124SOL    HW119271   3.448   0.204   5.801
 6124SOL    HW219272   3.472   0.353   5.737
 6125SOL     OW19273   2.084   6.375   1.632
 6125SOL    HW119274   2.178   6.407   1.643
 6125SOL    HW219275   2.054   6.389   1.538
 6126SOL     OW19276   5.457   4.894   2.521
 6126SOL    HW119277   5.503   4.981   2.505
 6126SOL    HW219278   5.444   4.846   2.434
 6127SOL     OW19279   2.090   6.074   1.819
 6127SOL    HW119280   2.064   6.152   1.876
 6127SOL    HW219281   2.113   6.106   1.727
 6128SOL     OW19282   6.272   1.956   0.138
 6128SOL    HW119283   6.286   2.054   0.128
 6128SOL    HW219284   6.312   1.925   0.224
 6129SOL     OW19285   6.261   4.264   2.697
 6129SOL    HW119286   6.234   4.169   2.684
 6129SOL    HW219287   6.360   4.270   2.710
 6130SOL     OW19288   4.963   3.116   3.117
 6130SOL    HW119289   4.915   3.188   3.166
 6130SOL    HW219290   4.898   3.060   3.066
 6131SOL     OW19291   6.423   1.063   5.492
 6131SOL    HW119292   6.435   1.055   5.591
 6131SOL    HW219293   6.503   1.025   5.445
 6132SOL     OW19294   4.093   2.804   0.956
 6132SOL    HW119295   4.048   2.724   0.916
 6132SOL    HW219296   4.069   2.885   0.904
 6133SOL     OW19297   0.808   3.837   1.391
 6133SOL    HW119298   0.795   3.755   1.448
 6133SOL    HW219299   0.828   3.915   1.449
 6134SOL     OW19300   4.141   3.835   6.699
 6134SOL    HW119301   4.085   3.918   6.703
 6134SOL    HW219302   4.237   3.859   6.713
 6135SOL     OW19303   6.139   6.867   1.315
 6135SOL    HW119304   6.148   6.938   1.245
 6135SOL    HW219305   6.230   6.830   1.337
 6136SOL     OW19306   1.165   1.693   1.921
 6136SOL    HW119307   1.086   1.738   1.961
 6136SOL    HW219308   1.226   1.661   1.993
 6137SOL     OW19309   2.807   6.435   5.735
 6137SOL    HW119310   2.787   6.482   5.821
 6137SOL    HW219311   2.893   6.469   5.697
 6138SOL     OW19312   3.885   5.982   3.472
 6138SOL    HW119313   3.801   5.927   3.478
 6138SOL    HW219314   3.953   5.934   3.416
 6139SOL     OW19315   1.473   4.377   4.721
 6139SOL    HW119316   1.427   4.319   4.654
 6139SOL    HW219317   1.567   4.394   4.691
 6140SOL     OW19318   1.315   0.036   1.776
 6140SOL    HW119319   1.256   6.994   1.723
 6140SOL    HW219320   1.384   0.077   1.717
 6141SOL     OW19321   6.505   5.738   5.694
 6141SOL    HW119322   6.530   5.649   5.731
 6141SOL    HW219323   6.515   5.737   5.594
 6142SOL     OW19324   6.895   4.279   1.234
 6142SOL    HW119325   6.992   4.285   1.214
 6142SOL    HW219326   6.847   4.353   1.186
 6143SOL     OW19327   5.862   5.101   6.569
 6143SOL    HW119328   5.785   5.064   6.517
 6143SOL    HW219329   5.855   5.072   6.664
 6144SOL     OW19330   6.891   3.951   4.141
 6144SOL    HW119331   6.967   4.015   4.132
 6144SOL    HW219332   6.926   3.857   4.143
 6145SOL     OW19333   5.030   5.393   2.908
 6145SOL    HW119334   4.939   5.430   2.929
 6145SOL    HW219335   5.070   5.357   2.992
 6146SOL     OW19336   5.559   1.745   3.252
 6146SOL    HW119337   5.649   1.735   3.295
 6146SOL    HW219338   5.488   1.744   3.322
 6147SOL     OW19339   2.132   3.716   2.384
 6147SOL    HW119340   2.208   3.760   2.336
 6147SOL    HW219341   2.126   3.620   2.356
 6148SOL     OW19342   5.994   6.217   4.430
 6148SOL    HW119343   5.965   6.299   4.479
 6148SOL    HW219344   6.081   6.236   4.383
 6149SOL     OW19345   3.300   5.554   3.089
 6149SOL    HW119346   3.390   5.541   3.132
 6149SOL    HW219347   3.309   5.546   2.990
 6150SOL     OW19348   4.623   6.307   6.139
 6150SOL    HW119349   4.684   6.367   6.190
 6150SOL    HW219350   4.652   6.304   6.043
 6151SOL     OW19351   5.257   2.649   5.412
 6151SOL    HW119352   5.219   2.568   5.367
 6151SOL    HW219353   5.217   2.659   5.503
 6152SOL     OW19354   6.080   4.507   6.607
 6152SOL    HW119355   5.987   4.476   6.591
 6152SOL    HW219356   6.122   4.451   6.679
 6153SOL     OW19357   4.247   3.781   1.827
 6153SOL    HW119358   4.292   3.786   1.916
 6153SOL    HW219359   4.285   3.850   1.766
 6154SOL     OW19360   5.228   2.782   3.351
 6154SOL    HW119361   5.285   2.727   3.290
 6154SOL    HW219362   5.224   2.738   3.441
 6155SOL     OW19363   0.484   3.564   5.136
 6155SOL    HW119364   0.396   3.591   5.096
 6155SOL    HW219365   0.549   3.543   5.062
 6156SOL     OW19366   6.220   6.857   3.147
 6156SOL    HW119367   6.208   6.795   3.224
 6156SOL    HW219368   6.146   6.843   3.081
 6157SOL     OW19369   2.393   1.572   4.455
 6157SOL    HW119370   2.315   1.633   4.438
 6157SOL    HW219371   2.469   1.626   4.491
 6158SOL     OW19372   4.994   1.208   6.296
 6158SOL    HW119373   4.998   1.165   6.386
 6158SOL    HW219374   4.986   1.138   6.226
 6159SOL     OW19375   5.239   2.888   0.298
 6159SOL    HW119376   5.150   2.913   0.335
 6159SOL    HW219377   5.285   2.824   0.360
 6160SOL     OW19378   5.594   5.939   1.819
 6160SOL    HW119379   5.658   5.998   1.868
 6160SOL    HW219380   5.525   5.994   1.774
 6161SOL     OW19381   5.142   0.149   6.049
 6161SOL    HW119382   5.125   0.215   6.122
 6161SOL    HW219383   5.202   0.076   6.082
 6162SOL     OW19384   6.891   4.930   4.837
 6162SOL    HW119385   6.895   4.995   4.914
 6162SOL    HW219386   6.874   4.981   4.752
 6163SOL     OW19387   6.065   4.551   1.160
 6163SOL    HW119388   6.141   4.612   1.182
 6163SOL    HW219389   6.065   4.532   1.062
 6164SOL     OW19390   3.529   1.928   0.948
 6164SOL    HW119391   3.465   1.882   1.010
 6164SOL    HW219392   3.615   1.945   0.996
 6165SOL     OW19393   3.428   6.121   0.053
 6165SOL    HW119394   3.513   6.076   0.025
 6165SOL    HW219395   3.354   6.053   0.054
 6166SOL     OW19396   2.493   1.236   6.162
 6166SOL    HW119397   2.526   1.145   6.136
 6166SOL    HW219398   2.394   1.234   6.171
 6167SOL     OW19399   0.670   3.976   3.343
 6167SOL    HW119400   0.628   3.888   3.367
 6167SOL    HW219401   0.645   4.001   3.249
 6168SOL     OW19402   0.104   4.146   2.759
 6168SOL    HW119403   0.179   4.105   2.708
 6168SOL    HW219404   0.052   4.208   2.700
 6169SOL     OW19405   2.212   4.198   2.486
 6169SOL    HW119406   2.261   4.126   2.437
 6169SOL    HW219407   2.133   4.158   2.533
 6170SOL     OW19408   0.386   2.886   5.470
 6170SOL    HW119409   0.363   2.874   5.374
 6170SOL    HW219410   0.486   2.886   5.481
 6171SOL     OW19411   0.377   0.546   6.425
 6171SOL    HW119412   0.466   0.548   6.379
 6171SOL    HW219413   0.367   0.629   6.481
 6172SOL     OW19414   0.468   3.416   2.848
 6172SOL    HW119415   0.373   3.388   2.863
 6172SOL    HW219416   0.473   3.481   2.773
 6173SOL     OW19417   6.780   6.916   3.166
 6173SOL    HW119418   6.802   6.968   3.248
 6173SOL    HW219419   6.683   6.929   3.144
 6174SOL     OW19420   5.788   3.865   3.061
 6174SOL    HW119421   5.797   3.767   3.075
 6174SOL    HW219422   5.705   3.884   3.008
 6175SOL     OW19423   2.356   2.033   5.504
 6175SOL    HW119424   2.371   1.991   5.414
 6175SOL    HW219425   2.428   2.100   5.522
 6176SOL     OW19426   4.100   4.463   5.331
 6176SOL    HW119427   4.176   4.442   5.269
 6176SOL    HW219428   4.053   4.379   5.355
 6177SOL     OW19429   5.692   1.362   1.952
 6177SOL    HW119430   5.777   1.388   1.906
 6177SOL    HW219431   5.679   1.263   1.945
 6178SOL     OW19432   5.034   4.762   1.586
 6178SOL    HW119433   4.967   4.709   1.534
 6178SOL    HW219434   5.030   4.735   1.682
 6179SOL     OW19435   5.871   4.807   3.098
 6179SOL    HW119436   5.786   4.827   3.146
 6179SOL    HW219437   5.947   4.809   3.163
 6180SOL     OW19438   2.695   4.025   0.141
 6180SOL    HW119439   2.723   4.049   0.048
 6180SOL    HW219440   2.752   3.950   0.175
 6181SOL     OW19441   5.182   5.077   6.250
 6181SOL    HW119442   5.155   5.033   6.164
 6181SOL    HW219443   5.270   5.123   6.237
 6182SOL     OW19444   3.179   3.332   0.169
 6182SOL    HW119445   3.223   3.418   0.141
 6182SOL    HW219446   3.247   3.274   0.214
 6183SOL     OW19447   0.829   1.638   1.717
 6183SOL    HW119448   0.888   1.559   1.730
 6183SOL    HW219449   0.883   1.714   1.680
 6184SOL     OW19450   2.865   0.705   5.913
 6184SOL    HW119451   2.857   0.770   5.838
 6184SOL    HW219452   2.855   0.753   6.000
 6185SOL     OW19453   3.081   2.653   5.725
 6185SOL    HW119454   3.037   2.667   5.637
 6185SOL    HW219455   3.023   2.690   5.798
 6186SOL     OW19456   6.460   1.377   1.903
 6186SOL    HW119457   6.505   1.448   1.957
 6186SOL    HW219458   6.497   1.288   1.928
 6187SOL     OW19459   5.368   1.669   5.163
 6187SOL    HW119460   5.398   1.761   5.141
 6187SOL    HW219461   5.273   1.656   5.134
 6188SOL     OW19462   1.553   2.336   5.338
 6188SOL    HW119463   1.501   2.308   5.258
 6188SOL    HW219464   1.556   2.261   5.404
 6189SOL     OW19465   6.135   6.246   2.576
 6189SOL    HW119466   6.165   6.174   2.637
 6189SOL    HW219467   6.133   6.211   2.482
 6190SOL     OW19468   0.103   2.489   5.730
 6190SOL    HW119469   0.101   2.562   5.662
 6190SOL    HW219470   0.107   2.528   5.822
 6191SOL     OW19471   3.807   3.645   6.769
 6191SOL    HW119472   3.834   3.735   6.736
 6191SOL    HW219473   3.800   3.647   6.869
 6192SOL     OW19474   2.930   1.425   6.963
 6192SOL    HW119475   2.894   1.518   6.958
 6192SOL    HW219476   2.989   1.408   6.884
 6193SOL     OW19477   4.701   5.394   6.845
 6193SOL    HW119478   4.686   5.326   6.917
 6193SOL    HW219479   4.799   5.404   6.828
 6194SOL     OW19480   6.490   0.411   5.957
 6194SOL    HW119481   6.471   0.503   5.991
 6194SOL    HW219482   6.566   0.372   6.008
 6195SOL     OW19483   6.715   6.628   5.789
 6195SOL    HW119484   6.763   6.686   5.723
 6195SOL    HW219485   6.688   6.683   5.869
 6196SOL     OW19486   5.890   3.625   3.330
 6196SOL    HW119487   5.946   3.546   3.354
 6196SOL    HW219488   5.799   3.615   3.372
 6197SOL     OW19489   3.440   5.710   1.828
 6197SOL    HW119490   3.463   5.775   1.900
 6197SOL    HW219491   3.341   5.698   1.824
 6198SOL     OW19492   6.297   6.413   6.090
 6198SOL    HW119493   6.290   6.510   6.111
 6198SOL    HW219494   6.304   6.400   5.991
 6199SOL     OW19495   1.109   0.477   1.009
 6199SOL    HW119496   1.132   0.554   1.068
 6199SOL    HW219497   1.083   0.398   1.065
 6200SOL     OW19498   1.738   2.381   3.061
 6200SOL    HW119499   1.822   2.359   3.011
 6200SOL    HW219500   1.673   2.306   3.052
 6201SOL     OW19501   0.012   3.399   4.062
 6201SOL    HW119502   6.981   3.378   3.978
 6201SOL    HW219503   0.101   3.439   4.039
 6202SOL     OW19504   6.081   1.547   2.516
 6202SOL    HW119505   6.155   1.480   2.518
 6202SOL    HW219506   6.093   1.613   2.590
 6203SOL     OW19507   6.461   6.143   2.218
 6203SOL    HW119508   6.471   6.045   2.203
 6203SOL    HW219509   6.512   6.193   2.147
 6204SOL     OW19510   2.252   6.853   5.233
 6204SOL    HW119511   2.325   6.805   5.184
 6204SOL    HW219512   2.291   6.902   5.311
 6205SOL     OW19513   5.412   3.992   3.254
 6205SOL    HW119514   5.470   4.014   3.176
 6205SOL    HW219515   5.344   3.924   3.227
 6206SOL     OW19516   5.397   2.345   3.673
 6206SOL    HW119517   5.494   2.324   3.661
 6206SOL    HW219518   5.383   2.443   3.663
 6207SOL     OW19519   2.194   5.503   4.287
 6207SOL    HW119520   2.277   5.465   4.246
 6207SOL    HW219521   2.114   5.456   4.249
 6208SOL     OW19522   3.813   3.146   5.880
 6208SOL    HW119523   3.838   3.086   5.956
 6208SOL    HW219524   3.798   3.091   5.797
 6209SOL     OW19525   3.577   3.169   1.300
 6209SOL    HW119526   3.652   3.151   1.237
 6209SOL    HW219527   3.560   3.089   1.357
 6210SOL     OW19528   4.739   1.950   3.660
 6210SOL    HW119529   4.780   1.972   3.571
 6210SOL    HW219530   4.674   2.022   3.685
 6211SOL     OW19531   5.762   5.155   4.655
 6211SOL    HW119532   5.802   5.084   4.713
 6211SOL    HW219533   5.783   5.136   4.559
 6212SOL     OW19534   4.253   4.619   5.869
 6212SOL    HW119535   4.325   4.551   5.850
 6212SOL    HW219536   4.163   4.576   5.858
 6213SOL     OW19537   4.418   5.788   0.128
 6213SOL    HW119538   4.388   5.740   0.046
 6213SOL    HW219539   4.514   5.811   0.120
 6214SOL     OW19540   5.929   5.667   6.474
 6214SOL    HW119541   5.881   5.580   6.487
 6214SOL    HW219542   6.012   5.667   6.530
 6215SOL     OW19543   6.064   2.702   5.690
 6215SOL    HW119544   6.106   2.759   5.620
 6215SOL    HW219545   6.021   2.623   5.647
 6216SOL     OW19546   4.486   2.098   2.961
 6216SOL    HW119547   4.457   2.099   2.865
 6216SOL    HW219548   4.445   2.176   3.008
 6217SOL     OW19549   0.565   4.577   2.533
 6217SOL    HW119550   0.467   4.582   2.513
 6217SOL    HW219551   0.611   4.527   2.459
 6218SOL     OW19552   4.760   6.841   6.533
 6218SOL    HW119553   4.671   6.801   6.552
 6218SOL    HW219554   4.817   6.838   6.615
 6219SOL     OW19555   0.944   0.780   6.010
 6219SOL    HW119556   0.938   0.697   5.955
 6219SOL    HW219557   0.872   0.844   5.982
 6220SOL     OW19558   4.068   0.899   1.144
 6220SOL    HW119559   4.167   0.887   1.135
 6220SOL    HW219560   4.034   0.950   1.065
 6221SOL     OW19561   6.294   5.784   6.538
 6221SOL    HW119562   6.355   5.773   6.616
 6221SOL    HW219563   6.246   5.698   6.521
 6222SOL     OW19564   6.388   1.600   2.659
 6222SOL    HW119565   6.374   1.677   2.597
 6222SOL    HW219566   6.382   1.514   2.608
 6223SOL     OW19567   0.170   4.766   3.526
 6223SOL    HW119568   0.125   4.798   3.442
 6223SOL    HW219569   0.228   4.839   3.562
 6224SOL     OW19570   3.969   1.466   6.479
 6224SOL    HW119571   3.938   1.491   6.388
 6224SOL    HW219572   3.893   1.475   6.544
 6225SOL     OW19573   4.455   6.680   6.742
 6225SOL    HW119574   4.457   6.771   6.783
 6225SOL    HW219575   4.450   6.689   6.642
 6226SOL     OW19576   1.524   1.048   4.608
 6226SOL    HW119577   1.503   1.070   4.704
 6226SOL    HW219578   1.577   0.963   4.604
 6227SOL     OW19579   2.906   3.737   4.923
 6227SOL    HW119580   2.811   3.767   4.937
 6227SOL    HW219581   2.936   3.684   5.002
 6228SOL     OW19582   2.018   2.808   3.499
 6228SOL    HW119583   2.077   2.869   3.552
 6228SOL    HW219584   1.951   2.765   3.560
 6229SOL     OW19585   0.442   3.809   3.967
 6229SOL    HW119586   0.378   3.749   4.016
 6229SOL    HW219587   0.470   3.883   4.027
 6230SOL     OW19588   0.010   0.986   2.147
 6230SOL    HW119589   0.015   1.011   2.243
 6230SOL    HW219590   6.935   0.964   2.122
 6231SOL     OW19591   1.158   5.385   0.112
 6231SOL    HW119592   1.163   5.387   0.212
 6231SOL    HW219593   1.062   5.385   0.083
 6232SOL     OW19594   4.229   1.378   6.567
 6232SOL    HW119595   4.297   1.348   6.500
 6232SOL    HW219596   4.139   1.382   6.524
 6233SOL     OW19597   0.094   3.779   1.837
 6233SOL    HW119598   0.129   3.740   1.751
 6233SOL    HW219599   0.169   3.826   1.884
 6234SOL     OW19600   4.930   6.710   4.852
 6234SOL    HW119601   5.030   6.709   4.846
 6234SOL    HW219602   4.903   6.753   4.938
 6235SOL     OW19603   6.658   0.829   3.061
 6235SOL    HW119604   6.652   0.921   3.100
 6235SOL    HW219605   6.596   0.822   2.983
 6236SOL     OW19606   0.934   4.732   1.010
 6236SOL    HW119607   0.977   4.643   1.029
 6236SOL    HW219608   0.867   4.752   1.081
 6237SOL     OW19609   3.639   1.169   1.032
 6237SOL    HW119610   3.565   1.135   0.975
 6237SOL    HW219611   3.681   1.248   0.987
 6238SOL     OW19612   2.251   6.901   4.507
 6238SOL    HW119613   2.229   6.827   4.570
 6238SOL    HW219614   2.335   6.880   4.458
 6239SOL     OW19615   4.865   1.447   3.374
 6239SOL    HW119616   4.952   1.493   3.389
 6239SOL    HW219617   4.868   1.397   3.287
 6240SOL     OW19618   4.127   3.645   4.055
 6240SOL    HW119619   4.217   3.670   4.092
 6240SOL    HW219620   4.111   3.548   4.069
 6241SOL     OW19621   3.199   0.034   2.703
 6241SOL    HW119622   3.139   0.108   2.672
 6241SOL    HW219623   3.273   0.072   2.759
 6242SOL     OW19624   2.730   2.000   4.076
 6242SOL    HW119625   2.811   1.964   4.030
 6242SOL    HW219626   2.753   2.019   4.172
 6243SOL     OW19627   5.122   0.757   5.587
 6243SOL    HW119628   5.122   0.850   5.551
 6243SOL    HW219629   5.039   0.743   5.642
 6244SOL     OW19630   4.265   4.696   3.242
 6244SOL    HW119631   4.200   4.708   3.167
 6244SOL    HW219632   4.227   4.735   3.326
 6245SOL     OW19633   0.912   4.451   2.360
 6245SOL    HW119634   0.935   4.383   2.430
 6245SOL    HW219635   0.966   4.435   2.278
 6246SOL     OW19636   6.532   6.266   4.330
 6246SOL    HW119637   6.500   6.243   4.238
 6246SOL    HW219638   6.484   6.347   4.364
 6247SOL     OW19639   6.791   6.699   2.270
 6247SOL    HW119640   6.755   6.731   2.358
 6247SOL    HW219641   6.782   6.600   2.264
 6248SOL     OW19642   3.674   3.558   6.154
 6248SOL    HW119643   3.643   3.473   6.195
 6248SOL    HW219644   3.659   3.634   6.217
 6249SOL     OW19645   6.257   3.311   1.545
 6249SOL    HW119646   6.287   3.401   1.513
 6249SOL    HW219647   6.161   3.297   1.519
 6250SOL     OW19648   6.729   0.005   0.387
 6250SOL    HW119649   6.664   6.955   0.418
 6250SOL    HW219650   6.817   7.010   0.433
 6251SOL     OW19651   2.769   6.668   4.004
 6251SOL    HW119652   2.753   6.592   3.940
 6251SOL    HW219653   2.743   6.754   3.960
 6252SOL     OW19654   2.707   5.039   6.915
 6252SOL    HW119655   2.693   5.114   6.850
 6252SOL    HW219656   2.788   4.987   6.889
 6253SOL     OW19657   3.668   4.980   5.351
 6253SOL    HW119658   3.738   4.925   5.397
 6253SOL    HW219659   3.679   4.972   5.252
 6254SOL     OW19660   0.593   6.530   1.135
 6254SOL    HW119661   0.688   6.530   1.104
 6254SOL    HW219662   0.556   6.622   1.130
 6255SOL     OW19663   0.278   1.013   2.021
 6255SOL    HW119664   0.180   1.002   2.036
 6255SOL    HW219665   0.304   1.109   2.035
 6256SOL     OW19666   4.938   5.822   2.269
 6256SOL    HW119667   4.909   5.916   2.287
 6256SOL    HW219668   4.971   5.814   2.175
 6257SOL     OW19669   3.725   4.076   1.570
 6257SOL    HW119670   3.652   4.010   1.589
 6257SOL    HW219671   3.684   4.162   1.539
 6258SOL     OW19672   4.049   6.117   5.509
 6258SOL    HW119673   4.106   6.199   5.497
 6258SOL    HW219674   4.068   6.075   5.598
 6259SOL     OW19675   2.887   0.738   4.529
 6259SOL    HW119676   2.812   0.730   4.594
 6259SOL    HW219677   2.973   0.712   4.574
 6260SOL     OW19678   1.721   1.920   0.531
 6260SOL    HW119679   1.786   1.883   0.465
 6260SOL    HW219680   1.768   1.984   0.592
 6261SOL     OW19681   3.608   6.837   0.962
 6261SOL    HW119682   3.692   6.821   1.014
 6261SOL    HW219683   3.554   6.753   0.959
 6262SOL     OW19684   6.508   0.262   2.310
 6262SOL    HW119685   6.598   0.237   2.345
 6262SOL    HW219686   6.443   0.188   2.330
 6263SOL     OW19687   6.250   5.835   6.048
 6263SOL    HW119688   6.261   5.871   5.956
 6263SOL    HW219689   6.193   5.896   6.102
 6264SOL     OW19690   1.773   0.162   0.452
 6264SOL    HW119691   1.742   0.238   0.396
 6264SOL    HW219692   1.794   0.084   0.394
 6265SOL     OW19693   4.877   1.461   0.180
 6265SOL    HW119694   4.971   1.459   0.147
 6265SOL    HW219695   4.876   1.458   0.280
 6266SOL     OW19696   2.509   5.271   2.781
 6266SOL    HW119697   2.588   5.330   2.770
 6266SOL    HW219698   2.482   5.235   2.691
 6267SOL     OW19699   1.611   6.454   4.866
 6267SOL    HW119700   1.591   6.463   4.964
 6267SOL    HW219701   1.659   6.535   4.834
 6268SOL     OW19702   3.544   0.963   1.165
 6268SOL    HW119703   3.602   0.913   1.230
 6268SOL    HW219704   3.565   1.060   1.169
 6269SOL     OW19705   6.100   5.418   0.141
 6269SOL    HW119706   6.019   5.438   0.196
 6269SOL    HW219707   6.160   5.355   0.192
 6270SOL     OW19708   1.970   6.496   6.882
 6270SOL    HW119709   1.995   6.446   6.799
 6270SOL    HW219710   1.872   6.487   6.898
 6271SOL     OW19711   5.890   3.035   6.186
 6271SOL    HW119712   5.836   3.116   6.209
 6271SOL    HW219713   5.987   3.059   6.187
 6272SOL     OW19714   0.486   0.019   0.615
 6272SOL    HW119715   0.397   0.032   0.659
 6272SOL    HW219716   0.473   0.014   0.516
 6273SOL     OW19717   0.205   6.465   1.327
 6273SOL    HW119718   0.201   6.558   1.291
 6273SOL    HW219719   0.194   6.399   1.252
 6274SOL     OW19720   3.510   5.664   4.288
 6274SOL    HW119721   3.478   5.579   4.330
 6274SOL    HW219722   3.586   5.645   4.226
 6275SOL     OW19723   1.943   5.203   6.777
 6275SOL    HW119724   1.874   5.154   6.725
 6275SOL    HW219725   2.033   5.188   6.736
 6276SOL     OW19726   1.394   5.636   2.951
 6276SOL    HW119727   1.390   5.706   3.022
 6276SOL    HW219728   1.396   5.680   2.861
 6277SOL     OW19729   5.195   3.830   1.403
 6277SOL    HW119730   5.103   3.845   1.440
 6277SOL    HW219731   5.217   3.733   1.407
 6278SOL     OW19732   2.568   0.895   6.198
 6278SOL    HW119733   2.602   0.959   6.129
 6278SOL    HW219734   2.593   0.802   6.172
 6279SOL     OW19735   2.598   6.845   1.472
 6279SOL    HW119736   2.499   6.853   1.483
 6279SOL    HW219737   2.626   6.887   1.386
 6280SOL     OW19738   6.412   2.067   6.932
 6280SOL    HW119739   6.438   1.988   6.989
 6280SOL    HW219740   6.417   2.150   6.987
 6281SOL     OW19741   5.786   3.988   5.728
 6281SOL    HW119742   5.846   4.008   5.806
 6281SOL    HW219743   5.804   3.896   5.695
 6282SOL     OW19744   0.100   3.207   5.834
 6282SOL    HW119745   0.106   3.306   5.822
 6282SOL    HW219746   0.165   3.162   5.773
 6283SOL     OW19747   1.316   5.984   4.558
 6283SOL    HW119748   1.258   6.065   4.550
 6283SOL    HW219749   1.410   6.007   4.533
 6284SOL     OW19750   2.086   4.161   6.472
 6284SOL    HW119751   2.048   4.246   6.437
 6284SOL    HW219752   2.185   4.171   6.485
 6285SOL     OW19753   0.918   3.878   3.151
 6285SOL    HW119754   0.985   3.951   3.140
 6285SOL    HW219755   0.884   3.878   3.245
 6286SOL     OW19756   0.982   2.794   6.319
 6286SOL    HW119757   0.888   2.774   6.347
 6286SOL    HW219758   0.983   2.835   6.228
 6287SOL     OW19759   4.859   4.576   4.870
 6287SOL    HW119760   4.832   4.668   4.842
 6287SOL    HW219761   4.777   4.519   4.880
 6288SOL     OW19762   3.768   3.222   6.579
 6288SOL    HW119763   3.679   3.177   6.582
 6288SOL    HW219764   3.834   3.163   6.532
 6289SOL     OW19765   2.719   4.135   5.663
 6289SOL    HW119766   2.691   4.229   5.683
 6289SOL    HW219767   2.809   4.135   5.618
 6290SOL     OW19768   5.058   5.813   4.082
 6290SOL    HW119769   5.056   5.913   4.070
 6290SOL    HW219770   5.134   5.775   4.029
 6291SOL     OW19771   3.665   3.763   3.217
 6291SOL    HW119772   3.571   3.782   3.245
 6291SOL    HW219773   3.724   3.840   3.243
 6292SOL     OW19774   1.793   3.275   4.346
 6292SOL    HW119775   1.799   3.329   4.262
 6292SOL    HW219776   1.757   3.184   4.324
 6293SOL     OW19777   3.945   1.055   6.527
 6293SOL    HW119778   4.015   1.125   6.543
 6293SOL    HW219779   3.987   0.972   6.491
 6294SOL     OW19780   1.849   1.312   3.346
 6294SOL    HW119781   1.912   1.377   3.387
 6294SOL    HW219782   1.760   1.355   3.334
 6295SOL     OW19783   5.179   3.969   5.789
 6295SOL    HW119784   5.220   4.013   5.709
 6295SOL    HW219785   5.250   3.945   5.855
 6296SOL     OW19786   0.634   2.851   6.956
 6296SOL    HW119787   0.659   2.780   0.003
 6296SOL    HW219788   0.708   2.862   6.890
 6297SOL     OW19789   5.713   0.955   4.011
 6297SOL    HW119790   5.786   0.894   4.043
 6297SOL    HW219791   5.730   0.980   3.916
 6298SOL     OW19792   6.384   5.487   0.829
 6298SOL    HW119793   6.299   5.485   0.882
 6298SOL    HW219794   6.372   5.546   0.749
 6299SOL     OW19795   4.349   1.611   2.459
 6299SOL    HW119796   4.400   1.675   2.516
 6299SOL    HW219797   4.261   1.652   2.434
 6300SOL     OW19798   2.832   0.899   6.410
 6300SOL    HW119799   2.744   0.947   6.415
 6300SOL    HW219800   2.864   0.897   6.315
 6301SOL     OW19801   3.961   6.259   6.896
 6301SOL    HW119802   3.903   6.194   6.846
 6301SOL    HW219803   4.053   6.222   6.904
 6302SOL     OW19804   2.970   1.612   6.498
 6302SOL    HW119805   2.984   1.694   6.441
 6302SOL    HW219806   2.889   1.624   6.555
 6303SOL     OW19807   0.924   5.726   5.124
 6303SOL    HW119808   0.893   5.748   5.031
 6303SOL    HW219809   0.861   5.765   5.190
 6304SOL     OW19810   4.328   0.720   3.116
 6304SOL    HW119811   4.418   0.676   3.116
 6304SOL    HW219812   4.333   0.805   3.063
 6305SOL     OW19813   0.746   6.043   6.311
 6305SOL    HW119814   0.670   6.103   6.287
 6305SOL    HW219815   0.818   6.097   6.355
 6306SOL     OW19816   0.591   4.098   4.296
 6306SOL    HW119817   0.687   4.128   4.298
 6306SOL    HW219818   0.556   4.105   4.203
 6307SOL     OW19819   3.786   3.597   3.031
 6307SOL    HW119820   3.740   3.655   3.098
 6307SOL    HW219821   3.760   3.626   2.939
 6308SOL     OW19822   6.928   2.346   0.492
 6308SOL    HW119823   6.909   2.306   0.582
 6308SOL    HW219824   6.958   2.441   0.504
 6309SOL     OW19825   2.199   6.303   4.414
 6309SOL    HW119826   2.127   6.294   4.483
 6309SOL    HW219827   2.177   6.381   4.355
 6310SOL     OW19828   1.167   6.666   3.267
 6310SOL    HW119829   1.100   6.648   3.195
 6310SOL    HW219830   1.155   6.599   3.341
 6311SOL     OW19831   4.915   0.605   5.352
 6311SOL    HW119832   4.895   0.640   5.261
 6311SOL    HW219833   4.934   0.680   5.414
 6312SOL     OW19834   3.429   6.047   6.396
 6312SOL    HW119835   3.518   6.011   6.423
 6312SOL    HW219836   3.424   6.144   6.419
 6313SOL     OW19837   5.732   5.715   4.313
 6313SOL    HW119838   5.728   5.666   4.400
 6313SOL    HW219839   5.641   5.747   4.288
 6314SOL     OW19840   1.758   6.838   2.649
 6314SOL    HW119841   1.759   6.925   2.697
 6314SOL    HW219842   1.704   6.847   2.565
 6315SOL     OW19843   1.841   2.307   4.464
 6315SOL    HW119844   1.749   2.335   4.491
 6315SOL    HW219845   1.908   2.372   4.500
 6316SOL     OW19846   5.150   1.126   4.245
 6316SOL    HW119847   5.154   1.166   4.337
 6316SOL    HW219848   5.069   1.161   4.198
 6317SOL     OW19849   4.964   5.144   1.736
 6317SOL    HW119850   4.959   5.226   1.793
 6317SOL    HW219851   4.936   5.064   1.790
 6318SOL     OW19852   6.292   6.665   6.174
 6318SOL    HW119853   6.298   6.747   6.117
 6318SOL    HW219854   6.247   6.688   6.260
 6319SOL     OW19855   5.476   1.195   4.586
 6319SOL    HW119856   5.448   1.203   4.490
 6319SOL    HW219857   5.478   1.285   4.629
 6320SOL     OW19858   6.317   0.257   5.779
 6320SOL    HW119859   6.235   0.306   5.748
 6320SOL    HW219860   6.371   0.316   5.839
 6321SOL     OW19861   5.831   1.963   6.713
 6321SOL    HW119862   5.882   1.981   6.629
 6321SOL    HW219863   5.787   2.047   6.744
 6322SOL     OW19864   1.362   1.076   2.033
 6322SOL    HW119865   1.448   1.121   2.008
 6322SOL    HW219866   1.336   1.012   1.961
 6323SOL     OW19867   2.724   4.100   1.223
 6323SOL    HW119868   2.764   4.057   1.143
 6323SOL    HW219869   2.637   4.057   1.245
 6324SOL     OW19870   4.797   1.624   0.891
 6324SOL    HW119871   4.828   1.628   0.796
 6324SOL    HW219872   4.862   1.675   0.949
 6325SOL     OW19873   1.840   2.659   3.648
 6325SOL    HW119874   1.766   2.725   3.661
 6325SOL    HW219875   1.806   2.580   3.598
 6326SOL     OW19876   5.501   5.219   5.760
 6326SOL    HW119877   5.584   5.212   5.705
 6326SOL    HW219878   5.495   5.141   5.822
 6327SOL     OW19879   0.163   0.713   3.798
 6327SOL    HW119880   0.248   0.687   3.751
 6327SOL    HW219881   0.145   0.649   3.872
 6328SOL     OW19882   4.423   3.634   5.285
 6328SOL    HW119883   4.512   3.606   5.249
 6328SOL    HW219884   4.417   3.734   5.285
 6329SOL     OW19885   1.330   2.109   5.789
 6329SOL    HW119886   1.366   2.064   5.707
 6329SOL    HW219887   1.365   2.202   5.794
 6330SOL     OW19888   5.409   1.493   3.554
 6330SOL    HW119889   5.508   1.503   3.565
 6330SOL    HW219890   5.376   1.562   3.489
 6331SOL     OW19891   0.585   3.354   3.434
 6331SOL    HW119892   0.520   3.281   3.455
 6331SOL    HW219893   0.536   3.435   3.403
 6332SOL     OW19894   2.852   1.562   0.326
 6332SOL    HW119895   2.836   1.504   0.245
 6332SOL    HW219896   2.923   1.521   0.382
 6333SOL     OW19897   5.348   1.774   0.759
 6333SOL    HW119898   5.289   1.827   0.699
 6333SOL    HW219899   5.428   1.829   0.783
 6334SOL     OW19900   1.554   1.671   2.413
 6334SOL    HW119901   1.601   1.732   2.349
 6334SOL    HW219902   1.467   1.713   2.441
 6335SOL     OW19903   6.523   1.260   0.446
 6335SOL    HW119904   6.528   1.226   0.540
 6335SOL    HW219905   6.430   1.292   0.427
 6336SOL     OW19906   0.692   2.869   5.524
 6336SOL    HW119907   0.675   2.775   5.493
 6336SOL    HW219908   0.696   2.872   5.623
 6337SOL     OW19909   4.631   5.227   5.030
 6337SOL    HW119910   4.664   5.320   5.011
 6337SOL    HW219911   4.709   5.168   5.054
 6338SOL     OW19912   2.665   1.515   3.355
 6338SOL    HW119913   2.675   1.416   3.350
 6338SOL    HW219914   2.655   1.552   3.262
 6339SOL     OW19915   0.732   4.683   3.243
 6339SOL    HW119916   0.768   4.770   3.209
 6339SOL    HW219917   0.787   4.652   3.321
 6340SOL     OW19918   2.259   4.193   1.199
 6340SOL    HW119919   2.236   4.147   1.113
 6340SOL    HW219920   2.195   4.268   1.214
 6341SOL     OW19921   0.646   5.028   3.707
 6341SOL    HW119922   0.717   5.005   3.774
 6341SOL    HW219923   0.675   4.998   3.616
 6342SOL     OW19924   1.972   1.612   1.312
 6342SOL    HW119925   1.985   1.534   1.372
 6342SOL    HW219926   2.034   1.686   1.340
 6343SOL     OW19927   1.343   5.888   1.173
 6343SOL    HW119928   1.413   5.889   1.244
 6343SOL    HW219929   1.371   5.949   1.098
 6344SOL     OW19930   6.661   1.193   3.986
 6344SOL    HW119931   6.693   1.099   3.996
 6344SOL    HW219932   6.680   1.226   3.894
 6345SOL     OW19933   5.751   3.872   2.047
 6345SOL    HW119934   5.671   3.886   2.104
 6345SOL    HW219935   5.759   3.948   1.982
 6346SOL     OW19936   6.569   4.210   5.415
 6346SOL    HW119937   6.633   4.257   5.476
 6346SOL    HW219938   6.540   4.272   5.343
 6347SOL     OW19939   1.621   1.918   2.957
 6347SOL    HW119940   1.697   1.861   2.988
 6347SOL    HW219941   1.573   1.871   2.883
 6348SOL     OW19942   0.069   2.020   5.899
 6348SOL    HW119943   0.114   1.982   5.980
 6348SOL    HW219944   0.042   2.115   5.917
 6349SOL     OW19945   6.905   1.592   0.012
 6349SOL    HW119946   6.821   1.545   0.036
 6349SOL    HW219947   6.968   1.592   0.090
 6350SOL     OW19948   1.029   5.057   1.657
 6350SOL    HW119949   1.111   5.025   1.611
 6350SOL    HW219950   0.968   4.980   1.676
 6351SOL     OW19951   5.745   2.907   2.097
 6351SOL    HW119952   5.654   2.887   2.063
 6351SOL    HW219953   5.761   3.006   2.095
 6352SOL     OW19954   3.046   0.567   4.318
 6352SOL    HW119955   3.007   0.502   4.384
 6352SOL    HW219956   3.010   0.658   4.337
 6353SOL     OW19957   3.650   6.087   5.782
 6353SOL    HW119958   3.560   6.101   5.824
 6353SOL    HW219959   3.711   6.042   5.847
 6354SOL     OW19960   4.713   5.429   1.743
 6354SOL    HW119961   4.681   5.344   1.784
 6354SOL    HW219962   4.786   5.469   1.798
 6355SOL     OW19963   2.476   4.587   1.045
 6355SOL    HW119964   2.529   4.564   0.964
 6355SOL    HW219965   2.457   4.685   1.046
 6356SOL     OW19966   6.265   4.662   6.447
 6356SOL    HW119967   6.317   4.736   6.489
 6356SOL    HW219968   6.225   4.604   6.519
 6357SOL     OW19969   5.726   1.102   1.507
 6357SOL    HW119970   5.788   1.180   1.503
 6357SOL    HW219971   5.760   1.029   1.448
 6358SOL     OW19972   1.345   2.338   6.527
 6358SOL    HW119973   1.334   2.413   6.592
 6358SOL    HW219974   1.294   2.258   6.559
 6359SOL     OW19975   5.426   6.480   0.462
 6359SOL    HW119976   5.417   6.381   0.473
 6359SOL    HW219977   5.466   6.520   0.544
 6360SOL     OW19978   1.067   2.403   2.142
 6360SOL    HW119979   1.081   2.319   2.193
 6360SOL    HW219980   1.006   2.464   2.193
 6361SOL     OW19981   0.537   0.314   6.969
 6361SOL    HW119982   0.486   0.375   0.010
 6361SOL    HW219983   0.544   0.355   6.878
 6362SOL     OW19984   1.236   5.780   0.529
 6362SOL    HW119985   1.296   5.781   0.449
 6362SOL    HW219986   1.269   5.846   0.597
 6363SOL     OW19987   2.413   4.530   3.137
 6363SOL    HW119988   2.368   4.442   3.120
 6363SOL    HW219989   2.369   4.575   3.214
 6364SOL     OW19990   2.212   2.724   4.484
 6364SOL    HW119991   2.301   2.726   4.530
 6364SOL    HW219992   2.139   2.743   4.550
 6365SOL     OW19993   5.589   5.217   3.297
 6365SOL    HW119994   5.649   5.227   3.376
 6365SOL    HW219995   5.621   5.276   3.223
 6366SOL     OW19996   5.925   0.126   4.673
 6366SOL    HW119997   6.014   0.129   4.720
 6366SOL    HW219998   5.899   0.031   4.657
 6367SOL     OW19999   2.350   2.204   2.448
 6367SOL    HW120000   2.340   2.282   2.387
 6367SOL    HW220001   2.395   2.233   2.532
 6368SOL     OW20002   4.811   3.025   4.490
 6368SOL    HW120003   4.835   3.028   4.393
 6368SOL    HW220004   4.748   3.100   4.510
 6369SOL     OW20005   4.050   5.474   6.628
 6369SOL    HW120006   4.104   5.392   6.606
 6369SOL    HW220007   3.953   5.454   6.613
 6370SOL     OW20008   5.110   3.551   4.321
 6370SOL    HW120009   5.178   3.558   4.248
 6370SOL    HW220010   5.139   3.605   4.399
 6371SOL     OW20011   4.905   4.381   1.630
 6371SOL    HW120012   4.930   4.331   1.547
 6371SOL    HW220013   4.809   4.361   1.653
 6372SOL     OW20014   6.376   1.885   2.391
 6372SOL    HW120015   6.440   1.924   2.457
 6372SOL    HW220016   6.396   1.788   2.379
 6373SOL     OW20017   4.713   4.421   1.095
 6373SOL    HW120018   4.614   4.415   1.085
 6373SOL    HW220019   4.742   4.516   1.090
 6374SOL     OW20020   4.413   3.676   6.921
 6374SOL    HW120021   4.318   3.658   6.947
 6374SOL    HW220022   4.456   3.591   6.892
 6375SOL     OW20023   5.786   2.291   1.907
 6375SOL    HW120024   5.723   2.236   1.961
 6375SOL    HW220025   5.775   2.388   1.930
 6376SOL     OW20026   3.750   1.221   6.409
 6376SOL    HW120027   3.820   1.177   6.465
 6376SOL    HW220028   3.791   1.250   6.322
 6377SOL     OW20029   6.767   0.467   0.567
 6377SOL    HW120030   6.799   0.551   0.523
 6377SOL    HW220031   6.846   0.413   0.596
 6378SOL     OW20032   5.456   5.517   2.031
 6378SOL    HW120033   5.382   5.466   2.074
 6378SOL    HW220034   5.428   5.611   2.016
 6379SOL     OW20035   2.179   6.083   6.689
 6379SOL    HW120036   2.248   6.123   6.629
 6379SOL    HW220037   2.217   6.003   6.736
 6380SOL     OW20038   1.397   3.339   5.147
 6380SOL    HW120039   1.484   3.296   5.171
 6380SOL    HW220040   1.324   3.299   5.202
 6381SOL     OW20041   4.548   2.631   0.186
 6381SOL    HW120042   4.554   2.729   0.204
 6381SOL    HW220043   4.640   2.594   0.173
 6382SOL     OW20044   1.405   1.879   1.155
 6382SOL    HW120045   1.482   1.879   1.219
 6382SOL    HW220046   1.393   1.970   1.116
 6383SOL     OW20047   2.345   2.725   2.086
 6383SOL    HW120048   2.373   2.816   2.057
 6383SOL    HW220049   2.300   2.731   2.175
 6384SOL     OW20050   6.108   2.614   2.646
 6384SOL    HW120051   6.121   2.713   2.652
 6384SOL    HW220052   6.185   2.568   2.690
 6385SOL     OW20053   6.787   3.082   1.442
 6385SOL    HW120054   6.710   3.053   1.497
 6385SOL    HW220055   6.866   3.023   1.460
 6386SOL     OW20056   2.259   3.752   0.674
 6386SOL    HW120057   2.252   3.717   0.767
 6386SOL    HW220058   2.316   3.834   0.673
 6387SOL     OW20059   0.116   0.330   6.477
 6387SOL    HW120060   0.039   0.392   6.490
 6387SOL    HW220061   0.187   0.375   6.424
 6388SOL     OW20062   6.665   5.393   2.365
 6388SOL    HW120063   6.715   5.403   2.279
 6388SOL    HW220064   6.660   5.481   2.412
 6389SOL     OW20065   1.061   0.563   6.943
 6389SOL    HW120066   1.133   0.615   6.896
 6389SOL    HW220067   0.985   0.624   6.963
 6390SOL     OW20068   6.245   0.879   6.604
 6390SOL    HW120069   6.181   0.840   6.670
 6390SOL    HW220070   6.195   0.925   6.531
 6391SOL     OW20071   0.779   1.472   4.948
 6391SOL    HW120072   0.774   1.539   5.022
 6391SOL    HW220073   0.874   1.442   4.937
 6392SOL     OW20074   3.750   6.697   3.590
 6392SOL    HW120075   3.838   6.651   3.578
 6392SOL    HW220076   3.676   6.631   3.582
 6393SOL     OW20077   0.112   5.557   6.897
 6393SOL    HW120078   0.036   5.617   6.870
 6393SOL    HW220079   0.083   5.500   6.973
 6394SOL     OW20080   1.436   5.537   1.561
 6394SOL    HW120081   1.501   5.549   1.486
 6394SOL    HW220082   1.486   5.517   1.645
 6395SOL     OW20083   2.124   4.070   3.205
 6395SOL    HW120084   2.142   3.972   3.214
 6395SOL    HW220085   2.027   4.088   3.224
 6396SOL     OW20086   0.944   3.502   6.572
 6396SOL    HW120087   0.955   3.473   6.667
 6396SOL    HW220088   0.925   3.601   6.570
 6397SOL     OW20089   5.415   3.333   3.799
 6397SOL    HW120090   5.460   3.303   3.883
 6397SOL    HW220091   5.334   3.276   3.782
 6398SOL     OW20092   1.937   0.474   0.905
 6398SOL    HW120093   2.007   0.416   0.864
 6398SOL    HW220094   1.887   0.522   0.834
 6399SOL     OW20095   3.202   1.141   5.996
 6399SOL    HW120096   3.132   1.148   6.066
 6399SOL    HW220097   3.164   1.095   5.915
 6400SOL     OW20098   1.384   6.591   3.132
 6400SOL    HW120099   1.376   6.493   3.115
 6400SOL    HW220100   1.309   6.620   3.192
 6401SOL     OW20101   3.760   6.051   3.752
 6401SOL    HW120102   3.807   6.047   3.663
 6401SOL    HW220103   3.777   5.966   3.802
 6402SOL     OW20104   1.813   4.384   4.952
 6402SOL    HW120105   1.774   4.313   4.893
 6402SOL    HW220106   1.768   4.382   5.041
 6403SOL     OW20107   4.808   5.757   5.009
 6403SOL    HW120108   4.877   5.763   4.937
 6403SOL    HW220109   4.720   5.786   4.972
 6404SOL     OW20110   4.428   6.835   2.264
 6404SOL    HW120111   4.356   6.766   2.273
 6404SOL    HW220112   4.403   6.916   2.319
 6405SOL     OW20113   5.154   1.777   2.123
 6405SOL    HW120114   5.207   1.833   2.187
 6405SOL    HW220115   5.204   1.692   2.105
 6406SOL     OW20116   0.701   2.975   3.436
 6406SOL    HW120117   0.636   3.030   3.488
 6406SOL    HW220118   0.674   2.973   3.340
 6407SOL     OW20119   1.532   6.042   2.564
 6407SOL    HW120120   1.470   5.969   2.594
 6407SOL    HW220121   1.606   6.002   2.510
 6408SOL     OW20122   6.374   0.385   1.295
 6408SOL    HW120123   6.280   0.404   1.324
 6408SOL    HW220124   6.379   0.384   1.196
 6409SOL     OW20125   5.823   4.981   3.322
 6409SOL    HW120126   5.918   4.999   3.298
 6409SOL    HW220127   5.763   5.018   3.251
 6410SOL     OW20128   2.098   1.429   5.959
 6410SOL    HW120129   2.125   1.382   6.043
 6410SOL    HW220130   2.013   1.390   5.924
 6411SOL     OW20131   0.435   2.566   1.913
 6411SOL    HW120132   0.445   2.636   1.842
 6411SOL    HW220133   0.342   2.570   1.951
 6412SOL     OW20134   3.754   0.627   0.247
 6412SOL    HW120135   3.706   0.566   0.185
 6412SOL    HW220136   3.725   0.721   0.231
 6413SOL     OW20137   5.495   6.326   3.573
 6413SOL    HW120138   5.593   6.315   3.555
 6413SOL    HW220139   5.446   6.328   3.486
 6414SOL     OW20140   1.781   0.200   6.942
 6414SOL    HW120141   1.842   0.125   6.968
 6414SOL    HW220142   1.780   0.269   7.014
 6415SOL     OW20143   0.527   2.584   3.565
 6415SOL    HW120144   0.462   2.522   3.611
 6415SOL    HW220145   0.486   2.618   3.480
 6416SOL     OW20146   2.986   6.730   0.134
 6416SOL    HW120147   2.908   6.771   0.086
 6416SOL    HW220148   3.031   6.664   0.074
 6417SOL     OW20149   3.803   1.819   0.433
 6417SOL    HW120150   3.852   1.822   0.520
 6417SOL    HW220151   3.856   1.868   0.364
 6418SOL     OW20152   4.374   5.167   0.666
 6418SOL    HW120153   4.455   5.224   0.655
 6418SOL    HW220154   4.399   5.071   0.653
 6419SOL     OW20155   1.480   6.363   6.448
 6419SOL    HW120156   1.471   6.463   6.449
 6419SOL    HW220157   1.483   6.329   6.542
 6420SOL     OW20158   2.178   4.062   4.592
 6420SOL    HW120159   2.267   4.106   4.602
 6420SOL    HW220160   2.128   4.104   4.516
 6421SOL     OW20161   4.414   0.138   2.129
 6421SOL    HW120162   4.397   0.058   2.186
 6421SOL    HW220163   4.488   0.118   2.064
 6422SOL     OW20164   5.873   1.543   4.713
 6422SOL    HW120165   5.863   1.548   4.613
 6422SOL    HW220166   5.969   1.554   4.738
 6423SOL     OW20167   2.406   4.545   4.144
 6423SOL    HW120168   2.367   4.453   4.132
 6423SOL    HW220169   2.448   4.552   4.235
 6424SOL     OW20170   6.152   4.877   5.038
 6424SOL    HW120171   6.211   4.869   4.957
 6424SOL    HW220172   6.106   4.790   5.055
 6425SOL     OW20173   6.712   5.476   3.819
 6425SOL    HW120174   6.672   5.540   3.754
 6425SOL    HW220175   6.642   5.441   3.881
 6426SOL     OW20176   4.654   4.341   5.160
 6426SOL    HW120177   4.650   4.346   5.060
 6426SOL    HW220178   4.739   4.384   5.191
 6427SOL     OW20179   3.993   3.227   3.195
 6427SOL    HW120180   3.897   3.255   3.185
 6427SOL    HW220181   4.001   3.129   3.179
 6428SOL     OW20182   5.469   3.323   0.901
 6428SOL    HW120183   5.406   3.334   0.824
 6428SOL    HW220184   5.561   3.306   0.867
 6429SOL     OW20185   2.341   1.039   5.376
 6429SOL    HW120186   2.347   1.120   5.435
 6429SOL    HW220187   2.248   1.030   5.342
 6430SOL     OW20188   6.896   0.066   5.557
 6430SOL    HW120189   6.879   0.109   5.468
 6430SOL    HW220190   6.994   0.055   5.571
 6431SOL     OW20191   3.861   4.753   1.794
 6431SOL    HW120192   3.882   4.824   1.727
 6431SOL    HW220193   3.762   4.736   1.795
 6432SOL     OW20194   4.647   4.660   5.723
 6432SOL    HW120195   4.728   4.632   5.774
 6432SOL    HW220196   4.580   4.585   5.724
 6433SOL     OW20197   2.701   5.320   6.734
 6433SOL    HW120198   2.721   5.418   6.730
 6433SOL    HW220199   2.610   5.306   6.772
 6434SOL     OW20200   4.110   5.074   6.158
 6434SOL    HW120201   4.186   5.134   6.180
 6434SOL    HW220202   4.145   4.991   6.113
 6435SOL     OW20203   4.916   1.918   0.995
 6435SOL    HW120204   5.004   1.874   0.977
 6435SOL    HW220205   4.877   1.880   1.079
 6436SOL     OW20206   6.598   3.582   4.329
 6436SOL    HW120207   6.656   3.527   4.268
 6436SOL    HW220208   6.571   3.666   4.282
 6437SOL     OW20209   0.759   2.008   5.359
 6437SOL    HW120210   0.664   2.013   5.390
 6437SOL    HW220211   0.819   1.997   5.439
 6438SOL     OW20212   0.604   5.275   0.392
 6438SOL    HW120213   0.540   5.277   0.469
 6438SOL    HW220214   0.644   5.183   0.385
 6439SOL     OW20215   5.926   0.122   2.960
 6439SOL    HW120216   5.969   0.093   3.045
 6439SOL    HW220217   5.956   0.062   2.885
 6440SOL     OW20218   2.664   2.144   0.051
 6440SOL    HW120219   2.676   2.146   6.971
 6440SOL    HW220220   2.632   2.054   0.079
 6441SOL     OW20221   0.693   1.935   2.715
 6441SOL    HW120222   0.699   2.002   2.789
 6441SOL    HW220223   0.721   1.845   2.749
 6442SOL     OW20224   2.820   2.556   5.355
 6442SOL    HW120225   2.835   2.475   5.299
 6442SOL    HW220226   2.755   2.535   5.427
 6443SOL     OW20227   4.991   2.675   0.315
 6443SOL    HW120228   5.015   2.725   0.232
 6443SOL    HW220229   5.015   2.578   0.304
 6444SOL     OW20230   6.533   3.164   5.048
 6444SOL    HW120231   6.630   3.148   5.066
 6444SOL    HW220232   6.500   3.239   5.105
 6445SOL     OW20233   3.638   2.953   3.062
 6445SOL    HW120234   3.633   2.995   2.971
 6445SOL    HW220235   3.547   2.923   3.090
 6446SOL     OW20236   2.387   0.904   6.420
 6446SOL    HW120237   2.428   0.921   6.330
 6446SOL    HW220238   2.460   0.891   6.487
 6447SOL     OW20239   6.263   3.483   1.869
 6447SOL    HW120240   6.280   3.398   1.820
 6447SOL    HW220241   6.319   3.556   1.830
 6448SOL     OW20242   3.438   5.341   1.346
 6448SOL    HW120243   3.400   5.424   1.305
 6448SOL    HW220244   3.370   5.298   1.405
 6449SOL     OW20245   2.503   5.182   1.419
 6449SOL    HW120246   2.594   5.216   1.441
 6449SOL    HW220247   2.437   5.258   1.424
 6450SOL     OW20248   0.536   4.217   1.175
 6450SOL    HW120249   0.582   4.232   1.263
 6450SOL    HW220250   0.601   4.176   1.110
 6451SOL     OW20251   3.969   2.180   0.963
 6451SOL    HW120252   3.900   2.248   0.939
 6451SOL    HW220253   4.036   2.221   1.026
 6452SOL     OW20254   4.798   2.372   3.605
 6452SOL    HW120255   4.879   2.397   3.552
 6452SOL    HW220256   4.814   2.390   3.702
 6453SOL     OW20257   2.732   1.125   1.239
 6453SOL    HW120258   2.805   1.159   1.299
 6453SOL    HW220259   2.743   1.027   1.225
 6454SOL     OW20260   5.830   2.300   3.409
 6454SOL    HW120261   5.813   2.215   3.359
 6454SOL    HW220262   5.851   2.373   3.344
 6455SOL     OW20263   6.759   3.929   3.506
 6455SOL    HW120264   6.836   3.907   3.445
 6455SOL    HW220265   6.729   3.846   3.553
 6456SOL     OW20266   6.100   1.688   2.754
 6456SOL    HW120267   6.015   1.674   2.805
 6456SOL    HW220268   6.177   1.656   2.809
 6457SOL     OW20269   3.784   6.868   2.464
 6457SOL    HW120270   3.801   6.920   2.380
 6457SOL    HW220271   3.687   6.843   2.469
 6458SOL     OW20272   0.088   4.819   3.263
 6458SOL    HW120273   0.142   4.851   3.185
 6458SOL    HW220274   0.021   4.889   3.288
 6459SOL     OW20275   6.267   3.708   2.437
 6459SOL    HW120276   6.283   3.675   2.344
 6459SOL    HW220277   6.172   3.688   2.463
 6460SOL     OW20278   0.707   5.939   5.698
 6460SOL    HW120279   0.806   5.930   5.704
 6460SOL    HW220280   0.671   5.867   5.639
 6461SOL     OW20281   2.193   5.590   1.351
 6461SOL    HW120282   2.262   5.607   1.421
 6461SOL    HW220283   2.109   5.639   1.374
 6462SOL     OW20284   1.678   4.031   5.397
 6462SOL    HW120285   1.703   3.954   5.337
 6462SOL    HW220286   1.589   4.013   5.439
 6463SOL     OW20287   4.751   2.027   1.712
 6463SOL    HW120288   4.848   2.006   1.726
 6463SOL    HW220289   4.698   1.997   1.792
 6464SOL     OW20290   1.093   4.537   4.216
 6464SOL    HW120291   1.097   4.513   4.120
 6464SOL    HW220292   0.999   4.557   4.242
 6465SOL     OW20293   4.000   1.021   3.117
 6465SOL    HW120294   3.950   0.959   3.057
 6465SOL    HW220295   4.051   0.968   3.185
 6466SOL     OW20296   0.350   3.053   0.363
 6466SOL    HW120297   0.323   3.139   0.407
 6466SOL    HW220298   0.449   3.042   0.370
 6467SOL     OW20299   2.955   2.371   0.854
 6467SOL    HW120300   2.994   2.314   0.782
 6467SOL    HW220301   2.969   2.468   0.832
 6468SOL     OW20302   2.582   1.246   0.837
 6468SOL    HW120303   2.501   1.208   0.882
 6468SOL    HW220304   2.582   1.346   0.846
 6469SOL     OW20305   3.266   1.499   2.921
 6469SOL    HW120306   3.253   1.428   2.851
 6469SOL    HW220307   3.177   1.533   2.950
 6470SOL     OW20308   6.604   1.995   6.743
 6470SOL    HW120309   6.620   1.898   6.759
 6470SOL    HW220310   6.550   2.032   6.819
 6471SOL     OW20311   0.735   6.333   5.862
 6471SOL    HW120312   0.817   6.315   5.916
 6471SOL    HW220313   0.665   6.264   5.884
 6472SOL     OW20314   6.564   6.436   2.962
 6472SOL    HW120315   6.568   6.524   3.009
 6472SOL    HW220316   6.476   6.428   2.914
 6473SOL     OW20317   2.663   1.493   4.049
 6473SOL    HW120318   2.612   1.446   4.121
 6473SOL    HW220319   2.640   1.454   3.960
 6474SOL     OW20320   3.592   5.477   5.006
 6474SOL    HW120321   3.667   5.531   4.968
 6474SOL    HW220322   3.629   5.396   5.052
 6475SOL     OW20323   5.949   5.344   2.370
 6475SOL    HW120324   5.892   5.287   2.312
 6475SOL    HW220325   6.022   5.386   2.316
 6476SOL     OW20326   3.767   1.723   6.400
 6476SOL    HW120327   3.754   1.648   6.466
 6476SOL    HW220328   3.800   1.804   6.448
 6477SOL     OW20329   6.380   6.184   1.731
 6477SOL    HW120330   6.413   6.227   1.815
 6477SOL    HW220331   6.456   6.173   1.667
 6478SOL     OW20332   3.428   5.567   1.518
 6478SOL    HW120333   3.328   5.573   1.519
 6478SOL    HW220334   3.455   5.475   1.548
 6479SOL     OW20335   3.191   5.872   3.935
 6479SOL    HW120336   3.232   5.854   3.846
 6479SOL    HW220337   3.258   5.914   3.995
 6480SOL     OW20338   3.742   1.957   6.823
 6480SOL    HW120339   3.796   1.991   6.901
 6480SOL    HW220340   3.735   2.029   6.754
 6481SOL     OW20341   3.579   2.746   1.741
 6481SOL    HW120342   3.485   2.729   1.772
 6481SOL    HW220343   3.612   2.666   1.691
 6482SOL     OW20344   5.512   4.124   5.528
 6482SOL    HW120345   5.413   4.134   5.538
 6482SOL    HW220346   5.558   4.188   5.589
 6483SOL     OW20347   1.175   5.965   4.933
 6483SOL    HW120348   1.177   5.865   4.920
 6483SOL    HW220349   1.117   6.006   4.863
 6484SOL     OW20350   2.434   0.896   4.145
 6484SOL    HW120351   2.382   0.811   4.133
 6484SOL    HW220352   2.469   0.901   4.239
 6485SOL     OW20353   2.138   6.574   4.376
 6485SOL    HW120354   2.124   6.617   4.465
 6485SOL    HW220355   2.054   6.580   4.322
 6486SOL     OW20356   1.734   4.587   3.465
 6486SOL    HW120357   1.787   4.513   3.425
 6486SOL    HW220358   1.636   4.567   3.457
 6487SOL     OW20359   5.937   4.585   3.430
 6487SOL    HW120360   5.990   4.556   3.510
 6487SOL    HW220361   5.994   4.642   3.372
 6488SOL     OW20362   4.660   5.525   4.665
 6488SOL    HW120363   4.754   5.546   4.692
 6488SOL    HW220364   4.633   5.438   4.706
 6489SOL     OW20365   4.348   2.940   5.585
 6489SOL    HW120366   4.382   2.881   5.511
 6489SOL    HW220367   4.255   2.969   5.564
 6490SOL     OW20368   1.717   2.535   0.141
 6490SOL    HW120369   1.722   2.476   0.061
 6490SOL    HW220370   1.621   2.553   0.163
 6491SOL     OW20371   2.937   0.319   1.107
 6491SOL    HW120372   2.872   0.249   1.078
 6491SOL    HW220373   2.916   0.405   1.061
 6492SOL     OW20374   3.498   3.476   4.625
 6492SOL    HW120375   3.578   3.474   4.566
 6492SOL    HW220376   3.516   3.535   4.703
 6493SOL     OW20377   0.563   4.044   5.659
 6493SOL    HW120378   0.635   4.072   5.595
 6493SOL    HW220379   0.589   3.957   5.703
 6494SOL     OW20380   5.922   0.434   1.496
 6494SOL    HW120381   5.947   0.435   1.399
 6494SOL    HW220382   5.974   0.363   1.543
 6495SOL     OW20383   6.186   0.289   3.716
 6495SOL    HW120384   6.112   0.263   3.655
 6495SOL    HW220385   6.148   0.322   3.803
 6496SOL     OW20386   3.494   1.535   1.444
 6496SOL    HW120387   3.489   1.628   1.481
 6496SOL    HW220388   3.447   1.472   1.505
 6497SOL     OW20389   0.170   1.378   0.744
 6497SOL    HW120390   0.165   1.478   0.747
 6497SOL    HW220391   0.163   1.347   0.649
 6498SOL     OW20392   0.832   4.359   4.344
 6498SOL    HW120393   0.899   4.395   4.408
 6498SOL    HW220394   0.865   4.272   4.306
 6499SOL     OW20395   5.110   3.856   3.095
 6499SOL    HW120396   5.075   3.818   3.009
 6499SOL    HW220397   5.145   3.948   3.078
 6500SOL     OW20398   1.454   4.346   3.185
 6500SOL    HW120399   1.408   4.270   3.139
 6500SOL    HW220400   1.553   4.331   3.183
 6501SOL     OW20401   6.205   1.971   1.064
 6501SOL    HW120402   6.254   2.031   1.000
 6501SOL    HW220403   6.271   1.926   1.124
 6502SOL     OW20404   6.551   3.739   1.998
 6502SOL    HW120405   6.579   3.835   1.994
 6502SOL    HW220406   6.487   3.719   1.924
 6503SOL     OW20407   6.397   3.263   5.566
 6503SOL    HW120408   6.408   3.253   5.467
 6503SOL    HW220409   6.299   3.273   5.587
 6504SOL     OW20410   4.694   5.805   6.513
 6504SOL    HW120411   4.596   5.814   6.496
 6504SOL    HW220412   4.745   5.831   6.432
 6505SOL     OW20413   0.304   5.885   0.903
 6505SOL    HW120414   0.369   5.943   0.953
 6505SOL    HW220415   0.273   5.934   0.821
 6506SOL     OW20416   6.985   4.212   2.065
 6506SOL    HW120417   0.032   4.197   1.991
 6506SOL    HW220418   6.976   4.128   2.119
 6507SOL     OW20419   3.458   4.375   6.649
 6507SOL    HW120420   3.400   4.456   6.657
 6507SOL    HW220421   3.554   4.404   6.649
 6508SOL     OW20422   0.710   0.056   2.528
 6508SOL    HW120423   0.636   0.059   2.594
 6508SOL    HW220424   0.796   0.033   2.575
 6509SOL     OW20425   3.221   1.760   6.319
 6509SOL    HW120426   3.125   1.777   6.295
 6509SOL    HW220427   3.254   1.835   6.376
 6510SOL     OW20428   3.824   5.964   5.953
 6510SOL    HW120429   3.907   6.012   5.924
 6510SOL    HW220430   3.816   5.969   6.053
 6511SOL     OW20431   3.312   0.866   0.167
 6511SOL    HW120432   3.243   0.808   0.210
 6511SOL    HW220433   3.315   0.954   0.215
 6512SOL     OW20434   4.054   1.585   0.549
 6512SOL    HW120435   3.974   1.533   0.520
 6512SOL    HW220436   4.059   1.671   0.498
 6513SOL     OW20437   2.127   5.078   3.337
 6513SOL    HW120438   2.050   5.016   3.325
 6513SOL    HW220439   2.140   5.098   3.434
 6514SOL     OW20440   5.407   6.875   5.737
 6514SOL    HW120441   5.394   6.940   5.661
 6514SOL    HW220442   5.495   6.828   5.726
 6515SOL     OW20443   2.125   5.329   2.184
 6515SOL    HW120444   2.193   5.256   2.196
 6515SOL    HW220445   2.159   5.397   2.120
 6516SOL     OW20446   6.668   4.175   1.382
 6516SOL    HW120447   6.612   4.257   1.390
 6516SOL    HW220448   6.758   4.199   1.347
 6517SOL     OW20449   6.550   2.921   0.515
 6517SOL    HW120450   6.570   2.954   0.423
 6517SOL    HW220451   6.634   2.918   0.569
 6518SOL     OW20452   0.993   1.857   3.252
 6518SOL    HW120453   0.936   1.930   3.291
 6518SOL    HW220454   1.089   1.883   3.259
 6519SOL     OW20455   1.625   1.209   2.934
 6519SOL    HW120456   1.630   1.236   2.838
 6519SOL    HW220457   1.537   1.239   2.972
 6520SOL     OW20458   0.612   5.418   0.041
 6520SOL    HW120459   0.545   5.479   7.017
 6520SOL    HW220460   0.575   5.385   0.128
 6521SOL     OW20461   0.998   3.906   4.182
 6521SOL    HW120462   1.070   3.836   4.182
 6521SOL    HW220463   0.914   3.867   4.143
 6522SOL     OW20464   2.882   3.205   5.110
 6522SOL    HW120465   2.785   3.179   5.108
 6522SOL    HW220466   2.938   3.123   5.118
 6523SOL     OW20467   5.521   0.010   0.272
 6523SOL    HW120468   5.597   0.060   0.230
 6523SOL    HW220469   5.490   6.957   0.210
 6524SOL     OW20470   2.402   2.567   1.345
 6524SOL    HW120471   2.321   2.534   1.297
 6524SOL    HW220472   2.483   2.548   1.289
 6525SOL     OW20473   1.141   4.525   3.592
 6525SOL    HW120474   1.178   4.441   3.552
 6525SOL    HW220475   1.080   4.502   3.667
 6526SOL     OW20476   0.751   6.725   0.150
 6526SOL    HW120477   0.762   6.802   0.212
 6526SOL    HW220478   0.815   6.652   0.176
 6527SOL     OW20479   0.291   1.970   0.483
 6527SOL    HW120480   0.268   2.025   0.402
 6527SOL    HW220481   0.247   2.010   0.564
 6528SOL     OW20482   5.121   0.533   6.624
 6528SOL    HW120483   5.186   0.594   6.576
 6528SOL    HW220484   5.164   0.444   6.637
 6529SOL     OW20485   6.585   1.249   2.532
 6529SOL    HW120486   6.527   1.169   2.517
 6529SOL    HW220487   6.672   1.237   2.483
 6530SOL     OW20488   0.972   3.003   2.533
 6530SOL    HW120489   1.019   3.024   2.447
 6530SOL    HW220490   0.954   3.088   2.582
 6531SOL     OW20491   3.872   3.912   5.064
 6531SOL    HW120492   3.930   3.848   5.013
 6531SOL    HW220493   3.861   3.996   5.013
 6532SOL     OW20494   1.347   0.848   0.844
 6532SOL    HW120495   1.308   0.768   0.798
 6532SOL    HW220496   1.447   0.845   0.839
 6533SOL     OW20497   4.758   3.560   0.930
 6533SOL    HW120498   4.726   3.474   0.971
 6533SOL    HW220499   4.778   3.625   1.003
 6534SOL     OW20500   6.663   4.345   3.007
 6534SOL    HW120501   6.614   4.260   3.021
 6534SOL    HW220502   6.609   4.406   2.949
 6535SOL     OW20503   5.965   3.061   5.222
 6535SOL    HW120504   5.871   3.049   5.190
 6535SOL    HW220505   5.968   3.050   5.322
 6536SOL     OW20506   0.623   3.664   5.334
 6536SOL    HW120507   0.586   3.628   5.249
 6536SOL    HW220508   0.560   3.645   5.409
 6537SOL     OW20509   6.029   5.172   4.171
 6537SOL    HW120510   6.022   5.125   4.259
 6537SOL    HW220511   6.110   5.141   4.123
 6538SOL     OW20512   2.877   3.292   5.753
 6538SOL    HW120513   2.790   3.286   5.703
 6538SOL    HW220514   2.950   3.315   5.689
 6539SOL     OW20515   5.850   0.971   5.501
 6539SOL    HW120516   5.870   0.903   5.431
 6539SOL    HW220517   5.851   1.062   5.460
 6540SOL     OW20518   6.342   2.706   5.604
 6540SOL    HW120519   6.288   2.628   5.571
 6540SOL    HW220520   6.387   2.681   5.690
 6541SOL     OW20521   5.829   0.614   4.643
 6541SOL    HW120522   5.920   0.654   4.628
 6541SOL    HW220523   5.789   0.654   4.725
 6542SOL     OW20524   1.320   4.336   3.459
 6542SOL    HW120525   1.364   4.383   3.382
 6542SOL    HW220526   1.341   4.239   3.455
 6543SOL     OW20527   4.014   1.829   5.137
 6543SOL    HW120528   4.019   1.890   5.057
 6543SOL    HW220529   4.046   1.878   5.218
 6544SOL     OW20530   1.363   6.689   1.450
 6544SOL    HW120531   1.374   6.592   1.427
 6544SOL    HW220532   1.398   6.706   1.542
 6545SOL     OW20533   4.125   6.933   0.238
 6545SOL    HW120534   4.172   6.869   0.177
 6545SOL    HW220535   4.172   0.003   0.235
 6546SOL     OW20536   4.579   3.392   6.467
 6546SOL    HW120537   4.627   3.464   6.517
 6546SOL    HW220538   4.615   3.386   6.374
 6547SOL     OW20539   6.703   5.424   6.840
 6547SOL    HW120540   6.734   5.488   6.769
 6547SOL    HW220541   6.771   5.352   6.853
 6548SOL     OW20542   0.260   1.683   5.457
 6548SOL    HW120543   0.290   1.606   5.400
 6548SOL    HW220544   0.216   1.751   5.399
 6549SOL     OW20545   4.837   0.456   1.888
 6549SOL    HW120546   4.882   0.514   1.820
 6549SOL    HW220547   4.905   0.404   1.939
 6550SOL     OW20548   6.371   0.280   3.260
 6550SOL    HW120549   6.293   0.237   3.213
 6550SOL    HW220550   6.359   0.379   3.259
 6551SOL     OW20551   2.856   3.897   0.500
 6551SOL    HW120552   2.950   3.866   0.487
 6551SOL    HW220553   2.821   3.860   0.586
 6552SOL     OW20554   2.131   6.493   0.348
 6552SOL    HW120555   2.039   6.505   0.310
 6552SOL    HW220556   2.129   6.515   0.446
 6553SOL     OW20557   0.247   1.638   3.735
 6553SOL    HW120558   0.171   1.603   3.681
 6553SOL    HW220559   0.327   1.652   3.676
 6554SOL     OW20560   2.621   1.168   4.467
 6554SOL    HW120561   2.606   1.197   4.562
 6554SOL    HW220562   2.599   1.244   4.405
 6555SOL     OW20563   6.934   3.741   3.860
 6555SOL    HW120564   6.990   3.680   3.804
 6555SOL    HW220565   6.963   3.734   3.955
 6556SOL     OW20566   4.833   2.943   2.940
 6556SOL    HW120567   4.787   2.964   2.854
 6556SOL    HW220568   4.841   2.844   2.950
 6557SOL     OW20569   2.339   0.321   1.912
 6557SOL    HW120570   2.281   0.244   1.938
 6557SOL    HW220571   2.310   0.403   1.961
 6558SOL     OW20572   5.331   5.339   0.400
 6558SOL    HW120573   5.411   5.279   0.404
 6558SOL    HW220574   5.264   5.312   0.469
 6559SOL     OW20575   0.225   2.343   6.370
 6559SOL    HW120576   0.272   2.431   6.369
 6559SOL    HW220577   0.255   2.289   6.448
 6560SOL     OW20578   5.794   5.067   0.845
 6560SOL    HW120579   5.851   5.144   0.817
 6560SOL    HW220580   5.852   4.986   0.858
 6561SOL     OW20581   3.871   4.266   0.200
 6561SOL    HW120582   3.818   4.190   0.236
 6561SOL    HW220583   3.947   4.286   0.263
 6562SOL     OW20584   5.564   3.121   1.339
 6562SOL    HW120585   5.583   3.213   1.304
 6562SOL    HW220586   5.626   3.056   1.296
 6563SOL     OW20587   5.003   5.929   5.149
 6563SOL    HW120588   5.034   5.908   5.241
 6563SOL    HW220589   4.905   5.910   5.141
 6564SOL     OW20590   6.559   3.687   2.969
 6564SOL    HW120591   6.636   3.731   3.015
 6564SOL    HW220592   6.501   3.757   2.927
 6565SOL     OW20593   5.634   0.389   3.082
 6565SOL    HW120594   5.586   0.477   3.091
 6565SOL    HW220595   5.697   0.377   3.158
 6566SOL     OW20596   4.732   6.073   2.695
 6566SOL    HW120597   4.820   6.032   2.671
 6566SOL    HW220598   4.748   6.150   2.758
 6567SOL     OW20599   4.334   0.861   1.146
 6567SOL    HW120600   4.401   0.935   1.155
 6567SOL    HW220601   4.383   0.775   1.131
 6568SOL     OW20602   4.335   1.222   1.229
 6568SOL    HW120603   4.377   1.302   1.187
 6568SOL    HW220604   4.391   1.141   1.212
 6569SOL     OW20605   6.871   4.425   5.767
 6569SOL    HW120606   6.858   4.420   5.866
 6569SOL    HW220607   6.963   4.460   5.748
 6570SOL     OW20608   4.072   6.788   1.794
 6570SOL    HW120609   4.016   6.812   1.714
 6570SOL    HW220610   4.033   6.708   1.839
 6571SOL     OW20611   3.230   6.051   2.345
 6571SOL    HW120612   3.329   6.041   2.354
 6571SOL    HW220613   3.185   5.997   2.416
 6572SOL     OW20614   1.076   5.466   3.972
 6572SOL    HW120615   1.166   5.471   4.014
 6572SOL    HW220616   1.011   5.425   4.036
 6573SOL     OW20617   1.679   1.428   3.729
 6573SOL    HW120618   1.761   1.399   3.779
 6573SOL    HW220619   1.699   1.513   3.680
 6574SOL     OW20620   1.582   6.175   2.092
 6574SOL    HW120621   1.514   6.247   2.087
 6574SOL    HW220622   1.655   6.201   2.155
 6575SOL     OW20623   6.898   0.803   2.936
 6575SOL    HW120624   6.969   0.824   3.003
 6575SOL    HW220625   6.818   0.766   2.983
 6576SOL     OW20626   4.382   6.369   1.200
 6576SOL    HW120627   4.419   6.302   1.265
 6576SOL    HW220628   4.353   6.451   1.250
 6577SOL     OW20629   2.652   1.106   3.824
 6577SOL    HW120630   2.559   1.069   3.814
 6577SOL    HW220631   2.682   1.095   3.918
 6578SOL     OW20632   1.435   4.969   1.864
 6578SOL    HW120633   1.496   4.895   1.838
 6578SOL    HW220634   1.411   4.959   1.961
 6579SOL     OW20635   6.591   0.847   3.927
 6579SOL    HW120636   6.577   0.811   4.019
 6579SOL    HW220637   6.683   0.885   3.919
 6580SOL     OW20638   1.539   0.952   6.696
 6580SOL    HW120639   1.564   1.043   6.662
 6580SOL    HW220640   1.578   0.883   6.636
 6581SOL     OW20641   1.213   2.429   0.036
 6581SOL    HW120642   1.268   2.506   0.005
 6581SOL    HW220643   1.153   2.459   0.111
 6582SOL     OW20644   6.801   1.501   3.366
 6582SOL    HW120645   6.703   1.482   3.365
 6582SOL    HW220646   6.844   1.463   3.284
 6583SOL     OW20647   4.184   5.993   6.463
 6583SOL    HW120648   4.126   6.051   6.520
 6583SOL    HW220649   4.189   6.030   6.371
 6584SOL     OW20650   3.755   2.656   0.464
 6584SOL    HW120651   3.710   2.640   0.551
 6584SOL    HW220652   3.852   2.677   0.479
 6585SOL     OW20653   5.974   6.638   0.780
 6585SOL    HW120654   6.065   6.600   0.761
 6585SOL    HW220655   5.984   6.733   0.810
 6586SOL     OW20656   6.154   2.218   6.543
 6586SOL    HW120657   6.232   2.207   6.481
 6586SOL    HW220658   6.184   2.205   6.637
 6587SOL     OW20659   1.389   4.815   5.830
 6587SOL    HW120660   1.382   4.915   5.831
 6587SOL    HW220661   1.301   4.775   5.854
 6588SOL     OW20662   6.499   3.554   0.557
 6588SOL    HW120663   6.520   3.615   0.634
 6588SOL    HW220664   6.541   3.465   0.573
 6589SOL     OW20665   6.992   0.623   2.005
 6589SOL    HW120666   6.924   0.691   1.980
 6589SOL    HW220667   0.005   0.574   1.924
 6590SOL     OW20668   1.462   0.152   3.875
 6590SOL    HW120669   1.554   0.138   3.840
 6590SOL    HW220670   1.422   0.063   3.899
 6591SOL     OW20671   5.709   4.125   4.279
 6591SOL    HW120672   5.656   4.150   4.361
 6591SOL    HW220673   5.790   4.183   4.273
 6592SOL     OW20674   6.095   6.646   2.318
 6592SOL    HW120675   6.151   6.572   2.356
 6592SOL    HW220676   6.119   6.661   2.222
 6593SOL     OW20677   2.705   2.126   1.958
 6593SOL    HW120678   2.775   2.197   1.962
 6593SOL    HW220679   2.724   2.057   2.028
 6594SOL     OW20680   4.367   1.163   6.429
 6594SOL    HW120681   4.317   1.161   6.342
 6594SOL    HW220682   4.433   1.238   6.428
 6595SOL     OW20683   1.724   2.534   5.754
 6595SOL    HW120684   1.708   2.551   5.851
 6595SOL    HW220685   1.737   2.621   5.707
 6596SOL     OW20686   5.696   6.170   2.682
 6596SOL    HW120687   5.779   6.144   2.632
 6596SOL    HW220688   5.710   6.155   2.780
 6597SOL     OW20689   1.581   4.628   2.037
 6597SOL    HW120690   1.637   4.619   1.955
 6597SOL    HW220691   1.583   4.722   2.068
 6598SOL     OW20692   2.156   4.609   4.403
 6598SOL    HW120693   2.131   4.698   4.440
 6598SOL    HW220694   2.255   4.605   4.388
 6599SOL     OW20695   6.215   5.537   6.437
 6599SOL    HW120696   6.272   5.470   6.484
 6599SOL    HW220697   6.183   5.499   6.350
 6600SOL     OW20698   4.524   0.206   5.149
 6600SOL    HW120699   4.502   0.117   5.188
 6600SOL    HW220700   4.503   0.206   5.052
 6601SOL     OW20701   1.614   1.810   1.624
 6601SOL    HW120702   1.515   1.804   1.615
 6601SOL    HW220703   1.658   1.763   1.548
 6602SOL     OW20704   1.940   6.472   1.424
 6602SOL    HW120705   1.903   6.420   1.346
 6602SOL    HW220706   1.890   6.447   1.507
 6603SOL     OW20707   7.005   3.618   2.759
 6603SOL    HW120708   6.910   3.590   2.767
 6603SOL    HW220709   0.036   3.591   2.841
 6604SOL     OW20710   2.469   6.202   2.147
 6604SOL    HW120711   2.430   6.293   2.156
 6604SOL    HW220712   2.536   6.201   2.074
 6605SOL     OW20713   0.326   5.722   1.122
 6605SOL    HW120714   0.292   5.629   1.108
 6605SOL    HW220715   0.298   5.780   1.046
 6606SOL     OW20716   1.745   3.933   3.341
 6606SOL    HW120717   1.763   3.932   3.439
 6606SOL    HW220718   1.732   3.839   3.309
 6607SOL     OW20719   6.028   4.081   3.579
 6607SOL    HW120720   6.122   4.107   3.604
 6607SOL    HW220721   5.975   4.164   3.559
 6608SOL     OW20722   1.032   5.977   5.773
 6608SOL    HW120723   1.094   6.018   5.706
 6608SOL    HW220724   1.025   5.879   5.756
 6609SOL     OW20725   4.593   1.783   5.967
 6609SOL    HW120726   4.617   1.728   6.047
 6609SOL    HW220727   4.658   1.763   5.893
 6610SOL     OW20728   3.103   5.156   1.107
 6610SOL    HW120729   3.041   5.097   1.160
 6610SOL    HW220730   3.197   5.132   1.128
 6611SOL     OW20731   4.380   1.811   3.904
 6611SOL    HW120732   4.410   1.773   3.992
 6611SOL    HW220733   4.422   1.759   3.830
 6612SOL     OW20734   6.782   1.268   6.075
 6612SOL    HW120735   6.839   1.347   6.054
 6612SOL    HW220736   6.729   1.286   6.158
 6613SOL     OW20737   4.646   6.524   6.824
 6613SOL    HW120738   4.709   6.499   6.750
 6613SOL    HW220739   4.575   6.585   6.788
 6614SOL     OW20740   4.247   5.456   1.246
 6614SOL    HW120741   4.332   5.403   1.244
 6614SOL    HW220742   4.196   5.439   1.162
 6615SOL     OW20743   3.117   4.533   6.848
 6615SOL    HW120744   3.089   4.441   6.876
 6615SOL    HW220745   3.207   4.529   6.805
 6616SOL     OW20746   4.261   1.037   5.624
 6616SOL    HW120747   4.308   1.070   5.542
 6616SOL    HW220748   4.298   1.085   5.704
 6617SOL     OW20749   3.678   0.198   3.792
 6617SOL    HW120750   3.665   0.170   3.696
 6617SOL    HW220751   3.668   0.118   3.851
 6618SOL     OW20752   6.738   2.235   2.534
 6618SOL    HW120753   6.698   2.288   2.459
 6618SOL    HW220754   6.692   2.257   2.620
 6619SOL     OW20755   4.803   6.351   3.638
 6619SOL    HW120756   4.719   6.380   3.685
 6619SOL    HW220757   4.795   6.254   3.613
 6620SOL     OW20758   0.613   3.473   3.084
 6620SOL    HW120759   0.665   3.404   3.135
 6620SOL    HW220760   0.558   3.427   3.014
 6621SOL     OW20761   3.836   3.331   4.720
 6621SOL    HW120762   3.769   3.347   4.791
 6621SOL    HW220763   3.924   3.372   4.746
 6622SOL     OW20764   0.774   5.318   0.671
 6622SOL    HW120765   0.811   5.364   0.590
 6622SOL    HW220766   0.676   5.334   0.676
 6623SOL     OW20767   3.561   4.068   5.939
 6623SOL    HW120768   3.546   3.974   5.969
 6623SOL    HW220769   3.561   4.072   5.839
 6624SOL     OW20770   1.677   2.302   3.866
 6624SOL    HW120771   1.666   2.214   3.913
 6624SOL    HW220772   1.695   2.374   3.934
 6625SOL     OW20773   5.942   3.448   5.907
 6625SOL    HW120774   5.854   3.437   5.861
 6625SOL    HW220775   5.969   3.544   5.908
 6626SOL     OW20776   2.401   6.372   4.870
 6626SOL    HW120777   2.483   6.423   4.844
 6626SOL    HW220778   2.425   6.278   4.890
 6627SOL     OW20779   1.768   5.964   4.335
 6627SOL    HW120780   1.840   6.022   4.297
 6627SOL    HW220781   1.769   5.875   4.289
 6628SOL     OW20782   4.373   6.200   4.278
 6628SOL    HW120783   4.354   6.238   4.188
 6628SOL    HW220784   4.433   6.262   4.329
 6629SOL     OW20785   5.352   5.720   6.603
 6629SOL    HW120786   5.439   5.744   6.559
 6629SOL    HW220787   5.326   5.792   6.666
 6630SOL     OW20788   2.308   1.737   1.748
 6630SOL    HW120789   2.355   1.660   1.791
 6630SOL    HW220790   2.214   1.741   1.780
 6631SOL     OW20791   2.357   4.515   6.723
 6631SOL    HW120792   2.363   4.489   6.627
 6631SOL    HW220793   2.268   4.557   6.741
 6632SOL     OW20794   1.504   0.860   1.227
 6632SOL    HW120795   1.464   0.943   1.189
 6632SOL    HW220796   1.431   0.798   1.258
 6633SOL     OW20797   3.718   5.700   6.078
 6633SOL    HW120798   3.734   5.636   6.153
 6633SOL    HW220799   3.754   5.662   5.993
 6634SOL     OW20800   4.401   2.269   4.369
 6634SOL    HW120801   4.401   2.347   4.431
 6634SOL    HW220802   4.361   2.190   4.416
 6635SOL     OW20803   5.037   4.719   2.915
 6635SOL    HW120804   4.954   4.680   2.955
 6635SOL    HW220805   5.116   4.689   2.967
 6636SOL     OW20806   3.667   0.314   0.449
 6636SOL    HW120807   3.717   0.235   0.485
 6636SOL    HW220808   3.573   0.311   0.480
 6637SOL     OW20809   1.476   1.144   1.433
 6637SOL    HW120810   1.434   1.196   1.359
 6637SOL    HW220811   1.567   1.181   1.453
 6638SOL     OW20812   3.040   3.154   3.633
 6638SOL    HW120813   3.047   3.124   3.538
 6638SOL    HW220814   3.035   3.254   3.637
 6639SOL     OW20815   4.942   2.938   1.266
 6639SOL    HW120816   4.926   2.883   1.184
 6639SOL    HW220817   4.854   2.959   1.309
 6640SOL     OW20818   0.988   2.503   4.996
 6640SOL    HW120819   0.943   2.519   5.084
 6640SOL    HW220820   0.920   2.503   4.923
 6641SOL     OW20821   4.475   2.009   0.844
 6641SOL    HW120822   4.474   2.011   0.744
 6641SOL    HW220823   4.384   1.982   0.877
 6642SOL     OW20824   1.197   6.031   0.755
 6642SOL    HW120825   1.135   6.097   0.796
 6642SOL    HW220826   1.154   5.940   0.755
 6643SOL     OW20827   4.318   6.284   6.681
 6643SOL    HW120828   4.370   6.272   6.596
 6643SOL    HW220829   4.269   6.371   6.679
 6644SOL     OW20830   1.758   6.730   3.264
 6644SOL    HW120831   1.673   6.739   3.316
 6644SOL    HW220832   1.742   6.760   3.170
 6645SOL     OW20833   5.925   3.148   0.502
 6645SOL    HW120834   5.954   3.122   0.410
 6645SOL    HW220835   5.844   3.095   0.528
 6646SOL     OW20836   4.584   0.114   6.428
 6646SOL    HW120837   4.565   0.075   6.338
 6646SOL    HW220838   4.660   0.065   6.471
 6647SOL     OW20839   4.531   4.700   1.240
 6647SOL    HW120840   4.466   4.748   1.180
 6647SOL    HW220841   4.513   4.725   1.335
 6648SOL     OW20842   2.521   6.126   5.540
 6648SOL    HW120843   2.545   6.117   5.444
 6648SOL    HW220844   2.433   6.082   5.557
 6649SOL     OW20845   5.692   2.945   0.022
 6649SOL    HW120846   5.657   3.025   0.068
 6649SOL    HW220847   5.792   2.946   0.024
 6650SOL     OW20848   2.422   1.588   5.327
 6650SOL    HW120849   2.328   1.620   5.333
 6650SOL    HW220850   2.424   1.494   5.292
 6651SOL     OW20851   6.476   1.905   6.471
 6651SOL    HW120852   6.519   1.940   6.554
 6651SOL    HW220853   6.466   1.806   6.479
 6652SOL     OW20854   0.284   4.462   0.406
 6652SOL    HW120855   0.291   4.562   0.409
 6652SOL    HW220856   0.221   4.430   0.476
 6653SOL     OW20857   5.333   4.192   0.600
 6653SOL    HW120858   5.271   4.236   0.535
 6653SOL    HW220859   5.363   4.104   0.563
 6654SOL     OW20860   0.061   4.316   3.013
 6654SOL    HW120861   0.119   4.251   2.964
 6654SOL    HW220862   0.012   4.374   2.948
 6655SOL     OW20863   6.735   5.503   2.089
 6655SOL    HW120864   6.748   5.602   2.087
 6655SOL    HW220865   6.693   5.474   2.002
 6656SOL     OW20866   4.070   1.547   2.798
 6656SOL    HW120867   3.983   1.516   2.760
 6656SOL    HW220868   4.107   1.478   2.860
 6657SOL     OW20869   5.469   1.919   3.921
 6657SOL    HW120870   5.504   1.891   4.011
 6657SOL    HW220871   5.453   2.017   3.920
 6658SOL     OW20872   6.036   5.966   4.985
 6658SOL    HW120873   6.019   6.051   5.033
 6658SOL    HW220874   5.975   5.959   4.906
 6659SOL     OW20875   1.128   5.149   2.468
 6659SOL    HW120876   1.156   5.158   2.372
 6659SOL    HW220877   1.032   5.176   2.477
 6660SOL     OW20878   6.662   6.094   3.403
 6660SOL    HW120879   6.689   6.159   3.332
 6660SOL    HW220880   6.744   6.059   3.448
 6661SOL     OW20881   3.715   6.794   4.314
 6661SOL    HW120882   3.626   6.821   4.350
 6661SOL    HW220883   3.742   6.707   4.355
 6662SOL     OW20884   3.002   6.829   2.570
 6662SOL    HW120885   3.041   6.915   2.602
 6662SOL    HW220886   3.008   6.825   2.470
 6663SOL     OW20887   0.925   4.232   5.814
 6663SOL    HW120888   0.828   4.211   5.829
 6663SOL    HW220889   0.977   4.200   5.893
 6664SOL     OW20890   2.820   0.564   1.584
 6664SOL    HW120891   2.817   0.501   1.506
 6664SOL    HW220892   2.888   0.635   1.567
 6665SOL     OW20893   2.267   0.427   5.281
 6665SOL    HW120894   2.356   0.470   5.268
 6665SOL    HW220895   2.253   0.356   5.212
 6666SOL     OW20896   4.431   6.717   5.369
 6666SOL    HW120897   4.427   6.760   5.459
 6666SOL    HW220898   4.426   6.618   5.378
 6667SOL     OW20899   0.146   5.956   6.440
 6667SOL    HW120900   0.134   6.025   6.512
 6667SOL    HW220901   0.238   5.918   6.446
 6668SOL     OW20902   0.183   6.039   0.674
 6668SOL    HW120903   0.253   6.110   0.684
 6668SOL    HW220904   0.120   6.065   0.601
 6669SOL     OW20905   1.794   1.000   3.024
 6669SOL    HW120906   1.712   1.049   2.996
 6669SOL    HW220907   1.782   0.902   3.009
 6670SOL     OW20908   4.024   2.552   0.886
 6670SOL    HW120909   3.944   2.501   0.854
 6670SOL    HW220910   4.107   2.516   0.843
 6671SOL     OW20911   4.585   5.960   0.525
 6671SOL    HW120912   4.604   5.862   0.524
 6671SOL    HW220913   4.512   5.981   0.459
 6672SOL     OW20914   1.600   2.489   0.969
 6672SOL    HW120915   1.580   2.472   0.872
 6672SOL    HW220916   1.532   2.443   1.026
 6673SOL     OW20917   5.505   3.910   4.294
 6673SOL    HW120918   5.558   3.967   4.231
 6673SOL    HW220919   5.520   3.940   4.388
 6674SOL     OW20920   0.027   2.772   6.918
 6674SOL    HW120921   0.106   2.755   6.860
 6674SOL    HW220922   0.048   2.844   6.984
 6675SOL     OW20923   5.322   2.175   0.021
 6675SOL    HW120924   5.283   2.251   6.989
 6675SOL    HW220925   5.412   2.152   7.003
 6676SOL     OW20926   1.597   3.750   3.521
 6676SOL    HW120927   1.689   3.711   3.530
 6676SOL    HW220928   1.597   3.844   3.556
 6677SOL     OW20929   0.518   2.075   0.736
 6677SOL    HW120930   0.500   2.168   0.703
 6677SOL    HW220931   0.431   2.026   0.745
 6678SOL     OW20932   1.975   4.595   0.269
 6678SOL    HW120933   2.009   4.507   0.236
 6678SOL    HW220934   1.890   4.617   0.221
 6679SOL     OW20935   2.202   1.256   3.910
 6679SOL    HW120936   2.225   1.298   3.998
 6679SOL    HW220937   2.154   1.169   3.927
 6680SOL     OW20938   5.968   6.733   1.136
 6680SOL    HW120939   6.028   6.677   1.079
 6680SOL    HW220940   6.022   6.780   1.206
 6681SOL     OW20941   3.495   5.983   1.174
 6681SOL    HW120942   3.564   6.037   1.222
 6681SOL    HW220943   3.520   5.886   1.177
 6682SOL     OW20944   2.992   5.484   6.377
 6682SOL    HW120945   2.906   5.514   6.335
 6682SOL    HW220946   3.064   5.486   6.308
 6683SOL     OW20947   6.344   3.897   6.395
 6683SOL    HW120948   6.377   3.865   6.483
 6683SOL    HW220949   6.253   3.859   6.377
 6684SOL     OW20950   2.895   6.471   1.306
 6684SOL    HW120951   2.930   6.505   1.394
 6684SOL    HW220952   2.950   6.509   1.232
 6685SOL     OW20953   4.573   3.471   6.820
 6685SOL    HW120954   4.652   3.493   6.764
 6685SOL    HW220955   4.573   3.373   6.841
 6686SOL     OW20956   5.417   5.448   3.878
 6686SOL    HW120957   5.512   5.425   3.856
 6686SOL    HW220958   5.405   5.446   3.978
 6687SOL     OW20959   6.768   2.303   1.467
 6687SOL    HW120960   6.744   2.224   1.411
 6687SOL    HW220961   6.706   2.309   1.545
 6688SOL     OW20962   3.865   5.766   0.271
 6688SOL    HW120963   3.888   5.742   0.176
 6688SOL    HW220964   3.933   5.829   0.306
 6689SOL     OW20965   2.008   4.694   6.054
 6689SOL    HW120966   1.973   4.765   5.993
 6689SOL    HW220967   2.046   4.619   6.001
 6690SOL     OW20968   1.223   0.055   6.226
 6690SOL    HW120969   1.134   0.013   6.211
 6690SOL    HW220970   1.291   0.011   6.167
 6691SOL     OW20971   2.375   2.677   2.892
 6691SOL    HW120972   2.281   2.658   2.861
 6691SOL    HW220973   2.435   2.602   2.865
 6692SOL     OW20974   4.957   5.378   1.280
 6692SOL    HW120975   4.866   5.335   1.283
 6692SOL    HW220976   5.027   5.308   1.270
 6693SOL     OW20977   4.110   1.785   4.639
 6693SOL    HW120978   4.030   1.820   4.589
 6693SOL    HW220979   4.087   1.698   4.682
 6694SOL     OW20980   3.592   4.977   0.673
 6694SOL    HW120981   3.537   4.983   0.757
 6694SOL    HW220982   3.680   5.022   0.689
 6695SOL     OW20983   2.646   2.119   6.490
 6695SOL    HW120984   2.706   2.130   6.410
 6695SOL    HW220985   2.553   2.098   6.459
 6696SOL     OW20986   3.984   3.889   4.235
 6696SOL    HW120987   4.020   3.833   4.160
 6696SOL    HW220988   4.016   3.852   4.322
 6697SOL     OW20989   4.612   2.579   2.218
 6697SOL    HW120990   4.570   2.495   2.184
 6697SOL    HW220991   4.549   2.656   2.204
 6698SOL     OW20992   3.503   3.928   1.639
 6698SOL    HW120993   3.523   3.914   1.736
 6698SOL    HW220994   3.433   3.999   1.629
 6699SOL     OW20995   1.512   4.833   5.549
 6699SOL    HW120996   1.460   4.814   5.632
 6699SOL    HW220997   1.496   4.928   5.520
 6700SOL     OW20998   5.972   0.222   6.983
 6700SOL    HW120999   6.029   0.154   6.938
 6700SOL    HW221000   5.883   0.226   6.939
 6701SOL     OW21001   6.023   0.388   1.230
 6701SOL    HW121002   6.042   0.485   1.216
 6701SOL    HW221003   6.032   0.340   1.143
 6702SOL     OW21004   3.185   2.586   0.785
 6702SOL    HW121005   3.264   2.637   0.750
 6702SOL    HW221006   3.217   2.515   0.848
 6703SOL     OW21007   0.473   1.569   6.792
 6703SOL    HW121008   0.393   1.548   6.848
 6703SOL    HW221009   0.533   1.490   6.789
 6704SOL     OW21010   3.444   0.847   4.950
 6704SOL    HW121011   3.430   0.792   5.032
 6704SOL    HW221012   3.497   0.928   4.972
 6705SOL     OW21013   6.302   3.649   2.152
 6705SOL    HW121014   6.372   3.686   2.091
 6705SOL    HW221015   6.214   3.643   2.103
 6706SOL     OW21016   0.413   6.783   1.904
 6706SOL    HW121017   0.317   6.760   1.890
 6706SOL    HW221018   0.423   6.834   1.990
 6707SOL     OW21019   5.778   0.512   2.351
 6707SOL    HW121020   5.742   0.432   2.398
 6707SOL    HW221021   5.721   0.592   2.373
 6708SOL     OW21022   0.322   3.961   1.902
 6708SOL    HW121023   0.349   3.981   1.807
 6708SOL    HW221024   0.404   3.955   1.959
 6709SOL     OW21025   1.614   4.919   2.350
 6709SOL    HW121026   1.602   4.963   2.439
 6709SOL    HW221027   1.694   4.859   2.352
 6710SOL     OW21028   4.635   1.291   1.707
 6710SOL    HW121029   4.598   1.218   1.765
 6710SOL    HW221030   4.723   1.322   1.745
 6711SOL     OW21031   4.151   6.074   6.175
 6711SOL    HW121032   4.145   6.019   6.092
 6711SOL    HW221033   4.187   6.165   6.154
 6712SOL     OW21034   6.329   3.537   1.421
 6712SOL    HW121035   6.320   3.475   1.344
 6712SOL    HW221036   6.253   3.601   1.422
 6713SOL     OW21037   1.541   6.521   4.427
 6713SOL    HW121038   1.562   6.493   4.333
 6713SOL    HW221039   1.513   6.617   4.427
 6714SOL     OW21040   5.343   0.998   0.521
 6714SOL    HW121041   5.363   1.096   0.517
 6714SOL    HW221042   5.248   0.982   0.494
 6715SOL     OW21043   1.010   0.974   0.179
 6715SOL    HW121044   1.073   0.982   0.257
 6715SOL    HW221045   0.994   0.877   0.160
 6716SOL     OW21046   6.677   5.360   2.911
 6716SOL    HW121047   6.728   5.351   2.996
 6716SOL    HW221048   6.670   5.270   2.867
 6717SOL     OW21049   4.059   2.735   6.233
 6717SOL    HW121050   4.100   2.698   6.150
 6717SOL    HW221051   4.132   2.769   6.293
 6718SOL     OW21052   3.614   0.024   1.692
 6718SOL    HW121053   3.688   0.011   1.626
 6718SOL    HW221054   3.528   0.037   1.644
 6719SOL     OW21055   1.927   1.029   0.012
 6719SOL    HW121056   1.981   0.962   0.063
 6719SOL    HW221057   1.927   1.117   0.060
 6720SOL     OW21058   2.044   0.538   5.833
 6720SOL    HW121059   2.090   0.514   5.748
 6720SOL    HW221060   2.104   0.518   5.911
 6721SOL     OW21061   0.519   1.768   0.885
 6721SOL    HW121062   0.594   1.743   0.946
 6721SOL    HW221063   0.548   1.761   0.790
 6722SOL     OW21064   6.506   3.273   0.583
 6722SOL    HW121065   6.451   3.237   0.507
 6722SOL    HW221066   6.450   3.276   0.666
 6723SOL     OW21067   1.995   2.229   7.014
 6723SOL    HW121068   1.941   2.218   6.931
 6723SOL    HW221069   2.025   2.139   0.027
 6724SOL     OW21070   2.239   3.470   5.793
 6724SOL    HW121071   2.235   3.519   5.706
 6724SOL    HW221072   2.331   3.479   5.832
 6725SOL     OW21073   5.919   2.760   3.436
 6725SOL    HW121074   5.995   2.820   3.411
 6725SOL    HW221075   5.912   2.755   3.536
 6726SOL     OW21076   0.032   0.825   5.347
 6726SOL    HW121077   0.033   0.829   5.247
 6726SOL    HW221078   0.094   0.753   5.378
 6727SOL     OW21079   0.983   4.796   5.687
 6727SOL    HW121080   0.915   4.844   5.631
 6727SOL    HW221081   0.994   4.702   5.654
 6728SOL     OW21082   3.704   1.887   3.815
 6728SOL    HW121083   3.624   1.945   3.800
 6728SOL    HW221084   3.784   1.929   3.773
 6729SOL     OW21085   5.060   1.586   1.057
 6729SOL    HW121086   5.007   1.631   1.129
 6729SOL    HW221087   5.113   1.654   1.006
 6730SOL     OW21088   0.834   1.162   1.723
 6730SOL    HW121089   0.858   1.248   1.769
 6730SOL    HW221090   0.825   1.090   1.791
 6731SOL     OW21091   3.374   6.340   6.877
 6731SOL    HW121092   3.390   6.267   6.943
 6731SOL    HW221093   3.280   6.335   6.843
 6732SOL     OW21094   6.064   5.068   4.421
 6732SOL    HW121095   5.975   5.052   4.464
 6732SOL    HW221096   6.082   5.167   4.419
 6733SOL     OW21097   4.379   5.076   6.320
 6733SOL    HW121098   4.454   5.062   6.255
 6733SOL    HW221099   4.415   5.074   6.413
 6734SOL     OW21100   5.326   1.122   5.053
 6734SOL    HW121101   5.362   1.101   5.144
 6734SOL    HW221102   5.247   1.183   5.062
 6735SOL     OW21103   6.050   2.938   3.189
 6735SOL    HW121104   5.958   2.939   3.149
 6735SOL    HW221105   6.080   3.031   3.206
 6736SOL     OW21106   3.126   3.828   0.486
 6736SOL    HW121107   3.114   3.734   0.518
 6736SOL    HW221108   3.168   3.883   0.558
 6737SOL     OW21109   1.023   3.311   1.163
 6737SOL    HW121110   0.985   3.224   1.195
 6737SOL    HW221111   1.121   3.299   1.146
 6738SOL     OW21112   2.289   5.846   2.974
 6738SOL    HW121113   2.372   5.814   2.928
 6738SOL    HW221114   2.209   5.815   2.923
 6739SOL     OW21115   6.669   0.001   4.774
 6739SOL    HW121116   6.737   6.952   4.800
 6739SOL    HW221117   6.672   0.016   4.675
 6740SOL     OW21118   0.089   6.481   4.299
 6740SOL    HW121119   0.094   6.500   4.201
 6740SOL    HW221120   7.013   6.469   4.326
 6741SOL     OW21121   4.919   2.124   5.803
 6741SOL    HW121122   4.939   2.047   5.863
 6741SOL    HW221123   4.965   2.206   5.837
 6742SOL     OW21124   5.551   4.488   3.851
 6742SOL    HW121125   5.628   4.428   3.874
 6742SOL    HW221126   5.580   4.583   3.862
 6743SOL     OW21127   4.083   4.032   1.160
 6743SOL    HW121128   4.093   4.001   1.254
 6743SOL    HW221129   4.121   3.964   1.097
 6744SOL     OW21130   0.279   5.623   5.869
 6744SOL    HW121131   0.356   5.560   5.857
 6744SOL    HW221132   0.275   5.653   5.965
 6745SOL     OW21133   6.809   6.406   4.277
 6745SOL    HW121134   6.715   6.373   4.279
 6745SOL    HW221135   6.868   6.345   4.331
 6746SOL     OW21136   1.568   1.288   2.672
 6746SOL    HW121137   1.634   1.359   2.649
 6746SOL    HW221138   1.600   1.200   2.637
 6747SOL     OW21139   1.347   6.598   6.893
 6747SOL    HW121140   1.398   6.555   6.968
 6747SOL    HW221141   1.410   6.617   6.817
 6748SOL     OW21142   2.346   1.924   4.249
 6748SOL    HW121143   2.259   1.877   4.233
 6748SOL    HW221144   2.355   2.001   4.185
 6749SOL     OW21145   3.648   4.664   1.205
 6749SOL    HW121146   3.726   4.603   1.221
 6749SOL    HW221147   3.580   4.651   1.278
 6750SOL     OW21148   3.208   1.904   4.576
 6750SOL    HW121149   3.266   1.822   4.578
 6750SOL    HW221150   3.264   1.983   4.550
 6751SOL     OW21151   4.167   6.762   3.754
 6751SOL    HW121152   4.157   6.814   3.839
 6751SOL    HW221153   4.265   6.754   3.732
 6752SOL     OW21154   2.045   6.366   2.450
 6752SOL    HW121155   1.962   6.406   2.489
 6752SOL    HW221156   2.022   6.280   2.404
 6753SOL     OW21157   3.830   2.963   5.400
 6753SOL    HW121158   3.887   2.981   5.320
 6753SOL    HW221159   3.784   3.047   5.429
 6754SOL     OW21160   6.053   1.499   1.470
 6754SOL    HW121161   6.141   1.511   1.516
 6754SOL    HW221162   5.993   1.577   1.489
 6755SOL     OW21163   2.393   4.947   6.608
 6755SOL    HW121164   2.465   4.898   6.656
 6755SOL    HW221165   2.429   5.033   6.570
 6756SOL     OW21166   2.522   2.047   5.819
 6756SOL    HW121167   2.556   2.100   5.897
 6756SOL    HW221168   2.437   2.088   5.786
 6757SOL     OW21169   3.586   0.852   0.591
 6757SOL    HW121170   3.487   0.857   0.602
 6757SOL    HW221171   3.612   0.760   0.564
 6758SOL     OW21172   6.031   2.618   1.456
 6758SOL    HW121173   6.070   2.685   1.392
 6758SOL    HW221174   5.966   2.664   1.517
 6759SOL     OW21175   0.752   3.267   3.256
 6759SOL    HW121176   0.848   3.285   3.278
 6759SOL    HW221177   0.695   3.290   3.335
 6760SOL     OW21178   5.348   2.980   2.783
 6760SOL    HW121179   5.326   3.031   2.700
 6760SOL    HW221180   5.353   3.043   2.861
 6761SOL     OW21181   4.829   2.136   4.512
 6761SOL    HW121182   4.800   2.227   4.543
 6761SOL    HW221183   4.779   2.066   4.562
 6762SOL     OW21184   6.412   5.488   4.016
 6762SOL    HW121185   6.442   5.399   3.981
 6762SOL    HW221186   6.320   5.479   4.054
 6763SOL     OW21187   4.831   4.968   4.975
 6763SOL    HW121188   4.906   4.908   5.001
 6763SOL    HW221189   4.786   4.932   4.893
 6764SOL     OW21190   1.341   5.602   1.920
 6764SOL    HW121191   1.352   5.512   1.877
 6764SOL    HW221192   1.430   5.647   1.923
 6765SOL     OW21193   6.532   4.542   2.852
 6765SOL    HW121194   6.554   4.585   2.765
 6765SOL    HW221195   6.433   4.544   2.867
 6766SOL     OW21196   4.987   6.759   0.632
 6766SOL    HW121197   5.042   6.731   0.553
 6766SOL    HW221198   4.968   6.679   0.689
 6767SOL     OW21199   3.063   1.193   0.403
 6767SOL    HW121200   3.051   1.292   0.409
 6767SOL    HW221201   3.037   1.151   0.491
 6768SOL     OW21202   2.001   0.782   1.066
 6768SOL    HW121203   1.923   0.748   1.118
 6768SOL    HW221204   2.078   0.720   1.076
 6769SOL     OW21205   3.992   2.563   1.192
 6769SOL    HW121206   4.039   2.579   1.105
 6769SOL    HW221207   3.894   2.577   1.180
 6770SOL     OW21208   6.824   0.338   1.744
 6770SOL    HW121209   6.815   0.238   1.736
 6770SOL    HW221210   6.782   0.368   1.830
 6771SOL     OW21211   3.980   1.982   2.846
 6771SOL    HW121212   3.914   1.936   2.787
 6771SOL    HW221213   4.001   1.925   2.925
 6772SOL     OW21214   3.287   1.830   2.440
 6772SOL    HW121215   3.308   1.764   2.368
 6772SOL    HW221216   3.330   1.800   2.526
 6773SOL     OW21217   6.658   4.119   1.692
 6773SOL    HW121218   6.703   4.051   1.750
 6773SOL    HW221219   6.637   4.077   1.604
 6774SOL     OW21220   0.703   2.754   6.311
 6774SOL    HW121221   0.696   2.688   6.386
 6774SOL    HW221222   0.619   2.808   6.307
 6775SOL     OW21223   2.796   4.235   0.969
 6775SOL    HW121224   2.736   4.177   0.914
 6775SOL    HW221225   2.743   4.278   1.042
 6776SOL     OW21226   5.545   5.060   0.076
 6776SOL    HW121227   5.484   5.016   0.142
 6776SOL    HW221228   5.573   4.993   0.007
 6777SOL     OW21229   4.480   5.059   5.892
 6777SOL    HW121230   4.424   5.142   5.898
 6777SOL    HW221231   4.448   5.003   5.815
 6778SOL     OW21232   0.839   4.115   2.465
 6778SOL    HW121233   0.841   4.018   2.439
 6778SOL    HW221234   0.756   4.133   2.519
 6779SOL     OW21235   7.006   4.367   0.359
 6779SOL    HW121236   0.025   4.352   0.450
 6779SOL    HW221237   6.936   4.439   0.364
 6780SOL     OW21238   0.219   2.425   3.015
 6780SOL    HW121239   0.236   2.424   3.113
 6780SOL    HW221240   0.293   2.376   2.968
 6781SOL     OW21241   5.167   6.315   5.559
 6781SOL    HW121242   5.117   6.335   5.475
 6781SOL    HW221243   5.237   6.246   5.541
 6782SOL     OW21244   0.418   1.207   2.408
 6782SOL    HW121245   0.468   1.257   2.480
 6782SOL    HW221246   0.466   1.218   2.321
 6783SOL     OW21247   0.191   6.372   6.148
 6783SOL    HW121248   0.184   6.303   6.076
 6783SOL    HW221249   0.200   6.327   6.237
 6784SOL     OW21250   3.943   4.308   6.959
 6784SOL    HW121251   3.915   4.269   0.027
 6784SOL    HW221252   4.018   4.253   6.920
 6785SOL     OW21253   6.175   5.721   1.891
 6785SOL    HW121254   6.149   5.817   1.902
 6785SOL    HW221255   6.102   5.672   1.844
 6786SOL     OW21256   1.482   2.157   6.870
 6786SOL    HW121257   1.553   2.117   6.927
 6786SOL    HW221258   1.505   2.252   6.851
 6787SOL     OW21259   1.537   3.925   1.093
 6787SOL    HW121260   1.595   3.844   1.099
 6787SOL    HW221261   1.442   3.896   1.079
 6788SOL     OW21262   2.793   3.927   1.695
 6788SOL    HW121263   2.883   3.899   1.726
 6788SOL    HW221264   2.766   3.871   1.617
 6789SOL     OW21265   0.553   6.574   2.244
 6789SOL    HW121266   0.550   6.652   2.307
 6789SOL    HW221267   0.469   6.573   2.189
 6790SOL     OW21268   2.095   2.955   0.128
 6790SOL    HW121269   2.025   2.915   0.187
 6790SOL    HW221270   2.185   2.921   0.154
 6791SOL     OW21271   4.362   2.799   6.918
 6791SOL    HW121272   4.343   2.871   6.851
 6791SOL    HW221273   4.292   2.728   6.911
 6792SOL     OW21274   6.673   5.971   6.592
 6792SOL    HW121275   6.624   5.922   6.664
 6792SOL    HW221276   6.751   6.019   6.632
 6793SOL     OW21277   0.839   2.337   0.221
 6793SOL    HW121278   0.911   2.282   0.262
 6793SOL    HW221279   0.868   2.433   0.219
 6794SOL     OW21280   4.892   1.224   4.194
 6794SOL    HW121281   4.877   1.132   4.158
 6794SOL    HW221282   4.812   1.252   4.247
 6795SOL     OW21283   2.880   5.827   0.720
 6795SOL    HW121284   2.793   5.806   0.764
 6795SOL    HW221285   2.870   5.907   0.661
 6796SOL     OW21286   5.120   1.329   2.381
 6796SOL    HW121287   5.098   1.425   2.398
 6796SOL    HW221288   5.069   1.271   2.444
 6797SOL     OW21289   5.200   3.796   1.956
 6797SOL    HW121290   5.267   3.799   2.031
 6797SOL    HW221291   5.241   3.750   1.878
 6798SOL     OW21292   5.850   5.302   2.868
 6798SOL    HW121293   5.843   5.344   2.777
 6798SOL    HW221294   5.885   5.209   2.858
 6799SOL     OW21295   4.994   5.556   0.208
 6799SOL    HW121296   4.994   5.589   0.302
 6799SOL    HW221297   4.970   5.631   0.146
 6800SOL     OW21298   1.713   4.228   0.608
 6800SOL    HW121299   1.703   4.168   0.688
 6800SOL    HW221300   1.680   4.319   0.631
 6801SOL     OW21301   1.323   2.119   2.106
 6801SOL    HW121302   1.286   2.101   2.014
 6801SOL    HW221303   1.306   2.039   2.164
 6802SOL     OW21304   2.130   5.871   0.848
 6802SOL    HW121305   2.169   5.916   0.769
 6802SOL    HW221306   2.198   5.810   0.890
 6803SOL     OW21307   5.153   2.168   6.087
 6803SOL    HW121308   5.251   2.184   6.076
 6803SOL    HW221309   5.126   2.188   6.181
 6804SOL     OW21310   1.678   5.688   3.274
 6804SOL    HW121311   1.662   5.590   3.261
 6804SOL    HW221312   1.770   5.702   3.311
 6805SOL     OW21313   5.738   6.966   4.452
 6805SOL    HW121314   5.646   7.002   4.464
 6805SOL    HW221315   5.739   6.899   4.378
 6806SOL     OW21316   4.661   1.538   4.472
 6806SOL    HW121317   4.583   1.525   4.533
 6806SOL    HW221318   4.675   1.636   4.457
 6807SOL     OW21319   2.747   3.247   6.922
 6807SOL    HW121320   2.745   3.175   6.991
 6807SOL    HW221321   2.654   3.267   6.892
 6808SOL     OW21322   0.551   2.474   4.954
 6808SOL    HW121323   0.479   2.537   4.924
 6808SOL    HW221324   0.514   2.382   4.961
 6809SOL     OW21325   1.346   4.783   6.950
 6809SOL    HW121326   1.429   4.837   6.959
 6809SOL    HW221327   1.370   4.688   6.928
 6810SOL     OW21328   0.469   1.078   2.698
 6810SOL    HW121329   0.450   1.176   2.705
 6810SOL    HW221330   0.568   1.064   2.705
 6811SOL     OW21331   6.432   4.586   0.855
 6811SOL    HW121332   6.423   4.498   0.900
 6811SOL    HW221333   6.362   4.649   0.889
 6812SOL     OW21334   3.748   4.070   3.211
 6812SOL    HW121335   3.801   4.070   3.296
 6812SOL    HW221336   3.743   4.163   3.175
 6813SOL     OW21337   4.544   2.042   1.541
 6813SOL    HW121338   4.522   1.945   1.529
 6813SOL    HW221339   4.631   2.051   1.590
 6814SOL     OW21340   2.810   3.103   1.081
 6814SOL    HW121341   2.811   3.062   0.990
 6814SOL    HW221342   2.872   3.181   1.084
 6815SOL     OW21343   3.021   0.107   1.367
 6815SOL    HW121344   2.948   0.168   1.397
 6815SOL    HW221345   3.097   0.162   1.330
 6816SOL     OW21346   6.529   5.094   7.018
 6816SOL    HW121347   6.477   5.055   0.075
 6816SOL    HW221348   6.466   5.131   6.950
 6817SOL     OW21349   6.589   1.522   5.373
 6817SOL    HW121350   6.640   1.438   5.394
 6817SOL    HW221351   6.640   1.577   5.308
 6818SOL     OW21352   3.436   6.543   1.974
 6818SOL    HW121353   3.362   6.479   1.998
 6818SOL    HW221354   3.508   6.493   1.925
 6819SOL     OW21355   3.226   0.506   3.472
 6819SOL    HW121356   3.230   0.568   3.394
 6819SOL    HW221357   3.292   0.536   3.541
 6820SOL     OW21358   0.721   4.535   3.668
 6820SOL    HW121359   0.642   4.488   3.627
 6820SOL    HW221360   0.689   4.595   3.742
 6821SOL     OW21361   2.454   2.275   5.033
 6821SOL    HW121362   2.496   2.191   5.068
 6821SOL    HW221363   2.504   2.307   4.953
 6822SOL     OW21364   5.484   1.315   5.843
 6822SOL    HW121365   5.568   1.347   5.800
 6822SOL    HW221366   5.421   1.393   5.856
 6823SOL     OW21367   3.229   3.391   3.777
 6823SOL    HW121368   3.242   3.403   3.679
 6823SOL    HW221369   3.291   3.321   3.811
 6824SOL     OW21370   0.012   3.808   6.223
 6824SOL    HW121371   0.019   3.715   6.261
 6824SOL    HW221372   0.043   3.807   6.128
 6825SOL     OW21373   5.501   6.830   2.059
 6825SOL    HW121374   5.561   6.839   2.139
 6825SOL    HW221375   5.512   6.739   2.019
 6826SOL     OW21376   2.114   3.532   2.629
 6826SOL    HW121377   2.102   3.619   2.580
 6826SOL    HW221378   2.195   3.486   2.595
 6827SOL     OW21379   4.744   6.053   6.836
 6827SOL    HW121380   4.664   6.114   6.834
 6827SOL    HW221381   4.764   6.023   6.743
 6828SOL     OW21382   1.597   2.143   1.540
 6828SOL    HW121383   1.639   2.154   1.630
 6828SOL    HW221384   1.512   2.092   1.548
 6829SOL     OW21385   5.257   6.726   3.526
 6829SOL    HW121386   5.321   6.681   3.588
 6829SOL    HW221387   5.307   6.775   3.455
 6830SOL     OW21388   5.491   1.492   3.144
 6830SOL    HW121389   5.407   1.470   3.194
 6830SOL    HW221390   5.514   1.589   3.159
 6831SOL     OW21391   0.785   0.913   5.857
 6831SOL    HW121392   0.687   0.903   5.843
 6831SOL    HW221393   0.807   1.010   5.870
 6832SOL     OW21394   2.948   4.764   1.737
 6832SOL    HW121395   2.916   4.676   1.772
 6832SOL    HW221396   2.878   4.834   1.752
 6833SOL     OW21397   3.610   4.995   6.691
 6833SOL    HW121398   3.707   4.973   6.682
 6833SOL    HW221399   3.562   4.973   6.606
 6834SOL     OW21400   4.618   0.079   1.939
 6834SOL    HW121401   4.593   7.002   1.935
 6834SOL    HW221402   4.630   0.114   1.846
 6835SOL     OW21403   4.038   0.499   4.549
 6835SOL    HW121404   3.947   0.481   4.510
 6835SOL    HW221405   4.074   0.415   4.589
 6836SOL     OW21406   3.100   6.518   0.624
 6836SOL    HW121407   3.055   6.563   0.701
 6836SOL    HW221408   3.095   6.576   0.543
 6837SOL     OW21409   1.753   3.520   1.967
 6837SOL    HW121410   1.751   3.618   1.946
 6837SOL    HW221411   1.830   3.501   2.028
 6838SOL     OW21412   2.767   0.992   0.375
 6838SOL    HW121413   2.690   0.930   0.356
 6838SOL    HW221414   2.831   0.990   0.299
 6839SOL     OW21415   4.628   0.886   0.806
 6839SOL    HW121416   4.604   0.837   0.723
 6839SOL    HW221417   4.567   0.964   0.818
 6840SOL     OW21418   2.642   1.256   6.392
 6840SOL    HW121419   2.560   1.240   6.338
 6840SOL    HW221420   2.683   1.343   6.366
 6841SOL     OW21421   6.211   3.119   6.076
 6841SOL    HW121422   6.197   3.103   5.978
 6841SOL    HW221423   6.308   3.139   6.093
 6842SOL     OW21424   1.805   5.448   1.532
 6842SOL    HW121425   1.883   5.430   1.592
 6842SOL    HW221426   1.804   5.381   1.458
 6843SOL     OW21427   5.211   6.835   6.711
 6843SOL    HW121428   5.238   6.833   6.614
 6843SOL    HW221429   5.285   6.876   6.765
 6844SOL     OW21430   4.960   0.585   3.567
 6844SOL    HW121431   4.974   0.486   3.576
 6844SOL    HW221432   4.927   0.622   3.654
 6845SOL     OW21433   4.738   2.653   2.646
 6845SOL    HW121434   4.676   2.581   2.677
 6845SOL    HW221435   4.760   2.638   2.549
 6846SOL     OW21436   2.807   3.804   0.239
 6846SOL    HW121437   2.883   3.739   0.234
 6846SOL    HW221438   2.802   3.842   0.332
 6847SOL     OW21439   5.911   3.740   4.519
 6847SOL    HW121440   5.950   3.742   4.427
 6847SOL    HW221441   5.813   3.721   4.514
 6848SOL     OW21442   4.932   4.146   3.723
 6848SOL    HW121443   4.911   4.237   3.755
 6848SOL    HW221444   5.006   4.151   3.655
 6849SOL     OW21445   4.158   3.897   6.036
 6849SOL    HW121446   4.130   3.830   5.967
 6849SOL    HW221447   4.119   3.874   6.124
 6850SOL     OW21448   4.411   2.335   3.446
 6850SOL    HW121449   4.321   2.366   3.416
 6850SOL    HW221450   4.419   2.236   3.430
 6851SOL     OW21451   1.661   3.161   2.701
 6851SOL    HW121452   1.734   3.206   2.650
 6851SOL    HW221453   1.696   3.130   2.790
 6852SOL     OW21454   2.569   5.490   0.717
 6852SOL    HW121455   2.523   5.426   0.777
 6852SOL    HW221456   2.658   5.453   0.690
 6853SOL     OW21457   5.318   3.347   6.522
 6853SOL    HW121458   5.335   3.255   6.487
 6853SOL    HW221459   5.402   3.401   6.514
 6854SOL     OW21460   5.058   6.474   6.030
 6854SOL    HW121461   5.116   6.472   6.112
 6854SOL    HW221462   5.114   6.493   5.950
 6855SOL     OW21463   3.726   5.106   3.552
 6855SOL    HW121464   3.737   5.062   3.642
 6855SOL    HW221465   3.778   5.191   3.550
 6856SOL     OW21466   0.836   2.385   6.321
 6856SOL    HW121467   0.780   2.435   6.255
 6856SOL    HW221468   0.804   2.404   6.414
 6857SOL     OW21469   1.236   3.288   6.776
 6857SOL    HW121470   1.164   3.350   6.808
 6857SOL    HW221471   1.276   3.325   6.692
 6858SOL     OW21472   3.235   4.216   1.739
 6858SOL    HW121473   3.149   4.261   1.762
 6858SOL    HW221474   3.296   4.281   1.693
 6859SOL     OW21475   1.058   1.300   2.303
 6859SOL    HW121476   1.142   1.275   2.352
 6859SOL    HW221477   1.079   1.317   2.207
 6860SOL     OW21478   7.005   5.800   1.832
 6860SOL    HW121479   6.933   5.852   1.786
 6860SOL    HW221480   0.040   5.750   1.763
 6861SOL     OW21481   5.118   3.069   5.030
 6861SOL    HW121482   5.050   3.049   4.960
 6861SOL    HW221483   5.076   3.121   5.104
 6862SOL     OW21484   0.329   4.671   5.966
 6862SOL    HW121485   0.369   4.590   5.923
 6862SOL    HW221486   0.358   4.676   6.061
 6863SOL     OW21487   0.201   6.618   5.059
 6863SOL    HW121488   0.216   6.638   4.962
 6863SOL    HW221489   0.266   6.548   5.089
 6864SOL     OW21490   1.769   3.840   5.746
 6864SOL    HW121491   1.780   3.936   5.772
 6864SOL    HW221492   1.686   3.829   5.692
 6865SOL     OW21493   1.638   0.047   4.263
 6865SOL    HW121494   1.553   0.032   4.312
 6865SOL    HW221495   1.636   0.137   4.219
 6866SOL     OW21496   6.976   4.505   1.841
 6866SOL    HW121497   6.876   4.502   1.851
 6866SOL    HW221498   0.000   4.488   1.929
 6867SOL     OW21499   2.078   3.208   0.737
 6867SOL    HW121500   2.118   3.158   0.660
 6867SOL    HW221501   1.981   3.225   0.719
 6868SOL     OW21502   2.113   5.216   4.859
 6868SOL    HW121503   2.057   5.293   4.829
 6868SOL    HW221504   2.076   5.131   4.822
 6869SOL     OW21505   3.370   6.833   5.574
 6869SOL    HW121506   3.425   6.912   5.550
 6869SOL    HW221507   3.427   6.765   5.621
 6870SOL     OW21508   0.023   2.692   0.206
 6870SOL    HW121509   0.097   2.626   0.212
 6870SOL    HW221510   6.954   2.644   0.207
 6871SOL     OW21511   6.744   3.659   2.464
 6871SOL    HW121512   6.676   3.671   2.535
 6871SOL    HW221513   6.744   3.564   2.434
 6872SOL     OW21514   1.175   2.704   1.786
 6872SOL    HW121515   1.184   2.686   1.688
 6872SOL    HW221516   1.213   2.794   1.807
 6873SOL     OW21517   1.152   4.071   4.766
 6873SOL    HW121518   1.195   4.134   4.701
 6873SOL    HW221519   1.108   4.123   4.839
 6874SOL     OW21520   5.577   5.827   2.837
 6874SOL    HW121521   5.484   5.827   2.875
 6874SOL    HW221522   5.571   5.843   2.738
 6875SOL     OW21523   1.346   2.775   1.019
 6875SOL    HW121524   1.313   2.855   1.071
 6875SOL    HW221525   1.268   2.719   0.992
 6876SOL     OW21526   4.365   5.863   3.213
 6876SOL    HW121527   4.335   5.783   3.163
 6876SOL    HW221528   4.385   5.837   3.308
 6877SOL     OW21529   2.378   4.317   2.234
 6877SOL    HW121530   2.340   4.395   2.185
 6877SOL    HW221531   2.408   4.345   2.325
 6878SOL     OW21532   2.457   1.155   4.102
 6878SOL    HW121533   2.433   1.059   4.097
 6878SOL    HW221534   2.557   1.165   4.098
 6879SOL     OW21535   2.114   2.342   0.847
 6879SOL    HW121536   2.213   2.348   0.837
 6879SOL    HW221537   2.090   2.255   0.889
 6880SOL     OW21538   1.875   5.663   6.388
 6880SOL    HW121539   1.895   5.593   6.456
 6880SOL    HW221540   1.845   5.747   6.434
 6881SOL     OW21541   1.597   3.523   0.284
 6881SOL    HW121542   1.514   3.558   0.239
 6881SOL    HW221543   1.676   3.575   0.253
 6882SOL     OW21544   3.073   6.689   0.389
 6882SOL    HW121545   3.064   6.717   0.293
 6882SOL    HW221546   3.147   6.740   0.431
 6883SOL     OW21547   4.917   0.316   6.403
 6883SOL    HW121548   4.835   0.356   6.361
 6883SOL    HW221549   4.999   0.354   6.360
 6884SOL     OW21550   2.186   3.760   2.910
 6884SOL    HW121551   2.100   3.709   2.912
 6884SOL    HW221552   2.230   3.747   2.821
 6885SOL     OW21553   5.234   5.279   3.525
 6885SOL    HW121554   5.257   5.194   3.478
 6885SOL    HW221555   5.246   5.356   3.462
 6886SOL     OW21556   4.990   1.099   6.035
 6886SOL    HW121557   4.894   1.126   6.028
 6886SOL    HW221558   5.028   1.088   5.944
 6887SOL     OW21559   5.342   6.277   6.634
 6887SOL    HW121560   5.251   6.312   6.653
 6887SOL    HW221561   5.383   6.329   6.559
 6888SOL     OW21562   5.478   4.718   6.801
 6888SOL    HW121563   5.510   4.759   6.716
 6888SOL    HW221564   5.378   4.711   6.800
 6889SOL     OW21565   1.038   2.661   5.899
 6889SOL    HW121566   1.008   2.723   5.826
 6889SOL    HW221567   1.133   2.680   5.923
 6890SOL     OW21568   3.404   5.213   2.613
 6890SOL    HW121569   3.390   5.312   2.605
 6890SOL    HW221570   3.411   5.174   2.521
 6891SOL     OW21571   2.051   2.650   1.106
 6891SOL    HW121572   1.980   2.716   1.078
 6891SOL    HW221573   2.122   2.647   1.036
 6892SOL     OW21574   3.759   1.246   4.139
 6892SOL    HW121575   3.698   1.250   4.060
 6892SOL    HW221576   3.739   1.163   4.192
 6893SOL     OW21577   6.267   2.748   6.943
 6893SOL    HW121578   6.319   2.778   6.863
 6893SOL    HW221579   6.237   2.828   6.995
 6894SOL     OW21580   5.577   4.989   1.325
 6894SOL    HW121581   5.512   5.065   1.315
 6894SOL    HW221582   5.611   4.962   1.235
 6895SOL     OW21583   1.375   6.404   1.442
 6895SOL    HW121584   1.356   6.358   1.529
 6895SOL    HW221585   1.322   6.361   1.369
 6896SOL     OW21586   3.660   2.121   4.439
 6896SOL    HW121587   3.629   2.087   4.528
 6896SOL    HW221588   3.760   2.130   4.440
 6897SOL     OW21589   4.873   3.824   5.351
 6897SOL    HW121590   4.893   3.756   5.280
 6897SOL    HW221591   4.809   3.784   5.417
 6898SOL     OW21592   2.640   1.512   1.616
 6898SOL    HW121593   2.616   1.609   1.607
 6898SOL    HW221594   2.682   1.497   1.706
 6899SOL     OW21595   6.420   6.070   2.544
 6899SOL    HW121596   6.331   6.054   2.503
 6899SOL    HW221597   6.490   6.016   2.496
 6900SOL     OW21598   6.483   4.518   6.255
 6900SOL    HW121599   6.422   4.492   6.180
 6900SOL    HW221600   6.434   4.578   6.318
 6901SOL     OW21601   4.573   5.055   6.535
 6901SOL    HW121602   4.649   5.068   6.472
 6901SOL    HW221603   4.576   5.126   6.605
 6902SOL     OW21604   0.332   5.981   5.958
 6902SOL    HW121605   0.312   5.917   6.033
 6902SOL    HW221606   0.369   5.930   5.880
 6903SOL     OW21607   2.905   5.100   4.876
 6903SOL    HW121608   2.947   5.014   4.903
 6903SOL    HW221609   2.878   5.096   4.780
 6904SOL     OW21610   0.145   5.920   4.285
 6904SOL    HW121611   0.207   5.977   4.338
 6904SOL    HW221612   0.057   5.913   4.331
 6905SOL     OW21613   5.529   5.531   6.116
 6905SOL    HW121614   5.494   5.473   6.043
 6905SOL    HW221615   5.611   5.578   6.084
 6906SOL     OW21616   3.803   1.229   3.330
 6906SOL    HW121617   3.867   1.301   3.303
 6906SOL    HW221618   3.729   1.268   3.384
 6907SOL     OW21619   6.369   1.833   1.258
 6907SOL    HW121620   6.279   1.819   1.301
 6907SOL    HW221621   6.432   1.762   1.288
 6908SOL     OW21622   2.594   4.252   6.784
 6908SOL    HW121623   2.526   4.185   6.754
 6908SOL    HW221624   2.660   4.208   6.845
 6909SOL     OW21625   5.700   5.544   1.887
 6909SOL    HW121626   5.607   5.515   1.909
 6909SOL    HW221627   5.751   5.562   1.971
 6910SOL     OW21628   1.297   2.713   2.989
 6910SOL    HW121629   1.353   2.700   2.907
 6910SOL    HW221630   1.323   2.798   3.034
 6911SOL     OW21631   3.257   0.185   5.523
 6911SOL    HW121632   3.276   0.181   5.621
 6911SOL    HW221633   3.340   0.159   5.472
 6912SOL     OW21634   2.419   3.558   6.611
 6912SOL    HW121635   2.387   3.650   6.633
 6912SOL    HW221636   2.441   3.509   6.695
 6913SOL     OW21637   4.500   6.172   5.804
 6913SOL    HW121638   4.418   6.230   5.799
 6913SOL    HW221639   4.502   6.125   5.893
 6914SOL     OW21640   6.151   3.338   2.099
 6914SOL    HW121641   6.200   3.411   2.051
 6914SOL    HW221642   6.215   3.265   2.122
 6915SOL     OW21643   1.336   3.448   2.194
 6915SOL    HW121644   1.413   3.387   2.212
 6915SOL    HW221645   1.319   3.452   2.096
 6916SOL     OW21646   4.577   6.792   6.316
 6916SOL    HW121647   4.562   6.835   6.227
 6916SOL    HW221648   4.666   6.821   6.352
 6917SOL     OW21649   5.471   5.641   1.464
 6917SOL    HW121650   5.538   5.651   1.537
 6917SOL    HW221651   5.460   5.728   1.415
 6918SOL     OW21652   0.812   3.250   1.804
 6918SOL    HW121653   0.834   3.185   1.731
 6918SOL    HW221654   0.719   3.234   1.836
 6919SOL     OW21655   6.317   6.692   2.676
 6919SOL    HW121656   6.375   6.667   2.753
 6919SOL    HW221657   6.221   6.683   2.701
 6920SOL     OW21658   4.564   0.708   5.148
 6920SOL    HW121659   4.588   0.751   5.235
 6920SOL    HW221660   4.502   0.631   5.165
 6921SOL     OW21661   3.236   0.278   4.564
 6921SOL    HW121662   3.185   0.193   4.571
 6921SOL    HW221663   3.243   0.305   4.467
 6922SOL     OW21664   1.347   6.010   5.341
 6922SOL    HW121665   1.425   6.030   5.400
 6922SOL    HW221666   1.367   6.041   5.248
 6923SOL     OW21667   6.438   0.054   2.060
 6923SOL    HW121668   6.385   0.057   2.144
 6923SOL    HW221669   6.530   0.019   2.080
 6924SOL     OW21670   3.794   6.644   0.624
 6924SOL    HW121671   3.729   6.568   0.625
 6924SOL    HW221672   3.837   6.653   0.714
 6925SOL     OW21673   5.625   6.208   6.682
 6925SOL    HW121674   5.528   6.233   6.673
 6925SOL    HW221675   5.658   6.175   6.593
 6926SOL     OW21676   3.119   1.706   0.592
 6926SOL    HW121677   3.174   1.711   0.675
 6926SOL    HW221678   3.112   1.797   0.551
 6927SOL     OW21679   4.241   0.854   0.495
 6927SOL    HW121680   4.235   0.855   0.595
 6927SOL    HW221681   4.159   0.896   0.456
 6928SOL     OW21682   4.642   5.316   0.878
 6928SOL    HW121683   4.624   5.225   0.841
 6928SOL    HW221684   4.734   5.345   0.853
 6929SOL     OW21685   5.298   5.447   1.352
 6929SOL    HW121686   5.359   5.520   1.382
 6929SOL    HW221687   5.220   5.441   1.414
 6930SOL     OW21688   0.362   1.410   0.255
 6930SOL    HW121689   0.434   1.363   0.204
 6930SOL    HW221690   0.379   1.509   0.254
 6931SOL     OW21691   2.599   2.531   1.128
 6931SOL    HW121692   2.598   2.606   1.063
 6931SOL    HW221693   2.618   2.445   1.080
 6932SOL     OW21694   4.825   5.798   0.304
 6932SOL    HW121695   4.786   5.710   0.278
 6932SOL    HW221696   4.864   5.791   0.396
 6933SOL     OW21697   3.037   5.669   6.594
 6933SOL    HW121698   3.044   5.593   6.530
 6933SOL    HW221699   3.119   5.671   6.652
 6934SOL     OW21700   4.752   4.124   6.435
 6934SOL    HW121701   4.656   4.124   6.406
 6934SOL    HW221702   4.784   4.030   6.441
 6935SOL     OW21703   5.414   5.362   1.773
 6935SOL    HW121704   5.378   5.455   1.763
 6935SOL    HW221705   5.424   5.321   1.682
 6936SOL     OW21706   0.981   1.613   4.777
 6936SOL    HW121707   0.885   1.591   4.759
 6936SOL    HW221708   1.038   1.574   4.706
 6937SOL     OW21709   5.399   5.654   0.596
 6937SOL    HW121710   5.359   5.610   0.516
 6937SOL    HW221711   5.327   5.676   0.662
 6938SOL     OW21712   0.288   0.556   4.831
 6938SOL    HW121713   0.388   0.549   4.832
 6938SOL    HW221714   0.253   0.518   4.745
 6939SOL     OW21715   6.470   4.568   3.391
 6939SOL    HW121716   6.514   4.479   3.401
 6939SOL    HW221717   6.388   4.571   3.447
 6940SOL     OW21718   4.439   6.874   0.627
 6940SOL    HW121719   4.353   6.917   0.655
 6940SOL    HW221720   4.480   6.829   0.706
 6941SOL     OW21721   2.901   3.474   3.000
 6941SOL    HW121722   3.001   3.481   3.008
 6941SOL    HW221723   2.861   3.472   3.092
 6942SOL     OW21724   6.728   6.339   1.972
 6942SOL    HW121725   6.759   6.417   1.917
 6942SOL    HW221726   6.765   6.346   2.064
 6943SOL     OW21727   4.112   4.874   6.884
 6943SOL    HW121728   4.153   4.889   6.794
 6943SOL    HW221729   4.071   4.783   6.887
 6944SOL     OW21730   1.104   3.653   5.489
 6944SOL    HW121731   1.101   3.613   5.581
 6944SOL    HW221732   1.038   3.606   5.430
 6945SOL     OW21733   5.700   2.985   0.546
 6945SOL    HW121734   5.644   2.906   0.521
 6945SOL    HW221735   5.644   3.068   0.541
 6946SOL     OW21736   4.090   6.036   2.321
 6946SOL    HW121737   4.128   6.031   2.413
 6946SOL    HW221738   4.111   5.951   2.272
 6947SOL     OW21739   5.323   5.260   5.578
 6947SOL    HW121740   5.392   5.237   5.647
 6947SOL    HW221741   5.311   5.359   5.574
 6948SOL     OW21742   0.351   5.779   0.522
 6948SOL    HW121743   0.273   5.757   0.580
 6948SOL    HW221744   0.391   5.866   0.549
 6949SOL     OW21745   2.846   2.347   3.305
 6949SOL    HW121746   2.847   2.433   3.356
 6949SOL    HW221747   2.847   2.270   3.369
 6950SOL     OW21748   1.038   6.871   4.770
 6950SOL    HW121749   1.079   6.960   4.749
 6950SOL    HW221750   0.979   6.879   4.850
 6951SOL     OW21751   6.897   5.049   6.559
 6951SOL    HW121752   6.819   5.042   6.621
 6951SOL    HW221753   6.868   5.027   6.466
 6952SOL     OW21754   3.320   5.009   2.789
 6952SOL    HW121755   3.363   5.089   2.747
 6952SOL    HW221756   3.252   4.971   2.727
 6953SOL     OW21757   5.488   0.692   1.290
 6953SOL    HW121758   5.482   0.781   1.335
 6953SOL    HW221759   5.397   0.649   1.289
 6954SOL     OW21760   6.911   3.693   0.560
 6954SOL    HW121761   6.994   3.743   0.535
 6954SOL    HW221762   6.833   3.755   0.556
 6955SOL     OW21763   4.984   6.755   2.335
 6955SOL    HW121764   4.985   6.726   2.431
 6955SOL    HW221765   5.075   6.787   2.309
 6956SOL     OW21766   5.391   5.626   2.329
 6956SOL    HW121767   5.381   5.648   2.426
 6956SOL    HW221768   5.315   5.569   2.299
 6957SOL     OW21769   5.522   5.310   6.414
 6957SOL    HW121770   5.477   5.291   6.502
 6957SOL    HW221771   5.521   5.408   6.397
 6958SOL     OW21772   3.793   2.952   3.466
 6958SOL    HW121773   3.738   3.005   3.401
 6958SOL    HW221774   3.739   2.936   3.549
 6959SOL     OW21775   1.240   4.560   3.201
 6959SOL    HW121776   1.147   4.538   3.231
 6959SOL    HW221777   1.290   4.476   3.182
 6960SOL     OW21778   2.349   4.280   0.572
 6960SOL    HW121779   2.429   4.299   0.514
 6960SOL    HW221780   2.266   4.309   0.524
 6961SOL     OW21781   4.219   1.937   5.362
 6961SOL    HW121782   4.255   1.863   5.418
 6961SOL    HW221783   4.271   1.943   5.276
 6962SOL     OW21784   3.158   6.819   5.991
 6962SOL    HW121785   3.089   6.818   6.063
 6962SOL    HW221786   3.236   6.763   6.020
 6963SOL     OW21787   5.136   6.725   1.324
 6963SOL    HW121788   5.054   6.776   1.351
 6963SOL    HW221789   5.152   6.739   1.226
 6964SOL     OW21790   2.210   0.309   6.019
 6964SOL    HW121791   2.254   0.368   5.950
 6964SOL    HW221792   2.231   0.344   6.110
 6965SOL     OW21793   0.638   1.965   0.198
 6965SOL    HW121794   0.736   1.974   0.182
 6965SOL    HW221795   0.598   2.056   0.211
 6966SOL     OW21796   0.772   0.946   1.894
 6966SOL    HW121797   0.685   0.900   1.874
 6966SOL    HW221798   0.776   0.968   1.992
 6967SOL     OW21799   4.180   1.990   6.004
 6967SOL    HW121800   4.092   1.977   6.050
 6967SOL    HW221801   4.183   1.933   5.922
 6968SOL     OW21802   3.673   6.775   2.973
 6968SOL    HW121803   3.643   6.854   3.027
 6968SOL    HW221804   3.608   6.760   2.898
 6969SOL     OW21805   2.248   1.941   2.132
 6969SOL    HW121806   2.313   1.869   2.155
 6969SOL    HW221807   2.290   2.003   2.065
 6970SOL     OW21808   3.815   4.336   6.009
 6970SOL    HW121809   3.796   4.345   5.912
 6970SOL    HW221810   3.849   4.244   6.028
 6971SOL     OW21811   6.441   4.675   0.572
 6971SOL    HW121812   6.440   4.669   0.672
 6971SOL    HW221813   6.533   4.656   0.539
 6972SOL     OW21814   5.075   3.715   2.673
 6972SOL    HW121815   4.992   3.749   2.718
 6972SOL    HW221816   5.063   3.618   2.651
 6973SOL     OW21817   1.230   2.330   2.915
 6973SOL    HW121818   1.296   2.343   2.842
 6973SOL    HW221819   1.141   2.366   2.886
 6974SOL     OW21820   3.491   3.737   2.586
 6974SOL    HW121821   3.497   3.837   2.575
 6974SOL    HW221822   3.403   3.713   2.627
 6975SOL     OW21823   3.198   6.002   4.905
 6975SOL    HW121824   3.258   6.029   4.829
 6975SOL    HW221825   3.108   6.043   4.892
 6976SOL     OW21826   4.886   4.531   5.738
 6976SOL    HW121827   4.862   4.435   5.725
 6976SOL    HW221828   4.985   4.539   5.748
 6977SOL     OW21829   4.228   4.638   1.704
 6977SOL    HW121830   4.273   4.548   1.707
 6977SOL    HW221831   4.132   4.626   1.680
 6978SOL     OW21832   5.484   3.271   1.786
 6978SOL    HW121833   5.455   3.254   1.693
 6978SOL    HW221834   5.580   3.299   1.786
 6979SOL     OW21835   1.131   4.075   1.301
 6979SOL    HW121836   1.171   4.143   1.240
 6979SOL    HW221837   1.200   4.044   1.367
 6980SOL     OW21838   1.111   6.949   3.251
 6980SOL    HW121839   1.108   6.972   3.154
 6980SOL    HW221840   1.121   6.850   3.261
 6981SOL     OW21841   3.535   3.349   6.742
 6981SOL    HW121842   3.503   3.322   6.833
 6981SOL    HW221843   3.517   3.276   6.677
 6982SOL     OW21844   0.831   1.116   3.979
 6982SOL    HW121845   0.832   1.121   4.079
 6982SOL    HW221846   0.838   1.020   3.951
 6983SOL     OW21847   5.043   0.698   4.064
 6983SOL    HW121848   5.095   0.621   4.100
 6983SOL    HW221849   4.970   0.665   4.005
 6984SOL     OW21850   0.757   2.698   3.026
 6984SOL    HW121851   0.856   2.695   3.038
 6984SOL    HW221852   0.712   2.650   3.102
 6985SOL     OW21853   6.574   3.787   6.855
 6985SOL    HW121854   6.538   3.706   6.900
 6985SOL    HW221855   6.650   3.761   6.795
 6986SOL     OW21856   3.774   5.206   5.548
 6986SOL    HW121857   3.713   5.134   5.515
 6986SOL    HW221858   3.863   5.197   5.504
 6987SOL     OW21859   0.455   1.900   6.597
 6987SOL    HW121860   0.452   1.824   6.533
 6987SOL    HW221861   0.369   1.903   6.650
 6988SOL     OW21862   3.047   1.465   6.126
 6988SOL    HW121863   3.131   1.434   6.171
 6988SOL    HW221864   2.972   1.465   6.192
 6989SOL     OW21865   0.055   4.896   2.564
 6989SOL    HW121866   0.077   4.981   2.611
 6989SOL    HW221867   0.037   4.824   2.631
 6990SOL     OW21868   3.548   3.020   1.792
 6990SOL    HW121869   3.561   2.923   1.776
 6990SOL    HW221870   3.540   3.037   1.891
 6991SOL     OW21871   5.744   4.014   2.693
 6991SOL    HW121872   5.807   4.089   2.672
 6991SOL    HW221873   5.653   4.036   2.657
 6992SOL     OW21874   0.969   0.403   6.726
 6992SOL    HW121875   0.980   0.479   6.791
 6992SOL    HW221876   1.016   0.425   6.641
 6993SOL     OW21877   5.484   1.225   1.318
 6993SOL    HW121878   5.455   1.237   1.223
 6993SOL    HW221879   5.561   1.285   1.337
 6994SOL     OW21880   2.029   0.018   4.121
 6994SOL    HW121881   2.044   0.011   4.022
 6994SOL    HW221882   1.943   6.990   4.144
 6995SOL     OW21883   0.330   3.320   0.455
 6995SOL    HW121884   0.277   3.391   0.408
 6995SOL    HW221885   0.385   3.363   0.528
 6996SOL     OW21886   1.168   1.106   0.384
 6996SOL    HW121887   1.245   1.169   0.397
 6996SOL    HW221888   1.119   1.095   0.470
 6997SOL     OW21889   6.672   5.222   4.909
 6997SOL    HW121890   6.700   5.307   4.866
 6997SOL    HW221891   6.743   5.191   4.973
 6998SOL     OW21892   0.399   1.158   1.244
 6998SOL    HW121893   0.391   1.103   1.161
 6998SOL    HW221894   0.310   1.199   1.265
 6999SOL     OW21895   1.044   2.654   6.811
 6999SOL    HW121896   1.079   2.709   6.886
 6999SOL    HW221897   1.007   2.568   6.848
 7000SOL     OW21898   6.627   0.251   2.814
 7000SOL    HW121899   6.594   0.346   2.821
 7000SOL    HW221900   6.727   0.251   2.815
 7001SOL     OW21901   1.158   1.482   4.541
 7001SOL    HW121902   1.169   1.479   4.441
 7001SOL    HW221903   1.228   1.542   4.581
 7002SOL     OW21904   0.697   5.712   3.495
 7002SOL    HW121905   0.658   5.626   3.530
 7002SOL    HW221906   0.642   5.744   3.418
 7003SOL     OW21907   6.047   4.050   1.486
 7003SOL    HW121908   5.985   4.061   1.564
 7003SOL    HW221909   6.012   3.977   1.427
 7004SOL     OW21910   1.921   5.708   0.295
 7004SOL    HW121911   1.932   5.636   0.363
 7004SOL    HW221912   1.892   5.668   0.208
 7005SOL     OW21913   1.634   0.542   6.985
 7005SOL    HW121914   1.563   0.493   6.936
 7005SOL    HW221915   1.592   0.603   0.034
 7006SOL     OW21916   0.236   0.026   3.914
 7006SOL    HW121917   0.317   0.080   3.892
 7006SOL    HW221918   0.153   0.079   3.892
 7007SOL     OW21919   3.910   0.626   5.787
 7007SOL    HW121920   3.823   0.578   5.798
 7007SOL    HW221921   3.893   0.723   5.771
 7008SOL     OW21922   6.491   4.308   3.484
 7008SOL    HW121923   6.485   4.218   3.440
 7008SOL    HW221924   6.447   4.303   3.573
 7009SOL     OW21925   4.375   5.865   1.842
 7009SOL    HW121926   4.279   5.866   1.814
 7009SOL    HW221927   4.388   5.927   1.919
 7010SOL     OW21928   5.123   4.075   1.991
 7010SOL    HW121929   5.128   3.975   1.980
 7010SOL    HW221930   5.211   4.115   1.968
 7011SOL     OW21931   3.850   6.668   0.056
 7011SOL    HW121932   3.772   6.722   0.024
 7011SOL    HW221933   3.885   6.708   0.141
 7012SOL     OW21934   0.785   2.269   0.872
 7012SOL    HW121935   0.749   2.191   0.922
 7012SOL    HW221936   0.755   2.265   0.777
 7013SOL     OW21937   2.811   1.691   6.990
 7013SOL    HW121938   2.772   1.742   6.914
 7013SOL    HW221939   2.816   1.750   0.052
 7014SOL     OW21940   6.429   3.661   1.770
 7014SOL    HW121941   6.488   3.615   1.704
 7014SOL    HW221942   6.388   3.742   1.727
 7015SOL     OW21943   5.125   5.137   1.304
 7015SOL    HW121944   5.223   5.153   1.295
 7015SOL    HW221945   5.096   5.160   1.397
 7016SOL     OW21946   3.295   4.720   0.587
 7016SOL    HW121947   3.219   4.750   0.529
 7016SOL    HW221948   3.270   4.734   0.683
 7017SOL     OW21949   4.568   5.126   3.835
 7017SOL    HW121950   4.558   5.215   3.880
 7017SOL    HW221951   4.606   5.060   3.899
 7018SOL     OW21952   4.815   2.879   4.106
 7018SOL    HW121953   4.811   2.973   4.140
 7018SOL    HW221954   4.772   2.818   4.173
 7019SOL     OW21955   4.944   4.957   1.955
 7019SOL    HW121956   4.961   4.861   1.978
 7019SOL    HW221957   4.853   4.984   1.985
 7020SOL     OW21958   0.662   3.479   6.773
 7020SOL    HW121959   0.711   3.556   6.814
 7020SOL    HW221960   0.705   3.393   6.801
 7021SOL     OW21961   1.110   2.293   4.843
 7021SOL    HW121962   1.121   2.365   4.912
 7021SOL    HW221963   1.040   2.228   4.872
 7022SOL     OW21964   3.977   1.009   0.919
 7022SOL    HW121965   3.952   1.058   0.835
 7022SOL    HW221966   3.895   0.980   0.967
 7023SOL     OW21967   0.621   1.718   1.905
 7023SOL    HW121968   0.637   1.789   1.974
 7023SOL    HW221969   0.705   1.704   1.852
 7024SOL     OW21970   3.757   3.838   3.657
 7024SOL    HW121971   3.824   3.795   3.597
 7024SOL    HW221972   3.774   3.810   3.752
 7025SOL     OW21973   3.228   0.050   0.198
 7025SOL    HW121974   3.243   0.148   0.208
 7025SOL    HW221975   3.312   0.001   0.223
 7026SOL     OW21976   3.093   2.315   1.321
 7026SOL    HW121977   3.028   2.265   1.378
 7026SOL    HW221978   3.097   2.274   1.230
 7027SOL     OW21979   2.221   5.643   1.636
 7027SOL    HW121980   2.285   5.575   1.599
 7027SOL    HW221981   2.269   5.729   1.652
 7028SOL     OW21982   3.120   0.246   3.555
 7028SOL    HW121983   3.121   0.346   3.549
 7028SOL    HW221984   3.196   0.216   3.612
 7029SOL     OW21985   3.139   3.390   5.074
 7029SOL    HW121986   3.217   3.427   5.023
 7029SOL    HW221987   3.142   3.291   5.072
 7030SOL     OW21988   6.857   1.479   4.738
 7030SOL    HW121989   6.859   1.467   4.639
 7030SOL    HW221990   6.805   1.404   4.779
 7031SOL     OW21991   4.662   6.616   0.642
 7031SOL    HW121992   4.672   6.674   0.561
 7031SOL    HW221993   4.571   6.575   0.642
 7032SOL     OW21994   3.761   0.155   4.449
 7032SOL    HW121995   3.695   0.149   4.524
 7032SOL    HW221996   3.712   0.163   4.362
 7033SOL     OW21997   1.509   2.319   5.747
 7033SOL    HW121998   1.549   2.252   5.684
 7033SOL    HW221999   1.570   2.398   5.754
 7034SOL     OW22000   6.361   1.857   3.118
 7034SOL    HW122001   6.365   1.925   3.046
 7034SOL    HW222002   6.453   1.833   3.148
 7035SOL     OW22003   2.188   0.537   1.113
 7035SOL    HW122004   2.195   0.542   1.013
 7035SOL    HW222005   2.102   0.493   1.138
 7036SOL     OW22006   0.194   1.373   2.313
 7036SOL    HW122007   0.278   1.322   2.332
 7036SOL    HW222008   0.217   1.460   2.268
 7037SOL     OW22009   0.624   0.431   6.043
 7037SOL    HW122010   0.610   0.333   6.060
 7037SOL    HW222011   0.676   0.442   5.958
 7038SOL     OW22012   1.989   3.431   6.443
 7038SOL    HW122013   2.045   3.513   6.444
 7038SOL    HW222014   1.975   3.400   6.349
 7039SOL     OW22015   0.326   5.769   3.133
 7039SOL    HW122016   0.278   5.854   3.109
 7039SOL    HW222017   0.403   5.756   3.070
 7040SOL     OW22018   4.225   2.085   5.651
 7040SOL    HW122019   4.191   2.052   5.563
 7040SOL    HW222020   4.180   2.171   5.674
 7041SOL     OW22021   1.266   0.744   4.232
 7041SOL    HW122022   1.284   0.773   4.326
 7041SOL    HW222023   1.352   0.726   4.186
 7042SOL     OW22024   4.444   6.571   4.985
 7042SOL    HW122025   4.489   6.484   5.006
 7042SOL    HW222026   4.514   6.640   4.965
 7043SOL     OW22027   2.349   4.809   2.977
 7043SOL    HW122028   2.310   4.718   2.995
 7043SOL    HW222029   2.277   4.878   2.985
 7044SOL     OW22030   5.369   6.116   4.088
 7044SOL    HW122031   5.382   6.178   4.166
 7044SOL    HW222032   5.303   6.156   4.024
 7045SOL     OW22033   6.232   5.534   2.435
 7045SOL    HW122034   6.285   5.467   2.487
 7045SOL    HW222035   6.205   5.493   2.348
 7046SOL     OW22036   2.878   2.235   4.233
 7046SOL    HW122037   2.817   2.182   4.292
 7046SOL    HW222038   2.966   2.248   4.278
 7047SOL     OW22039   0.212   6.993   0.267
 7047SOL    HW122040   0.295   0.027   0.286
 7047SOL    HW222041   0.236   6.914   0.211
 7048SOL     OW22042   6.890   5.386   4.697
 7048SOL    HW122043   6.829   5.464   4.704
 7048SOL    HW222044   6.942   5.376   4.782
 7049SOL     OW22045   3.822   1.221   2.356
 7049SOL    HW122046   3.768   1.140   2.334
 7049SOL    HW222047   3.853   1.265   2.271
 7050SOL     OW22048   4.002   4.375   0.918
 7050SOL    HW122049   4.003   4.433   0.837
 7050SOL    HW222050   4.030   4.282   0.893
 7051SOL     OW22051   0.332   6.784   0.946
 7051SOL    HW122052   0.422   6.802   0.985
 7051SOL    HW222053   0.277   6.733   1.012
 7052SOL     OW22054   6.070   0.016   2.618
 7052SOL    HW122055   6.108   0.057   2.535
 7052SOL    HW222056   6.125   0.042   2.697
 7053SOL     OW22057   1.591   2.908   3.341
 7053SOL    HW122058   1.686   2.934   3.355
 7053SOL    HW222059   1.585   2.811   3.321
 7054SOL     OW22060   6.597   0.267   0.640
 7054SOL    HW122061   6.544   0.230   0.564
 7054SOL    HW222062   6.670   0.325   0.604
 7055SOL     OW22063   2.303   0.751   6.824
 7055SOL    HW122064   2.357   0.773   6.905
 7055SOL    HW222065   2.209   0.781   6.836
 7056SOL     OW22066   0.268   5.307   1.520
 7056SOL    HW122067   0.360   5.295   1.557
 7056SOL    HW222068   0.238   5.221   1.478
 7057SOL     OW22069   3.393   5.009   5.008
 7057SOL    HW122070   3.387   5.109   5.003
 7057SOL    HW222071   3.378   4.979   5.102
 7058SOL     OW22072   5.321   2.600   5.966
 7058SOL    HW122073   5.293   2.531   5.900
 7058SOL    HW222074   5.381   2.667   5.922
 7059SOL     OW22075   2.109   0.821   4.462
 7059SOL    HW122076   2.166   0.889   4.417
 7059SOL    HW222077   2.074   0.859   4.548
 7060SOL     OW22078   3.290   0.335   2.058
 7060SOL    HW122079   3.279   0.396   2.137
 7060SOL    HW222080   3.331   0.386   1.982
 7061SOL     OW22081   0.687   2.003   3.059
 7061SOL    HW122082   0.712   2.067   2.987
 7061SOL    HW222083   0.708   2.042   3.148
 7062SOL     OW22084   4.257   1.885   3.296
 7062SOL    HW122085   4.276   1.879   3.198
 7062SOL    HW222086   4.160   1.870   3.312
 7063SOL     OW22087   0.513   0.900   1.872
 7063SOL    HW122088   0.441   0.920   1.938
 7063SOL    HW222089   0.500   0.808   1.835
 7064SOL     OW22090   4.949   1.997   5.236
 7064SOL    HW122091   4.861   1.989   5.283
 7064SOL    HW222092   4.993   1.907   5.232
 7065SOL     OW22093   3.565   4.252   5.376
 7065SOL    HW122094   3.505   4.329   5.358
 7065SOL    HW222095   3.524   4.168   5.338
 7066SOL     OW22096   3.963   0.537   0.057
 7066SOL    HW122097   3.974   0.635   0.039
 7066SOL    HW222098   3.871   0.520   0.092
 7067SOL     OW22099   2.092   3.131   6.932
 7067SOL    HW122100   2.105   3.069   6.854
 7067SOL    HW222101   2.097   3.078   7.017
 7068SOL     OW22102   4.944   4.432   4.359
 7068SOL    HW122103   4.891   4.425   4.443
 7068SOL    HW222104   4.969   4.341   4.328
 7069SOL     OW22105   5.937   0.172   6.478
 7069SOL    HW122106   5.862   0.107   6.471
 7069SOL    HW222107   5.911   0.247   6.540
 7070SOL     OW22108   0.484   6.483   5.157
 7070SOL    HW122109   0.558   6.524   5.102
 7070SOL    HW222110   0.507   6.491   5.254
 7071SOL     OW22111   5.335   6.114   6.930
 7071SOL    HW122112   5.236   6.104   6.919
 7071SOL    HW222113   5.369   6.186   6.870
 7072SOL     OW22114   0.533   3.930   6.721
 7072SOL    HW122115   0.457   3.865   6.728
 7072SOL    HW222116   0.496   4.023   6.713
 7073SOL     OW22117   5.330   1.144   2.969
 7073SOL    HW122118   5.357   1.240   2.980
 7073SOL    HW222119   5.391   1.099   2.905
 7074SOL     OW22120   5.905   4.100   2.983
 7074SOL    HW122121   5.873   4.009   2.957
 7074SOL    HW222122   5.921   4.154   2.901
 7075SOL     OW22123   3.458   5.273   4.182
 7075SOL    HW122124   3.393   5.221   4.127
 7075SOL    HW222125   3.551   5.249   4.156
 7076SOL     OW22126   5.725   3.329   3.044
 7076SOL    HW122127   5.632   3.364   3.041
 7076SOL    HW222128   5.787   3.399   3.080
 7077SOL     OW22129   2.892   5.026   1.307
 7077SOL    HW122130   2.943   4.994   1.386
 7077SOL    HW222131   2.843   5.110   1.331
 7078SOL     OW22132   5.089   0.018   0.329
 7078SOL    HW122133   4.990   0.024   0.345
 7078SOL    HW222134   5.116   6.941   0.323
 7079SOL     OW22135   1.242   0.039   4.147
 7079SOL    HW122136   1.227   0.122   4.094
 7079SOL    HW222137   1.162   0.021   4.205
 7080SOL     OW22138   3.834   1.869   5.431
 7080SOL    HW122139   3.909   1.805   5.416
 7080SOL    HW222140   3.787   1.886   5.344
 7081SOL     OW22141   1.611   1.229   6.658
 7081SOL    HW122142   1.608   1.279   6.571
 7081SOL    HW222143   1.617   1.294   6.734
 7082SOL     OW22144   6.675   4.279   2.513
 7082SOL    HW122145   6.684   4.199   2.453
 7082SOL    HW222146   6.655   4.249   2.606
 7083SOL     OW22147   6.797   3.432   2.336
 7083SOL    HW122148   6.897   3.435   2.344
 7083SOL    HW222149   6.769   3.478   2.252
 7084SOL     OW22150   0.901   5.931   0.223
 7084SOL    HW122151   0.805   5.909   0.242
 7084SOL    HW222152   0.940   5.980   0.301
 7085SOL     OW22153   0.553   3.194   2.570
 7085SOL    HW122154   0.612   3.260   2.616
 7085SOL    HW222155   0.566   3.104   2.611
 7086SOL     OW22156   5.564   0.854   5.103
 7086SOL    HW122157   5.503   0.928   5.075
 7086SOL    HW222158   5.659   0.886   5.099
 7087SOL     OW22159   5.661   3.296   3.369
 7087SOL    HW122160   5.664   3.379   3.424
 7087SOL    HW222161   5.592   3.307   3.297
 7088SOL     OW22162   5.798   1.769   4.899
 7088SOL    HW122163   5.810   1.687   4.843
 7088SOL    HW222164   5.716   1.818   4.870
 7089SOL     OW22165   3.382   5.488   2.066
 7089SOL    HW122166   3.361   5.398   2.027
 7089SOL    HW222167   3.403   5.552   1.992
 7090SOL     OW22168   3.786   1.976   1.053
 7090SOL    HW122169   3.776   2.001   1.149
 7090SOL    HW222170   3.838   2.047   1.005
 7091SOL     OW22171   0.273   6.786   6.613
 7091SOL    HW122172   0.316   6.696   6.605
 7091SOL    HW222173   0.260   6.808   6.710
 7092SOL     OW22174   4.811   2.355   6.904
 7092SOL    HW122175   4.740   2.285   6.905
 7092SOL    HW222176   4.789   2.425   6.836
 7093SOL     OW22177   3.355   4.305   0.793
 7093SOL    HW122178   3.396   4.340   0.708
 7093SOL    HW222179   3.256   4.315   0.789
 7094SOL     OW22180   2.274   6.772   5.550
 7094SOL    HW122181   2.182   6.799   5.522
 7094SOL    HW222182   2.336   6.849   5.539
 7095SOL     OW22183   2.746   4.199   5.321
 7095SOL    HW122184   2.763   4.297   5.331
 7095SOL    HW222185   2.815   4.148   5.373
 7096SOL     OW22186   0.097   0.773   1.034
 7096SOL    HW122187   0.120   0.700   1.098
 7096SOL    HW222188   0.170   0.842   1.035
 7097SOL     OW22189   4.877   0.857   1.632
 7097SOL    HW122190   4.845   0.890   1.721
 7097SOL    HW222191   4.941   0.924   1.593
 7098SOL     OW22192   0.506   6.811   4.552
 7098SOL    HW122193   0.537   6.902   4.581
 7098SOL    HW222194   0.543   6.742   4.614
 7099SOL     OW22195   2.725   2.232   3.774
 7099SOL    HW122196   2.676   2.292   3.837
 7099SOL    HW222197   2.762   2.285   3.698
 7100SOL     OW22198   6.486   3.762   0.779
 7100SOL    HW122199   6.495   3.845   0.724
 7100SOL    HW222200   6.406   3.771   0.839
 7101SOL     OW22201   2.209   6.171   5.325
 7101SOL    HW122202   2.262   6.116   5.261
 7101SOL    HW222203   2.219   6.134   5.418
 7102SOL     OW22204   5.462   0.951   1.431
 7102SOL    HW122205   5.490   1.042   1.398
 7102SOL    HW222206   5.528   0.919   1.499
 7103SOL     OW22207   4.632   4.403   3.023
 7103SOL    HW122208   4.559   4.383   2.957
 7103SOL    HW222209   4.593   4.445   3.105
 7104SOL     OW22210   4.932   3.638   3.340
 7104SOL    HW122211   4.892   3.716   3.291
 7104SOL    HW222212   4.903   3.640   3.436
 7105SOL     OW22213   2.875   3.637   3.758
 7105SOL    HW122214   2.860   3.599   3.850
 7105SOL    HW222215   2.820   3.586   3.692
 7106SOL     OW22216   2.635   3.188   1.279
 7106SOL    HW122217   2.635   3.126   1.358
 7106SOL    HW222218   2.684   3.145   1.203
 7107SOL     OW22219   4.246   0.582   6.956
 7107SOL    HW122220   4.315   0.514   6.981
 7107SOL    HW222221   4.266   0.668   7.003
 7108SOL     OW22222   3.372   0.083   2.433
 7108SOL    HW122223   3.362   0.148   2.508
 7108SOL    HW222224   3.449   0.021   2.452
 7109SOL     OW22225   1.956   6.912   5.765
 7109SOL    HW122226   1.892   6.891   5.839
 7109SOL    HW222227   2.030   6.969   5.800
 7110SOL     OW22228   3.375   6.033   4.677
 7110SOL    HW122229   3.411   5.947   4.714
 7110SOL    HW222230   3.335   6.017   4.587
 7111SOL     OW22231   0.126   0.541   3.998
 7111SOL    HW122232   0.214   0.497   4.015
 7111SOL    HW222233   0.071   0.540   4.082
 7112SOL     OW22234   1.729   5.048   4.552
 7112SOL    HW122235   1.691   4.984   4.486
 7112SOL    HW222236   1.686   5.137   4.540
 7113SOL     OW22237   3.147   4.985   5.297
 7113SOL    HW122238   3.070   5.043   5.324
 7113SOL    HW222239   3.230   5.017   5.342
 7114SOL     OW22240   4.801   5.002   0.208
 7114SOL    HW122241   4.866   5.034   0.277
 7114SOL    HW222242   4.832   5.031   0.117
 7115SOL     OW22243   6.346   4.469   0.375
 7115SOL    HW122244   6.249   4.472   0.351
 7115SOL    HW222245   6.358   4.502   0.469
 7116SOL     OW22246   6.679   3.450   4.560
 7116SOL    HW122247   6.666   3.527   4.499
 7116SOL    HW222248   6.608   3.381   4.543
 7117SOL     OW22249   6.202   0.115   3.108
 7117SOL    HW122250   6.180   0.024   3.144
 7117SOL    HW222251   6.229   0.107   3.012
 7118SOL     OW22252   4.057   4.710   5.475
 7118SOL    HW122253   4.058   4.615   5.442
 7118SOL    HW222254   3.962   4.740   5.487
 7119SOL     OW22255   4.357   0.258   4.550
 7119SOL    HW122256   4.398   0.349   4.545
 7119SOL    HW222257   4.261   0.266   4.578
 7120SOL     OW22258   5.074   1.154   0.984
 7120SOL    HW122259   5.011   1.179   1.058
 7120SOL    HW222260   5.052   1.063   0.951
 7121SOL     OW22261   1.084   6.345   3.100
 7121SOL    HW122262   1.003   6.328   3.156
 7121SOL    HW222263   1.075   6.434   3.055
 7122SOL     OW22264   2.536   0.640   6.105
 7122SOL    HW122265   2.548   0.580   6.026
 7122SOL    HW222266   2.595   0.608   6.180
 7123SOL     OW22267   5.416   5.194   6.187
 7123SOL    HW122268   5.454   5.241   6.266
 7123SOL    HW222269   5.490   5.164   6.127
 7124SOL     OW22270   1.140   2.110   1.560
 7124SOL    HW122271   1.098   2.162   1.634
 7124SOL    HW222272   1.157   2.171   1.482
 7125SOL     OW22273   1.336   0.215   1.270
 7125SOL    HW122274   1.430   0.238   1.245
 7125SOL    HW222275   1.335   0.168   1.358
 7126SOL     OW22276   4.090   6.013   1.412
 7126SOL    HW122277   4.045   5.938   1.462
 7126SOL    HW222278   4.053   6.019   1.320
 7127SOL     OW22279   2.850   6.379   5.371
 7127SOL    HW122280   2.762   6.410   5.335
 7127SOL    HW222281   2.835   6.325   5.453
 7128SOL     OW22282   3.967   4.311   6.565
 7128SOL    HW122283   3.988   4.403   6.598
 7128SOL    HW222284   3.914   4.316   6.481
 7129SOL     OW22285   0.244   0.105   0.750
 7129SOL    HW122286   0.268   0.197   0.782
 7129SOL    HW222287   0.151   0.082   0.780
 7130SOL     OW22288   3.605   6.414   4.379
 7130SOL    HW122289   3.585   6.326   4.336
 7130SOL    HW222290   3.536   6.481   4.350
 7131SOL     OW22291   4.366   0.690   2.433
 7131SOL    HW122292   4.344   0.654   2.524
 7131SOL    HW222293   4.327   0.782   2.425
 7132SOL     OW22294   5.430   3.944   0.572
 7132SOL    HW122295   5.381   3.857   0.575
 7132SOL    HW222296   5.525   3.928   0.546
 7133SOL     OW22297   3.483   5.728   3.570
 7133SOL    HW122298   3.489   5.756   3.474
 7133SOL    HW222299   3.518   5.635   3.580
 7134SOL     OW22300   5.749   5.218   1.321
 7134SOL    HW122301   5.715   5.226   1.227
 7134SOL    HW222302   5.722   5.129   1.358
 7135SOL     OW22303   2.281   3.138   1.594
 7135SOL    HW122304   2.205   3.189   1.554
 7135SOL    HW222305   2.272   3.041   1.571
 7136SOL     OW22306   2.393   1.548   1.927
 7136SOL    HW122307   2.320   1.508   1.982
 7136SOL    HW222308   2.462   1.479   1.908
 7137SOL     OW22309   2.579   2.199   1.253
 7137SOL    HW122310   2.627   2.282   1.283
 7137SOL    HW222311   2.622   2.119   1.296
 7138SOL     OW22312   1.324   2.466   0.716
 7138SOL    HW122313   1.237   2.437   0.755
 7138SOL    HW222314   1.343   2.560   0.744
 7139SOL     OW22315   6.178   5.777   1.470
 7139SOL    HW122316   6.225   5.833   1.538
 7139SOL    HW222317   6.211   5.683   1.476
 7140SOL     OW22318   6.763   3.185   0.608
 7140SOL    HW122319   6.678   3.238   0.617
 7140SOL    HW222320   6.742   3.094   0.573
 7141SOL     OW22321   3.953   0.090   1.153
 7141SOL    HW122322   3.890   0.117   1.226
 7141SOL    HW222323   3.942   0.152   1.075
 7142SOL     OW22324   2.741   0.422   4.756
 7142SOL    HW122325   2.714   0.410   4.852
 7142SOL    HW222326   2.837   0.450   4.752
 7143SOL     OW22327   2.591   4.460   6.987
 7143SOL    HW122328   2.586   4.399   6.907
 7143SOL    HW222329   2.623   4.409   0.047
 7144SOL     OW22330   6.560   0.307   5.312
 7144SOL    HW122331   6.461   0.298   5.323
 7144SOL    HW222332   6.580   0.351   5.224
 7145SOL     OW22333   4.887   2.300   6.346
 7145SOL    HW122334   4.869   2.208   6.312
 7145SOL    HW222335   4.841   2.313   6.434
 7146SOL     OW22336   1.677   1.414   5.157
 7146SOL    HW122337   1.595   1.425   5.101
 7146SOL    HW222338   1.652   1.417   5.254
 7147SOL     OW22339   5.605   5.685   1.683
 7147SOL    HW122340   5.598   5.777   1.722
 7147SOL    HW222341   5.646   5.624   1.750
 7148SOL     OW22342   0.163   6.320   1.092
 7148SOL    HW122343   0.111   6.275   1.019
 7148SOL    HW222344   0.251   6.275   1.103
 7149SOL     OW22345   6.422   5.076   4.677
 7149SOL    HW122346   6.461   5.021   4.603
 7149SOL    HW222347   6.458   5.169   4.672
 7150SOL     OW22348   4.024   3.494   0.122
 7150SOL    HW122349   4.060   3.508   0.214
 7150SOL    HW222350   4.057   3.567   0.062
 7151SOL     OW22351   3.847   0.686   0.930
 7151SOL    HW122352   3.869   0.654   1.022
 7151SOL    HW222353   3.788   0.766   0.936
 7152SOL     OW22354   6.872   1.584   6.446
 7152SOL    HW122355   6.881   1.515   6.517
 7152SOL    HW222356   6.796   1.559   6.385
 7153SOL     OW22357   4.017   6.261   1.087
 7153SOL    HW122358   4.107   6.297   1.063
 7153SOL    HW222359   3.997   6.281   1.183
 7154SOL     OW22360   3.949   1.573   1.634
 7154SOL    HW122361   3.934   1.672   1.640
 7154SOL    HW222362   3.880   1.533   1.573
 7155SOL     OW22363   2.562   1.164   2.431
 7155SOL    HW122364   2.475   1.200   2.397
 7155SOL    HW222365   2.546   1.112   2.515
 7156SOL     OW22366   6.013   4.317   0.056
 7156SOL    HW122367   5.938   4.304   0.121
 7156SOL    HW222368   6.082   4.246   0.070
 7157SOL     OW22369   6.051   4.787   6.665
 7157SOL    HW122370   6.021   4.799   6.760
 7157SOL    HW222371   6.096   4.698   6.656
 7158SOL     OW22372   4.959   6.714   3.835
 7158SOL    HW122373   5.015   6.770   3.775
 7158SOL    HW222374   4.943   6.762   3.921
 7159SOL     OW22375   0.846   5.967   3.576
 7159SOL    HW122376   0.758   5.996   3.537
 7159SOL    HW222377   0.852   5.867   3.573
 7160SOL     OW22378   6.507   6.971   3.186
 7160SOL    HW122379   6.414   6.998   3.160
 7160SOL    HW222380   6.511   6.956   3.285
 7161SOL     OW22381   3.993   3.411   3.618
 7161SOL    HW122382   4.016   3.323   3.578
 7161SOL    HW222383   3.901   3.438   3.587
 7162SOL     OW22384   0.141   5.367   2.226
 7162SOL    HW122385   0.082   5.446   2.243
 7162SOL    HW222386   0.085   5.285   2.215
 7163SOL     OW22387   0.965   1.572   2.519
 7163SOL    HW122388   0.956   1.637   2.594
 7163SOL    HW222389   1.043   1.512   2.536
 7164SOL     OW22390   1.947   1.187   6.508
 7164SOL    HW122391   1.912   1.273   6.471
 7164SOL    HW222392   2.038   1.201   6.546
 7165SOL     OW22393   5.617   1.180   0.630
 7165SOL    HW122394   5.581   1.087   0.640
 7165SOL    HW222395   5.570   1.226   0.555
 7166SOL     OW22396   6.002   6.167   5.811
 7166SOL    HW122397   5.975   6.247   5.757
 7166SOL    HW222398   6.011   6.193   5.907
 7167SOL     OW22399   5.825   2.326   4.961
 7167SOL    HW122400   5.853   2.342   5.056
 7167SOL    HW222401   5.759   2.396   4.933
 7168SOL     OW22402   2.751   0.652   2.085
 7168SOL    HW122403   2.745   0.694   1.994
 7168SOL    HW222404   2.744   0.723   2.155
 7169SOL     OW22405   1.627   4.343   6.572
 7169SOL    HW122406   1.531   4.351   6.601
 7169SOL    HW222407   1.685   4.386   6.641
 7170SOL     OW22408   3.789   1.454   1.447
 7170SOL    HW122409   3.717   1.506   1.402
 7170SOL    HW222410   3.802   1.367   1.399
 7171SOL     OW22411   6.913   4.506   0.653
 7171SOL    HW122412   6.859   4.524   0.735
 7171SOL    HW222413   6.852   4.500   0.573
 7172SOL     OW22414   1.143   0.997   3.881
 7172SOL    HW122415   1.136   1.097   3.871
 7172SOL    HW222416   1.057   0.962   3.918
 7173SOL     OW22417   4.920   6.120   6.120
 7173SOL    HW122418   4.996   6.180   6.097
 7173SOL    HW222419   4.928   6.035   6.068
 7174SOL     OW22420   6.113   4.794   1.861
 7174SOL    HW122421   6.017   4.789   1.833
 7174SOL    HW222422   6.170   4.749   1.792
 7175SOL     OW22423   5.377   3.851   5.970
 7175SOL    HW122424   5.454   3.909   5.945
 7175SOL    HW222425   5.411   3.768   6.015
 7176SOL     OW22426   0.781   0.497   5.430
 7176SOL    HW122427   0.872   0.537   5.417
 7176SOL    HW222428   0.762   0.491   5.528
 7177SOL     OW22429   1.687   4.918   3.907
 7177SOL    HW122430   1.728   4.837   3.865
 7177SOL    HW222431   1.637   4.970   3.839
 7178SOL     OW22432   1.513   1.113   5.501
 7178SOL    HW122433   1.576   1.120   5.579
 7178SOL    HW222434   1.540   1.035   5.444
 7179SOL     OW22435   3.208   5.887   6.364
 7179SOL    HW122436   3.235   5.792   6.376
 7179SOL    HW222437   3.290   5.944   6.351
 7180SOL     OW22438   1.290   4.312   0.659
 7180SOL    HW122439   1.332   4.222   0.673
 7180SOL    HW222440   1.337   4.359   0.584
 7181SOL     OW22441   2.178   1.234   6.248
 7181SOL    HW122442   2.185   1.199   6.341
 7181SOL    HW222443   2.131   1.323   6.250
 7182SOL     OW22444   1.252   2.583   4.257
 7182SOL    HW122445   1.264   2.675   4.293
 7182SOL    HW222446   1.328   2.525   4.288
 7183SOL     OW22447   0.419   6.305   1.923
 7183SOL    HW122448   0.378   6.234   1.865
 7183SOL    HW222449   0.509   6.274   1.954
 7184SOL     OW22450   6.385   0.257   3.542
 7184SOL    HW122451   6.303   0.264   3.598
 7184SOL    HW222452   6.359   0.256   3.445
 7185SOL     OW22453   4.629   0.932   4.314
 7185SOL    HW122454   4.614   1.015   4.260
 7185SOL    HW222455   4.694   0.951   4.388
 7186SOL     OW22456   0.263   6.925   6.860
 7186SOL    HW122457   0.206   6.959   6.785
 7186SOL    HW222458   0.281   6.998   6.925
 7187SOL     OW22459   3.395   2.857   4.087
 7187SOL    HW122460   3.340   2.845   4.170
 7187SOL    HW222461   3.353   2.926   4.028
 7188SOL     OW22462   4.046   4.571   6.922
 7188SOL    HW122463   4.143   4.553   6.902
 7188SOL    HW222464   4.003   4.488   6.955
 7189SOL     OW22465   6.445   2.683   5.903
 7189SOL    HW122466   6.381   2.757   5.919
 7189SOL    HW222467   6.452   2.627   5.986
 7190SOL     OW22468   5.749   5.612   1.166
 7190SOL    HW122469   5.791   5.560   1.092
 7190SOL    HW222470   5.651   5.621   1.149
 7191SOL     OW22471   0.355   4.282   3.827
 7191SOL    HW122472   0.285   4.219   3.793
 7191SOL    HW222473   0.444   4.235   3.829
 7192SOL     OW22474   1.633   4.763   6.752
 7192SOL    HW122475   1.717   4.731   6.708
 7192SOL    HW222476   1.594   4.839   6.699
 7193SOL     OW22477   2.294   2.794   2.366
 7193SOL    HW122478   2.371   2.851   2.395
 7193SOL    HW222479   2.280   2.722   2.433
 7194SOL     OW22480   2.825   2.495   6.040
 7194SOL    HW122481   2.909   2.466   5.994
 7194SOL    HW222482   2.770   2.414   6.064
 7195SOL     OW22483   6.790   3.734   5.830
 7195SOL    HW122484   6.829   3.689   5.750
 7195SOL    HW222485   6.728   3.671   5.877
 7196SOL     OW22486   3.196   3.633   2.151
 7196SOL    HW122487   3.211   3.657   2.056
 7196SOL    HW222488   3.246   3.697   2.210
 7197SOL     OW22489   2.438   3.621   5.859
 7197SOL    HW122490   2.488   3.676   5.926
 7197SOL    HW222491   2.488   3.622   5.772
 7198SOL     OW22492   0.007   0.361   1.377
 7198SOL    HW122493   0.056   0.296   1.436
 7198SOL    HW222494   6.958   0.409   1.432
 7199SOL     OW22495   0.955   1.087   2.129
 7199SOL    HW122496   0.922   1.018   2.194
 7199SOL    HW222497   1.026   1.142   2.172
 7200SOL     OW22498   0.999   2.491   0.599
 7200SOL    HW122499   1.011   2.407   0.653
 7200SOL    HW222500   1.048   2.566   0.642
 7201SOL     OW22501   5.797   5.523   3.836
 7201SOL    HW122502   5.764   5.434   3.804
 7201SOL    HW222503   5.798   5.524   3.936
 7202SOL     OW22504   4.867   0.461   5.728
 7202SOL    HW122505   4.867   0.559   5.745
 7202SOL    HW222506   4.853   0.443   5.631
 7203SOL     OW22507   0.491   1.493   2.024
 7203SOL    HW122508   0.549   1.563   1.981
 7203SOL    HW222509   0.527   1.470   2.114
 7204SOL     OW22510   6.718   0.089   1.414
 7204SOL    HW122511   6.729   0.188   1.409
 7204SOL    HW222512   6.621   0.066   1.411
 7205SOL     OW22513   2.314   2.131   4.843
 7205SOL    HW122514   2.336   2.179   4.758
 7205SOL    HW222515   2.342   2.187   4.921
 7206SOL     OW22516   1.819   2.758   1.043
 7206SOL    HW122517   1.747   2.691   1.030
 7206SOL    HW222518   1.787   2.831   1.103
 7207SOL     OW22519   1.786   1.665   4.082
 7207SOL    HW122520   1.879   1.676   4.048
 7207SOL    HW222521   1.769   1.568   4.102
 7208SOL     OW22522   2.911   0.416   4.100
 7208SOL    HW122523   2.925   0.377   4.191
 7208SOL    HW222524   2.869   0.506   4.108
 7209SOL     OW22525   2.854   1.642   2.332
 7209SOL    HW122526   2.926   1.598   2.278
 7209SOL    HW222527   2.820   1.723   2.284
 7210SOL     OW22528   2.757   1.243   3.001
 7210SOL    HW122529   2.707   1.169   2.957
 7210SOL    HW222530   2.807   1.208   3.080
 7211SOL     OW22531   3.213   5.729   4.924
 7211SOL    HW122532   3.291   5.711   4.984
 7211SOL    HW222533   3.193   5.827   4.925
 7212SOL     OW22534   6.037   4.457   6.276
 7212SOL    HW122535   6.071   4.459   6.182
 7212SOL    HW222536   6.112   4.471   6.340
 7213SOL     OW22537   3.927   1.178   0.701
 7213SOL    HW122538   3.873   1.095   0.683
 7213SOL    HW222539   3.939   1.228   0.615
 7214SOL     OW22540   6.781   1.376   6.605
 7214SOL    HW122541   6.870   1.393   6.648
 7214SOL    HW222542   6.709   1.392   6.672
 7215SOL     OW22543   6.855   2.720   2.532
 7215SOL    HW122544   6.760   2.718   2.498
 7215SOL    HW222545   6.887   2.626   2.543
 7216SOL     OW22546   3.096   6.127   2.999
 7216SOL    HW122547   3.157   6.101   2.923
 7216SOL    HW222548   3.151   6.161   3.075
 7217SOL     OW22549   1.252   4.258   3.750
 7217SOL    HW122550   1.191   4.220   3.680
 7217SOL    HW222551   1.335   4.293   3.707
 7218SOL     OW22552   6.241   3.962   4.338
 7218SOL    HW122553   6.216   3.992   4.429
 7218SOL    HW222554   6.195   3.876   4.317
 7219SOL     OW22555   3.835   6.191   1.876
 7219SOL    HW122556   3.817   6.230   1.967
 7219SOL    HW222557   3.932   6.171   1.866
 7220SOL     OW22558   6.193   4.854   4.552
 7220SOL    HW122559   6.206   4.863   4.651
 7220SOL    HW222560   6.135   4.929   4.519
 7221SOL     OW22561   3.440   5.803   5.078
 7221SOL    HW122562   3.419   5.900   5.092
 7221SOL    HW222563   3.484   5.767   5.160
 7222SOL     OW22564   6.681   6.894   4.187
 7222SOL    HW122565   6.772   6.928   4.212
 7222SOL    HW222566   6.681   6.866   4.091
 7223SOL     OW22567   1.039   2.279   0.788
 7223SOL    HW122568   0.951   2.295   0.834
 7223SOL    HW222569   1.035   2.193   0.737
 7224SOL     OW22570   4.117   2.163   3.525
 7224SOL    HW122571   4.086   2.180   3.431
 7224SOL    HW222572   4.038   2.138   3.581
 7225SOL     OW22573   1.537   7.003   0.971
 7225SOL    HW122574   1.546   0.077   1.006
 7225SOL    HW222575   1.523   7.006   0.872
 7226SOL     OW22576   5.998   6.742   0.140
 7226SOL    HW122577   6.016   6.739   0.042
 7226SOL    HW222578   5.900   6.730   0.157
 7227SOL     OW22579   2.866   1.027   2.069
 7227SOL    HW122580   2.964   1.047   2.065
 7227SOL    HW222581   2.823   1.082   2.140
 7228SOL     OW22582   0.759   3.258   2.356
 7228SOL    HW122583   0.801   3.238   2.445
 7228SOL    HW222584   0.692   3.187   2.334
 7229SOL     OW22585   6.872   0.303   5.050
 7229SOL    HW122586   6.943   0.373   5.051
 7229SOL    HW222587   6.782   0.345   5.058
 7230SOL     OW22588   1.908   5.098   4.327
 7230SOL    HW122589   1.878   5.096   4.423
 7230SOL    HW222590   1.988   5.038   4.317
 7231SOL     OW22591   4.620   1.743   6.280
 7231SOL    HW122592   4.619   1.758   6.379
 7231SOL    HW222593   4.542   1.686   6.254
 7232SOL     OW22594   5.975   6.819   3.011
 7232SOL    HW122595   5.877   6.834   3.000
 7232SOL    HW222596   6.003   6.738   2.958
 7233SOL     OW22597   6.530   1.218   5.168
 7233SOL    HW122598   6.594   1.233   5.243
 7233SOL    HW222599   6.483   1.130   5.181
 7234SOL     OW22600   5.288   3.854   2.730
 7234SOL    HW122601   5.359   3.789   2.759
 7234SOL    HW222602   5.203   3.805   2.713
 7235SOL     OW22603   0.124   5.857   1.520
 7235SOL    HW122604   0.029   5.862   1.489
 7235SOL    HW222605   0.184   5.894   1.448
 7236SOL     OW22606   2.610   2.437   3.233
 7236SOL    HW122607   2.707   2.416   3.243
 7236SOL    HW222608   2.591   2.460   3.137
 7237SOL     OW22609   5.118   0.365   0.061
 7237SOL    HW122610   5.183   0.423   0.011
 7237SOL    HW222611   5.071   0.420   0.130
 7238SOL     OW22612   4.511   3.609   0.257
 7238SOL    HW122613   4.473   3.679   0.197
 7238SOL    HW222614   4.538   3.649   0.344
 7239SOL     OW22615   0.687   3.558   2.260
 7239SOL    HW122616   0.651   3.651   2.270
 7239SOL    HW222617   0.781   3.562   2.224
 7240SOL     OW22618   6.549   1.784   5.830
 7240SOL    HW122619   6.511   1.771   5.739
 7240SOL    HW222620   6.630   1.843   5.825
 7241SOL     OW22621   2.684   1.428   1.866
 7241SOL    HW122622   2.778   1.452   1.891
 7241SOL    HW222623   2.669   1.331   1.885
 7242SOL     OW22624   0.200   5.059   4.269
 7242SOL    HW122625   0.202   4.970   4.315
 7242SOL    HW222626   0.105   5.089   4.260
 7243SOL     OW22627   6.090   4.089   6.214
 7243SOL    HW122628   6.012   4.133   6.259
 7243SOL    HW222629   6.173   4.108   6.267
 7244SOL     OW22630   0.478   6.377   6.929
 7244SOL    HW122631   0.489   6.333   6.840
 7244SOL    HW222632   0.381   6.377   6.954
 7245SOL     OW22633   1.868   2.349   6.612
 7245SOL    HW122634   1.778   2.391   6.621
 7245SOL    HW222635   1.861   2.262   6.564
 7246SOL     OW22636   2.766   0.472   3.708
 7246SOL    HW122637   2.864   0.468   3.690
 7246SOL    HW222638   2.727   0.380   3.699
 7247SOL     OW22639   2.619   2.469   5.526
 7247SOL    HW122640   2.563   2.552   5.524
 7247SOL    HW222641   2.652   2.453   5.619
 7248SOL     OW22642   3.477   0.579   4.293
 7248SOL    HW122643   3.378   0.584   4.280
 7248SOL    HW222644   3.521   0.558   4.206
 7249SOL     OW22645   3.997   5.224   1.976
 7249SOL    HW122646   3.898   5.211   1.981
 7249SOL    HW222647   4.043   5.141   2.009
 7250SOL     OW22648   5.133   5.919   5.419
 7250SOL    HW122649   5.204   5.887   5.481
 7250SOL    HW222650   5.045   5.917   5.465
 7251SOL     OW22651   0.518   6.186   5.424
 7251SOL    HW122652   0.565   6.199   5.336
 7251SOL    HW222653   0.464   6.102   5.420
 7252SOL     OW22654   2.987   3.781   2.355
 7252SOL    HW122655   3.028   3.851   2.413
 7252SOL    HW222656   2.940   3.714   2.412
 7253SOL     OW22657   1.082   5.772   5.403
 7253SOL    HW122658   1.043   5.794   5.314
 7253SOL    HW222659   1.131   5.685   5.398
 7254SOL     OW22660   5.309   4.392   4.150
 7254SOL    HW122661   5.221   4.437   4.137
 7254SOL    HW222662   5.297   4.316   4.215
 7255SOL     OW22663   5.209   2.675   6.418
 7255SOL    HW122664   5.303   2.665   6.449
 7255SOL    HW222665   5.201   2.760   6.365
 7256SOL     OW22666   3.604   6.741   6.301
 7256SOL    HW122667   3.612   6.682   6.220
 7256SOL    HW222668   3.567   6.688   6.377
 7257SOL     OW22669   0.499   1.398   4.717
 7257SOL    HW122670   0.467   1.486   4.683
 7257SOL    HW222671   0.506   1.402   4.817
 7258SOL     OW22672   6.201   2.251   2.477
 7258SOL    HW122673   6.298   2.274   2.489
 7258SOL    HW222674   6.158   2.240   2.566
 7259SOL     OW22675   0.862   3.595   3.112
 7259SOL    HW122676   0.882   3.693   3.112
 7259SOL    HW222677   0.765   3.581   3.094
 7260SOL     OW22678   5.354   2.657   0.696
 7260SOL    HW122679   5.340   2.579   0.634
 7260SOL    HW222680   5.303   2.641   0.780
 7261SOL     OW22681   0.459   3.971   7.012
 7261SOL    HW122682   0.544   3.990   0.044
 7261SOL    HW222683   0.442   3.873   7.013
 7262SOL     OW22684   5.474   1.902   5.752
 7262SOL    HW122685   5.526   1.977   5.712
 7262SOL    HW222686   5.377   1.924   5.751
 7263SOL     OW22687   0.046   6.165   0.474
 7263SOL    HW122688   6.970   6.198   0.474
 7263SOL    HW222689   0.080   6.160   0.380
 7264SOL     OW22690   5.679   1.162   0.161
 7264SOL    HW122691   5.666   1.075   0.207
 7264SOL    HW222692   5.606   1.176   0.094
 7265SOL     OW22693   4.543   5.912   4.997
 7265SOL    HW122694   4.453   5.894   4.958
 7265SOL    HW222695   4.573   6.004   4.972
 7266SOL     OW22696   6.832   0.968   3.964
 7266SOL    HW122697   6.908   1.031   3.981
 7266SOL    HW222698   6.839   0.890   4.026
 7267SOL     OW22699   6.572   5.947   5.155
 7267SOL    HW122700   6.511   6.024   5.175
 7267SOL    HW222701   6.594   5.947   5.058
 7268SOL     OW22702   6.310   5.928   4.645
 7268SOL    HW122703   6.232   5.990   4.635
 7268SOL    HW222704   6.377   5.969   4.707
 7269SOL     OW22705   2.088   5.290   5.739
 7269SOL    HW122706   2.002   5.342   5.746
 7269SOL    HW222707   2.109   5.249   5.828
 7270SOL     OW22708   0.654   1.381   4.406
 7270SOL    HW122709   0.569   1.335   4.378
 7270SOL    HW222710   0.645   1.413   4.500
 7271SOL     OW22711   0.594   5.002   4.221
 7271SOL    HW122712   0.524   5.058   4.176
 7271SOL    HW222713   0.551   4.943   4.289
 7272SOL     OW22714   6.196   6.205   2.321
 7272SOL    HW122715   6.149   6.129   2.276
 7272SOL    HW222716   6.295   6.193   2.311
 7273SOL     OW22717   6.076   3.044   5.855
 7273SOL    HW122718   6.100   3.126   5.804
 7273SOL    HW222719   5.980   3.022   5.841
 7274SOL     OW22720   0.253   4.673   0.087
 7274SOL    HW122721   0.343   4.652   0.124
 7274SOL    HW222722   0.242   4.628   7.017
 7275SOL     OW22723   6.812   0.059   3.392
 7275SOL    HW122724   6.868   0.132   3.432
 7275SOL    HW222725   6.732   0.099   3.347
 7276SOL     OW22726   5.120   6.928   3.673
 7276SOL    HW122727   5.166   6.861   3.614
 7276SOL    HW222728   5.160   6.924   3.764
 7277SOL     OW22729   4.387   0.801   5.612
 7277SOL    HW122730   4.339   0.888   5.619
 7277SOL    HW222731   4.321   0.728   5.594
 7278SOL     OW22732   3.009   3.886   2.091
 7278SOL    HW122733   2.922   3.935   2.095
 7278SOL    HW222734   3.012   3.817   2.163
 7279SOL     OW22735   4.123   5.800   0.078
 7279SOL    HW122736   4.207   5.852   0.093
 7279SOL    HW222737   4.108   5.739   0.156
 7280SOL     OW22738   4.623   6.777   4.888
 7280SOL    HW122739   4.679   6.825   4.956
 7280SOL    HW222740   4.677   6.758   4.807
 7281SOL     OW22741   3.995   2.225   6.560
 7281SOL    HW122742   3.969   2.278   6.479
 7281SOL    HW222743   4.092   2.202   6.555
 7282SOL     OW22744   5.583   5.350   2.259
 7282SOL    HW122745   5.533   5.363   2.173
 7282SOL    HW222746   5.609   5.438   2.297
 7283SOL     OW22747   2.753   0.858   2.582
 7283SOL    HW122748   2.677   0.796   2.561
 7283SOL    HW222749   2.760   0.928   2.511
 7284SOL     OW22750   6.691   3.892   5.417
 7284SOL    HW122751   6.734   3.974   5.378
 7284SOL    HW222752   6.661   3.832   5.343
 7285SOL     OW22753   4.632   5.138   2.283
 7285SOL    HW122754   4.631   5.233   2.314
 7285SOL    HW222755   4.546   5.116   2.237
 7286SOL     OW22756   2.477   2.562   0.818
 7286SOL    HW122757   2.420   2.504   0.759
 7286SOL    HW222758   2.566   2.518   0.832
 7287SOL     OW22759   6.321   1.205   6.551
 7287SOL    HW122760   6.297   1.205   6.648
 7287SOL    HW222761   6.248   1.251   6.499
 7288SOL     OW22762   3.966   0.448   6.290
 7288SOL    HW122763   3.939   0.447   6.386
 7288SOL    HW222764   3.900   0.501   6.237
 7289SOL     OW22765   5.714   1.386   3.293
 7289SOL    HW122766   5.759   1.472   3.270
 7289SOL    HW222767   5.635   1.373   3.233
 7290SOL     OW22768   2.715   5.273   5.816
 7290SOL    HW122769   2.739   5.350   5.758
 7290SOL    HW222770   2.616   5.268   5.828
 7291SOL     OW22771   1.900   6.993   1.451
 7291SOL    HW122772   1.912   6.937   1.369
 7291SOL    HW222773   1.988   0.013   1.478
 7292SOL     OW22774   2.945   6.705   3.355
 7292SOL    HW122775   2.910   6.648   3.429
 7292SOL    HW222776   3.044   6.690   3.346
 7293SOL     OW22777   1.913   1.741   5.023
 7293SOL    HW122778   1.971   1.782   4.953
 7293SOL    HW222779   1.854   1.672   4.981
 7294SOL     OW22780   2.912   5.472   0.163
 7294SOL    HW122781   2.840   5.403   0.165
 7294SOL    HW222782   2.888   5.544   0.097
 7295SOL     OW22783   0.686   2.049   0.962
 7295SOL    HW122784   0.625   2.042   0.882
 7295SOL    HW222785   0.639   2.013   1.043
 7296SOL     OW22786   3.138   4.818   1.084
 7296SOL    HW122787   3.230   4.859   1.084
 7296SOL    HW222788   3.126   4.763   1.166
 7297SOL     OW22789   3.953   6.115   0.600
 7297SOL    HW122790   3.871   6.070   0.636
 7297SOL    HW222791   4.010   6.146   0.676
 7298SOL     OW22792   5.318   4.086   4.771
 7298SOL    HW122793   5.288   4.165   4.718
 7298SOL    HW222794   5.380   4.116   4.844
 7299SOL     OW22795   7.014   2.292   0.230
 7299SOL    HW122796   6.963   2.233   0.167
 7299SOL    HW222797   6.978   2.280   0.323
 7300SOL     OW22798   5.143   5.766   1.113
 7300SOL    HW122799   5.099   5.678   1.095
 7300SOL    HW222800   5.186   5.765   1.203
 7301SOL     OW22801   6.805   0.447   5.369
 7301SOL    HW122802   6.775   0.354   5.348
 7301SOL    HW222803   6.746   0.513   5.321
 7302SOL     OW22804   0.065   1.593   0.218
 7302SOL    HW122805   0.064   1.589   0.318
 7302SOL    HW222806   0.090   1.686   0.189
 7303SOL     OW22807   4.692   0.415   6.807
 7303SOL    HW122808   4.785   0.378   6.809
 7303SOL    HW222809   4.696   0.515   6.809
 7304SOL     OW22810   4.071   4.135   6.756
 7304SOL    HW122811   4.159   4.176   6.782
 7304SOL    HW222812   4.040   4.176   6.670
 7305SOL     OW22813   5.425   2.182   0.624
 7305SOL    HW122814   5.337   2.136   0.632
 7305SOL    HW222815   5.454   2.184   0.528
 7306SOL     OW22816   5.129   3.656   1.667
 7306SOL    HW122817   5.095   3.727   1.729
 7306SOL    HW222818   5.227   3.643   1.682
 7307SOL     OW22819   2.780   6.393   1.899
 7307SOL    HW122820   2.802   6.378   1.802
 7307SOL    HW222821   2.846   6.458   1.938
 7308SOL     OW22822   6.733   3.581   5.045
 7308SOL    HW122823   6.784   3.650   5.096
 7308SOL    HW222824   6.762   3.582   4.950
 7309SOL     OW22825   5.063   6.019   0.567
 7309SOL    HW122826   5.049   6.072   0.483
 7309SOL    HW222827   5.118   5.939   0.547
 7310SOL     OW22828   2.280   5.224   0.924
 7310SOL    HW122829   2.270   5.142   0.981
 7310SOL    HW222830   2.373   5.258   0.932
 7311SOL     OW22831   2.983   1.903   2.075
 7311SOL    HW122832   2.991   1.987   2.129
 7311SOL    HW222833   2.905   1.851   2.107
 7312SOL     OW22834   6.864   2.334   5.614
 7312SOL    HW122835   6.814   2.421   5.609
 7312SOL    HW222836   6.954   2.349   5.655
 7313SOL     OW22837   4.493   2.843   6.169
 7313SOL    HW122838   4.571   2.905   6.159
 7313SOL    HW222839   4.430   2.855   6.092
 7314SOL     OW22840   6.066   3.568   5.089
 7314SOL    HW122841   6.129   3.507   5.137
 7314SOL    HW222842   5.973   3.531   5.094
 7315SOL     OW22843   6.057   0.036   3.980
 7315SOL    HW122844   6.084   0.038   4.076
 7315SOL    HW222845   6.055   0.129   3.944
 7316SOL     OW22846   3.457   3.039   5.081
 7316SOL    HW122847   3.498   3.046   5.172
 7316SOL    HW222848   3.513   3.090   5.016
 7317SOL     OW22849   4.237   0.489   2.298
 7317SOL    HW122850   4.295   0.553   2.350
 7317SOL    HW222851   4.278   0.472   2.209
 7318SOL     OW22852   1.503   1.313   1.684
 7318SOL    HW122853   1.466   1.318   1.591
 7318SOL    HW222854   1.473   1.228   1.727
 7319SOL     OW22855   6.775   4.494   0.001
 7319SOL    HW122856   6.730   4.583   0.003
 7319SOL    HW222857   6.837   4.486   0.078
 7320SOL     OW22858   6.688   3.544   2.104
 7320SOL    HW122859   6.634   3.623   2.074
 7320SOL    HW222860   6.742   3.510   2.027
 7321SOL     OW22861   2.694   0.884   4.902
 7321SOL    HW122862   2.790   0.889   4.873
 7321SOL    HW222863   2.638   0.939   4.841
 7322SOL     OW22864   1.224   3.240   2.652
 7322SOL    HW122865   1.270   3.158   2.617
 7322SOL    HW222866   1.127   3.237   2.625
 7323SOL     OW22867   1.785   1.708   3.001
 7323SOL    HW122868   1.826   1.723   3.091
 7323SOL    HW222869   1.761   1.612   2.990
 7324SOL     OW22870   5.610   0.115   3.032
 7324SOL    HW122871   5.629   0.201   3.080
 7324SOL    HW222872   5.691   0.087   2.981
 7325SOL     OW22873   3.832   0.136   6.070
 7325SOL    HW122874   3.930   0.158   6.065
 7325SOL    HW222875   3.820   0.053   6.124
 7326SOL     OW22876   2.400   5.762   5.436
 7326SOL    HW122877   2.416   5.692   5.504
 7326SOL    HW222878   2.486   5.783   5.389
 7327SOL     OW22879   0.204   2.702   5.596
 7327SOL    HW122880   0.248   2.774   5.542
 7327SOL    HW222881   0.274   2.642   5.634
 7328SOL     OW22882   3.706   0.405   0.080
 7328SOL    HW122883   3.729   0.332   0.144
 7328SOL    HW222884   3.686   0.365   7.009
 7329SOL     OW22885   4.455   3.808   1.161
 7329SOL    HW122886   4.367   3.843   1.192
 7329SOL    HW222887   4.486   3.735   1.222
 7330SOL     OW22888   3.190   1.870   0.183
 7330SOL    HW122889   3.276   1.904   0.144
 7330SOL    HW222890   3.193   1.771   0.188
 7331SOL     OW22891   5.136   0.871   1.842
 7331SOL    HW122892   5.050   0.918   1.827
 7331SOL    HW222893   5.209   0.918   1.792
 7332SOL     OW22894   2.627   6.041   0.053
 7332SOL    HW122895   2.556   6.065   7.006
 7332SOL    HW222896   2.639   5.941   0.054
 7333SOL     OW22897   0.376   3.961   3.743
 7333SOL    HW122898   0.371   3.910   3.829
 7333SOL    HW222899   0.453   4.025   3.746
 7334SOL     OW22900   4.120   5.995   5.736
 7334SOL    HW122901   4.180   6.075   5.742
 7334SOL    HW222902   4.135   5.938   5.817
 7335SOL     OW22903   1.611   2.934   2.488
 7335SOL    HW122904   1.693   2.877   2.483
 7335SOL    HW222905   1.606   2.976   2.579
 7336SOL     OW22906   1.357   6.956   3.437
 7336SOL    HW122907   1.270   6.921   3.402
 7336SOL    HW222908   1.431   6.894   3.409
 7337SOL     OW22909   1.273   2.920   1.877
 7337SOL    HW122910   1.293   3.017   1.862
 7337SOL    HW222911   1.197   2.911   1.942
 7338SOL     OW22912   6.189   2.513   1.251
 7338SOL    HW122913   6.140   2.429   1.274
 7338SOL    HW222914   6.254   2.535   1.324
 7339SOL     OW22915   6.076   6.254   4.024
 7339SOL    HW122916   6.016   6.222   4.098
 7339SOL    HW222917   6.036   6.337   3.983
 7340SOL     OW22918   2.168   0.466   0.449
 7340SOL    HW122919   2.080   0.440   0.488
 7340SOL    HW222920   2.229   0.387   0.448
 7341SOL     OW22921   6.569   1.794   7.006
 7341SOL    HW122922   6.639   1.829   0.049
 7341SOL    HW222923   6.505   1.737   0.038
 7342SOL     OW22924   6.731   0.089   2.361
 7342SOL    HW122925   6.825   0.118   2.377
 7342SOL    HW222926   6.730   0.014   2.294
 7343SOL     OW22927   4.691   2.866   0.264
 7343SOL    HW122928   4.757   2.880   0.190
 7343SOL    HW222929   4.631   2.946   0.271
 7344SOL     OW22930   1.364   6.920   6.042
 7344SOL    HW122931   1.400   6.832   6.072
 7344SOL    HW222932   1.413   6.951   5.960
 7345SOL     OW22933   3.536   3.336   5.348
 7345SOL    HW122934   3.520   3.395   5.269
 7345SOL    HW222935   3.546   3.393   5.430
 7346SOL     OW22936   3.560   6.311   3.028
 7346SOL    HW122937   3.484   6.327   2.965
 7346SOL    HW222938   3.555   6.218   3.064
 7347SOL     OW22939   6.994   2.494   6.932
 7347SOL    HW122940   6.896   2.496   6.910
 7347SOL    HW222941   0.010   2.587   6.942
 7348SOL     OW22942   1.463   3.586   3.340
 7348SOL    HW122943   1.493   3.646   3.415
 7348SOL    HW222944   1.465   3.636   3.254
 7349SOL     OW22945   4.031   0.400   1.144
 7349SOL    HW122946   4.131   0.407   1.148
 7349SOL    HW222947   4.004   0.373   1.051
 7350SOL     OW22948   2.603   0.604   5.667
 7350SOL    HW122949   2.670   0.674   5.690
 7350SOL    HW222950   2.538   0.641   5.600
 7351SOL     OW22951   4.845   4.734   3.787
 7351SOL    HW122952   4.764   4.697   3.832
 7351SOL    HW222953   4.818   4.807   3.724
 7352SOL     OW22954   0.442   1.876   3.373
 7352SOL    HW122955   0.397   1.893   3.461
 7352SOL    HW222956   0.457   1.964   3.326
 7353SOL     OW22957   5.855   0.394   6.595
 7353SOL    HW122958   5.809   0.469   6.548
 7353SOL    HW222959   5.915   0.430   6.665
 7354SOL     OW22960   1.549   0.831   3.699
 7354SOL    HW122961   1.533   0.855   3.603
 7354SOL    HW222962   1.537   0.913   3.755
 7355SOL     OW22963   6.883   2.109   6.385
 7355SOL    HW122964   6.813   2.130   6.454
 7355SOL    HW222965   6.949   2.044   6.423
 7356SOL     OW22966   4.004   3.714   5.812
 7356SOL    HW122967   4.009   3.621   5.848
 7356SOL    HW222968   3.938   3.718   5.737
 7357SOL     OW22969   4.489   6.175   1.335
 7357SOL    HW122970   4.448   6.121   1.409
 7357SOL    HW222971   4.586   6.153   1.328
 7358SOL     OW22972   6.228   2.653   2.188
 7358SOL    HW122973   6.196   2.714   2.116
 7358SOL    HW222974   6.276   2.575   2.148
 7359SOL     OW22975   3.966   1.087   6.232
 7359SOL    HW122976   3.870   1.090   6.203
 7359SOL    HW222977   4.025   1.109   6.154
 7360SOL     OW22978   2.483   3.429   5.391
 7360SOL    HW122979   2.453   3.524   5.386
 7360SOL    HW222980   2.575   3.420   5.353
 7361SOL     OW22981   5.365   0.135   2.468
 7361SOL    HW122982   5.352   0.062   2.534
 7361SOL    HW222983   5.277   0.159   2.426
 7362SOL     OW22984   4.324   5.300   5.865
 7362SOL    HW122985   4.243   5.299   5.807
 7362SOL    HW222986   4.308   5.358   5.944
 7363SOL     OW22987   4.003   1.287   1.724
 7363SOL    HW122988   4.020   1.364   1.662
 7363SOL    HW222989   4.082   1.275   1.785
 7364SOL     OW22990   4.562   6.827   1.937
 7364SOL    HW122991   4.487   6.761   1.944
 7364SOL    HW222992   4.620   6.820   2.018
 7365SOL     OW22993   6.153   5.018   2.837
 7365SOL    HW122994   6.056   5.029   2.858
 7365SOL    HW222995   6.165   4.937   2.779
 7366SOL     OW22996   2.520   0.506   4.259
 7366SOL    HW122997   2.446   0.539   4.201
 7366SOL    HW222998   2.487   0.429   4.314
 7367SOL     OW22999   4.582   1.761   6.568
 7367SOL    HW123000   4.612   1.668   6.589
 7367SOL    HW223001   4.489   1.775   6.603
 7368SOL     OW23002   3.779   3.501   2.647
 7368SOL    HW123003   3.692   3.507   2.695
 7368SOL    HW223004   3.783   3.415   2.595
 7369SOL     OW23005   4.319   2.528   0.814
 7369SOL    HW123006   4.309   2.438   0.855
 7369SOL    HW223007   4.350   2.593   0.884
 7370SOL     OW23008   2.629   1.744   5.019
 7370SOL    HW123009   2.543   1.796   5.022
 7370SOL    HW223010   2.692   1.779   5.089
 7371SOL     OW23011   3.555   6.841   3.696
 7371SOL    HW123012   3.549   6.832   3.796
 7371SOL    HW223013   3.635   6.790   3.664
 7372SOL     OW23014   3.215   6.971   4.494
 7372SOL    HW123015   3.121   6.951   4.524
 7372SOL    HW223016   3.218   6.974   4.394
 7373SOL     OW23017   4.485   2.092   4.818
 7373SOL    HW123018   4.578   2.092   4.854
 7373SOL    HW223019   4.455   2.186   4.803
 7374SOL     OW23020   1.412   1.620   4.709
 7374SOL    HW123021   1.412   1.716   4.682
 7374SOL    HW223022   1.354   1.607   4.790
 7375SOL     OW23023   2.154   3.227   2.376
 7375SOL    HW123024   2.181   3.169   2.299
 7375SOL    HW223025   2.178   3.322   2.356
 7376SOL     OW23026   0.605   3.583   0.856
 7376SOL    HW123027   0.701   3.557   0.869
 7376SOL    HW223028   0.558   3.583   0.944
 7377SOL     OW23029   3.150   4.934   0.478
 7377SOL    HW123030   3.210   5.007   0.447
 7377SOL    HW223031   3.078   4.972   0.536
 7378SOL     OW23032   1.767   6.385   3.918
 7378SOL    HW123033   1.736   6.292   3.899
 7378SOL    HW223034   1.862   6.395   3.888
 7379SOL     OW23035   3.638   0.499   1.272
 7379SOL    HW123036   3.712   0.563   1.253
 7379SOL    HW223037   3.644   0.468   1.367
 7380SOL     OW23038   6.301   4.258   3.037
 7380SOL    HW123039   6.237   4.316   3.086
 7380SOL    HW223040   6.323   4.299   2.948
 7381SOL     OW23041   4.257   1.406   0.416
 7381SOL    HW123042   4.312   1.399   0.499
 7381SOL    HW223043   4.198   1.486   0.422
 7382SOL     OW23044   0.065   1.434   6.035
 7382SOL    HW123045   0.082   1.391   5.947
 7382SOL    HW223046   0.039   1.365   6.102
 7383SOL     OW23047   1.714   6.820   1.564
 7383SOL    HW123048   1.686   6.747   1.501
 7383SOL    HW223049   1.760   6.892   1.512
 7384SOL     OW23050   0.587   6.733   0.715
 7384SOL    HW123051   0.561   6.817   0.668
 7384SOL    HW223052   0.660   6.752   0.780
 7385SOL     OW23053   3.706   5.293   2.745
 7385SOL    HW123054   3.801   5.322   2.729
 7385SOL    HW223055   3.702   5.236   2.827
 7386SOL     OW23056   6.383   3.380   0.169
 7386SOL    HW123057   6.319   3.439   0.218
 7386SOL    HW223058   6.477   3.408   0.189
 7387SOL     OW23059   6.425   4.689   5.859
 7387SOL    HW123060   6.394   4.610   5.805
 7387SOL    HW223061   6.361   4.764   5.848
 7388SOL     OW23062   1.473   6.326   2.343
 7388SOL    HW123063   1.518   6.261   2.404
 7388SOL    HW223064   1.537   6.399   2.318
 7389SOL     OW23065   6.915   3.430   0.436
 7389SOL    HW123066   6.959   3.419   0.525
 7389SOL    HW223067   6.867   3.518   0.433
 7390SOL     OW23068   2.334   1.746   3.153
 7390SOL    HW123069   2.264   1.697   3.204
 7390SOL    HW223070   2.336   1.841   3.182
 7391SOL     OW23071   3.941   3.062   2.551
 7391SOL    HW123072   3.998   2.987   2.520
 7391SOL    HW223073   3.949   3.072   2.650
 7392SOL     OW23074   4.011   5.765   6.443
 7392SOL    HW123075   4.051   5.857   6.443
 7392SOL    HW223076   4.069   5.703   6.496
 7393SOL     OW23077   6.315   4.723   4.281
 7393SOL    HW123078   6.293   4.780   4.202
 7393SOL    HW223079   6.286   4.769   4.365
 7394SOL     OW23080   2.074   2.400   6.291
 7394SOL    HW123081   2.122   2.458   6.226
 7394SOL    HW223082   2.009   2.455   6.343
 7395SOL     OW23083   2.360   3.708   1.201
 7395SOL    HW123084   2.354   3.646   1.280
 7395SOL    HW223085   2.425   3.780   1.221
 7396SOL     OW23086   2.995   5.244   1.615
 7396SOL    HW123087   2.990   5.148   1.587
 7396SOL    HW223088   3.022   5.249   1.711
 7397SOL     OW23089   5.505   3.944   4.563
 7397SOL    HW123090   5.583   3.920   4.622
 7397SOL    HW223091   5.424   3.957   4.619
 7398SOL     OW23092   1.993   4.379   3.281
 7398SOL    HW123093   1.939   4.297   3.262
 7398SOL    HW223094   2.051   4.363   3.361
 7399SOL     OW23095   5.670   2.529   4.862
 7399SOL    HW123096   5.688   2.613   4.914
 7399SOL    HW223097   5.699   2.541   4.768
 7400SOL     OW23098   5.566   2.477   5.179
 7400SOL    HW123099   5.492   2.458   5.113
 7400SOL    HW223100   5.591   2.574   5.174
 7401SOL     OW23101   1.511   3.162   3.485
 7401SOL    HW123102   1.427   3.203   3.451
 7401SOL    HW223103   1.537   3.085   3.425
 7402SOL     OW23104   2.620   5.251   4.825
 7402SOL    HW123105   2.674   5.288   4.750
 7402SOL    HW223106   2.525   5.238   4.795
 7403SOL     OW23107   1.595   2.810   3.605
 7403SOL    HW123108   1.582   2.839   3.511
 7403SOL    HW223109   1.564   2.715   3.616
 7404SOL     OW23110   3.043   3.943   1.462
 7404SOL    HW123111   3.037   3.907   1.555
 7404SOL    HW223112   3.046   3.867   1.397
 7405SOL     OW23113   2.696   5.767   5.416
 7405SOL    HW123114   2.761   5.704   5.374
 7405SOL    HW223115   2.744   5.829   5.478
 7406SOL     OW23116   0.502   1.071   4.922
 7406SOL    HW123117   0.519   0.988   4.869
 7406SOL    HW223118   0.469   1.046   5.013
 7407SOL     OW23119   0.842   5.887   6.956
 7407SOL    HW123120   0.837   5.873   0.036
 7407SOL    HW223121   0.760   5.935   6.925
 7408SOL     OW23122   3.470   4.021   5.278
 7408SOL    HW123123   3.376   4.035   5.308
 7408SOL    HW223124   3.473   3.952   5.206
 7409SOL     OW23125   6.159   4.211   0.679
 7409SOL    HW123126   6.215   4.268   0.738
 7409SOL    HW223127   6.112   4.268   0.611
 7410SOL     OW23128   6.882   0.061   0.788
 7410SOL    HW123129   6.942   7.003   0.769
 7410SOL    HW223130   6.863   0.065   0.886
 7411SOL     OW23131   0.759   1.430   5.988
 7411SOL    HW123132   0.840   1.441   6.046
 7411SOL    HW223133   0.781   1.456   5.894
 7412SOL     OW23134   3.728   6.992   0.220
 7412SOL    HW123135   3.635   0.010   0.222
 7412SOL    HW223136   3.731   6.908   0.273
 7413SOL     OW23137   4.067   5.333   3.620
 7413SOL    HW123138   4.114   5.270   3.558
 7413SOL    HW223139   4.083   5.305   3.715
 7414SOL     OW23140   2.413   1.879   4.500
 7414SOL    HW123141   2.506   1.883   4.535
 7414SOL    HW223142   2.412   1.908   4.404
 7415SOL     OW23143   3.803   6.726   6.606
 7415SOL    HW123144   3.718   6.678   6.587
 7415SOL    HW223145   3.784   6.807   6.662
 7416SOL     OW23146   0.882   1.985   2.537
 7416SOL    HW123147   0.793   1.957   2.573
 7416SOL    HW223148   0.887   2.084   2.533
 7417SOL     OW23149   0.753   2.357   3.503
 7417SOL    HW123150   0.668   2.316   3.535
 7417SOL    HW223151   0.741   2.389   3.409
 7418SOL     OW23152   1.499   3.686   6.340
 7418SOL    HW123153   1.566   3.623   6.300
 7418SOL    HW223154   1.534   3.779   6.337
 7419SOL     OW23155   6.555   4.008   3.740
 7419SOL    HW123156   6.626   4.032   3.807
 7419SOL    HW223157   6.594   3.948   3.670
 7420SOL     OW23158   0.133   6.697   1.879
 7420SOL    HW123159   0.044   6.711   1.922
 7420SOL    HW223160   0.121   6.671   1.784
 7421SOL     OW23161   4.778   3.517   1.752
 7421SOL    HW123162   4.772   3.604   1.704
 7421SOL    HW223163   4.698   3.461   1.728
 7422SOL     OW23164   5.986   2.852   1.944
 7422SOL    HW123165   5.894   2.862   1.981
 7422SOL    HW223166   6.053   2.878   2.014
 7423SOL     OW23167   5.856   2.274   5.480
 7423SOL    HW123168   5.873   2.200   5.416
 7423SOL    HW223169   5.821   2.237   5.566
 7424SOL     OW23170   6.880   0.643   4.988
 7424SOL    HW123171   6.816   0.600   4.925
 7424SOL    HW223172   6.941   0.573   5.026
 7425SOL     OW23173   5.487   6.988   0.532
 7425SOL    HW123174   5.501   7.008   0.435
 7425SOL    HW223175   5.495   0.054   0.585
 7426SOL     OW23176   3.767   2.595   6.019
 7426SOL    HW123177   3.789   2.668   6.083
 7426SOL    HW223178   3.832   2.596   5.943
 7427SOL     OW23179   3.617   1.199   3.867
 7427SOL    HW123180   3.524   1.201   3.830
 7427SOL    HW223181   3.656   1.108   3.853
 7428SOL     OW23182   4.165   6.760   5.664
 7428SOL    HW123183   4.080   6.789   5.621
 7428SOL    HW223184   4.203   6.682   5.613
 7429SOL     OW23185   1.597   0.172   2.444
 7429SOL    HW123186   1.649   0.245   2.489
 7429SOL    HW223187   1.514   0.153   2.496
 7430SOL     OW23188   0.007   4.635   3.057
 7430SOL    HW123189   0.010   4.714   3.118
 7430SOL    HW223190   6.956   4.571   3.090
 7431SOL     OW23191   1.985   2.189   4.855
 7431SOL    HW123192   2.064   2.140   4.818
 7431SOL    HW223193   1.993   2.286   4.834
 7432SOL     OW23194   1.859   0.030   3.511
 7432SOL    HW123195   1.875   0.020   3.413
 7432SOL    HW223196   1.917   0.103   3.547
 7433SOL     OW23197   3.030   6.745   6.206
 7433SOL    HW123198   3.094   6.714   6.276
 7433SOL    HW223199   2.989   6.666   6.160
 7434SOL     OW23200   4.234   6.234   5.822
 7434SOL    HW123201   4.257   6.244   5.918
 7434SOL    HW223202   4.174   6.309   5.794
 7435SOL     OW23203   4.616   6.561   2.449
 7435SOL    HW123204   4.535   6.577   2.506
 7435SOL    HW223205   4.676   6.640   2.455
 7436SOL     OW23206   5.086   3.481   6.354
 7436SOL    HW123207   5.051   3.390   6.333
 7436SOL    HW223208   5.056   3.509   6.445
 7437SOL     OW23209   3.542   6.487   1.259
 7437SOL    HW123210   3.626   6.433   1.267
 7437SOL    HW223211   3.534   6.548   1.338
 7438SOL     OW23212   2.423   0.970   0.659
 7438SOL    HW123213   2.370   0.938   0.737
 7438SOL    HW223214   2.488   0.900   0.631
 7439SOL     OW23215   1.500   4.751   6.312
 7439SOL    HW123216   1.458   4.737   6.222
 7439SOL    HW223217   1.535   4.664   6.346
 7440SOL     OW23218   4.878   2.918   3.637
 7440SOL    HW123219   4.904   3.014   3.625
 7440SOL    HW223220   4.911   2.865   3.559
 7441SOL     OW23221   5.803   6.082   1.966
 7441SOL    HW123222   5.822   6.015   2.038
 7441SOL    HW223223   5.785   6.171   2.007
 7442SOL     OW23224   5.446   0.336   5.926
 7442SOL    HW123225   5.501   0.260   5.892
 7442SOL    HW223226   5.355   0.332   5.883
 7443SOL     OW23227   0.178   6.380   2.235
 7443SOL    HW123228   0.133   6.420   2.315
 7443SOL    HW223229   0.227   6.452   2.185
 7444SOL     OW23230   1.063   0.298   6.261
 7444SOL    HW123231   1.114   0.217   6.234
 7444SOL    HW223232   0.967   0.274   6.277
 7445SOL     OW23233   4.523   6.026   2.246
 7445SOL    HW123234   4.469   6.081   2.310
 7445SOL    HW223235   4.620   6.039   2.264
 7446SOL     OW23236   5.233   3.361   0.728
 7446SOL    HW123237   5.261   3.419   0.652
 7446SOL    HW223238   5.257   3.266   0.708
 7447SOL     OW23239   0.608   4.265   0.724
 7447SOL    HW123240   0.509   4.253   0.721
 7447SOL    HW223241   0.647   4.203   0.791
 7448SOL     OW23242   5.029   5.765   6.138
 7448SOL    HW123243   5.077   5.804   6.060
 7448SOL    HW223244   5.040   5.665   6.138
 7449SOL     OW23245   0.432   4.168   6.671
 7449SOL    HW123246   0.394   4.186   6.762
 7449SOL    HW223247   0.358   4.173   6.603
 7450SOL     OW23248   5.523   1.602   5.394
 7450SOL    HW123249   5.514   1.505   5.417
 7450SOL    HW223250   5.487   1.618   5.302
 7451SOL     OW23251   6.059   5.202   2.565
 7451SOL    HW123252   6.027   5.261   2.491
 7451SOL    HW223253   6.062   5.255   2.650
 7452SOL     OW23254   5.128   6.346   4.980
 7452SOL    HW123255   5.119   6.445   4.993
 7452SOL    HW223256   5.210   6.313   5.026
 7453SOL     OW23257   4.349   5.431   6.231
 7453SOL    HW123258   4.357   5.459   6.327
 7453SOL    HW223259   4.438   5.398   6.199
 7454SOL     OW23260   3.687   2.249   0.571
 7454SOL    HW123261   3.640   2.263   0.484
 7454SOL    HW223262   3.687   2.151   0.593
 7455SOL     OW23263   5.747   2.932   2.736
 7455SOL    HW123264   5.673   2.979   2.686
 7455SOL    HW223265   5.747   2.835   2.711
 7456SOL     OW23266   2.756   1.958   5.455
 7456SOL    HW123267   2.817   1.919   5.524
 7456SOL    HW223268   2.769   2.057   5.452
 7457SOL     OW23269   2.724   0.123   3.127
 7457SOL    HW123270   2.764   0.041   3.168
 7457SOL    HW223271   2.736   0.120   3.027
 7458SOL     OW23272   0.804   6.391   5.288
 7458SOL    HW123273   0.836   6.308   5.243
 7458SOL    HW223274   0.872   6.421   5.355
 7459SOL     OW23275   6.246   1.127   2.703
 7459SOL    HW123276   6.295   1.132   2.615
 7459SOL    HW223277   6.156   1.168   2.692
 7460SOL     OW23278   1.023   6.860   1.024
 7460SOL    HW123279   1.090   6.798   1.065
 7460SOL    HW223280   0.992   6.927   1.092
 7461SOL     OW23281   0.770   5.904   6.075
 7461SOL    HW123282   0.782   5.943   6.166
 7461SOL    HW223283   0.805   5.967   6.007
 7462SOL     OW23284   1.177   5.470   1.481
 7462SOL    HW123285   1.274   5.480   1.502
 7462SOL    HW223286   1.122   5.502   1.559
 7463SOL     OW23287   4.508   4.707   0.148
 7463SOL    HW123288   4.411   4.727   0.132
 7463SOL    HW223289   4.556   4.703   0.061
 7464SOL     OW23290   6.362   5.297   4.964
 7464SOL    HW123291   6.435   5.257   4.907
 7464SOL    HW223292   6.402   5.332   5.049
 7465SOL     OW23293   2.404   5.031   0.257
 7465SOL    HW123294   2.426   5.128   0.262
 7465SOL    HW223295   2.435   4.994   0.169
 7466SOL     OW23296   0.672   6.670   4.744
 7466SOL    HW123297   0.744   6.699   4.680
 7466SOL    HW223298   0.679   6.725   4.827
 7467SOL     OW23299   0.468   3.122   6.087
 7467SOL    HW123300   0.393   3.057   6.091
 7467SOL    HW223301   0.453   3.185   6.010
 7468SOL     OW23302   5.587   2.763   5.270
 7468SOL    HW123303   5.595   2.704   5.351
 7468SOL    HW223304   5.531   2.843   5.293
 7469SOL     OW23305   6.607   2.345   0.228
 7469SOL    HW123306   6.660   2.430   0.237
 7469SOL    HW223307   6.640   2.293   0.149
 7470SOL     OW23308   5.551   3.602   4.050
 7470SOL    HW123309   5.506   3.689   4.031
 7470SOL    HW223310   5.644   3.603   4.013
 7471SOL     OW23311   5.816   5.403   6.840
 7471SOL    HW123312   5.737   5.342   6.839
 7471SOL    HW223313   5.899   5.351   6.861
 7472SOL     OW23314   6.453   6.402   5.338
 7472SOL    HW123315   6.520   6.384   5.266
 7472SOL    HW223316   6.491   6.467   5.403
 7473SOL     OW23317   3.969   0.130   3.714
 7473SOL    HW123318   3.965   0.030   3.721
 7473SOL    HW223319   3.894   0.170   3.766
 7474SOL     OW23320   5.863   1.901   5.807
 7474SOL    HW123321   5.931   1.923   5.877
 7474SOL    HW223322   5.779   1.868   5.850
 7475SOL     OW23323   4.351   2.186   1.372
 7475SOL    HW123324   4.405   2.215   1.293
 7475SOL    HW223325   4.410   2.139   1.438
 7476SOL     OW23326   2.371   1.391   3.102
 7476SOL    HW123327   2.363   1.336   3.019
 7476SOL    HW223328   2.449   1.453   3.094
 7477SOL     OW23329   0.915   4.168   5.548
 7477SOL    HW123330   0.928   4.193   5.644
 7477SOL    HW223331   0.992   4.113   5.517
 7478SOL     OW23332   6.765   1.877   5.042
 7478SOL    HW123333   6.821   1.960   5.036
 7478SOL    HW223334   6.782   1.819   4.963
 7479SOL     OW23335   5.980   3.365   6.858
 7479SOL    HW123336   5.923   3.444   6.878
 7479SOL    HW223337   6.049   3.354   6.929
 7480SOL     OW23338   3.555   5.046   2.207
 7480SOL    HW123339   3.496   4.978   2.164
 7480SOL    HW223340   3.499   5.121   2.243
 7481SOL     OW23341   6.397   4.364   6.927
 7481SOL    HW123342   6.394   4.339   0.005
 7481SOL    HW223343   6.490   4.349   6.892
 7482SOL     OW23344   3.905   2.004   2.450
 7482SOL    HW123345   3.896   2.034   2.355
 7482SOL    HW223346   4.000   1.981   2.469
 7483SOL     OW23347   4.427   2.428   5.233
 7483SOL    HW123348   4.413   2.347   5.175
 7483SOL    HW223349   4.348   2.489   5.223
 7484SOL     OW23350   2.683   6.362   4.370
 7484SOL    HW123351   2.618   6.434   4.346
 7484SOL    HW223352   2.677   6.344   4.468
 7485SOL     OW23353   2.664   0.206   3.754
 7485SOL    HW123354   2.700   0.189   3.846
 7485SOL    HW223355   2.590   0.141   3.735
 7486SOL     OW23356   1.329   6.377   0.151
 7486SOL    HW123357   1.383   6.458   0.172
 7486SOL    HW223358   1.271   6.354   0.229
 7487SOL     OW23359   4.395   7.002   3.587
 7487SOL    HW123360   4.430   0.066   3.630
 7487SOL    HW223361   4.355   0.006   3.498
 7488SOL     OW23362   0.953   6.041   4.012
 7488SOL    HW123363   0.963   6.046   4.111
 7488SOL    HW223364   0.983   6.127   3.970
 7489SOL     OW23365   5.735   4.148   6.700
 7489SOL    HW123366   5.798   4.110   6.768
 7489SOL    HW223367   5.767   4.237   6.670
 7490SOL     OW23368   0.739   2.187   2.888
 7490SOL    HW123369   0.702   2.250   2.820
 7490SOL    HW223370   0.801   2.236   2.949
 7491SOL     OW23371   4.489   3.101   0.299
 7491SOL    HW123372   4.481   3.058   0.390
 7491SOL    HW223373   4.468   3.198   0.307
 7492SOL     OW23374   1.746   0.522   4.546
 7492SOL    HW123375   1.791   0.585   4.482
 7492SOL    HW223376   1.802   0.440   4.557
 7493SOL     OW23377   5.827   3.711   5.603
 7493SOL    HW123378   5.849   3.751   5.514
 7493SOL    HW223379   5.728   3.705   5.614
 7494SOL     OW23380   5.810   1.539   2.767
 7494SOL    HW123381   5.768   1.453   2.795
 7494SOL    HW223382   5.871   1.523   2.689
 7495SOL     OW23383   2.081   3.408   4.786
 7495SOL    HW123384   2.049   3.475   4.853
 7495SOL    HW223385   2.168   3.368   4.818
 7496SOL     OW23386   5.913   3.807   2.753
 7496SOL    HW123387   5.856   3.889   2.743
 7496SOL    HW223388   5.856   3.730   2.781
 7497SOL     OW23389   0.344   6.591   0.319
 7497SOL    HW123390   0.399   6.547   0.391
 7497SOL    HW223391   0.376   6.560   0.230
 7498SOL     OW23392   3.401   0.285   2.947
 7498SOL    HW123393   3.394   0.273   3.046
 7498SOL    HW223394   3.353   0.368   2.920
 7499SOL     OW23395   3.634   2.097   3.594
 7499SOL    HW123396   3.535   2.104   3.603
 7499SOL    HW223397   3.657   2.057   3.506
 7500SOL     OW23398   4.228   0.390   3.684
 7500SOL    HW123399   4.174   0.446   3.746
 7500SOL    HW223400   4.168   0.349   3.615
 7501SOL     OW23401   5.920   2.485   4.638
 7501SOL    HW123402   5.860   2.419   4.594
 7501SOL    HW223403   5.901   2.577   4.603
 7502SOL     OW23404   3.225   0.008   4.203
 7502SOL    HW123405   3.256   6.949   4.147
 7502SOL    HW223406   3.268   0.091   4.170
 7503SOL     OW23407   2.284   6.123   1.271
 7503SOL    HW123408   2.364   6.077   1.308
 7503SOL    HW223409   2.250   6.073   1.191
 7504SOL     OW23410   6.979   6.714   3.485
 7504SOL    HW123411   6.950   6.672   3.571
 7504SOL    HW223412   6.925   6.676   3.409
 7505SOL     OW23413   0.120   0.419   4.671
 7505SOL    HW123414   0.052   0.365   4.721
 7505SOL    HW223415   0.107   0.405   4.573
 7506SOL     OW23416   3.228   1.765   3.292
 7506SOL    HW123417   3.142   1.787   3.246
 7506SOL    HW223418   3.227   1.670   3.323
 7507SOL     OW23419   6.372   3.576   4.509
 7507SOL    HW123420   6.396   3.483   4.538
 7507SOL    HW223421   6.453   3.633   4.510
 7508SOL     OW23422   1.968   6.033   0.081
 7508SOL    HW123423   1.898   6.091   0.120
 7508SOL    HW223424   2.002   6.073   7.015
 7509SOL     OW23425   5.111   3.642   0.527
 7509SOL    HW123426   5.178   3.681   0.590
 7509SOL    HW223427   5.020   3.646   0.568
 7510SOL     OW23428   3.503   4.139   3.939
 7510SOL    HW123429   3.570   4.201   3.898
 7510SOL    HW223430   3.531   4.044   3.921
 7511SOL     OW23431   3.439   5.818   2.907
 7511SOL    HW123432   3.392   5.902   2.880
 7511SOL    HW223433   3.382   5.766   2.970
 7512SOL     OW23434   3.176   6.462   5.955
 7512SOL    HW123435   3.233   6.510   6.021
 7512SOL    HW223436   3.207   6.483   5.862
 7513SOL     OW23437   1.768   1.926   3.683
 7513SOL    HW123438   1.841   1.988   3.653
 7513SOL    HW223439   1.685   1.978   3.702
 7514SOL     OW23440   2.280   4.297   2.742
 7514SOL    HW123441   2.256   4.260   2.652
 7514SOL    HW223442   2.281   4.222   2.808
 7515SOL     OW23443   6.716   3.962   5.024
 7515SOL    HW123444   6.636   3.986   5.079
 7515SOL    HW223445   6.760   3.880   5.061
 7516SOL     OW23446   1.036   5.184   5.613
 7516SOL    HW123447   0.995   5.275   5.616
 7516SOL    HW223448   1.095   5.171   5.692
 7517SOL     OW23449   0.846   2.179   6.979
 7517SOL    HW123450   0.866   2.187   0.058
 7517SOL    HW223451   0.836   2.082   6.956
 7518SOL     OW23452   4.778   2.764   3.823
 7518SOL    HW123453   4.775   2.822   3.904
 7518SOL    HW223454   4.813   2.816   3.745
 7519SOL     OW23455   3.743   6.772   5.136
 7519SOL    HW123456   3.696   6.820   5.063
 7519SOL    HW223457   3.776   6.684   5.103
 7520SOL     OW23458   1.781   2.180   2.157
 7520SOL    HW123459   1.845   2.176   2.081
 7520SOL    HW223460   1.831   2.185   2.243
 7521SOL     OW23461   4.582   1.421   4.838
 7521SOL    HW123462   4.590   1.368   4.922
 7521SOL    HW223463   4.657   1.396   4.776
 7522SOL     OW23464   1.282   6.300   2.931
 7522SOL    HW123465   1.374   6.274   2.961
 7522SOL    HW223466   1.222   6.308   3.011
 7523SOL     OW23467   5.629   1.391   6.077
 7523SOL    HW123468   5.603   1.423   5.985
 7523SOL    HW223469   5.677   1.464   6.125
 7524SOL     OW23470   0.411   2.425   4.600
 7524SOL    HW123471   0.323   2.391   4.633
 7524SOL    HW223472   0.479   2.352   4.606
 7525SOL     OW23473   4.619   6.124   6.361
 7525SOL    HW123474   4.570   6.040   6.338
 7525SOL    HW223475   4.638   6.175   6.277
 7526SOL     OW23476   2.052   3.513   1.800
 7526SOL    HW123477   1.990   3.586   1.828
 7526SOL    HW223478   2.117   3.494   1.874
 7527SOL     OW23479   4.288   5.544   3.614
 7527SOL    HW123480   4.233   5.597   3.679
 7527SOL    HW223481   4.247   5.548   3.523
 7528SOL     OW23482   6.403   2.621   6.316
 7528SOL    HW123483   6.318   2.666   6.342
 7528SOL    HW223484   6.453   2.678   6.251
 7529SOL     OW23485   6.083   2.188   4.072
 7529SOL    HW123486   6.021   2.110   4.089
 7529SOL    HW223487   6.067   2.223   3.980
 7530SOL     OW23488   6.731   1.501   2.078
 7530SOL    HW123489   6.820   1.458   2.091
 7530SOL    HW223490   6.701   1.543   2.164
 7531SOL     OW23491   4.572   2.169   3.737
 7531SOL    HW123492   4.633   2.248   3.736
 7531SOL    HW223493   4.503   2.181   3.809
 7532SOL     OW23494   4.347   5.669   6.866
 7532SOL    HW123495   4.402   5.617   6.801
 7532SOL    HW223496   4.262   5.620   6.884
 7533SOL     OW23497   4.580   3.302   1.689
 7533SOL    HW123498   4.566   3.228   1.756
 7533SOL    HW223499   4.504   3.367   1.695
 7534SOL     OW23500   4.845   0.085   3.728
 7534SOL    HW123501   4.923   0.082   3.665
 7534SOL    HW223502   4.820   0.180   3.746
 7535SOL     OW23503   0.987   6.043   4.280
 7535SOL    HW123504   1.014   6.130   4.319
 7535SOL    HW223505   0.979   5.974   4.352
 7536SOL     OW23506   4.791   5.667   3.793
 7536SOL    HW123507   4.763   5.660   3.698
 7536SOL    HW223508   4.891   5.664   3.799
 7537SOL     OW23509   2.888   5.988   2.600
 7537SOL    HW123510   2.900   6.086   2.618
 7537SOL    HW223511   2.977   5.948   2.575
 7538SOL     OW23512   0.693   3.522   1.508
 7538SOL    HW123513   0.765   3.479   1.453
 7538SOL    HW223514   0.641   3.452   1.555
 7539SOL     OW23515   0.113   5.377   3.778
 7539SOL    HW123516   0.137   5.300   3.719
 7539SOL    HW223517   0.046   5.347   3.847
 7540SOL     OW23518   5.779   5.530   4.110
 7540SOL    HW123519   5.773   5.611   4.167
 7540SOL    HW223520   5.790   5.449   4.168
 7541SOL     OW23521   0.685   3.930   6.509
 7541SOL    HW123522   0.613   3.910   6.443
 7541SOL    HW223523   0.649   3.918   6.602
 7542SOL     OW23524   6.132   5.437   6.196
 7542SOL    HW123525   6.147   5.479   6.106
 7542SOL    HW223526   6.035   5.421   6.210
 7543SOL     OW23527   2.716   0.812   5.304
 7543SOL    HW123528   2.641   0.815   5.237
 7543SOL    HW223529   2.701   0.882   5.374
 7544SOL     OW23530   6.992   2.884   3.910
 7544SOL    HW123531   0.039   2.958   3.906
 7544SOL    HW223532   6.906   2.914   3.868
 7545SOL     OW23533   0.878   5.309   6.988
 7545SOL    HW123534   0.792   5.357   6.968
 7545SOL    HW223535   0.918   5.276   6.903
 7546SOL     OW23536   3.191   3.104   1.613
 7546SOL    HW123537   3.264   3.173   1.608
 7546SOL    HW223538   3.183   3.070   1.707
 7547SOL     OW23539   4.381   0.333   1.797
 7547SOL    HW123540   4.373   0.432   1.784
 7547SOL    HW223541   4.312   0.303   1.863
 7548SOL     OW23542   4.590   2.429   6.137
 7548SOL    HW123543   4.670   2.484   6.164
 7548SOL    HW223544   4.605   2.390   6.047
 7549SOL     OW23545   4.505   2.547   4.963
 7549SOL    HW123546   4.416   2.502   4.970
 7549SOL    HW223547   4.574   2.492   5.010
 7550SOL     OW23548   1.847   3.907   3.905
 7550SOL    HW123549   1.928   3.848   3.904
 7550SOL    HW223550   1.851   3.968   3.985
 7551SOL     OW23551   5.783   1.889   5.144
 7551SOL    HW123552   5.795   1.821   5.217
 7551SOL    HW223553   5.795   1.845   5.055
 7552SOL     OW23554   2.282   5.743   5.204
 7552SOL    HW123555   2.261   5.654   5.164
 7552SOL    HW223556   2.347   5.731   5.279
 7553SOL     OW23557   5.490   6.435   6.456
 7553SOL    HW123558   5.403   6.483   6.458
 7553SOL    HW223559   5.546   6.466   6.533
 7554SOL     OW23560   5.155   1.325   0.600
 7554SOL    HW123561   5.128   1.261   0.528
 7554SOL    HW223562   5.205   1.276   0.671
 7555SOL     OW23563   3.691   5.210   6.285
 7555SOL    HW123564   3.744   5.188   6.204
 7555SOL    HW223565   3.594   5.219   6.261
 7556SOL     OW23566   0.568   0.608   0.600
 7556SOL    HW123567   0.482   0.584   0.555
 7556SOL    HW223568   0.600   0.530   0.654
 7557SOL     OW23569   4.834   0.487   0.374
 7557SOL    HW123570   4.934   0.496   0.369
 7557SOL    HW223571   4.802   0.522   0.462
 7558SOL     OW23572   1.510   2.414   4.265
 7558SOL    HW123573   1.574   2.432   4.191
 7558SOL    HW223574   1.556   2.424   4.353
 7559SOL     OW23575   4.103   2.142   4.788
 7559SOL    HW123576   4.150   2.056   4.806
 7559SOL    HW223577   4.151   2.192   4.716
 7560SOL     OW23578   6.856   0.478   6.526
 7560SOL    HW123579   6.783   0.446   6.466
 7560SOL    HW223580   6.900   0.558   6.484
 7561SOL     OW23581   5.604   2.269   5.351
 7561SOL    HW123582   5.696   2.294   5.382
 7561SOL    HW223583   5.565   2.344   5.297
 7562SOL     OW23584   1.260   5.118   4.398
 7562SOL    HW123585   1.199   5.102   4.321
 7562SOL    HW223586   1.236   5.204   4.443
 7563SOL     OW23587   3.790   6.246   2.306
 7563SOL    HW123588   3.814   6.182   2.233
 7563SOL    HW223589   3.865   6.309   2.322
 7564SOL     OW23590   4.530   1.285   3.958
 7564SOL    HW123591   4.570   1.209   3.907
 7564SOL    HW223592   4.600   1.354   3.974
 7565SOL     OW23593   5.573   3.495   6.250
 7565SOL    HW123594   5.657   3.445   6.229
 7565SOL    HW223595   5.593   3.567   6.317
 7566SOL     OW23596   4.537   4.283   1.465
 7566SOL    HW123597   4.469   4.331   1.409
 7566SOL    HW223598   4.539   4.187   1.439
 7567SOL     OW23599   0.528   0.819   4.794
 7567SOL    HW123600   0.507   0.799   4.698
 7567SOL    HW223601   0.611   0.768   4.821
 7568SOL     OW23602   6.071   5.477   1.254
 7568SOL    HW123603   6.141   5.500   1.322
 7568SOL    HW223604   5.981   5.481   1.297
 7569SOL     OW23605   4.130   3.707   6.970
 7569SOL    HW123606   4.122   3.794   7.019
 7569SOL    HW223607   4.104   3.720   6.875
 7570SOL     OW23608   6.431   2.659   3.009
 7570SOL    HW123609   6.339   2.623   2.993
 7570SOL    HW223610   6.442   2.744   2.958
 7571SOL     OW23611   5.191   3.374   2.679
 7571SOL    HW123612   5.097   3.373   2.643
 7571SOL    HW223613   5.255   3.348   2.608
 7572SOL     OW23614   5.147   6.377   2.409
 7572SOL    HW123615   5.111   6.315   2.339
 7572SOL    HW223616   5.115   6.348   2.499
 7573SOL     OW23617   5.496   6.471   5.752
 7573SOL    HW123618   5.472   6.435   5.662
 7573SOL    HW223619   5.489   6.398   5.820
 7574SOL     OW23620   6.769   1.375   4.201
 7574SOL    HW123621   6.864   1.378   4.172
 7574SOL    HW223622   6.729   1.287   4.175
 7575SOL     OW23623   6.996   6.161   1.269
 7575SOL    HW123624   0.024   6.098   1.208
 7575SOL    HW223625   6.923   6.208   1.220
 7576SOL     OW23626   5.494   2.786   0.480
 7576SOL    HW123627   5.442   2.770   0.564
 7576SOL    HW223628   5.555   2.708   0.464
 7577SOL     OW23629   0.711   0.104   6.915
 7577SOL    HW123630   0.680   0.197   6.937
 7577SOL    HW223631   0.783   0.109   6.845
 7578SOL     OW23632   6.573   5.644   3.655
 7578SOL    HW123633   6.612   5.618   3.567
 7578SOL    HW223634   6.582   5.743   3.668
 7579SOL     OW23635   6.718   1.340   0.784
 7579SOL    HW123636   6.621   1.320   0.775
 7579SOL    HW223637   6.770   1.290   0.714
 7580SOL     OW23638   2.188   4.953   3.801
 7580SOL    HW123639   2.279   4.992   3.812
 7580SOL    HW223640   2.190   4.855   3.821
 7581SOL     OW23641   0.027   0.777   1.608
 7581SOL    HW123642   7.017   0.687   1.643
 7581SOL    HW223643   0.063   0.831   1.684
 7582SOL     OW23644   3.380   2.113   4.525
 7582SOL    HW123645   3.426   2.193   4.488
 7582SOL    HW223646   3.422   2.087   4.612
 7583SOL     OW23647   5.036   3.422   3.696
 7583SOL    HW123648   4.988   3.501   3.658
 7583SOL    HW223649   5.095   3.452   3.771
 7584SOL     OW23650   0.772   1.164   3.194
 7584SOL    HW123651   0.823   1.156   3.109
 7584SOL    HW223652   0.676   1.144   3.177
 7585SOL     OW23653   1.108   2.287   6.835
 7585SOL    HW123654   1.161   2.331   6.908
 7585SOL    HW223655   1.022   2.254   6.873
 7586SOL     OW23656   0.996   1.179   2.572
 7586SOL    HW123657   1.086   1.144   2.598
 7586SOL    HW223658   1.003   1.231   2.487
 7587SOL     OW23659   3.264   1.409   0.879
 7587SOL    HW123660   3.336   1.363   0.826
 7587SOL    HW223661   3.254   1.364   0.967
 7588SOL     OW23662   1.593   2.652   4.646
 7588SOL    HW123663   1.500   2.630   4.673
 7588SOL    HW223664   1.602   2.751   4.635
 7589SOL     OW23665   0.137   1.206   2.982
 7589SOL    HW123666   0.183   1.236   2.898
 7589SOL    HW223667   0.040   1.189   2.962
 7590SOL     OW23668   6.930   1.665   0.441
 7590SOL    HW123669   6.877   1.719   0.376
 7590SOL    HW223670   7.017   1.711   0.461
 7591SOL     OW23671   4.342   2.866   6.398
 7591SOL    HW123672   4.391   2.837   6.315
 7591SOL    HW223673   4.404   2.913   6.460
 7592SOL     OW23674   6.855   6.232   5.001
 7592SOL    HW123675   6.826   6.209   4.908
 7592SOL    HW223676   6.903   6.154   5.041
 7593SOL     OW23677   0.161   1.391   5.762
 7593SOL    HW123678   0.255   1.378   5.794
 7593SOL    HW223679   0.129   1.309   5.715
 7594SOL     OW23680   0.267   4.115   1.172
 7594SOL    HW123681   0.259   4.068   1.084
 7594SOL    HW223682   0.362   4.141   1.187
 7595SOL     OW23683   6.180   2.413   6.134
 7595SOL    HW123684   6.120   2.491   6.146
 7595SOL    HW223685   6.272   2.445   6.109
 7596SOL     OW23686   2.864   1.065   5.127
 7596SOL    HW123687   2.848   0.970   5.099
 7596SOL    HW223688   2.948   1.099   5.084
 7597SOL     OW23689   1.856   4.961   2.097
 7597SOL    HW123690   1.897   4.892   2.036
 7597SOL    HW223691   1.757   4.964   2.082
 7598SOL     OW23692   5.920   0.971   3.199
 7598SOL    HW123693   5.844   0.941   3.257
 7598SOL    HW223694   5.942   1.067   3.220
 7599SOL     OW23695   4.002   3.221   0.985
 7599SOL    HW123696   3.957   3.132   0.984
 7599SOL    HW223697   4.041   3.238   1.075
 7600SOL     OW23698   1.257   1.253   3.882
 7600SOL    HW123699   1.278   1.285   3.975
 7600SOL    HW223700   1.322   1.294   3.818
 7601SOL     OW23701   3.906   5.767   1.926
 7601SOL    HW123702   3.896   5.672   1.953
 7601SOL    HW223703   3.842   5.788   1.852
 7602SOL     OW23704   0.381   1.525   0.943
 7602SOL    HW123705   0.366   1.603   0.882
 7602SOL    HW223706   0.315   1.453   0.922
 7603SOL     OW23707   2.356   0.503   5.858
 7603SOL    HW123708   2.391   0.461   5.775
 7603SOL    HW223709   2.346   0.602   5.844
 7604SOL     OW23710   1.155   1.887   5.012
 7604SOL    HW123711   1.062   1.891   5.048
 7604SOL    HW223712   1.154   1.902   4.913
 7605SOL     OW23713   3.117   6.969   6.899
 7605SOL    HW123714   3.140   0.013   6.824
 7605SOL    HW223715   3.062   7.018   6.967
 7606SOL     OW23716   6.364   1.503   3.747
 7606SOL    HW123717   6.446   1.515   3.803
 7606SOL    HW223718   6.329   1.592   3.720
 7607SOL     OW23719   3.179   5.716   5.985
 7607SOL    HW123720   3.165   5.807   6.024
 7607SOL    HW223721   3.249   5.721   5.914
 7608SOL     OW23722   5.822   3.137   5.897
 7608SOL    HW123723   5.900   3.149   5.959
 7608SOL    HW223724   5.742   3.185   5.934
 7609SOL     OW23725   0.419   2.128   4.682
 7609SOL    HW123726   0.372   2.144   4.595
 7609SOL    HW223727   0.485   2.054   4.672
 7610SOL     OW23728   3.483   4.695   6.038
 7610SOL    HW123729   3.541   4.763   5.992
 7610SOL    HW223730   3.471   4.721   6.134
 7611SOL     OW23731   4.734   3.180   1.458
 7611SOL    HW123732   4.691   3.264   1.490
 7611SOL    HW223733   4.745   3.116   1.534
 7612SOL     OW23734   2.994   1.840   3.155
 7612SOL    HW123735   3.039   1.924   3.185
 7612SOL    HW223736   2.906   1.863   3.113
 7613SOL     OW23737   1.531   1.930   2.309
 7613SOL    HW123738   1.596   1.939   2.385
 7613SOL    HW223739   1.438   1.941   2.343
 7614SOL     OW23740   4.948   3.218   0.770
 7614SOL    HW123741   5.036   3.244   0.730
 7614SOL    HW223742   4.942   3.253   0.863
 7615SOL     OW23743   5.214   3.128   4.430
 7615SOL    HW123744   5.232   3.083   4.342
 7615SOL    HW223745   5.280   3.202   4.443
 7616SOL     OW23746   6.435   6.937   3.489
 7616SOL    HW123747   6.336   6.937   3.507
 7616SOL    HW223748   6.483   6.981   3.564
 7617SOL     OW23749   5.034   5.303   3.251
 7617SOL    HW123750   5.110   5.327   3.190
 7617SOL    HW223751   5.032   5.204   3.265
 7618SOL     OW23752   2.930   2.580   0.329
 7618SOL    HW123753   2.860   2.512   0.308
 7618SOL    HW223754   3.008   2.535   0.373
 7619SOL     OW23755   0.618   2.282   4.235
 7619SOL    HW123756   0.683   2.291   4.310
 7619SOL    HW223757   0.525   2.283   4.271
 7620SOL     OW23758   4.022   3.986   1.464
 7620SOL    HW123759   3.925   3.994   1.487
 7620SOL    HW223760   4.075   4.047   1.522
 7621SOL     OW23761   0.602   5.803   0.974
 7621SOL    HW123762   0.524   5.865   0.974
 7621SOL    HW223763   0.680   5.847   0.929
 7622SOL     OW23764   3.801   4.587   0.543
 7622SOL    HW123765   3.795   4.571   0.641
 7622SOL    HW223766   3.722   4.641   0.513
 7623SOL     OW23767   4.884   5.037   1.234
 7623SOL    HW123768   4.982   5.047   1.250
 7623SOL    HW223769   4.848   4.965   1.293
 7624SOL     OW23770   0.495   2.656   2.351
 7624SOL    HW123771   0.503   2.568   2.399
 7624SOL    HW223772   0.552   2.724   2.396
 7625SOL     OW23773   5.321   2.155   0.297
 7625SOL    HW123774   5.320   2.173   0.198
 7625SOL    HW223775   5.413   2.127   0.324
 7626SOL     OW23776   5.395   0.289   5.054
 7626SOL    HW123777   5.404   0.191   5.037
 7626SOL    HW223778   5.419   0.340   4.971
 7627SOL     OW23779   3.124   1.810   6.902
 7627SOL    HW123780   3.032   1.792   6.937
 7627SOL    HW223781   3.162   1.889   6.950
 7628SOL     OW23782   3.717   3.012   0.685
 7628SOL    HW123783   3.671   3.082   0.739
 7628SOL    HW223784   3.816   3.025   0.690
 7629SOL     OW23785   5.823   3.032   4.412
 7629SOL    HW123786   5.836   2.986   4.500
 7629SOL    HW223787   5.897   3.098   4.398
 7630SOL     OW23788   1.703   0.296   5.063
 7630SOL    HW123789   1.803   0.306   5.066
 7630SOL    HW223790   1.674   0.284   4.968
 7631SOL     OW23791   2.020   6.966   5.111
 7631SOL    HW123792   2.107   6.951   5.157
 7631SOL    HW223793   2.017   0.041   5.075
 7632SOL     OW23794   4.847   5.968   1.032
 7632SOL    HW123795   4.847   5.938   0.937
 7632SOL    HW223796   4.912   6.044   1.043
 7633SOL     OW23797   6.244   1.158   1.151
 7633SOL    HW123798   6.152   1.117   1.154
 7633SOL    HW223799   6.311   1.090   1.180
 7634SOL     OW23800   1.004   2.059   0.557
 7634SOL    HW123801   0.955   1.981   0.517
 7634SOL    HW223802   1.061   2.027   0.633
 7635SOL     OW23803   2.462   5.236   6.076
 7635SOL    HW123804   2.422   5.145   6.083
 7635SOL    HW223805   2.460   5.267   5.981
 7636SOL     OW23806   0.878   3.619   4.940
 7636SOL    HW123807   0.921   3.585   4.856
 7636SOL    HW223808   0.949   3.643   5.006
 7637SOL     OW23809   0.622   6.372   4.339
 7637SOL    HW123810   0.665   6.321   4.265
 7637SOL    HW223811   0.624   6.318   4.424
 7638SOL     OW23812   1.022   5.421   1.865
 7638SOL    HW123813   0.981   5.456   1.949
 7638SOL    HW223814   0.973   5.338   1.836
 7639SOL     OW23815   1.066   1.143   0.677
 7639SOL    HW123816   1.024   1.054   0.658
 7639SOL    HW223817   0.995   1.209   0.699
 7640SOL     OW23818   3.234   1.095   6.432
 7640SOL    HW123819   3.274   1.022   6.375
 7640SOL    HW223820   3.218   1.059   6.524
 7641SOL     OW23821   6.930   3.888   2.690
 7641SOL    HW123822   6.998   3.832   2.738
 7641SOL    HW223823   6.932   3.981   2.727
 7642SOL     OW23824   5.977   1.213   3.790
 7642SOL    HW123825   5.940   1.305   3.786
 7642SOL    HW223826   6.042   1.199   3.715
 7643SOL     OW23827   5.106   2.881   2.910
 7643SOL    HW123828   5.162   2.934   2.846
 7643SOL    HW223829   5.013   2.918   2.911
 7644SOL     OW23830   4.933   3.550   1.530
 7644SOL    HW123831   4.871   3.511   1.598
 7644SOL    HW223832   5.013   3.588   1.576
 7645SOL     OW23833   3.299   3.741   5.921
 7645SOL    HW123834   3.215   3.770   5.876
 7645SOL    HW223835   3.343   3.820   5.964
 7646SOL     OW23836   0.769   2.482   3.257
 7646SOL    HW123837   0.840   2.443   3.197
 7646SOL    HW223838   0.679   2.465   3.217
 7647SOL     OW23839   0.035   2.640   5.167
 7647SOL    HW123840   0.024   2.737   5.145
 7647SOL    HW223841   0.116   2.628   5.225
 7648SOL     OW23842   2.255   2.168   2.740
 7648SOL    HW123843   2.275   2.084   2.790
 7648SOL    HW223844   2.217   2.145   2.650
 7649SOL     OW23845   6.195   0.924   5.397
 7649SOL    HW123846   6.158   0.892   5.485
 7649SOL    HW223847   6.281   0.972   5.412
 7650SOL     OW23848   4.052   1.267   1.268
 7650SOL    HW123849   4.095   1.300   1.184
 7650SOL    HW223850   4.100   1.186   1.300
 7651SOL     OW23851   2.226   4.881   5.042
 7651SOL    HW123852   2.235   4.905   5.139
 7651SOL    HW223853   2.286   4.939   4.987
 7652SOL     OW23854   5.821   1.604   4.456
 7652SOL    HW123855   5.803   1.615   4.359
 7652SOL    HW223856   5.869   1.684   4.491
 7653SOL     OW23857   0.595   2.206   6.839
 7653SOL    HW123858   0.632   2.205   6.747
 7653SOL    HW223859   0.670   2.195   6.905
 7654SOL     OW23860   5.937   2.989   5.475
 7654SOL    HW123861   6.031   2.966   5.502
 7654SOL    HW223862   5.875   2.974   5.552
 7655SOL     OW23863   3.303   0.662   3.268
 7655SOL    HW123864   3.220   0.716   3.253
 7655SOL    HW223865   3.380   0.723   3.284
 7656SOL     OW23866   6.488   3.544   6.967
 7656SOL    HW123867   6.528   3.469   6.914
 7656SOL    HW223868   6.401   3.513   7.006
 7657SOL     OW23869   1.575   3.705   4.726
 7657SOL    HW123870   1.569   3.804   4.708
 7657SOL    HW223871   1.483   3.665   4.722
 7658SOL     OW23872   2.632   0.779   0.679
 7658SOL    HW123873   2.679   0.841   0.742
 7658SOL    HW223874   2.675   0.784   0.589
 7659SOL     OW23875   4.424   3.914   5.333
 7659SOL    HW123876   4.516   3.938   5.303
 7659SOL    HW223877   4.409   3.946   5.426
 7660SOL     OW23878   0.122   4.334   4.461
 7660SOL    HW123879   0.062   4.257   4.482
 7660SOL    HW223880   0.072   4.419   4.472
 7661SOL     OW23881   4.678   2.942   5.548
 7661SOL    HW123882   4.694   2.844   5.550
 7661SOL    HW223883   4.593   2.963   5.597
 7662SOL     OW23884   0.950   2.252   2.510
 7662SOL    HW123885   1.044   2.244   2.544
 7662SOL    HW223886   0.915   2.343   2.532
 7663SOL     OW23887   6.131   5.511   5.426
 7663SOL    HW123888   6.132   5.534   5.329
 7663SOL    HW223889   6.208   5.450   5.446
 7664SOL     OW23890   3.469   2.028   2.890
 7664SOL    HW123891   3.400   2.068   2.950
 7664SOL    HW223892   3.459   1.928   2.890
 7665SOL     OW23893   4.118   1.858   4.298
 7665SOL    HW123894   4.020   1.835   4.303
 7665SOL    HW223895   4.169   1.779   4.265
 7666SOL     OW23896   6.116   5.467   3.644
 7666SOL    HW123897   6.208   5.447   3.610
 7666SOL    HW223898   6.068   5.524   3.577
 7667SOL     OW23899   5.274   6.247   1.947
 7667SOL    HW123900   5.200   6.303   1.908
 7667SOL    HW223901   5.361   6.281   1.912
 7668SOL     OW23902   2.126   5.143   1.344
 7668SOL    HW123903   2.173   5.221   1.302
 7668SOL    HW223904   2.146   5.142   1.442
 7669SOL     OW23905   2.765   6.602   5.986
 7669SOL    HW123906   2.829   6.666   5.944
 7669SOL    HW223907   2.673   6.640   5.985
 7670SOL     OW23908   0.332   6.800   0.132
 7670SOL    HW123909   0.354   6.768   0.039
 7670SOL    HW223910   0.359   6.730   0.198
 7671SOL     OW23911   4.739   0.936   1.379
 7671SOL    HW123912   4.703   0.869   1.443
 7671SOL    HW223913   4.827   0.970   1.412
 7672SOL     OW23914   5.322   4.777   2.799
 7672SOL    HW123915   5.325   4.729   2.711
 7672SOL    HW223916   5.291   4.714   2.870
 7673SOL     OW23917   0.670   5.409   3.829
 7673SOL    HW123918   0.576   5.443   3.821
 7673SOL    HW223919   0.714   5.412   3.740
 7674SOL     OW23920   4.283   0.043   4.309
 7674SOL    HW123921   4.319   0.102   4.381
 7674SOL    HW223922   4.311   6.968   4.326
 7675SOL     OW23923   3.311   6.821   2.630
 7675SOL    HW123924   3.258   6.780   2.555
 7675SOL    HW223925   3.291   6.919   2.634
 7676SOL     OW23926   2.941   2.794   5.494
 7676SOL    HW123927   2.900   2.773   5.405
 7676SOL    HW223928   2.873   2.840   5.551
 7677SOL     OW23929   5.865   4.814   1.738
 7677SOL    HW123930   5.837   4.832   1.644
 7677SOL    HW223931   5.796   4.851   1.801
 7678SOL     OW23932   1.308   1.340   5.475
 7678SOL    HW123933   1.291   1.354   5.377
 7678SOL    HW223934   1.385   1.278   5.486
 7679SOL     OW23935   1.559   5.324   5.481
 7679SOL    HW123936   1.500   5.381   5.423
 7679SOL    HW223937   1.654   5.348   5.466
 7680SOL     OW23938   1.628   0.917   5.364
 7680SOL    HW123939   1.713   0.874   5.397
 7680SOL    HW223940   1.646   0.965   5.278
 7681SOL     OW23941   2.991   3.270   6.308
 7681SOL    HW123942   3.037   3.300   6.391
 7681SOL    HW223943   2.904   3.318   6.299
 7682SOL     OW23944   3.045   1.578   2.632
 7682SOL    HW123945   3.072   1.674   2.640
 7682SOL    HW223946   2.984   1.554   2.707
 7683SOL     OW23947   0.691   1.087   4.698
 7683SOL    HW123948   0.789   1.103   4.709
 7683SOL    HW223949   0.643   1.121   4.779
 7684SOL     OW23950   3.853   2.041   1.313
 7684SOL    HW123951   3.854   2.136   1.342
 7684SOL    HW223952   3.849   1.982   1.394
 7685SOL     OW23953   2.948   1.140   0.151
 7685SOL    HW123954   2.855   1.177   0.152
 7685SOL    HW223955   2.997   1.173   0.232
 7686SOL     OW23956   5.466   0.780   3.994
 7686SOL    HW123957   5.373   0.808   4.020
 7686SOL    HW223958   5.532   0.843   4.036
 7687SOL     OW23959   5.617   5.435   4.881
 7687SOL    HW123960   5.689   5.367   4.870
 7687SOL    HW223961   5.541   5.414   4.819
 7688SOL     OW23962   0.771   5.183   6.566
 7688SOL    HW123963   0.868   5.189   6.543
 7688SOL    HW223964   0.736   5.092   6.543
 7689SOL     OW23965   5.023   0.295   1.975
 7689SOL    HW123966   4.954   0.230   2.007
 7689SOL    HW223967   5.108   0.280   2.026
 7690SOL     OW23968   6.556   5.278   0.904
 7690SOL    HW123969   6.498   5.350   0.866
 7690SOL    HW223970   6.546   5.277   1.003
 7691SOL     OW23971   4.526   4.966   3.311
 7691SOL    HW123972   4.429   4.942   3.311
 7691SOL    HW223973   4.539   5.052   3.262
 7692SOL     OW23974   1.663   6.523   2.283
 7692SOL    HW123975   1.736   6.569   2.234
 7692SOL    HW223976   1.575   6.568   2.264
 7693SOL     OW23977   2.692   1.522   1.111
 7693SOL    HW123978   2.790   1.509   1.122
 7693SOL    HW223979   2.642   1.464   1.175
 7694SOL     OW23980   6.198   2.080   4.763
 7694SOL    HW123981   6.154   2.003   4.810
 7694SOL    HW223982   6.140   2.161   4.772
 7695SOL     OW23983   6.215   0.698   2.641
 7695SOL    HW123984   6.202   0.776   2.579
 7695SOL    HW223985   6.127   0.655   2.659
 7696SOL     OW23986   0.467   2.886   6.380
 7696SOL    HW123987   0.433   2.975   6.350
 7696SOL    HW223988   0.495   2.891   6.476
 7697SOL     OW23989   4.045   0.247   2.890
 7697SOL    HW123990   4.021   0.250   2.793
 7697SOL    HW223991   3.990   0.177   2.935
 7698SOL     OW23992   6.228   1.646   6.817
 7698SOL    HW123993   6.285   1.633   6.898
 7698SOL    HW223994   6.152   1.708   6.840
 7699SOL     OW23995   3.400   5.475   5.807
 7699SOL    HW123996   3.427   5.451   5.901
 7699SOL    HW223997   3.319   5.422   5.782
 7700SOL     OW23998   4.927   5.233   2.488
 7700SOL    HW123999   4.925   5.143   2.443
 7700SOL    HW224000   4.930   5.221   2.587
 7701SOL     OW24001   0.116   2.554   5.993
 7701SOL    HW124002   0.171   2.518   6.069
 7701SOL    HW224003   0.075   2.641   6.021
 7702SOL     OW24004   4.843   0.123   4.532
 7702SOL    HW124005   4.912   0.051   4.518
 7702SOL    HW224006   4.775   0.119   4.459
 7703SOL     OW24007   6.522   6.388   4.669
 7703SOL    HW124008   6.511   6.458   4.740
 7703SOL    HW224009   6.490   6.425   4.582
 7704SOL     OW24010   6.299   1.276   4.339
 7704SOL    HW124011   6.360   1.237   4.270
 7704SOL    HW224012   6.209   1.233   4.333
 7705SOL     OW24013   2.174   5.129   0.431
 7705SOL    HW124014   2.150   5.112   0.526
 7705SOL    HW224015   2.109   5.194   0.391
 7706SOL     OW24016   3.528   3.210   2.366
 7706SOL    HW124017   3.548   3.262   2.283
 7706SOL    HW224018   3.463   3.138   2.344
 7707SOL     OW24019   6.604   5.696   6.968
 7707SOL    HW124020   6.697   5.701   6.933
 7707SOL    HW224021   6.606   5.689   0.049
 7708SOL     OW24022   2.165   6.733   4.704
 7708SOL    HW124023   2.135   6.645   4.739
 7708SOL    HW224024   2.101   6.804   4.733
 7709SOL     OW24025   0.464   4.732   1.618
 7709SOL    HW124026   0.432   4.741   1.712
 7709SOL    HW224027   0.388   4.703   1.560
 7710SOL     OW24028   1.426   3.750   0.797
 7710SOL    HW124029   1.509   3.724   0.847
 7710SOL    HW224030   1.445   3.750   0.699
 7711SOL     OW24031   6.879   5.100   5.051
 7711SOL    HW124032   6.916   5.012   5.081
 7711SOL    HW224033   6.868   5.160   5.130
 7712SOL     OW24034   6.618   4.669   6.048
 7712SOL    HW124035   6.540   4.677   5.986
 7712SOL    HW224036   6.588   4.628   6.134
 7713SOL     OW24037   1.992   4.847   0.363
 7713SOL    HW124038   1.998   4.753   0.330
 7713SOL    HW224039   1.960   4.847   0.458
 7714SOL     OW24040   6.609   0.636   4.517
 7714SOL    HW124041   6.656   0.703   4.459
 7714SOL    HW224042   6.661   0.551   4.519
 7715SOL     OW24043   2.530   2.638   5.911
 7715SOL    HW124044   2.450   2.614   5.966
 7715SOL    HW224045   2.533   2.737   5.899
 7716SOL     OW24046   1.014   5.510   5.712
 7716SOL    HW124047   1.079   5.503   5.637
 7716SOL    HW224048   1.063   5.504   5.799
 7717SOL     OW24049   1.629   1.794   0.143
 7717SOL    HW124050   1.615   1.851   0.224
 7717SOL    HW224051   1.545   1.792   0.089
 7718SOL     OW24052   1.141   4.321   2.685
 7718SOL    HW124053   1.050   4.298   2.719
 7718SOL    HW224054   1.157   4.419   2.696
 7719SOL     OW24055   1.668   3.759   5.224
 7719SOL    HW124056   1.583   3.741   5.272
 7719SOL    HW224057   1.660   3.729   5.129
 7720SOL     OW24058   5.889   1.568   6.873
 7720SOL    HW124059   5.894   1.501   6.798
 7720SOL    HW224060   5.936   1.652   6.845
 7721SOL     OW24061   0.600   0.742   2.648
 7721SOL    HW124062   0.663   0.689   2.705
 7721SOL    HW224063   0.516   0.758   2.699
 7722SOL     OW24064   2.319   5.848   3.866
 7722SOL    HW124065   2.378   5.802   3.799
 7722SOL    HW224066   2.223   5.830   3.842
 7723SOL     OW24067   4.773   3.903   0.689
 7723SOL    HW124068   4.720   3.931   0.769
 7723SOL    HW224069   4.867   3.882   0.717
 7724SOL     OW24070   2.512   4.203   1.819
 7724SOL    HW124071   2.427   4.179   1.771
 7724SOL    HW224072   2.492   4.222   1.915
 7725SOL     OW24073   5.528   3.081   3.517
 7725SOL    HW124074   5.433   3.112   3.516
 7725SOL    HW224075   5.586   3.150   3.475
 7726SOL     OW24076   0.281   3.638   6.068
 7726SOL    HW124077   0.325   3.571   6.008
 7726SOL    HW224078   0.338   3.719   6.076
 7727SOL     OW24079   5.060   2.310   2.478
 7727SOL    HW124080   5.125   2.353   2.542
 7727SOL    HW224081   5.084   2.335   2.385
 7728SOL     OW24082   2.161   3.125   4.940
 7728SOL    HW124083   2.240   3.067   4.959
 7728SOL    HW224084   2.130   3.169   5.024
 7729SOL     OW24085   5.882   1.968   3.784
 7729SOL    HW124086   5.895   1.904   3.860
 7729SOL    HW224087   5.899   2.061   3.815
 7730SOL     OW24088   6.026   3.977   5.188
 7730SOL    HW124089   5.949   4.016   5.136
 7730SOL    HW224090   6.009   3.986   5.286
 7731SOL     OW24091   6.057   6.972   0.296
 7731SOL    HW124092   6.046   6.886   0.246
 7731SOL    HW224093   6.151   6.979   0.331
 7732SOL     OW24094   4.564   0.381   6.343
 7732SOL    HW124095   4.468   0.407   6.337
 7732SOL    HW224096   4.570   0.285   6.373
 7733SOL     OW24097   6.825   6.030   2.167
 7733SOL    HW124098   6.818   6.102   2.097
 7733SOL    HW224099   6.898   6.053   2.231
 7734SOL     OW24100   3.251   3.752   5.057
 7734SOL    HW124101   3.340   3.796   5.056
 7734SOL    HW224102   3.185   3.808   5.007
 7735SOL     OW24103   6.776   6.063   0.915
 7735SOL    HW124104   6.727   5.976   0.918
 7735SOL    HW224105   6.743   6.118   0.838
 7736SOL     OW24106   3.036   3.293   0.550
 7736SOL    HW124107   2.959   3.300   0.613
 7736SOL    HW224108   3.003   3.276   0.457
 7737SOL     OW24109   3.962   4.532   1.626
 7737SOL    HW124110   3.935   4.582   1.708
 7737SOL    HW224111   3.954   4.434   1.643
 7738SOL     OW24112   2.908   6.539   6.770
 7738SOL    HW124113   2.921   6.635   6.747
 7738SOL    HW224114   2.919   6.483   6.688
 7739SOL     OW24115   1.342   2.123   0.984
 7739SOL    HW124116   1.421   2.107   0.925
 7739SOL    HW224117   1.265   2.067   0.954
 7740SOL     OW24118   1.359   0.974   4.410
 7740SOL    HW124119   1.439   0.960   4.351
 7740SOL    HW224120   1.389   0.993   4.503
 7741SOL     OW24121   1.663   4.316   6.166
 7741SOL    HW124122   1.566   4.295   6.175
 7741SOL    HW224123   1.712   4.233   6.137
 7742SOL     OW24124   4.067   1.613   3.996
 7742SOL    HW124125   3.980   1.576   4.030
 7742SOL    HW224126   4.061   1.712   3.990
 7743SOL     OW24127   4.889   1.535   6.014
 7743SOL    HW124128   4.941   1.478   5.950
 7743SOL    HW224129   4.837   1.475   6.076
 7744SOL     OW24130   0.225   6.207   4.329
 7744SOL    HW124131   0.251   6.248   4.242
 7744SOL    HW224132   0.297   6.226   4.397
 7745SOL     OW24133   1.844   6.406   0.283
 7745SOL    HW124134   1.855   6.487   0.226
 7745SOL    HW224135   1.844   6.324   0.225
 7746SOL     OW24136   1.467   6.505   0.861
 7746SOL    HW124137   1.458   6.412   0.826
 7746SOL    HW224138   1.552   6.512   0.914
 7747SOL     OW24139   1.021   6.393   0.960
 7747SOL    HW124140   1.009   6.304   0.916
 7747SOL    HW224141   1.055   6.459   0.893
 7748SOL     OW24142   4.395   2.761   5.388
 7748SOL    HW124143   4.449   2.734   5.308
 7748SOL    HW224144   4.298   2.761   5.363
 7749SOL     OW24145   3.430   3.461   4.071
 7749SOL    HW124146   3.394   3.407   4.147
 7749SOL    HW224147   3.439   3.402   3.990
 7750SOL     OW24148   5.507   5.034   5.485
 7750SOL    HW124149   5.581   5.072   5.540
 7750SOL    HW224150   5.448   5.108   5.453
 7751SOL     OW24151   0.043   0.834   5.078
 7751SOL    HW124152   7.015   0.763   5.026
 7751SOL    HW224153   0.140   0.834   5.054
 7752SOL     OW24154   5.800   5.607   5.303
 7752SOL    HW124155   5.770   5.599   5.209
 7752SOL    HW224156   5.853   5.692   5.314
 7753SOL     OW24157   1.848   0.736   4.392
 7753SOL    HW124158   1.947   0.746   4.394
 7753SOL    HW224159   1.805   0.827   4.387
 7754SOL     OW24160   5.755   0.497   0.731
 7754SOL    HW124161   5.717   0.547   0.808
 7754SOL    HW224162   5.776   0.403   0.758
 7755SOL     OW24163   0.483   5.911   5.361
 7755SOL    HW124164   0.529   5.923   5.273
 7755SOL    HW224165   0.394   5.869   5.347
 7756SOL     OW24166   3.122   5.152   2.313
 7756SOL    HW124167   3.075   5.146   2.225
 7756SOL    HW224168   3.101   5.070   2.368
 7757SOL     OW24169   4.343   6.533   5.563
 7757SOL    HW124170   4.439   6.526   5.590
 7757SOL    HW224171   4.318   6.456   5.504
 7758SOL     OW24172   2.592   2.186   6.086
 7758SOL    HW124173   2.671   2.153   6.137
 7758SOL    HW224174   2.519   2.117   6.089
 7759SOL     OW24175   2.126   0.471   4.255
 7759SOL    HW124176   2.158   0.469   4.349
 7759SOL    HW224177   2.158   0.555   4.210
 7760SOL     OW24178   5.181   3.036   2.143
 7760SOL    HW124179   5.123   2.998   2.071
 7760SOL    HW224180   5.220   3.123   2.113
 7761SOL     OW24181   3.122   0.129   6.671
 7761SOL    HW124182   3.150   0.225   6.675
 7761SOL    HW224183   3.048   0.119   6.604
 7762SOL     OW24184   4.128   1.767   0.357
 7762SOL    HW124185   4.092   1.729   0.272
 7762SOL    HW224186   4.147   1.865   0.344
 7763SOL     OW24187   1.911   2.080   0.638
 7763SOL    HW124188   1.921   2.094   0.737
 7763SOL    HW224189   1.982   2.131   0.590
 7764SOL     OW24190   3.851   2.980   2.126
 7764SOL    HW124191   3.911   3.059   2.126
 7764SOL    HW224192   3.820   2.961   2.220
 7765SOL     OW24193   6.522   2.956   2.911
 7765SOL    HW124194   6.612   2.996   2.900
 7765SOL    HW224195   6.494   2.962   3.007
 7766SOL     OW24196   6.034   1.842   6.860
 7766SOL    HW124197   6.009   1.875   6.951
 7766SOL    HW224198   5.967   1.874   6.793
 7767SOL     OW24199   4.093   5.978   4.078
 7767SOL    HW124200   4.181   5.942   4.048
 7767SOL    HW224201   4.091   6.077   4.065
 7768SOL     OW24202   3.904   4.876   2.228
 7768SOL    HW124203   3.827   4.813   2.212
 7768SOL    HW224204   3.870   4.959   2.272
 7769SOL     OW24205   5.343   2.407   0.856
 7769SOL    HW124206   5.254   2.430   0.894
 7769SOL    HW224207   5.332   2.347   0.777
 7770SOL     OW24208   3.053   4.942   1.541
 7770SOL    HW124209   3.027   4.870   1.606
 7770SOL    HW224210   3.150   4.935   1.521
 7771SOL     OW24211   2.883   2.174   5.769
 7771SOL    HW124212   2.938   2.244   5.815
 7771SOL    HW224213   2.843   2.213   5.686
 7772SOL     OW24214   4.829   0.679   3.827
 7772SOL    HW124215   4.811   0.775   3.848
 7772SOL    HW224216   4.759   0.622   3.869
 7773SOL     OW24217   4.358   4.005   5.595
 7773SOL    HW124218   4.431   4.031   5.658
 7773SOL    HW224219   4.310   3.925   5.631
 7774SOL     OW24220   5.313   1.575   5.878
 7774SOL    HW124221   5.350   1.610   5.792
 7774SOL    HW224222   5.323   1.644   5.950
 7775SOL     OW24223   3.326   6.879   2.151
 7775SOL    HW124224   3.415   6.836   2.160
 7775SOL    HW224225   3.337   6.978   2.145
 7776SOL     OW24226   3.937   3.636   6.119
 7776SOL    HW124227   3.838   3.636   6.107
 7776SOL    HW224228   3.963   3.710   6.181
 7777SOL     OW24229   2.391   1.114   6.910
 7777SOL    HW124230   2.361   1.024   6.941
 7777SOL    HW224231   2.480   1.105   6.865
 7778SOL     OW24232   5.734   0.316   6.835
 7778SOL    HW124233   5.695   0.404   6.863
 7778SOL    HW224234   5.771   0.324   6.743
 7779SOL     OW24235   3.659   2.602   0.712
 7779SOL    HW124236   3.662   2.676   0.778
 7779SOL    HW224237   3.626   2.518   0.757
 7780SOL     OW24238   1.584   6.027   4.521
 7780SOL    HW124239   1.618   6.028   4.615
 7780SOL    HW224240   1.661   6.032   4.458
 7781SOL     OW24241   1.499   3.797   5.670
 7781SOL    HW124242   1.462   3.854   5.597
 7781SOL    HW224243   1.483   3.701   5.649
 7782SOL     OW24244   2.345   4.405   6.450
 7782SOL    HW124245   2.251   4.426   6.423
 7782SOL    HW224246   2.397   4.373   6.370
 7783SOL     OW24247   2.382   6.101   6.937
 7783SOL    HW124248   2.285   6.090   6.960
 7783SOL    HW224249   2.404   6.198   6.926
 7784SOL     OW24250   0.836   2.840   6.747
 7784SOL    HW124251   0.879   2.913   6.694
 7784SOL    HW224252   0.898   2.761   6.752
 7785SOL     OW24253   2.176   6.423   4.105
 7785SOL    HW124254   2.178   6.515   4.066
 7785SOL    HW224255   2.081   6.393   4.114
 7786SOL     OW24256   2.873   4.791   5.280
 7786SOL    HW124257   2.800   4.833   5.227
 7786SOL    HW224258   2.896   4.702   5.240
 7787SOL     OW24259   2.243   2.846   4.800
 7787SOL    HW124260   2.205   2.836   4.892
 7787SOL    HW224261   2.263   2.942   4.782
 7788SOL     OW24262   0.992   1.445   1.843
 7788SOL    HW124263   1.032   1.529   1.880
 7788SOL    HW224264   0.939   1.399   1.915
 7789SOL     OW24265   2.861   0.546   1.001
 7789SOL    HW124266   2.890   0.637   0.971
 7789SOL    HW224267   2.773   0.553   1.048
 7790SOL     OW24268   6.106   3.595   2.936
 7790SOL    HW124269   6.065   3.537   2.865
 7790SOL    HW224270   6.147   3.675   2.893
 7791SOL     OW24271   2.860   5.090   4.587
 7791SOL    HW124272   2.834   5.013   4.529
 7791SOL    HW224273   2.810   5.171   4.559
 7792SOL     OW24274   2.542   6.134   6.197
 7792SOL    HW124275   2.597   6.098   6.273
 7792SOL    HW224276   2.478   6.202   6.232
 7793SOL     OW24277   1.216   1.095   5.899
 7793SOL    HW124278   1.209   0.997   5.877
 7793SOL    HW224279   1.139   1.144   5.858
 7794SOL     OW24280   5.292   5.214   4.464
 7794SOL    HW124281   5.226   5.288   4.450
 7794SOL    HW224282   5.379   5.238   4.421
 7795SOL     OW24283   2.227   3.759   5.990
 7795SOL    HW124284   2.203   3.837   5.931
 7795SOL    HW224285   2.287   3.697   5.939
 7796SOL     OW24286   3.430   4.056   3.573
 7796SOL    HW124287   3.430   3.965   3.531
 7796SOL    HW224288   3.522   4.093   3.573
 7797SOL     OW24289   0.131   6.296   3.018
 7797SOL    HW124290   0.173   6.379   3.054
 7797SOL    HW224291   0.061   6.262   3.082
 7798SOL     OW24292   3.429   5.662   0.494
 7798SOL    HW124293   3.391   5.737   0.548
 7798SOL    HW224294   3.507   5.694   0.442
 7799SOL     OW24295   0.205   5.479   1.051
 7799SOL    HW124296   0.108   5.455   1.052
 7799SOL    HW224297   0.252   5.426   0.980
 7800SOL     OW24298   0.456   4.998   1.822
 7800SOL    HW124299   0.550   5.022   1.847
 7800SOL    HW224300   0.454   4.968   1.727
 7801SOL     OW24301   2.038   1.564   0.150
 7801SOL    HW124302   1.990   1.649   0.131
 7801SOL    HW224303   2.091   1.573   0.234
 7802SOL     OW24304   5.477   2.406   1.643
 7802SOL    HW124305   5.397   2.426   1.588
 7802SOL    HW224306   5.465   2.445   1.735
 7803SOL     OW24307   3.892   4.077   6.027
 7803SOL    HW124308   3.932   3.987   6.047
 7803SOL    HW224309   3.872   4.084   5.930
 7804SOL     OW24310   5.115   1.666   5.083
 7804SOL    HW124311   5.105   1.752   5.032
 7804SOL    HW224312   5.111   1.590   5.019
 7805SOL     OW24313   5.435   2.575   1.863
 7805SOL    HW124314   5.484   2.578   1.951
 7805SOL    HW224315   5.444   2.663   1.817
 7806SOL     OW24316   5.593   2.889   6.103
 7806SOL    HW124317   5.669   2.861   6.044
 7806SOL    HW224318   5.556   2.809   6.150
 7807SOL     OW24319   6.532   4.038   6.603
 7807SOL    HW124320   6.593   3.984   6.545
 7807SOL    HW224321   6.565   4.132   6.608
 7808SOL     OW24322   0.435   1.088   4.581
 7808SOL    HW124323   0.519   1.101   4.633
 7808SOL    HW224324   0.419   0.991   4.566
 7809SOL     OW24325   2.282   5.416   4.657
 7809SOL    HW124326   2.326   5.330   4.633
 7809SOL    HW224327   2.209   5.436   4.592
 7810SOL     OW24328   2.942   0.724   5.126
 7810SOL    HW124329   3.039   0.745   5.141
 7810SOL    HW224330   2.886   0.777   5.189
 7811SOL     OW24331   5.334   4.445   3.277
 7811SOL    HW124332   5.242   4.482   3.290
 7811SOL    HW224333   5.392   4.470   3.354
 7812SOL     OW24334   2.074   1.650   4.366
 7812SOL    HW124335   2.135   1.665   4.288
 7812SOL    HW224336   2.003   1.584   4.340
 7813SOL     OW24337   5.955   2.883   6.645
 7813SOL    HW124338   6.036   2.832   6.617
 7813SOL    HW224339   5.906   2.832   6.716
 7814SOL     OW24340   6.764   2.972   3.788
 7814SOL    HW124341   6.691   2.911   3.759
 7814SOL    HW224342   6.763   3.055   3.732
 7815SOL     OW24343   6.294   1.626   6.168
 7815SOL    HW124344   6.227   1.652   6.239
 7815SOL    HW224345   6.254   1.642   6.078
 7816SOL     OW24346   0.154   3.485   5.724
 7816SOL    HW124347   0.203   3.457   5.641
 7816SOL    HW224348   0.218   3.490   5.801
 7817SOL     OW24349   5.635   4.207   4.782
 7817SOL    HW124350   5.653   4.110   4.798
 7817SOL    HW224351   5.653   4.259   4.865
 7818SOL     OW24352   6.462   6.542   1.771
 7818SOL    HW124353   6.470   6.472   1.843
 7818SOL    HW224354   6.370   6.580   1.773
 7819SOL     OW24355   6.713   2.548   1.058
 7819SOL    HW124356   6.661   2.525   1.141
 7819SOL    HW224357   6.666   2.512   0.978
 7820SOL     OW24358   1.595   1.699   6.575
 7820SOL    HW124359   1.645   1.652   6.502
 7820SOL    HW224360   1.525   1.638   6.612
 7821SOL     OW24361   3.528   5.714   1.166
 7821SOL    HW124362   3.431   5.693   1.178
 7821SOL    HW224363   3.572   5.641   1.115
 7822SOL     OW24364   1.206   5.689   5.031
 7822SOL    HW124365   1.278   5.624   5.054
 7822SOL    HW224366   1.125   5.670   5.087
 7823SOL     OW24367   2.251   4.303   5.147
 7823SOL    HW124368   2.282   4.235   5.080
 7823SOL    HW224369   2.279   4.275   5.239
 7824SOL     OW24370   0.462   2.591   5.641
 7824SOL    HW124371   0.534   2.589   5.572
 7824SOL    HW224372   0.494   2.544   5.724
 7825SOL     OW24373   2.298   1.856   6.683
 7825SOL    HW124374   2.350   1.941   6.692
 7825SOL    HW224375   2.310   1.801   6.766
 7826SOL     OW24376   6.571   2.676   6.634
 7826SOL    HW124377   6.654   2.693   6.688
 7826SOL    HW224378   6.572   2.582   6.600
 7827SOL     OW24379   0.063   6.030   3.257
 7827SOL    HW124380   7.003   6.085   3.230
 7827SOL    HW224381   0.098   5.980   3.178
 7828SOL     OW24382   6.983   3.727   6.567
 7828SOL    HW124383   7.005   3.655   6.501
 7828SOL    HW224384   6.997   3.816   6.525
 7829SOL     OW24385   3.318   2.825   1.547
 7829SOL    HW124386   3.258   2.904   1.562
 7829SOL    HW224387   3.356   2.795   1.634
 7830SOL     OW24388   2.751   5.106   4.129
 7830SOL    HW124389   2.768   5.012   4.158
 7830SOL    HW224390   2.692   5.105   4.048
 7831SOL     OW24391   1.954   2.119   0.902
 7831SOL    HW124392   1.921   2.182   0.972
 7831SOL    HW224393   1.966   2.028   0.943
 7832SOL     OW24394   5.480   0.438   4.856
 7832SOL    HW124395   5.484   0.530   4.818
 7832SOL    HW224396   5.534   0.376   4.798
 7833SOL     OW24397   1.932   0.532   4.044
 7833SOL    HW124398   1.835   0.549   4.063
 7833SOL    HW224399   1.971   0.479   4.119
 7834SOL     OW24400   6.412   2.687   4.844
 7834SOL    HW124401   6.478   2.662   4.773
 7834SOL    HW224402   6.410   2.786   4.856
 7835SOL     OW24403   4.291   1.862   5.102
 7835SOL    HW124404   4.282   1.871   5.002
 7835SOL    HW224405   4.257   1.772   5.130
 7836SOL     OW24406   3.756   4.019   5.301
 7836SOL    HW124407   3.771   3.953   5.227
 7836SOL    HW224408   3.658   4.035   5.312
 7837SOL     OW24409   6.019   6.425   6.842
 7837SOL    HW124410   6.057   6.471   6.762
 7837SOL    HW224411   6.077   6.443   6.922
 7838SOL     OW24412   5.384   5.476   0.943
 7838SOL    HW124413   5.401   5.555   1.002
 7838SOL    HW224414   5.459   5.467   0.877
 7839SOL     OW24415   6.076   4.393   4.903
 7839SOL    HW124416   5.996   4.452   4.902
 7839SOL    HW224417   6.105   4.375   4.809
 7840SOL     OW24418   2.169   3.808   3.176
 7840SOL    HW124419   2.261   3.792   3.210
 7840SOL    HW224420   2.167   3.797   3.076
 7841SOL     OW24421   5.525   2.160   5.601
 7841SOL    HW124422   5.539   2.173   5.503
 7841SOL    HW224423   5.432   2.187   5.625
 7842SOL     OW24424   1.875   1.427   2.449
 7842SOL    HW124425   1.827   1.347   2.412
 7842SOL    HW224426   1.880   1.498   2.379
 7843SOL     OW24427   0.406   6.481   3.296
 7843SOL    HW124428   0.472   6.554   3.313
 7843SOL    HW224429   0.358   6.459   3.382
 7844SOL     OW24430   3.745   0.944   2.352
 7844SOL    HW124431   3.649   0.933   2.325
 7844SOL    HW224432   3.759   0.902   2.441
 7845SOL     OW24433   6.101   1.972   1.578
 7845SOL    HW124434   6.038   2.039   1.618
 7845SOL    HW224435   6.099   1.981   1.478
 7846SOL     OW24436   0.797   2.678   0.132
 7846SOL    HW124437   0.868   2.748   0.137
 7846SOL    HW224438   0.757   2.665   0.223
 7847SOL     OW24439   5.727   2.290   4.521
 7847SOL    HW124440   5.746   2.193   4.509
 7847SOL    HW224441   5.728   2.335   4.432
 7848SOL     OW24442   2.714   4.934   0.659
 7848SOL    HW124443   2.733   4.921   0.756
 7848SOL    HW224444   2.627   4.982   0.648
 7849SOL     OW24445   4.683   3.999   6.093
 7849SOL    HW124446   4.734   3.926   6.138
 7849SOL    HW224447   4.676   4.078   6.154
 7850SOL     OW24448   6.534   1.452   3.355
 7850SOL    HW124449   6.529   1.469   3.257
 7850SOL    HW224450   6.508   1.357   3.373
 7851SOL     OW24451   1.059   4.617   1.643
 7851SOL    HW124452   1.153   4.615   1.677
 7851SOL    HW224453   1.048   4.692   1.579
 7852SOL     OW24454   2.018   2.096   0.343
 7852SOL    HW124455   1.945   2.158   0.313
 7852SOL    HW224456   2.079   2.077   0.266
 7853SOL     OW24457   4.026   2.990   1.635
 7853SOL    HW124458   3.946   3.005   1.693
 7853SOL    HW224459   4.099   2.948   1.689
 7854SOL     OW24460   4.894   1.888   5.620
 7854SOL    HW124461   4.842   1.907   5.536
 7854SOL    HW224462   4.893   1.968   5.679
 7855SOL     OW24463   5.453   6.978   4.410
 7855SOL    HW124464   5.422   6.972   4.315
 7855SOL    HW224465   5.472   0.055   4.432
 7856SOL     OW24466   1.887   5.390   4.767
 7856SOL    HW124467   1.904   5.488   4.761
 7856SOL    HW224468   1.892   5.349   4.676
 7857SOL     OW24469   5.114   4.040   0.252
 7857SOL    HW124470   5.171   4.037   0.171
 7857SOL    HW224471   5.037   4.102   0.237
 7858SOL     OW24472   0.466   5.176   6.037
 7858SOL    HW124473   0.429   5.269   6.031
 7858SOL    HW224474   0.553   5.172   5.988
 7859SOL     OW24475   5.078   2.721   6.660
 7859SOL    HW124476   5.014   2.797   6.651
 7859SOL    HW224477   5.115   2.698   6.570
 7860SOL     OW24478   2.962   0.926   4.809
 7860SOL    HW124479   2.980   0.855   4.741
 7860SOL    HW224480   2.913   1.002   4.765
 7861SOL     OW24481   2.645   6.407   1.248
 7861SOL    HW124482   2.623   6.359   1.162
 7861SOL    HW224483   2.741   6.436   1.247
 7862SOL     OW24484   2.516   6.308   1.004
 7862SOL    HW124485   2.450   6.245   0.965
 7862SOL    HW224486   2.517   6.393   0.951
 7863SOL     OW24487   6.970   4.086   3.728
 7863SOL    HW124488   6.893   4.065   3.667
 7863SOL    HW224489   0.018   4.012   3.722
 7864SOL     OW24490   2.494   6.378   5.574
 7864SOL    HW124491   2.484   6.278   5.579
 7864SOL    HW224492   2.410   6.418   5.537
 7865SOL     OW24493   6.302   6.098   3.971
 7865SOL    HW124494   6.353   6.108   3.885
 7865SOL    HW224495   6.216   6.149   3.965
 7866SOL     OW24496   1.301   0.522   6.143
 7866SOL    HW124497   1.377   0.466   6.177
 7866SOL    HW224498   1.235   0.464   6.096
 7867SOL     OW24499   5.435   0.269   3.684
 7867SOL    HW124500   5.382   0.272   3.769
 7867SOL    HW224501   5.408   0.188   3.632
 7868SOL     OW24502   3.522   6.542   0.989
 7868SOL    HW124503   3.515   6.529   1.088
 7868SOL    HW224504   3.618   6.535   0.961
 7869SOL     OW24505   4.913   4.013   5.730
 7869SOL    HW124506   4.872   3.928   5.762
 7869SOL    HW224507   5.013   4.002   5.724
 7870SOL     OW24508   4.639   6.170   5.026
 7870SOL    HW124509   4.739   6.161   5.025
 7870SOL    HW224510   4.612   6.224   5.105
 7871SOL     OW24511   5.190   1.674   1.738
 7871SOL    HW124512   5.205   1.576   1.726
 7871SOL    HW224513   5.113   1.689   1.800
 7872SOL     OW24514   1.894   6.047   2.699
 7872SOL    HW124515   1.847   6.039   2.611
 7872SOL    HW224516   1.862   6.130   2.746
 7873SOL     OW24517   6.741   1.268   0.271
 7873SOL    HW124518   6.657   1.289   0.321
 7873SOL    HW224519   6.820   1.301   0.324
 7874SOL     OW24520   5.851   2.482   1.043
 7874SOL    HW124521   5.771   2.427   1.022
 7874SOL    HW224522   5.877   2.468   1.139
 7875SOL     OW24523   4.394   4.279   6.462
 7875SOL    HW124524   4.434   4.198   6.418
 7875SOL    HW224525   4.329   4.322   6.400
 7876SOL     OW24526   0.383   0.349   2.694
 7876SOL    HW124527   0.441   0.409   2.640
 7876SOL    HW224528   0.432   0.265   2.715
 7877SOL     OW24529   6.506   1.473   3.071
 7877SOL    HW124530   6.564   1.505   2.996
 7877SOL    HW224531   6.449   1.397   3.041
 7878SOL     OW24532   4.685   4.801   3.518
 7878SOL    HW124533   4.724   4.883   3.561
 7878SOL    HW224534   4.713   4.798   3.422
 7879SOL     OW24535   2.550   4.828   3.163
 7879SOL    HW124536   2.518   4.778   3.244
 7879SOL    HW224537   2.503   4.793   3.082
 7880SOL     OW24538   1.670   3.839   1.746
 7880SOL    HW124539   1.680   3.914   1.680
 7880SOL    HW224540   1.582   3.793   1.731
 7881SOL     OW24541   5.052   3.785   4.101
 7881SOL    HW124542   4.997   3.803   4.183
 7881SOL    HW224543   5.083   3.690   4.102
 7882SOL     OW24544   1.891   3.199   1.764
 7882SOL    HW124545   1.987   3.222   1.776
 7882SOL    HW224546   1.883   3.105   1.729
 7883SOL     OW24547   1.029   1.319   4.947
 7883SOL    HW124548   0.981   1.232   4.939
 7883SOL    HW224549   1.103   1.323   4.880
 7884SOL     OW24550   0.393   3.386   4.538
 7884SOL    HW124551   0.386   3.352   4.444
 7884SOL    HW224552   0.349   3.321   4.600
 7885SOL     OW24553   6.320   5.548   0.080
 7885SOL    HW124554   6.386   5.479   0.107
 7885SOL    HW224555   6.232   5.528   0.122
 7886SOL     OW24556   4.705   5.548   0.271
 7886SOL    HW124557   4.784   5.486   0.272
 7886SOL    HW224558   4.621   5.495   0.261
 7887SOL     OW24559   4.680   1.965   0.194
 7887SOL    HW124560   4.749   1.929   0.132
 7887SOL    HW224561   4.619   2.027   0.144
 7888SOL     OW24562   4.470   0.719   4.350
 7888SOL    HW124563   4.525   0.800   4.331
 7888SOL    HW224564   4.529   0.644   4.381
 7889SOL     OW24565   0.056   6.072   2.287
 7889SOL    HW124566   0.148   6.094   2.255
 7889SOL    HW224567   0.054   5.978   2.320
 7890SOL     OW24568   1.703   3.961   2.538
 7890SOL    HW124569   1.781   3.938   2.480
 7890SOL    HW224570   1.692   4.061   2.539
 7891SOL     OW24571   2.514   4.553   1.993
 7891SOL    HW124572   2.606   4.588   2.013
 7891SOL    HW224573   2.477   4.601   1.913
 7892SOL     OW24574   2.194   2.248   6.060
 7892SOL    HW124575   2.103   2.207   6.070
 7892SOL    HW224576   2.261   2.175   6.044
 7893SOL     OW24577   6.134   6.325   1.067
 7893SOL    HW124578   6.159   6.418   1.038
 7893SOL    HW224579   6.082   6.330   1.152
 7894SOL     OW24580   2.607   6.570   2.105
 7894SOL    HW124581   2.662   6.650   2.127
 7894SOL    HW224582   2.644   6.527   2.022
 7895SOL     OW24583   6.594   0.996   4.506
 7895SOL    HW124584   6.591   1.094   4.526
 7895SOL    HW224585   6.503   0.963   4.484
 7896SOL     OW24586   4.834   4.255   5.664
 7896SOL    HW124587   4.858   4.163   5.694
 7896SOL    HW224588   4.745   4.253   5.619
 7897SOL     OW24589   2.505   3.119   6.564
 7897SOL    HW124590   2.530   3.205   6.520
 7897SOL    HW224591   2.586   3.076   6.602
 7898SOL     OW24592   4.303   2.244   3.711
 7898SOL    HW124593   4.399   2.233   3.685
 7898SOL    HW224594   4.244   2.210   3.637
 7899SOL     OW24595   5.797   2.299   2.649
 7899SOL    HW124596   5.698   2.306   2.639
 7899SOL    HW224597   5.841   2.371   2.594
 7900SOL     OW24598   2.025   5.922   1.269
 7900SOL    HW124599   2.026   5.969   1.180
 7900SOL    HW224600   2.075   5.977   1.336
 7901SOL     OW24601   6.535   6.571   6.324
 7901SOL    HW124602   6.470   6.626   6.272
 7901SOL    HW224603   6.526   6.475   6.297
 7902SOL     OW24604   4.527   4.136   0.599
 7902SOL    HW124605   4.604   4.122   0.537
 7902SOL    HW224606   4.524   4.232   0.627
 7903SOL     OW24607   6.332   1.677   0.066
 7903SOL    HW124608   6.269   1.754   0.057
 7903SOL    HW224609   6.325   1.638   0.158
 7904SOL     OW24610   6.787   1.191   2.360
 7904SOL    HW124611   6.768   1.247   2.280
 7904SOL    HW224612   6.886   1.183   2.374
 7905SOL     OW24613   3.854   0.727   1.208
 7905SOL    HW124614   3.939   0.765   1.172
 7905SOL    HW224615   3.811   0.794   1.269
 7906SOL     OW24616   5.262   6.152   0.193
 7906SOL    HW124617   5.215   6.240   0.184
 7906SOL    HW224618   5.287   6.118   0.102
 7907SOL     OW24619   7.002   2.933   3.531
 7907SOL    HW124620   0.030   2.998   3.472
 7907SOL    HW224621   0.047   2.894   3.597
 7908SOL     OW24622   6.524   2.026   3.623
 7908SOL    HW124623   6.513   1.957   3.695
 7908SOL    HW224624   6.464   2.004   3.546
 7909SOL     OW24625   4.745   4.138   5.009
 7909SOL    HW124626   4.832   4.089   5.017
 7909SOL    HW224627   4.728   4.190   5.093
 7910SOL     OW24628   4.666   3.191   5.791
 7910SOL    HW124629   4.623   3.101   5.780
 7910SOL    HW224630   4.620   3.257   5.732
 7911SOL     OW24631   6.495   4.664   0.221
 7911SOL    HW124632   6.460   4.570   0.219
 7911SOL    HW224633   6.443   4.717   0.288
 7912SOL     OW24634   5.649   4.628   6.274
 7912SOL    HW124635   5.570   4.670   6.318
 7912SOL    HW224636   5.733   4.653   6.323
 7913SOL     OW24637   6.455   5.472   6.585
 7913SOL    HW124638   6.398   5.473   6.667
 7913SOL    HW224639   6.541   5.520   6.603
 7914SOL     OW24640   6.125   3.703   1.333
 7914SOL    HW124641   6.136   3.718   1.235
 7914SOL    HW224642   6.028   3.687   1.353
 7915SOL     OW24643   3.972   1.864   3.216
 7915SOL    HW124644   3.879   1.840   3.190
 7915SOL    HW224645   4.036   1.802   3.171
 7916SOL     OW24646   5.560   3.659   5.644
 7916SOL    HW124647   5.507   3.661   5.729
 7916SOL    HW224648   5.502   3.624   5.570
 7917SOL     OW24649   3.601   3.855   4.332
 7917SOL    HW124650   3.627   3.946   4.362
 7917SOL    HW224651   3.502   3.853   4.316
 7918SOL     OW24652   5.775   1.802   2.799
 7918SOL    HW124653   5.766   1.702   2.803
 7918SOL    HW224654   5.804   1.829   2.707
 7919SOL     OW24655   5.234   5.260   2.058
 7919SOL    HW124656   5.219   5.200   2.136
 7919SOL    HW224657   5.320   5.235   2.013
 7920SOL     OW24658   0.424   5.021   1.419
 7920SOL    HW124659   0.495   5.031   1.350
 7920SOL    HW224660   0.349   4.967   1.383
 7921SOL     OW24661   2.181   6.716   1.325
 7921SOL    HW124662   2.185   6.621   1.357
 7921SOL    HW224663   2.087   6.739   1.302
 7922SOL     OW24664   1.110   5.551   6.486
 7922SOL    HW124665   1.185   5.617   6.482
 7922SOL    HW224666   1.038   5.586   6.546
 7923SOL     OW24667   1.391   1.302   3.643
 7923SOL    HW124668   1.411   1.391   3.600
 7923SOL    HW224669   1.312   1.261   3.598
 7924SOL     OW24670   2.855   6.901   3.844
 7924SOL    HW124671   2.872   6.970   3.774
 7924SOL    HW224672   2.878   6.940   3.934
 7925SOL     OW24673   6.139   1.686   5.964
 7925SOL    HW124674   6.172   1.679   5.870
 7925SOL    HW224675   6.108   1.779   5.982
 7926SOL     OW24676   4.139   0.183   2.352
 7926SOL    HW124677   4.183   0.271   2.332
 7926SOL    HW224678   4.209   0.114   2.367
 7927SOL     OW24679   4.122   4.877   4.927
 7927SOL    HW124680   4.052   4.867   4.998
 7927SOL    HW224681   4.210   4.848   4.962
 7928SOL     OW24682   1.712   5.388   2.107
 7928SOL    HW124683   1.791   5.341   2.068
 7928SOL    HW224684   1.683   5.342   2.191
 7929SOL     OW24685   3.900   3.516   4.240
 7929SOL    HW124686   3.921   3.574   4.319
 7929SOL    HW224687   3.817   3.549   4.196
 7930SOL     OW24688   4.788   5.273   3.613
 7930SOL    HW124689   4.688   5.279   3.615
 7930SOL    HW224690   4.824   5.341   3.549
 7931SOL     OW24691   2.580   1.806   0.637
 7931SOL    HW124692   2.552   1.746   0.711
 7931SOL    HW224693   2.513   1.880   0.627
 7932SOL     OW24694   2.064   0.092   0.438
 7932SOL    HW124695   2.127   0.015   0.443
 7932SOL    HW224696   2.051   0.119   0.343
 7933SOL     OW24697   1.271   0.736   6.816
 7933SOL    HW124698   1.333   0.803   6.857
 7933SOL    HW224699   1.313   0.698   6.734
 7934SOL     OW24700   2.702   3.682   6.735
 7934SOL    HW124701   2.712   3.585   6.715
 7934SOL    HW224702   2.692   3.734   6.650
 7935SOL     OW24703   4.570   6.484   1.976
 7935SOL    HW124704   4.484   6.444   1.945
 7935SOL    HW224705   4.593   6.449   2.067
 7936SOL     OW24706   4.213   5.697   3.078
 7936SOL    HW124707   4.157   5.760   3.024
 7936SOL    HW224708   4.172   5.606   3.075
 7937SOL     OW24709   6.571   6.389   5.751
 7937SOL    HW124710   6.606   6.327   5.821
 7937SOL    HW224711   6.616   6.478   5.760
 7938SOL     OW24712   4.576   5.230   4.759
 7938SOL    HW124713   4.485   5.188   4.760
 7938SOL    HW224714   4.614   5.230   4.852
 7939SOL     OW24715   1.252   0.840   5.677
 7939SOL    HW124716   1.310   0.759   5.689
 7939SOL    HW224717   1.156   0.814   5.686
 7940SOL     OW24718   2.302   5.795   1.185
 7940SOL    HW124719   2.287   5.772   1.089
 7940SOL    HW224720   2.256   5.728   1.243
 7941SOL     OW24721   0.223   0.924   0.731
 7941SOL    HW124722   0.230   0.946   0.634
 7941SOL    HW224723   0.161   0.988   0.776
 7942SOL     OW24724   0.428   6.998   1.719
 7942SOL    HW124725   0.442   6.920   1.780
 7942SOL    HW224726   0.503   7.003   1.653
 7943SOL     OW24727   5.538   1.935   0.826
 7943SOL    HW124728   5.626   1.946   0.779
 7943SOL    HW224729   5.493   2.024   0.833
 7944SOL     OW24730   0.790   4.403   0.972
 7944SOL    HW124731   0.846   4.449   1.041
 7944SOL    HW224732   0.694   4.429   0.985
 7945SOL     OW24733   5.556   6.543   2.839
 7945SOL    HW124734   5.525   6.499   2.755
 7945SOL    HW224735   5.652   6.568   2.831
 7946SOL     OW24736   1.932   2.124   5.852
 7946SOL    HW124737   1.943   2.221   5.829
 7946SOL    HW224738   1.860   2.114   5.921
 7947SOL     OW24739   4.510   2.966   6.573
 7947SOL    HW124740   4.530   2.875   6.608
 7947SOL    HW224741   4.593   3.022   6.575
 7948SOL     OW24742   6.933   6.430   0.788
 7948SOL    HW124743   6.919   6.510   0.847
 7948SOL    HW224744   7.007   6.449   0.723
 7949SOL     OW24745   5.315   4.794   3.741
 7949SOL    HW124746   5.273   4.710   3.706
 7949SOL    HW224747   5.250   4.870   3.734
 7950SOL     OW24748   4.067   5.096   4.126
 7950SOL    HW124749   4.029   5.188   4.139
 7950SOL    HW224750   4.166   5.098   4.141
 7951SOL     OW24751   3.393   3.510   0.796
 7951SOL    HW124752   3.482   3.490   0.754
 7951SOL    HW224753   3.354   3.425   0.832
 7952SOL     OW24754   6.023   3.164   0.754
 7952SOL    HW124755   5.963   3.105   0.808
 7952SOL    HW224756   5.985   3.174   0.661
 7953SOL     OW24757   2.403   2.663   3.159
 7953SOL    HW124758   2.395   2.702   3.067
 7953SOL    HW224759   2.485   2.606   3.163
 7954SOL     OW24760   4.222   5.386   4.625
 7954SOL    HW124761   4.194   5.318   4.557
 7954SOL    HW224762   4.291   5.447   4.585
 7955SOL     OW24763   0.440   6.099   6.395
 7955SOL    HW124764   0.453   6.000   6.388
 7955SOL    HW224765   0.476   6.144   6.314
 7956SOL     OW24766   6.256   6.191   4.326
 7956SOL    HW124767   6.330   6.201   4.393
 7956SOL    HW224768   6.247   6.095   4.300
 7957SOL     OW24769   1.364   1.320   1.205
 7957SOL    HW124770   1.361   1.384   1.281
 7957SOL    HW224771   1.271   1.299   1.176
 7958SOL     OW24772   2.905   4.850   2.941
 7958SOL    HW124773   2.861   4.813   2.859
 7958SOL    HW224774   3.004   4.835   2.934
 7959SOL     OW24775   6.389   4.896   0.395
 7959SOL    HW124776   6.444   4.963   0.444
 7959SOL    HW224777   6.340   4.838   0.461
 7960SOL     OW24778   2.420   1.394   1.497
 7960SOL    HW124779   2.484   1.441   1.558
 7960SOL    HW224780   2.460   1.385   1.406
 7961SOL     OW24781   1.431   5.861   6.119
 7961SOL    HW124782   1.352   5.878   6.060
 7961SOL    HW224783   1.514   5.893   6.073
 7962SOL     OW24784   1.630   0.892   2.086
 7962SOL    HW124785   1.565   0.946   2.140
 7962SOL    HW224786   1.670   0.949   2.015
 7963SOL     OW24787   0.955   0.753   5.659
 7963SOL    HW124788   0.899   0.820   5.707
 7963SOL    HW224789   0.951   0.665   5.708
 7964SOL     OW24790   5.726   5.290   3.521
 7964SOL    HW124791   5.630   5.293   3.549
 7964SOL    HW224792   5.780   5.241   3.589
 7965SOL     OW24793   5.078   2.403   0.265
 7965SOL    HW124794   5.142   2.426   0.192
 7965SOL    HW224795   4.985   2.408   0.230
 7966SOL     OW24796   0.037   4.783   4.138
 7966SOL    HW124797   0.116   4.724   4.123
 7966SOL    HW224798   0.045   4.829   4.226
 7967SOL     OW24799   3.211   6.717   2.390
 7967SOL    HW124800   3.143   6.646   2.373
 7967SOL    HW224801   3.251   6.745   2.303
 7968SOL     OW24802   2.130   2.365   3.222
 7968SOL    HW124803   2.224   2.334   3.234
 7968SOL    HW224804   2.127   2.436   3.151
 7969SOL     OW24805   3.420   1.444   3.262
 7969SOL    HW124806   3.495   1.511   3.269
 7969SOL    HW224807   3.447   1.360   3.309
 7970SOL     OW24808   0.496   4.358   3.095
 7970SOL    HW124809   0.436   4.436   3.076
 7970SOL    HW224810   0.515   4.309   3.010
 7971SOL     OW24811   3.343   0.258   0.980
 7971SOL    HW124812   3.289   0.313   1.043
 7971SOL    HW224813   3.440   0.280   0.991
 7972SOL     OW24814   0.203   4.543   1.737
 7972SOL    HW124815   0.251   4.607   1.796
 7972SOL    HW224816   0.109   4.532   1.769
 7973SOL     OW24817   4.881   3.206   3.629
 7973SOL    HW124818   4.838   3.226   3.541
 7973SOL    HW224819   4.951   3.275   3.648
 7974SOL     OW24820   5.225   0.520   4.200
 7974SOL    HW124821   5.202   0.437   4.250
 7974SOL    HW224822   5.318   0.512   4.164
 7975SOL     OW24823   3.366   1.157   4.261
 7975SOL    HW124824   3.454   1.114   4.283
 7975SOL    HW224825   3.382   1.250   4.227
 7976SOL     OW24826   0.927   6.065   5.429
 7976SOL    HW124827   1.013   6.052   5.478
 7976SOL    HW224828   0.860   6.109   5.489
 7977SOL     OW24829   5.520   6.361   1.518
 7977SOL    HW124830   5.593   6.344   1.452
 7977SOL    HW224831   5.433   6.369   1.469
 7978SOL     OW24832   4.531   3.778   5.919
 7978SOL    HW124833   4.603   3.719   5.882
 7978SOL    HW224834   4.546   3.872   5.888
 7979SOL     OW24835   2.797   0.194   3.994
 7979SOL    HW124836   2.820   0.282   4.037
 7979SOL    HW224837   2.853   0.122   4.033
 7980SOL     OW24838   3.222   5.945   0.066
 7980SOL    HW124839   3.217   5.899   0.155
 7980SOL    HW224840   3.273   5.887   0.002
 7981SOL     OW24841   1.188   5.111   2.722
 7981SOL    HW124842   1.163   5.199   2.763
 7981SOL    HW224843   1.186   5.118   2.622
 7982SOL     OW24844   6.479   2.241   0.448
 7982SOL    HW124845   6.530   2.280   0.371
 7982SOL    HW224846   6.482   2.303   0.525
 7983SOL     OW24847   5.290   1.941   2.275
 7983SOL    HW124848   5.251   1.960   2.365
 7983SOL    HW224849   5.373   1.995   2.262
 7984SOL     OW24850   0.313   2.241   2.202
 7984SOL    HW124851   0.255   2.199   2.132
 7984SOL    HW224852   0.370   2.312   2.159
 7985SOL     OW24853   0.738   1.445   2.651
 7985SOL    HW124854   0.784   1.423   2.737
 7985SOL    HW224855   0.805   1.481   2.586
 7986SOL     OW24856   4.156   0.790   6.564
 7986SOL    HW124857   4.228   0.855   6.589
 7986SOL    HW224858   4.165   0.766   6.468
 7987SOL     OW24859   0.642   2.619   5.446
 7987SOL    HW124860   0.705   2.543   5.461
 7987SOL    HW224861   0.606   2.615   5.353
 7988SOL     OW24862   2.662   1.919   4.598
 7988SOL    HW124863   2.755   1.899   4.568
 7988SOL    HW224864   2.665   1.966   4.687
 7989SOL     OW24865   3.261   2.443   5.762
 7989SOL    HW124866   3.194   2.517   5.753
 7989SOL    HW224867   3.317   2.439   5.679
 7990SOL     OW24868   1.105   2.495   4.666
 7990SOL    HW124869   1.097   2.420   4.733
 7990SOL    HW224870   1.193   2.540   4.677
 7991SOL     OW24871   0.371   2.625   6.122
 7991SOL    HW124872   0.463   2.652   6.147
 7991SOL    HW224873   0.317   2.610   6.205
 7992SOL     OW24874   1.896   0.172   0.703
 7992SOL    HW124875   1.817   0.197   0.759
 7992SOL    HW224876   1.870   0.171   0.607
 7993SOL     OW24877   1.923   6.005   6.695
 7993SOL    HW124878   2.008   6.058   6.697
 7993SOL    HW224879   1.923   5.939   6.770
 7994SOL     OW24880   4.913   1.259   3.632
 7994SOL    HW124881   4.989   1.323   3.627
 7994SOL    HW224882   4.834   1.297   3.585
 7995SOL     OW24883   2.967   5.224   3.960
 7995SOL    HW124884   2.923   5.188   4.043
 7995SOL    HW224885   2.933   5.173   3.880
 7996SOL     OW24886   3.590   6.897   4.898
 7996SOL    HW124887   3.613   6.990   4.924
 7996SOL    HW224888   3.528   6.898   4.820
 7997SOL     OW24889   5.921   2.398   0.775
 7997SOL    HW124890   5.841   2.383   0.717
 7997SOL    HW224891   5.893   2.444   0.859
 7998SOL     OW24892   5.573   4.483   0.436
 7998SOL    HW124893   5.543   4.430   0.356
 7998SOL    HW224894   5.654   4.537   0.411
 7999SOL     OW24895   1.788   6.981   5.265
 7999SOL    HW124896   1.855   6.981   5.191
 7999SOL    HW224897   1.775   0.055   5.299
 8000SOL     OW24898   6.186   6.933   5.787
 8000SOL    HW124899   6.159   6.973   5.874
 8000SOL    HW224900   6.184   7.002   5.715
 8001SOL     OW24901   1.920   6.801   1.246
 8001SOL    HW124902   1.914   6.804   1.146
 8001SOL    HW224903   1.840   6.753   1.282
 8002SOL     OW24904   6.003   2.759   4.980
 8002SOL    HW124905   6.046   2.675   5.014
 8002SOL    HW224906   6.022   2.770   4.883
 8003SOL     OW24907   3.502   5.019   3.097
 8003SOL    HW124908   3.563   5.011   3.176
 8003SOL    HW224909   3.418   5.066   3.125
 8004SOL     OW24910   2.174   4.034   2.905
 8004SOL    HW124911   2.213   4.067   2.991
 8004SOL    HW224912   2.182   3.935   2.900
 8005SOL     OW24913   3.284   0.735   1.573
 8005SOL    HW124914   3.365   0.793   1.560
 8005SOL    HW224915   3.286   0.694   1.664
 8006SOL     OW24916   2.771   5.701   0.437
 8006SOL    HW124917   2.804   5.780   0.385
 8006SOL    HW224918   2.681   5.722   0.477
 8007SOL     OW24919   6.994   0.258   4.460
 8007SOL    HW124920   6.997   0.212   4.371
 8007SOL    HW224921   0.044   0.218   4.520
 8008SOL     OW24922   6.205   6.661   0.332
 8008SOL    HW124923   6.134   6.602   0.294
 8008SOL    HW224924   6.240   6.722   0.261
 8009SOL     OW24925   6.772   6.810   3.918
 8009SOL    HW124926   6.809   6.720   3.941
 8009SOL    HW224927   6.795   6.832   3.824
 8010SOL     OW24928   2.146   2.224   0.589
 8010SOL    HW124929   2.102   2.307   0.624
 8010SOL    HW224930   2.111   2.204   0.498
 8011SOL     OW24931   3.280   2.445   0.991
 8011SOL    HW124932   3.216   2.489   1.054
 8011SOL    HW224933   3.327   2.370   1.037
 8012SOL     OW24934   2.332   6.554   1.537
 8012SOL    HW124935   2.360   6.477   1.480
 8012SOL    HW224936   2.381   6.551   1.624
 8013SOL     OW24937   5.574   4.859   4.524
 8013SOL    HW124938   5.493   4.905   4.561
 8013SOL    HW224939   5.556   4.761   4.515
 8014SOL     OW24940   2.317   6.827   6.672
 8014SOL    HW124941   2.325   6.816   6.573
 8014SOL    HW224942   2.378   6.762   6.718
 8015SOL     OW24943   2.524   2.802   0.404
 8015SOL    HW124944   2.563   2.724   0.354
 8015SOL    HW224945   2.448   2.770   0.460
 8016SOL     OW24946   4.250   6.511   6.837
 8016SOL    HW124947   4.170   6.570   6.842
 8016SOL    HW224948   4.331   6.566   6.818
 8017SOL     OW24949   6.303   3.837   4.742
 8017SOL    HW124950   6.275   3.756   4.794
 8017SOL    HW224951   6.222   3.881   4.703
 8018SOL     OW24952   4.813   1.778   5.353
 8018SOL    HW124953   4.831   1.679   5.360
 8018SOL    HW224954   4.724   1.792   5.311
 8019SOL     OW24955   1.718   5.813   0.447
 8019SOL    HW124956   1.726   5.783   0.542
 8019SOL    HW224957   1.787   5.765   0.392
 8020SOL     OW24958   5.042   5.345   6.609
 8020SOL    HW124959   5.125   5.294   6.587
 8020SOL    HW224960   4.962   5.290   6.583
 8021SOL     OW24961   0.673   0.995   0.772
 8021SOL    HW124962   0.590   0.939   0.770
 8021SOL    HW224963   0.747   0.943   0.814
 8022SOL     OW24964   4.445   6.391   3.042
 8022SOL    HW124965   4.345   6.386   3.045
 8022SOL    HW224966   4.484   6.309   3.083
 8023SOL     OW24967   6.192   5.740   2.623
 8023SOL    HW124968   6.278   5.750   2.673
 8023SOL    HW224969   6.200   5.663   2.559
 8024SOL     OW24970   4.678   5.464   5.531
 8024SOL    HW124971   4.619   5.444   5.609
 8024SOL    HW224972   4.643   5.418   5.449
 8025SOL     OW24973   3.729   5.677   6.458
 8025SOL    HW124974   3.820   5.707   6.489
 8025SOL    HW224975   3.740   5.606   6.389
 8026SOL     OW24976   1.682   3.469   6.413
 8026SOL    HW124977   1.767   3.422   6.437
 8026SOL    HW224978   1.677   3.557   6.461
 8027SOL     OW24979   4.598   1.830   5.177
 8027SOL    HW124980   4.619   1.790   5.088
 8027SOL    HW224981   4.499   1.828   5.192
 8028SOL     OW24982   4.875   5.160   6.471
 8028SOL    HW124983   4.908   5.229   6.406
 8028SOL    HW224984   4.896   5.069   6.437
 8029SOL     OW24985   3.979   4.256   0.559
 8029SOL    HW124986   4.035   4.333   0.590
 8029SOL    HW224987   3.886   4.267   0.592
 8030SOL     OW24988   5.637   4.204   5.987
 8030SOL    HW124989   5.584   4.289   5.998
 8030SOL    HW224990   5.594   4.148   5.916
 8031SOL     OW24991   3.873   5.396   1.692
 8031SOL    HW124992   3.833   5.325   1.633
 8031SOL    HW224993   3.802   5.462   1.716
 8032SOL     OW24994   5.237   4.088   5.554
 8032SOL    HW124995   5.164   4.156   5.547
 8032SOL    HW224996   5.235   4.027   5.475
 8033SOL     OW24997   5.863   2.282   0.210
 8033SOL    HW124998   5.948   2.315   0.250
 8033SOL    HW224999   5.793   2.353   0.216
 8034SOL     OW25000   5.392   6.844   4.659
 8034SOL    HW125001   5.477   6.793   4.670
 8034SOL    HW225002   5.395   6.896   4.574
 8035SOL     OW25003   5.454   6.663   6.769
 8035SOL    HW125004   5.465   6.668   6.869
 8035SOL    HW225005   5.536   6.621   6.729
 8036SOL     OW25006   1.959   3.998   1.958
 8036SOL    HW125007   1.877   4.045   1.990
 8036SOL    HW225008   2.040   4.051   1.985
 8037SOL     OW25009   1.433   2.734   0.770
 8037SOL    HW125010   1.416   2.749   0.868
 8037SOL    HW225011   1.523   2.772   0.746
 8038SOL     OW25012   0.147   2.226   3.707
 8038SOL    HW125013   0.221   2.171   3.745
 8038SOL    HW225014   0.085   2.167   3.654
 8039SOL     OW25015   2.033   6.977   3.289
 8039SOL    HW125016   2.013   6.966   3.192
 8039SOL    HW225017   2.123   0.002   3.299
 8040SOL     OW25018   0.594   5.507   0.924
 8040SOL    HW125019   0.597   5.606   0.937
 8040SOL    HW225020   0.669   5.465   0.974
 8041SOL     OW25021   4.393   1.355   0.687
 8041SOL    HW125022   4.331   1.313   0.753
 8041SOL    HW225023   4.481   1.309   0.690
 8042SOL     OW25024   3.304   2.973   2.306
 8042SOL    HW125025   3.257   3.042   2.251
 8042SOL    HW225026   3.298   2.997   2.403
 8043SOL     OW25027   2.747   0.217   1.425
 8043SOL    HW125028   2.685   0.280   1.378
 8043SOL    HW225029   2.733   0.125   1.389
 8044SOL     OW25030   2.916   3.548   1.259
 8044SOL    HW125031   2.959   3.541   1.349
 8044SOL    HW225032   2.986   3.569   1.190
 8045SOL     OW25033   5.890   2.546   3.277
 8045SOL    HW125034   5.905   2.595   3.191
 8045SOL    HW225035   5.930   2.599   3.352
 8046SOL     OW25036   6.042   4.637   5.801
 8046SOL    HW125037   5.946   4.619   5.781
 8046SOL    HW225038   6.080   4.697   5.730
 8047SOL     OW25039   3.679   5.913   4.541
 8047SOL    HW125040   3.645   5.834   4.591
 8047SOL    HW225041   3.777   5.903   4.524
 8048SOL     OW25042   6.471   0.057   5.603
 8048SOL    HW125043   6.403   0.110   5.653
 8048SOL    HW225044   6.563   0.094   5.621
 8049SOL     OW25045   1.240   6.742   1.154
 8049SOL    HW125046   1.200   6.700   1.235
 8049SOL    HW225047   1.325   6.789   1.179
 8050SOL     OW25048   1.693   3.082   0.931
 8050SOL    HW125049   1.644   3.133   1.001
 8050SOL    HW225050   1.790   3.081   0.952
 8051SOL     OW25051   4.843   0.904   3.289
 8051SOL    HW125052   4.784   0.982   3.268
 8051SOL    HW225053   4.921   0.935   3.343
 8052SOL     OW25054   3.138   1.846   2.835
 8052SOL    HW125055   3.233   1.844   2.868
 8052SOL    HW225056   3.076   1.823   2.909
 8053SOL     OW25057   3.701   3.958   2.986
 8053SOL    HW125058   3.779   3.951   2.924
 8053SOL    HW225059   3.733   3.990   3.075
 8054SOL     OW25060   4.700   6.876   4.236
 8054SOL    HW125061   4.716   6.845   4.329
 8054SOL    HW225062   4.700   6.976   4.233
 8055SOL     OW25063   1.719   6.910   5.976
 8055SOL    HW125064   1.721   6.986   6.041
 8055SOL    HW225065   1.637   6.917   5.919
 8056SOL     OW25066   4.316   1.724   2.778
 8056SOL    HW125067   4.283   1.755   2.868
 8056SOL    HW225068   4.238   1.688   2.726
 8057SOL     OW25069   3.324   6.994   3.412
 8057SOL    HW125070   3.310   0.047   3.344
 8057SOL    HW225071   3.244   6.988   3.472
 8058SOL     OW25072   3.146   0.728   2.316
 8058SOL    HW125073   3.047   0.726   2.305
 8058SOL    HW225074   3.169   0.769   2.404
 8059SOL     OW25075   3.131   2.195   4.704
 8059SOL    HW125076   3.113   2.234   4.795
 8059SOL    HW225077   3.229   2.177   4.695
 8060SOL     OW25078   6.465   0.779   4.854
 8060SOL    HW125079   6.461   0.762   4.755
 8060SOL    HW225080   6.450   0.877   4.870
 8061SOL     OW25081   6.575   5.547   3.316
 8061SOL    HW125082   6.613   5.578   3.228
 8061SOL    HW225083   6.646   5.549   3.386
 8062SOL     OW25084   1.337   4.152   3.982
 8062SOL    HW125085   1.320   4.186   3.890
 8062SOL    HW225086   1.408   4.081   3.978
 8063SOL     OW25087   3.157   3.027   6.592
 8063SOL    HW125088   3.210   2.983   6.520
 8063SOL    HW225089   3.067   3.054   6.557
 8064SOL     OW25090   0.190   3.512   0.304
 8064SOL    HW125091   0.095   3.520   0.332
 8064SOL    HW225092   0.233   3.603   0.305
 8065SOL     OW25093   4.955   0.190   4.177
 8065SOL    HW125094   5.040   0.211   4.226
 8065SOL    HW225095   4.977   0.139   4.094
 8066SOL     OW25096   1.846   0.879   1.467
 8066SOL    HW125097   1.944   0.888   1.486
 8066SOL    HW225098   1.801   0.839   1.547
 8067SOL     OW25099   4.829   2.542   1.600
 8067SOL    HW125100   4.857   2.448   1.621
 8067SOL    HW225101   4.730   2.546   1.590
 8068SOL     OW25102   1.038   4.241   4.957
 8068SOL    HW125103   1.123   4.268   5.002
 8068SOL    HW225104   0.988   4.177   5.016
 8069SOL     OW25105   1.311   6.245   1.667
 8069SOL    HW125106   1.328   6.283   1.757
 8069SOL    HW225107   1.228   6.189   1.669
 8070SOL     OW25108   3.936   6.515   1.522
 8070SOL    HW125109   3.940   6.415   1.530
 8070SOL    HW225110   3.874   6.551   1.592
 8071SOL     OW25111   3.370   0.362   6.064
 8071SOL    HW125112   3.432   0.304   6.116
 8071SOL    HW225113   3.373   0.335   5.967
 8072SOL     OW25114   5.135   1.601   0.631
 8072SOL    HW125115   5.203   1.642   0.691
 8072SOL    HW225116   5.155   1.504   0.617
 8073SOL     OW25117   4.117   6.462   5.799
 8073SOL    HW125118   4.181   6.519   5.850
 8073SOL    HW225119   4.120   6.487   5.702
 8074SOL     OW25120   3.285   3.563   0.033
 8074SOL    HW125121   3.300   3.633   6.982
 8074SOL    HW225122   3.286   3.606   0.124
 8075SOL     OW25123   6.897   1.121   2.902
 8075SOL    HW125124   6.825   1.167   2.848
 8075SOL    HW225125   6.871   1.026   2.918
 8076SOL     OW25126   5.881   2.678   5.369
 8076SOL    HW125127   5.842   2.629   5.290
 8076SOL    HW225128   5.970   2.716   5.343
 8077SOL     OW25129   1.099   0.142   1.078
 8077SOL    HW125130   1.023   0.126   1.142
 8077SOL    HW225131   1.183   0.158   1.130
 8078SOL     OW25132   6.203   2.590   0.998
 8078SOL    HW125133   6.123   2.647   0.983
 8078SOL    HW225134   6.212   2.569   1.096
 8079SOL     OW25135   6.729   1.954   2.375
 8079SOL    HW125136   6.682   2.041   2.393
 8079SOL    HW225137   6.679   1.903   2.305
 8080SOL     OW25138   2.976   4.183   0.547
 8080SOL    HW125139   2.985   4.084   0.547
 8080SOL    HW225140   3.032   4.222   0.474
 8081SOL     OW25141   5.976   0.569   5.161
 8081SOL    HW125142   5.942   0.493   5.217
 8081SOL    HW225143   5.989   0.538   5.067
 8082SOL     OW25144   7.004   2.501   3.724
 8082SOL    HW125145   7.013   2.444   3.806
 8082SOL    HW225146   6.917   2.482   3.680
 8083SOL     OW25147   4.588   2.399   3.268
 8083SOL    HW125148   4.643   2.472   3.307
 8083SOL    HW225149   4.514   2.376   3.331
 8084SOL     OW25150   0.053   6.666   1.619
 8084SOL    HW125151   6.973   6.679   1.627
 8084SOL    HW225152   0.071   6.578   1.577
 8085SOL     OW25153   5.852   0.641   1.125
 8085SOL    HW125154   5.794   0.588   1.186
 8085SOL    HW225155   5.819   0.633   1.031
 8086SOL     OW25156   3.776   0.908   5.027
 8086SOL    HW125157   3.845   0.924   4.957
 8086SOL    HW225158   3.696   0.967   5.011
 8087SOL     OW25159   2.745   2.397   1.351
 8087SOL    HW125160   2.709   2.469   1.291
 8087SOL    HW225161   2.782   2.438   1.434
 8088SOL     OW25162   4.659   1.079   2.617
 8088SOL    HW125163   4.625   1.140   2.689
 8088SOL    HW225164   4.626   1.110   2.528
 8089SOL     OW25165   5.386   3.184   0.357
 8089SOL    HW125166   5.381   3.278   0.325
 8089SOL    HW225167   5.344   3.123   0.290
 8090SOL     OW25168   5.086   1.675   5.547
 8090SOL    HW125169   5.050   1.763   5.578
 8090SOL    HW225170   5.145   1.690   5.468
 8091SOL     OW25171   2.578   4.589   5.933
 8091SOL    HW125172   2.486   4.629   5.942
 8091SOL    HW225173   2.615   4.571   6.024
 8092SOL     OW25174   1.455   1.497   4.482
 8092SOL    HW125175   1.434   1.561   4.408
 8092SOL    HW225176   1.437   1.540   4.570
 8093SOL     OW25177   5.603   5.434   0.782
 8093SOL    HW125178   5.668   5.426   0.857
 8093SOL    HW225179   5.607   5.527   0.745
 8094SOL     OW25180   1.139   4.125   6.026
 8094SOL    HW125181   1.086   4.159   6.104
 8094SOL    HW225182   1.221   4.180   6.015
 8095SOL     OW25183   5.473   3.296   4.451
 8095SOL    HW125184   5.497   3.351   4.371
 8095SOL    HW225185   5.506   3.202   4.438
 8096SOL     OW25186   3.619   6.386   1.826
 8096SOL    HW125187   3.696   6.323   1.817
 8096SOL    HW225188   3.559   6.377   1.746
 8097SOL     OW25189   5.057   1.077   3.399
 8097SOL    HW125190   5.016   1.153   3.448
 8097SOL    HW225191   5.136   1.043   3.450
 8098SOL     OW25192   2.939   6.367   3.932
 8098SOL    HW125193   2.975   6.452   3.894
 8098SOL    HW225194   2.840   6.365   3.920
 8099SOL     OW25195   4.452   6.936   5.214
 8099SOL    HW125196   4.454   6.903   5.120
 8099SOL    HW225197   4.448   6.858   5.277
 8100SOL     OW25198   0.113   6.568   0.611
 8100SOL    HW125199   0.160   6.656   0.600
 8100SOL    HW225200   0.041   6.560   0.543
 8101SOL     OW25201   1.481   6.398   3.511
 8101SOL    HW125202   1.465   6.302   3.536
 8101SOL    HW225203   1.517   6.402   3.418
 8102SOL     OW25204   6.744   5.699   5.950
 8102SOL    HW125205   6.837   5.690   5.916
 8102SOL    HW225206   6.688   5.624   5.915
 8103SOL     OW25207   3.428   1.428   2.419
 8103SOL    HW125208   3.496   1.464   2.482
 8103SOL    HW225209   3.473   1.379   2.345
 8104SOL     OW25210   2.677   6.949   6.544
 8104SOL    HW125211   2.598   7.001   6.511
 8104SOL    HW225212   2.704   6.882   6.475
 8105SOL     OW25213   2.376   1.879   3.405
 8105SOL    HW125214   2.432   1.962   3.413
 8105SOL    HW225215   2.433   1.799   3.422
 8106SOL     OW25216   1.034   4.117   4.008
 8106SOL    HW125217   1.030   4.031   4.059
 8106SOL    HW225218   1.129   4.148   4.003
 8107SOL     OW25219   2.150   6.545   5.843
 8107SOL    HW125220   2.132   6.448   5.856
 8107SOL    HW225221   2.245   6.558   5.814
 8108SOL     OW25222   1.034   3.235   4.233
 8108SOL    HW125223   1.116   3.177   4.240
 8108SOL    HW225224   0.980   3.225   4.317
 8109SOL     OW25225   1.449   4.649   4.671
 8109SOL    HW125226   1.432   4.716   4.743
 8109SOL    HW225227   1.423   4.558   4.702
 8110SOL     OW25228   2.521   5.821   0.552
 8110SOL    HW125229   2.424   5.795   0.546
 8110SOL    HW225230   2.560   5.783   0.636
 8111SOL     OW25231   3.099   5.186   4.652
 8111SOL    HW125232   3.144   5.139   4.728
 8111SOL    HW225233   3.030   5.126   4.612
 8112SOL     OW25234   2.343   0.875   4.842
 8112SOL    HW125235   2.316   0.968   4.818
 8112SOL    HW225236   2.329   0.861   4.940
 8113SOL     OW25237   3.619   2.502   6.249
 8113SOL    HW125238   3.614   2.588   6.300
 8113SOL    HW225239   3.639   2.521   6.153
 8114SOL     OW25240   2.119   3.066   2.129
 8114SOL    HW125241   2.169   3.057   2.043
 8114SOL    HW225242   2.065   3.150   2.128
 8115SOL     OW25243   3.272   1.714   1.293
 8115SOL    HW125244   3.259   1.615   1.291
 8115SOL    HW225245   3.208   1.755   1.358
 8116SOL     OW25246   6.009   0.288   5.296
 8116SOL    HW125247   5.947   0.243   5.360
 8116SOL    HW225248   6.103   0.274   5.326
 8117SOL     OW25249   1.550   1.713   5.266
 8117SOL    HW125250   1.631   1.749   5.313
 8117SOL    HW225251   1.552   1.741   5.170
 8118SOL     OW25252   0.783   3.303   5.361
 8118SOL    HW125253   0.822   3.212   5.377
 8118SOL    HW225254   0.802   3.331   5.267
 8119SOL     OW25255   0.716   6.393   2.873
 8119SOL    HW125256   0.701   6.364   2.967
 8119SOL    HW225257   0.654   6.344   2.812
 8120SOL     OW25258   4.389   4.100   1.033
 8120SOL    HW125259   4.455   4.047   1.087
 8120SOL    HW225260   4.298   4.059   1.042
 8121SOL     OW25261   6.467   0.781   2.502
 8121SOL    HW125262   6.546   0.726   2.472
 8121SOL    HW225263   6.410   0.725   2.562
 8122SOL     OW25264   6.540   6.485   2.306
 8122SOL    HW125265   6.451   6.456   2.271
 8122SOL    HW225266   6.531   6.576   2.347
 8123SOL     OW25267   1.710   6.450   6.895
 8123SOL    HW125268   1.701   6.378   6.826
 8123SOL    HW225269   1.674   6.536   6.860
 8124SOL     OW25270   1.118   6.050   1.673
 8124SOL    HW125271   1.105   6.056   1.574
 8124SOL    HW225272   1.178   5.973   1.694
 8125SOL     OW25273   5.852   5.000   2.844
 8125SOL    HW125274   5.854   4.949   2.758
 8125SOL    HW225275   5.869   4.937   2.920
 8126SOL     OW25276   5.684   4.442   2.643
 8126SOL    HW125277   5.674   4.541   2.630
 8126SOL    HW225278   5.716   4.400   2.558
 8127SOL     OW25279   2.214   4.974   7.003
 8127SOL    HW125280   2.310   5.000   7.005
 8127SOL    HW225281   2.180   4.961   0.077
 8128SOL     OW25282   3.629   2.486   5.357
 8128SOL    HW125283   3.722   2.466   5.328
 8128SOL    HW225284   3.601   2.574   5.319
 8129SOL     OW25285   5.436   0.466   6.186
 8129SOL    HW125286   5.454   0.431   6.094
 8129SOL    HW225287   5.418   0.564   6.181
 8130SOL     OW25288   1.687   6.192   6.769
 8130SOL    HW125289   1.737   6.112   6.736
 8130SOL    HW225290   1.618   6.163   6.835
 8131SOL     OW25291   2.935   1.028   0.597
 8131SOL    HW125292   2.873   1.009   0.520
 8131SOL    HW225293   2.892   1.000   0.682
 8132SOL     OW25294   6.207   5.190   3.975
 8132SOL    HW125295   6.180   5.276   3.931
 8132SOL    HW225296   6.235   5.124   3.906
 8133SOL     OW25297   2.093   5.456   2.429
 8133SOL    HW125298   2.120   5.429   2.337
 8133SOL    HW225299   2.118   5.552   2.444
 8134SOL     OW25300   2.254   2.387   3.701
 8134SOL    HW125301   2.231   2.475   3.741
 8134SOL    HW225302   2.209   2.377   3.613
 8135SOL     OW25303   4.145   5.534   1.937
 8135SOL    HW125304   4.235   5.574   1.922
 8135SOL    HW225305   4.136   5.506   2.032
 8136SOL     OW25306   4.103   5.821   2.162
 8136SOL    HW125307   4.036   5.774   2.104
 8136SOL    HW225308   4.191   5.774   2.156
 8137SOL     OW25309   2.309   4.285   4.835
 8137SOL    HW125310   2.221   4.329   4.857
 8137SOL    HW225311   2.318   4.201   4.888
 8138SOL     OW25312   4.835   0.925   2.740
 8138SOL    HW125313   4.775   0.978   2.682
 8138SOL    HW225314   4.930   0.943   2.715
 8139SOL     OW25315   1.617   1.945   3.329
 8139SOL    HW125316   1.640   2.004   3.406
 8139SOL    HW225317   1.562   1.996   3.263
 8140SOL     OW25318   4.897   0.890   0.844
 8140SOL    HW125319   4.900   0.882   0.944
 8140SOL    HW225320   4.802   0.887   0.813
 8141SOL     OW25321   4.903   1.237   5.672
 8141SOL    HW125322   4.859   1.203   5.589
 8141SOL    HW225323   4.839   1.297   5.721
 8142SOL     OW25324   2.232   5.448   0.536
 8142SOL    HW125325   2.267   5.358   0.512
 8142SOL    HW225326   2.178   5.441   0.620
 8143SOL     OW25327   5.586   4.610   0.822
 8143SOL    HW125328   5.571   4.618   0.920
 8143SOL    HW225329   5.548   4.524   0.789
 8144SOL     OW25330   6.978   4.668   6.100
 8144SOL    HW125331   0.006   4.589   6.060
 8144SOL    HW225332   6.887   4.640   6.130
 8145SOL     OW25333   5.094   5.711   6.855
 8145SOL    HW125334   5.066   5.806   6.869
 8145SOL    HW225335   5.073   5.684   6.761
 8146SOL     OW25336   5.856   0.373   4.552
 8146SOL    HW125337   5.824   0.462   4.586
 8146SOL    HW225338   5.934   0.342   4.606
 8147SOL     OW25339   1.745   0.913   5.927
 8147SOL    HW125340   1.651   0.882   5.913
 8147SOL    HW225341   1.761   0.927   6.025
 8148SOL     OW25342   3.885   5.019   0.321
 8148SOL    HW125343   3.940   4.975   0.250
 8148SOL    HW225344   3.793   4.981   0.321
 8149SOL     OW25345   1.230   6.276   4.803
 8149SOL    HW125346   1.214   6.352   4.867
 8149SOL    HW225347   1.142   6.240   4.771
 8150SOL     OW25348   0.986   3.034   0.655
 8150SOL    HW125349   0.969   2.987   0.568
 8150SOL    HW225350   0.911   3.096   0.675
 8151SOL     OW25351   6.246   4.515   3.545
 8151SOL    HW125352   6.214   4.439   3.603
 8151SOL    HW225353   6.255   4.597   3.601
 8152SOL     OW25354   4.681   1.777   3.133
 8152SOL    HW125355   4.659   1.727   3.217
 8152SOL    HW225356   4.709   1.870   3.156
 8153SOL     OW25357   0.061   2.071   4.056
 8153SOL    HW125358   0.081   1.989   4.003
 8153SOL    HW225359   0.086   2.152   4.004
 8154SOL     OW25360   1.975   1.274   3.648
 8154SOL    HW125361   2.017   1.358   3.612
 8154SOL    HW225362   2.030   1.195   3.622
 8155SOL     OW25363   1.690   5.242   2.331
 8155SOL    HW125364   1.692   5.144   2.312
 8155SOL    HW225365   1.614   5.262   2.394
 8156SOL     OW25366   6.427   5.369   1.570
 8156SOL    HW125367   6.378   5.283   1.561
 8156SOL    HW225368   6.524   5.354   1.552
 8157SOL     OW25369   6.793   2.744   6.161
 8157SOL    HW125370   6.779   2.646   6.173
 8157SOL    HW225371   6.883   2.760   6.118
 8158SOL     OW25372   5.585   4.822   6.580
 8158SOL    HW125373   5.580   4.894   6.511
 8158SOL    HW225374   5.662   4.761   6.559
 8159SOL     OW25375   2.941   6.035   5.336
 8159SOL    HW125376   2.959   6.117   5.392
 8159SOL    HW225377   3.018   5.972   5.343
 8160SOL     OW25378   5.241   1.489   3.213
 8160SOL    HW125379   5.159   1.531   3.252
 8160SOL    HW225380   5.217   1.400   3.175
 8161SOL     OW25381   5.841   3.070   0.924
 8161SOL    HW125382   5.895   3.085   1.007
 8161SOL    HW225383   5.761   3.014   0.946
 8162SOL     OW25384   0.376   4.641   6.245
 8162SOL    HW125385   0.467   4.639   6.287
 8162SOL    HW225386   0.324   4.562   6.277
 8163SOL     OW25387   4.654   4.710   5.162
 8163SOL    HW125388   4.736   4.654   5.163
 8163SOL    HW225389   4.674   4.799   5.205
 8164SOL     OW25390   5.271   1.306   6.962
 8164SOL    HW125391   5.364   1.275   6.946
 8164SOL    HW225392   5.209   1.262   6.897
 8165SOL     OW25393   0.007   1.979   6.621
 8165SOL    HW125394   7.007   2.076   6.635
 8165SOL    HW225395   6.941   1.927   6.627
 8166SOL     OW25396   1.555   2.004   4.788
 8166SOL    HW125397   1.647   1.983   4.755
 8166SOL    HW225398   1.557   2.089   4.841
 8167SOL     OW25399   0.553   2.800   4.385
 8167SOL    HW125400   0.487   2.856   4.335
 8167SOL    HW225401   0.584   2.725   4.326
 8168SOL     OW25402   2.559   0.817   1.874
 8168SOL    HW125403   2.657   0.836   1.884
 8168SOL    HW225404   2.545   0.718   1.866
 8169SOL     OW25405   5.406   2.924   1.349
 8169SOL    HW125406   5.456   3.007   1.325
 8169SOL    HW225407   5.320   2.949   1.395
 8170SOL     OW25408   6.419   4.828   2.507
 8170SOL    HW125409   6.366   4.912   2.501
 8170SOL    HW225410   6.471   4.814   2.423
 8171SOL     OW25411   1.796   1.137   0.674
 8171SOL    HW125412   1.698   1.120   0.658
 8171SOL    HW225413   1.813   1.235   0.674
 8172SOL     OW25414   0.787   2.776   1.706
 8172SOL    HW125415   0.849   2.735   1.639
 8172SOL    HW225416   0.826   2.767   1.797
 8173SOL     OW25417   5.509   1.175   1.663
 8173SOL    HW125418   5.488   1.270   1.640
 8173SOL    HW225419   5.599   1.151   1.626
 8174SOL     OW25420   2.759   5.307   2.494
 8174SOL    HW125421   2.765   5.211   2.466
 8174SOL    HW225422   2.694   5.355   2.436
 8175SOL     OW25423   0.467   1.681   4.691
 8175SOL    HW125424   0.504   1.769   4.720
 8175SOL    HW225425   0.389   1.696   4.630
 8176SOL     OW25426   1.946   4.257   1.083
 8176SOL    HW125427   1.987   4.168   1.060
 8176SOL    HW225428   2.017   4.327   1.082
 8177SOL     OW25429   3.855   1.419   2.709
 8177SOL    HW125430   3.840   1.409   2.611
 8177SOL    HW225431   3.810   1.344   2.757
 8178SOL     OW25432   2.101   6.592   0.601
 8178SOL    HW125433   2.179   6.570   0.660
 8178SOL    HW225434   2.097   6.691   0.587
 8179SOL     OW25435   5.373   0.999   3.269
 8179SOL    HW125436   5.427   1.017   3.187
 8179SOL    HW225437   5.433   0.977   3.345
 8180SOL     OW25438   4.431   6.523   0.041
 8180SOL    HW125439   4.518   6.495   0.001
 8180SOL    HW225440   4.356   6.480   7.010
 8181SOL     OW25441   0.537   0.640   1.035
 8181SOL    HW125442   0.514   0.681   0.947
 8181SOL    HW225443   0.588   0.705   1.091
 8182SOL     OW25444   2.958   3.380   4.301
 8182SOL    HW125445   2.883   3.393   4.236
 8182SOL    HW225446   3.015   3.462   4.302
 8183SOL     OW25447   6.825   0.129   5.301
 8183SOL    HW125448   6.845   0.122   5.204
 8183SOL    HW225449   6.726   0.140   5.314
 8184SOL     OW25450   0.731   6.186   6.803
 8184SOL    HW125451   0.732   6.102   6.858
 8184SOL    HW225452   0.824   6.220   6.792
 8185SOL     OW25453   0.850   6.998   0.131
 8185SOL    HW125454   0.801   0.018   0.053
 8185SOL    HW225455   0.924   6.939   0.097
 8186SOL     OW25456   1.420   5.310   6.881
 8186SOL    HW125457   1.501   5.333   6.828
 8186SOL    HW225458   1.444   5.245   6.953
 8187SOL     OW25459   1.347   0.788   6.141
 8187SOL    HW125460   1.340   0.690   6.158
 8187SOL    HW225461   1.255   0.828   6.142
 8188SOL     OW25462   2.617   1.990   3.770
 8188SOL    HW125463   2.520   2.015   3.770
 8188SOL    HW225464   2.673   2.073   3.774
 8189SOL     OW25465   4.971   4.392   3.803
 8189SOL    HW125466   4.911   4.446   3.744
 8189SOL    HW225467   5.064   4.395   3.767
 8190SOL     OW25468   6.399   3.831   3.278
 8190SOL    HW125469   6.319   3.780   3.248
 8190SOL    HW225470   6.463   3.768   3.322
 8191SOL     OW25471   4.076   5.139   1.652
 8191SOL    HW125472   3.984   5.155   1.617
 8191SOL    HW225473   4.130   5.090   1.585
 8192SOL     OW25474   1.280   5.147   3.864
 8192SOL    HW125475   1.321   5.056   3.856
 8192SOL    HW225476   1.352   5.216   3.859
 8193SOL     OW25477   0.652   4.034   4.988
 8193SOL    HW125478   0.719   4.068   4.922
 8193SOL    HW225479   0.699   4.004   5.071
 8194SOL     OW25480   4.809   6.577   1.897
 8194SOL    HW125481   4.844   6.634   1.972
 8194SOL    HW225482   4.716   6.549   1.918
 8195SOL     OW25483   5.538   6.477   3.102
 8195SOL    HW125484   5.536   6.496   3.004
 8195SOL    HW225485   5.622   6.515   3.141
 8196SOL     OW25486   4.323   0.116   0.243
 8196SOL    HW125487   4.410   0.110   0.193
 8196SOL    HW225488   4.291   0.211   0.242
 8197SOL     OW25489   4.974   1.905   1.812
 8197SOL    HW125490   4.908   1.862   1.873
 8197SOL    HW225491   5.028   1.972   1.862
 8198SOL     OW25492   1.878   0.424   2.415
 8198SOL    HW125493   1.836   0.430   2.324
 8198SOL    HW225494   1.806   0.416   2.484
 8199SOL     OW25495   5.430   2.795   5.837
 8199SOL    HW125496   5.507   2.768   5.780
 8199SOL    HW225497   5.436   2.892   5.858
 8200SOL     OW25498   4.333   3.148   1.162
 8200SOL    HW125499   4.273   3.071   1.143
 8200SOL    HW225500   4.359   3.147   1.259
 8201SOL     OW25501   0.390   0.110   5.463
 8201SOL    HW125502   0.480   0.151   5.447
 8201SOL    HW225503   0.344   0.096   5.375
 8202SOL     OW25504   0.621   6.198   2.322
 8202SOL    HW125505   0.526   6.230   2.325
 8202SOL    HW225506   0.624   6.100   2.341
 8203SOL     OW25507   1.190   3.269   0.955
 8203SOL    HW125508   1.195   3.217   0.869
 8203SOL    HW225509   1.124   3.343   0.946
 8204SOL     OW25510   4.419   3.138   1.416
 8204SOL    HW125511   4.339   3.150   1.474
 8204SOL    HW225512   4.501   3.130   1.473
 8205SOL     OW25513   0.958   3.525   0.602
 8205SOL    HW125514   0.937   3.584   0.524
 8205SOL    HW225515   0.996   3.438   0.569
 8206SOL     OW25516   4.236   1.197   6.800
 8206SOL    HW125517   4.140   1.202   6.830
 8206SOL    HW225518   4.251   1.263   6.726
 8207SOL     OW25519   3.941   3.078   4.611
 8207SOL    HW125520   3.898   3.153   4.661
 8207SOL    HW225521   4.009   3.114   4.547
 8208SOL     OW25522   1.401   1.266   0.442
 8208SOL    HW125523   1.441   1.309   0.361
 8208SOL    HW225524   1.414   1.326   0.521
 8209SOL     OW25525   6.440   0.627   5.665
 8209SOL    HW125526   6.507   0.560   5.695
 8209SOL    HW225527   6.486   0.699   5.614
 8210SOL     OW25528   1.810   2.989   0.504
 8210SOL    HW125529   1.897   2.940   0.500
 8210SOL    HW225530   1.826   3.084   0.528
 8211SOL     OW25531   3.056   4.307   0.903
 8211SOL    HW125532   3.060   4.375   0.976
 8211SOL    HW225533   2.968   4.260   0.905
 8212SOL     OW25534   1.731   2.164   3.461
 8212SOL    HW125535   1.825   2.159   3.427
 8212SOL    HW225536   1.677   2.223   3.400
 8213SOL     OW25537   0.324   4.728   1.894
 8213SOL    HW125538   0.346   4.825   1.899
 8213SOL    HW225539   0.287   4.697   1.982
 8214SOL     OW25540   5.845   4.272   3.196
 8214SOL    HW125541   5.861   4.217   3.114
 8214SOL    HW225542   5.774   4.340   3.177
 8215SOL     OW25543   3.688   5.024   5.044
 8215SOL    HW125544   3.757   5.034   4.972
 8215SOL    HW225545   3.621   4.955   5.017
 8216SOL     OW25546   5.083   4.524   4.127
 8216SOL    HW125547   5.046   4.516   4.219
 8216SOL    HW225548   5.061   4.615   4.090
 8217SOL     OW25549   2.201   5.971   0.621
 8217SOL    HW125550   2.159   5.973   0.530
 8217SOL    HW225551   2.278   6.034   0.624
 8218SOL     OW25552   0.148   1.846   0.144
 8218SOL    HW125553   0.237   1.847   0.098
 8218SOL    HW225554   0.109   1.938   0.145
 8219SOL     OW25555   5.494   1.909   6.023
 8219SOL    HW125556   5.493   1.924   5.924
 8219SOL    HW225557   5.424   1.842   6.047
 8220SOL     OW25558   3.623   3.617   2.366
 8220SOL    HW125559   3.577   3.679   2.430
 8220SOL    HW225560   3.719   3.609   2.391
 8221SOL     OW25561   5.456   5.801   3.581
 8221SOL    HW125562   5.441   5.899   3.568
 8221SOL    HW225563   5.511   5.786   3.664
 8222SOL     OW25564   5.917   1.378   1.783
 8222SOL    HW125565   5.893   1.469   1.749
 8222SOL    HW225566   6.016   1.367   1.779
 8223SOL     OW25567   0.755   4.353   6.272
 8223SOL    HW125568   0.714   4.356   6.363
 8223SOL    HW225569   0.696   4.401   6.207
 8224SOL     OW25570   0.991   2.773   2.676
 8224SOL    HW125571   0.969   2.846   2.612
 8224SOL    HW225572   1.090   2.757   2.677
 8225SOL     OW25573   4.811   1.468   6.243
 8225SOL    HW125574   4.825   1.538   6.313
 8225SOL    HW225575   4.882   1.398   6.252
 8226SOL     OW25576   4.864   0.461   1.223
 8226SOL    HW125577   4.780   0.407   1.219
 8226SOL    HW225578   4.846   0.546   1.271
 8227SOL     OW25579   6.436   3.003   3.171
 8227SOL    HW125580   6.492   3.056   3.235
 8227SOL    HW225581   6.340   3.012   3.196
 8228SOL     OW25582   0.285   2.354   5.119
 8228SOL    HW125583   0.348   2.330   5.046
 8228SOL    HW225584   0.202   2.299   5.110
 8229SOL     OW25585   3.148   5.583   6.835
 8229SOL    HW125586   3.180   5.527   6.911
 8229SOL    HW225587   3.048   5.577   6.828
 8230SOL     OW25588   4.674   0.425   4.990
 8230SOL    HW125589   4.660   0.328   5.010
 8230SOL    HW225590   4.595   0.478   5.021
 8231SOL     OW25591   5.378   5.207   1.010
 8231SOL    HW125592   5.385   5.304   0.990
 8231SOL    HW225593   5.325   5.161   0.939
 8232SOL     OW25594   4.020   1.374   0.010
 8232SOL    HW125595   4.113   1.406   0.027
 8232SOL    HW225596   3.988   1.320   0.087
 8233SOL     OW25597   0.803   5.439   6.114
 8233SOL    HW125598   0.861   5.506   6.162
 8233SOL    HW225599   0.814   5.349   6.156
 8234SOL     OW25600   3.316   2.333   6.760
 8234SOL    HW125601   3.393   2.397   6.762
 8234SOL    HW225602   3.254   2.357   6.685
 8235SOL     OW25603   3.968   3.549   1.166
 8235SOL    HW125604   4.010   3.461   1.188
 8235SOL    HW225605   3.971   3.609   1.246
 8236SOL     OW25606   6.649   2.653   0.133
 8236SOL    HW125607   6.730   2.671   0.189
 8236SOL    HW225608   6.624   2.736   0.083
 8237SOL     OW25609   4.063   5.850   5.121
 8237SOL    HW125610   4.039   5.911   5.045
 8237SOL    HW225611   4.134   5.892   5.177
 8238SOL     OW25612   2.314   3.581   7.012
 8238SOL    HW125613   2.289   3.494   6.969
 8238SOL    HW225614   2.405   3.608   6.982
 8239SOL     OW25615   6.842   1.813   5.397
 8239SOL    HW125616   6.852   1.718   5.425
 8239SOL    HW225617   6.757   1.824   5.345
 8240SOL     OW25618   3.087   3.935   2.553
 8240SOL    HW125619   3.122   3.999   2.621
 8240SOL    HW225620   3.032   3.865   2.599
 8241SOL     OW25621   3.412   6.837   0.305
 8241SOL    HW125622   3.362   6.752   0.289
 8241SOL    HW225623   3.492   6.818   0.362
 8242SOL     OW25624   0.704   4.645   5.860
 8242SOL    HW125625   0.627   4.590   5.826
 8242SOL    HW225626   0.679   4.742   5.858
 8243SOL     OW25627   0.314   2.847   5.997
 8243SOL    HW125628   0.310   2.753   6.030
 8243SOL    HW225629   0.240   2.900   6.039
 8244SOL     OW25630   0.839   6.521   4.007
 8244SOL    HW125631   0.740   6.506   3.995
 8244SOL    HW225632   0.886   6.504   3.921
 8245SOL     OW25633   4.522   1.701   0.879
 8245SOL    HW125634   4.522   1.785   0.824
 8245SOL    HW225635   4.611   1.691   0.924
 8246SOL     OW25636   5.657   3.999   6.189
 8246SOL    HW125637   5.703   4.067   6.133
 8246SOL    HW225638   5.710   3.914   6.190
 8247SOL     OW25639   0.705   0.415   1.082
 8247SOL    HW125640   0.641   0.488   1.060
 8247SOL    HW225641   0.757   0.440   1.164
 8248SOL     OW25642   5.963   4.451   3.725
 8248SOL    HW125643   5.898   4.375   3.716
 8248SOL    HW225644   5.954   4.491   3.816
 8249SOL     OW25645   1.879   4.600   4.363
 8249SOL    HW125646   1.974   4.586   4.394
 8249SOL    HW225647   1.817   4.557   4.428
 8250SOL     OW25648   3.252   4.110   3.372
 8250SOL    HW125649   3.280   4.104   3.276
 8250SOL    HW225650   3.333   4.118   3.430
 8251SOL     OW25651   5.173   1.911   4.963
 8251SOL    HW125652   5.147   1.996   4.918
 8251SOL    HW225653   5.273   1.907   4.970
 8252SOL     OW25654   2.879   2.730   5.906
 8252SOL    HW125655   2.836   2.812   5.946
 8252SOL    HW225656   2.830   2.649   5.937
 8253SOL     OW25657   3.254   2.775   5.311
 8253SOL    HW125658   3.195   2.694   5.308
 8253SOL    HW225659   3.199   2.854   5.340
 8254SOL     OW25660   4.077   4.858   4.490
 8254SOL    HW125661   4.153   4.850   4.554
 8254SOL    HW225662   4.112   4.855   4.396
 8255SOL     OW25663   4.298   5.803   4.025
 8255SOL    HW125664   4.287   5.784   4.123
 8255SOL    HW225665   4.396   5.803   4.002
 8256SOL     OW25666   5.248   1.462   4.054
 8256SOL    HW125667   5.161   1.474   4.102
 8256SOL    HW225668   5.239   1.494   3.960
 8257SOL     OW25669   5.503   4.574   3.466
 8257SOL    HW125670   5.569   4.649   3.461
 8257SOL    HW225671   5.531   4.510   3.537
 8258SOL     OW25672   4.911   1.486   0.441
 8258SOL    HW125673   4.883   1.541   0.519
 8258SOL    HW225674   4.986   1.425   0.467
 8259SOL     OW25675   3.411   1.863   3.761
 8259SOL    HW125676   3.408   1.952   3.807
 8259SOL    HW225677   3.355   1.866   3.679
 8260SOL     OW25678   2.776   6.776   2.178
 8260SOL    HW125679   2.789   6.855   2.119
 8260SOL    HW225680   2.855   6.715   2.171
 8261SOL     OW25681   5.846   1.250   1.121
 8261SOL    HW125682   5.774   1.207   1.066
 8261SOL    HW225683   5.819   1.343   1.143
 8262SOL     OW25684   1.154   2.332   1.386
 8262SOL    HW125685   1.078   2.392   1.366
 8262SOL    HW225686   1.240   2.383   1.382
 8263SOL     OW25687   6.949   1.112   1.423
 8263SOL    HW125688   6.937   1.034   1.362
 8263SOL    HW225689   7.008   1.180   1.379
 8264SOL     OW25690   1.253   5.935   2.318
 8264SOL    HW125691   1.204   5.860   2.273
 8264SOL    HW225692   1.222   6.022   2.280
 8265SOL     OW25693   1.691   0.513   1.566
 8265SOL    HW125694   1.593   0.506   1.551
 8265SOL    HW225695   1.740   0.470   1.490
 8266SOL     OW25696   2.508   6.654   3.056
 8266SOL    HW125697   2.490   6.750   3.030
 8266SOL    HW225698   2.560   6.652   3.141
 8267SOL     OW25699   1.703   3.470   1.213
 8267SOL    HW125700   1.621   3.496   1.163
 8267SOL    HW225701   1.732   3.545   1.272
 8268SOL     OW25702   2.241   0.078   6.569
 8268SOL    HW125703   2.169   0.107   6.507
 8268SOL    HW225704   2.224   7.002   6.597
 8269SOL     OW25705   5.532   1.776   1.133
 8269SOL    HW125706   5.598   1.833   1.182
 8269SOL    HW225707   5.548   1.783   1.034
 8270SOL     OW25708   3.542   6.470   4.065
 8270SOL    HW125709   3.490   6.390   4.034
 8270SOL    HW225710   3.485   6.528   4.122
 8271SOL     OW25711   6.752   1.763   2.885
 8271SOL    HW125712   6.845   1.745   2.915
 8271SOL    HW225713   6.695   1.785   2.965
 8272SOL     OW25714   4.393   0.498   2.057
 8272SOL    HW125715   4.432   0.581   2.096
 8272SOL    HW225716   4.425   0.486   1.963
 8273SOL     OW25717   2.121   0.178   1.087
 8273SOL    HW125718   2.195   0.112   1.074
 8273SOL    HW225719   2.133   0.225   1.175
 8274SOL     OW25720   4.029   5.000   3.295
 8274SOL    HW125721   3.970   4.928   3.258
 8274SOL    HW225722   4.067   5.054   3.221
 8275SOL     OW25723   4.643   2.160   5.885
 8275SOL    HW125724   4.630   2.118   5.975
 8275SOL    HW225725   4.733   2.134   5.849
 8276SOL     OW25726   0.904   2.105   4.201
 8276SOL    HW125727   0.829   2.171   4.190
 8276SOL    HW225728   0.991   2.151   4.183
 8277SOL     OW25729   6.820   0.749   6.656
 8277SOL    HW125730   6.776   0.681   6.598
 8277SOL    HW225731   6.772   0.836   6.647
 8278SOL     OW25732   2.567   1.930   0.247
 8278SOL    HW125733   2.659   1.938   0.287
 8278SOL    HW225734   2.521   1.852   0.288
 8279SOL     OW25735   0.721   6.174   4.171
 8279SOL    HW125736   0.809   6.130   4.151
 8279SOL    HW225737   0.679   6.203   4.085
 8280SOL     OW25738   3.291   2.676   6.732
 8280SOL    HW125739   3.359   2.605   6.715
 8280SOL    HW225740   3.264   2.673   6.829
 8281SOL     OW25741   1.023   5.612   1.685
 8281SOL    HW125742   1.026   5.695   1.742
 8281SOL    HW225743   1.008   5.533   1.744
 8282SOL     OW25744   5.533   2.964   6.369
 8282SOL    HW125745   5.564   2.943   6.276
 8282SOL    HW225746   5.606   2.945   6.434
 8283SOL     OW25747   0.935   4.542   6.001
 8283SOL    HW125748   0.847   4.549   5.955
 8283SOL    HW225749   0.922   4.504   6.093
 8284SOL     OW25750   0.672   4.184   1.904
 8284SOL    HW125751   0.633   4.094   1.924
 8284SOL    HW225752   0.631   4.221   1.821
 8285SOL     OW25753   4.031   3.372   5.022
 8285SOL    HW125754   4.000   3.278   5.007
 8285SOL    HW225755   4.060   3.383   5.117
 8286SOL     OW25756   6.554   2.436   5.516
 8286SOL    HW125757   6.633   2.497   5.519
 8286SOL    HW225758   6.505   2.440   5.603
 8287SOL     OW25759   1.029   5.491   4.449
 8287SOL    HW125760   0.942   5.451   4.478
 8287SOL    HW225761   1.042   5.474   4.351
 8288SOL     OW25762   2.628   2.458   2.952
 8288SOL    HW125763   2.631   2.367   2.912
 8288SOL    HW225764   2.680   2.522   2.895
 8289SOL     OW25765   0.898   0.459   0.435
 8289SOL    HW125766   0.859   0.445   0.344
 8289SOL    HW225767   0.882   0.378   0.491
 8290SOL     OW25768   6.471   1.572   0.327
 8290SOL    HW125769   6.410   1.637   0.371
 8290SOL    HW225770   6.486   1.493   0.387
 8291SOL     OW25771   4.503   0.241   6.723
 8291SOL    HW125772   4.589   0.272   6.764
 8291SOL    HW225773   4.520   0.209   6.630
 8292SOL     OW25774   2.537   6.559   0.557
 8292SOL    HW125775   2.535   6.595   0.650
 8292SOL    HW225776   2.543   6.635   0.492
 8293SOL     OW25777   4.192   6.979   6.152
 8293SOL    HW125778   4.159   0.040   6.202
 8293SOL    HW225779   4.158   6.896   6.196
 8294SOL     OW25780   6.162   2.726   6.491
 8294SOL    HW125781   6.136   2.633   6.469
 8294SOL    HW225782   6.160   2.783   6.408
 8295SOL     OW25783   5.646   4.939   1.877
 8295SOL    HW125784   5.574   4.884   1.836
 8295SOL    HW225785   5.610   5.029   1.900
 8296SOL     OW25786   1.542   5.985   6.602
 8296SOL    HW125787   1.540   6.084   6.616
 8296SOL    HW225788   1.501   5.963   6.513
 8297SOL     OW25789   6.617   2.521   3.176
 8297SOL    HW125790   6.555   2.581   3.126
 8297SOL    HW225791   6.696   2.499   3.119
 8298SOL     OW25792   5.012   1.787   1.392
 8298SOL    HW125793   5.019   1.691   1.419
 8298SOL    HW225794   5.085   1.839   1.437
 8299SOL     OW25795   0.198   3.120   1.748
 8299SOL    HW125796   0.122   3.127   1.812
 8299SOL    HW225797   0.204   3.204   1.694
 8300SOL     OW25798   0.971   4.505   5.121
 8300SOL    HW125799   0.962   4.435   5.193
 8300SOL    HW225800   0.964   4.596   5.162
 8301SOL     OW25801   4.141   2.314   1.166
 8301SOL    HW125802   4.156   2.259   1.248
 8301SOL    HW225803   4.094   2.399   1.191
 8302SOL     OW25804   5.908   6.617   6.554
 8302SOL    HW125805   5.998   6.663   6.554
 8302SOL    HW225806   5.848   6.661   6.488
 8303SOL     OW25807   0.171   0.027   4.593
 8303SOL    HW125808   0.235   0.051   4.666
 8303SOL    HW225809   0.220   6.998   4.520
 8304SOL     OW25810   0.626   3.656   6.228
 8304SOL    HW125811   0.664   3.615   6.311
 8304SOL    HW225812   0.556   3.724   6.254
 8305SOL     OW25813   3.462   5.262   3.804
 8305SOL    HW125814   3.383   5.317   3.831
 8305SOL    HW225815   3.430   5.176   3.765
 8306SOL     OW25816   0.627   2.225   5.792
 8306SOL    HW125817   0.582   2.307   5.829
 8306SOL    HW225818   0.576   2.144   5.819
 8307SOL     OW25819   3.592   5.032   0.956
 8307SOL    HW125820   3.633   5.111   1.002
 8307SOL    HW225821   3.499   5.055   0.926
 8308SOL     OW25822   4.313   6.685   1.706
 8308SOL    HW125823   4.391   6.748   1.701
 8308SOL    HW225824   4.233   6.733   1.742
 8309SOL     OW25825   6.061   5.912   2.962
 8309SOL    HW125826   5.969   5.903   2.924
 8309SOL    HW225827   6.066   5.863   3.049
 8310SOL     OW25828   0.817   4.461   0.660
 8310SOL    HW125829   0.786   4.469   0.755
 8310SOL    HW225830   0.755   4.401   0.610
 8311SOL     OW25831   0.376   0.981   6.592
 8311SOL    HW125832   0.403   0.887   6.571
 8311SOL    HW225833   0.407   1.005   6.684
 8312SOL     OW25834   4.657   6.574   1.617
 8312SOL    HW125835   4.586   6.504   1.610
 8312SOL    HW225836   4.716   6.554   1.695
 8313SOL     OW25837   3.756   1.587   2.990
 8313SOL    HW125838   3.802   1.587   2.901
 8313SOL    HW225839   3.672   1.533   2.984
 8314SOL     OW25840   5.181   6.698   1.066
 8314SOL    HW125841   5.266   6.721   1.018
 8314SOL    HW225842   5.109   6.762   1.038
 8315SOL     OW25843   4.554   2.732   0.949
 8315SOL    HW125844   4.616   2.727   0.870
 8315SOL    HW225845   4.477   2.791   0.927
 8316SOL     OW25846   0.778   4.098   0.965
 8316SOL    HW125847   0.794   4.196   0.963
 8316SOL    HW225848   0.823   4.058   1.045
 8317SOL     OW25849   1.985   3.588   2.914
 8317SOL    HW125850   1.901   3.539   2.936
 8317SOL    HW225851   1.987   3.607   2.816
 8318SOL     OW25852   4.214   1.539   5.103
 8318SOL    HW125853   4.303   1.501   5.129
 8318SOL    HW225854   4.152   1.465   5.078
 8319SOL     OW25855   3.287   1.298   5.313
 8319SOL    HW125856   3.336   1.300   5.226
 8319SOL    HW225857   3.240   1.384   5.327
 8320SOL     OW25858   3.412   4.635   1.366
 8320SOL    HW125859   3.362   4.719   1.389
 8320SOL    HW225860   3.362   4.585   1.295
 8321SOL     OW25861   0.340   1.322   6.900
 8321SOL    HW125862   0.401   1.330   6.979
 8321SOL    HW225863   0.266   1.387   6.909
 8322SOL     OW25864   6.839   0.231   6.803
 8322SOL    HW125865   6.847   0.184   6.715
 8322SOL    HW225866   6.900   0.188   6.869
 8323SOL     OW25867   0.751   0.514   2.454
 8323SOL    HW125868   0.652   0.508   2.450
 8323SOL    HW225869   0.787   0.537   2.363
 8324SOL     OW25870   6.241   0.588   2.308
 8324SOL    HW125871   6.159   0.585   2.250
 8324SOL    HW225872   6.219   0.552   2.399
 8325SOL     OW25873   4.086   3.368   4.133
 8325SOL    HW125874   4.011   3.423   4.169
 8325SOL    HW225875   4.072   3.353   4.035
 8326SOL     OW25876   4.451   3.639   5.570
 8326SOL    HW125877   4.390   3.710   5.606
 8326SOL    HW225878   4.464   3.652   5.472
 8327SOL     OW25879   5.303   2.303   5.858
 8327SOL    HW125880   5.211   2.316   5.896
 8327SOL    HW225881   5.297   2.248   5.775
 8328SOL     OW25882   2.314   3.864   6.220
 8328SOL    HW125883   2.235   3.879   6.280
 8328SOL    HW225884   2.285   3.812   6.139
 8329SOL     OW25885   0.382   2.853   5.158
 8329SOL    HW125886   0.428   2.893   5.078
 8329SOL    HW225887   0.409   2.757   5.167
 8330SOL     OW25888   1.836   6.525   0.673
 8330SOL    HW125889   1.932   6.536   0.647
 8330SOL    HW225890   1.798   6.446   0.626
 8331SOL     OW25891   3.529   6.988   1.285
 8331SOL    HW125892   3.469   6.976   1.206
 8331SOL    HW225893   3.596   0.040   1.265
 8332SOL     OW25894   4.752   5.134   2.041
 8332SOL    HW125895   4.722   5.143   2.135
 8332SOL    HW225896   4.768   5.225   2.002
 8333SOL     OW25897   0.090   5.998   6.755
 8333SOL    HW125898   0.091   6.097   6.766
 8333SOL    HW225899   0.184   5.964   6.757
 8334SOL     OW25900   5.498   1.581   3.944
 8334SOL    HW125901   5.510   1.484   3.926
 8334SOL    HW225902   5.438   1.593   4.023
 8335SOL     OW25903   6.271   5.872   5.778
 8335SOL    HW125904   6.341   5.814   5.734
 8335SOL    HW225905   6.269   5.961   5.733
 8336SOL     OW25906   6.693   1.232   2.781
 8336SOL    HW125907   6.679   1.227   2.683
 8336SOL    HW225908   6.619   1.285   2.823
 8337SOL     OW25909   0.714   6.284   3.722
 8337SOL    HW125910   0.780   6.338   3.671
 8337SOL    HW225911   0.717   6.189   3.691
 8338SOL     OW25912   1.799   4.827   1.184
 8338SOL    HW125913   1.797   4.877   1.271
 8338SOL    HW225914   1.714   4.776   1.173
 8339SOL     OW25915   6.403   0.875   2.921
 8339SOL    HW125916   6.386   0.942   2.993
 8339SOL    HW225917   6.342   0.893   2.844
 8340SOL     OW25918   4.763   3.781   1.096
 8340SOL    HW125919   4.725   3.789   1.188
 8340SOL    HW225920   4.722   3.851   1.037
 8341SOL     OW25921   1.798   6.960   0.206
 8341SOL    HW125922   1.702   6.935   0.193
 8341SOL    HW225923   1.846   6.955   0.119
 8342SOL     OW25924   3.696   0.471   0.845
 8342SOL    HW125925   3.763   0.543   0.861
 8342SOL    HW225926   3.618   0.508   0.796
 8343SOL     OW25927   1.750   5.439   6.023
 8343SOL    HW125928   1.715   5.345   6.032
 8343SOL    HW225929   1.721   5.493   6.102
 8344SOL     OW25930   4.318   6.286   6.114
 8344SOL    HW125931   4.278   6.374   6.138
 8344SOL    HW225932   4.418   6.293   6.119
 8345SOL     OW25933   5.708   1.944   3.541
 8345SOL    HW125934   5.640   1.902   3.600
 8345SOL    HW225935   5.789   1.967   3.595
 8346SOL     OW25936   2.461   4.804   0.506
 8346SOL    HW125937   2.553   4.780   0.475
 8346SOL    HW225938   2.442   4.757   0.592
 8347SOL     OW25939   2.577   6.414   5.227
 8347SOL    HW125940   2.559   6.509   5.255
 8347SOL    HW225941   2.498   6.357   5.249
 8348SOL     OW25942   1.289   0.702   1.375
 8348SOL    HW125943   1.212   0.648   1.411
 8348SOL    HW225944   1.372   0.647   1.379
 8349SOL     OW25945   5.853   3.843   1.041
 8349SOL    HW125946   5.757   3.815   1.044
 8349SOL    HW225947   5.867   3.909   0.968
 8350SOL     OW25948   6.076   0.829   4.900
 8350SOL    HW125949   6.077   0.764   4.976
 8350SOL    HW225950   6.093   0.780   4.814
 8351SOL     OW25951   3.776   5.626   4.167
 8351SOL    HW125952   3.843   5.591   4.101
 8351SOL    HW225953   3.753   5.553   4.232
 8352SOL     OW25954   6.405   0.122   1.795
 8352SOL    HW125955   6.404   0.106   1.894
 8352SOL    HW225956   6.453   0.047   1.750
 8353SOL     OW25957   5.877   3.661   2.249
 8353SOL    HW125958   5.810   3.729   2.221
 8353SOL    HW225959   5.926   3.627   2.168
 8354SOL     OW25960   3.475   1.577   6.736
 8354SOL    HW125961   3.495   1.667   6.774
 8354SOL    HW225962   3.382   1.550   6.761
 8355SOL     OW25963   3.084   0.693   0.154
 8355SOL    HW125964   2.995   0.734   0.171
 8355SOL    HW225965   3.073   0.609   0.099
 8356SOL     OW25966   1.110   6.265   0.336
 8356SOL    HW125967   1.098   6.279   0.434
 8356SOL    HW225968   1.096   6.168   0.314
 8357SOL     OW25969   3.320   5.464   5.109
 8357SOL    HW125970   3.251   5.421   5.051
 8357SOL    HW225971   3.397   5.494   5.052
 8358SOL     OW25972   1.943   2.335   5.413
 8358SOL    HW125973   1.864   2.393   5.390
 8358SOL    HW225974   1.940   2.312   5.510
 8359SOL     OW25975   3.962   5.885   4.518
 8359SOL    HW125976   3.948   5.870   4.420
 8359SOL    HW225977   4.054   5.921   4.535
 8360SOL     OW25978   3.852   0.087   3.015
 8360SOL    HW125979   3.870   7.014   2.980
 8360SOL    HW225980   3.758   0.093   3.047
 8361SOL     OW25981   1.865   1.648   2.264
 8361SOL    HW125982   1.926   1.710   2.314
 8361SOL    HW225983   1.847   1.684   2.173
 8362SOL     OW25984   2.665   2.623   0.617
 8362SOL    HW125985   2.597   2.640   0.689
 8362SOL    HW225986   2.757   2.623   0.657
 8363SOL     OW25987   1.215   2.800   0.639
 8363SOL    HW125988   1.302   2.776   0.680
 8363SOL    HW225989   1.140   2.766   0.696
 8364SOL     OW25990   6.429   3.337   2.718
 8364SOL    HW125991   6.499   3.342   2.646
 8364SOL    HW225992   6.340   3.317   2.676
 8365SOL     OW25993   2.027   3.507   0.682
 8365SOL    HW125994   2.056   3.419   0.721
 8365SOL    HW225995   2.069   3.519   0.592
 8366SOL     OW25996   4.843   6.069   2.396
 8366SOL    HW125997   4.843   6.028   2.487
 8366SOL    HW225998   4.852   6.169   2.404
 8367SOL     OW25999   4.495   6.166   3.452
 8367SOL    HW126000   4.578   6.128   3.494
 8367SOL    HW226001   4.509   6.263   3.433
 8368SOL     OW26002   2.761   5.565   6.221
 8368SOL    HW126003   2.708   5.644   6.253
 8368SOL    HW226004   2.775   5.572   6.122
 8369SOL     OW26005   2.151   0.723   0.318
 8369SOL    HW126006   2.173   0.645   0.377
 8369SOL    HW226007   2.167   0.808   0.368
 8370SOL     OW26008   2.373   2.043   6.075
 8370SOL    HW126009   2.312   2.042   6.154
 8370SOL    HW226010   2.326   2.001   5.997
 8371SOL     OW26011   1.313   3.128   0.224
 8371SOL    HW126012   1.362   3.213   0.243
 8371SOL    HW226013   1.331   3.062   0.296
 8372SOL     OW26014   0.515   0.103   2.727
 8372SOL    HW126015   0.447   0.035   2.754
 8372SOL    HW226016   0.579   0.118   2.802
 8373SOL     OW26017   0.932   6.427   5.571
 8373SOL    HW126018   0.850   6.370   5.577
 8373SOL    HW226019   0.930   6.496   5.643
 8374SOL     OW26020   6.374   0.950   0.378
 8374SOL    HW126021   6.424   1.015   0.320
 8374SOL    HW226022   6.440   0.897   0.432
 8375SOL     OW26023   3.369   5.751   5.743
 8375SOL    HW126024   3.424   5.668   5.740
 8375SOL    HW226025   3.351   5.782   5.649
 8376SOL     OW26026   2.720   0.618   4.146
 8376SOL    HW126027   2.758   0.684   4.211
 8376SOL    HW226028   2.649   0.563   4.191
 8377SOL     OW26029   5.767   5.887   1.190
 8377SOL    HW126030   5.784   5.912   1.095
 8377SOL    HW226031   5.761   5.787   1.198
 8378SOL     OW26032   5.494   3.442   3.147
 8378SOL    HW126033   5.475   3.533   3.183
 8378SOL    HW226034   5.407   3.393   3.134
 8379SOL     OW26035   6.357   4.083   2.073
 8379SOL    HW126036   6.430   4.017   2.090
 8379SOL    HW226037   6.378   4.135   1.990
 8380SOL     OW26038   5.841   1.355   2.512
 8380SOL    HW126039   5.744   1.350   2.488
 8380SOL    HW226040   5.872   1.450   2.503
 8381SOL     OW26041   0.755   5.526   4.457
 8381SOL    HW126042   0.714   5.436   4.469
 8381SOL    HW226043   0.788   5.536   4.363
 8382SOL     OW26044   1.642   1.942   2.560
 8382SOL    HW126045   1.616   2.015   2.623
 8382SOL    HW226046   1.610   1.854   2.596
 8383SOL     OW26047   2.933   2.395   6.660
 8383SOL    HW126048   2.863   2.464   6.641
 8383SOL    HW226049   3.020   2.424   6.619
 8384SOL     OW26050   6.945   6.461   1.140
 8384SOL    HW126051   0.019   6.426   1.129
 8384SOL    HW226052   6.880   6.386   1.125
 8385SOL     OW26053   5.093   2.037   2.004
 8385SOL    HW126054   5.138   2.108   2.059
 8385SOL    HW226055   5.122   1.947   2.036
 8386SOL     OW26056   0.892   4.283   2.771
 8386SOL    HW126057   0.812   4.338   2.750
 8386SOL    HW226058   0.867   4.208   2.833
 8387SOL     OW26059   1.862   1.271   1.138
 8387SOL    HW126060   1.776   1.312   1.105
 8387SOL    HW226061   1.843   1.218   1.221
 8388SOL     OW26062   3.006   6.228   1.510
 8388SOL    HW126063   2.970   6.160   1.573
 8388SOL    HW226064   2.960   6.220   1.422
 8389SOL     OW26065   5.482   2.887   2.028
 8389SOL    HW126066   5.464   2.854   1.936
 8389SOL    HW226067   5.459   2.985   2.033
 8390SOL     OW26068   4.006   2.286   5.739
 8390SOL    HW126069   3.982   2.211   5.678
 8390SOL    HW226070   3.931   2.352   5.743
 8391SOL     OW26071   6.258   7.013   0.643
 8391SOL    HW126072   6.333   0.013   0.707
 8391SOL    HW226073   6.244   0.073   0.584
 8392SOL     OW26074   6.142   3.596   4.632
 8392SOL    HW126075   6.220   3.571   4.575
 8392SOL    HW226076   6.091   3.671   4.588
 8393SOL     OW26077   4.775   0.199   2.129
 8393SOL    HW126078   4.710   0.172   2.058
 8393SOL    HW226079   4.736   0.178   2.219
 8394SOL     OW26080   6.058   3.935   2.364
 8394SOL    HW126081   6.112   3.862   2.407
 8394SOL    HW226082   5.972   3.897   2.330
 8395SOL     OW26083   2.116   0.647   5.170
 8395SOL    HW126084   2.149   0.561   5.131
 8395SOL    HW226085   2.022   0.636   5.200
 8396SOL     OW26086   4.466   5.725   4.721
 8396SOL    HW126087   4.517   5.639   4.715
 8396SOL    HW226088   4.415   5.726   4.807
 8397SOL     OW26089   6.681   1.308   3.726
 8397SOL    HW126090   6.704   1.258   3.643
 8397SOL    HW226091   6.748   1.381   3.740
 8398SOL     OW26092   5.218   1.945   5.768
 8398SOL    HW126093   5.153   2.001   5.716
 8398SOL    HW226094   5.175   1.911   5.851
 8399SOL     OW26095   0.005   5.915   0.010
 8399SOL    HW126096   7.010   6.011   7.003
 8399SOL    HW226097   0.097   5.886   7.002
 8400SOL     OW26098   1.703   2.169   4.210
 8400SOL    HW126099   1.705   2.226   4.292
 8400SOL    HW226100   1.794   2.131   4.194
 8401SOL     OW26101   2.770   0.287   5.444
 8401SOL    HW126102   2.799   0.195   5.420
 8401SOL    HW226103   2.822   0.354   5.390
 8402SOL     OW26104   4.696   0.959   5.791
 8402SOL    HW126105   4.734   1.006   5.870
 8402SOL    HW226106   4.613   0.910   5.818
 8403SOL     OW26107   6.299   4.459   4.311
 8403SOL    HW126108   6.286   4.558   4.308
 8403SOL    HW226109   6.330   4.431   4.402
 8404SOL     OW26110   2.613   1.747   6.268
 8404SOL    HW126111   2.542   1.748   6.339
 8404SOL    HW226112   2.590   1.812   6.197
 8405SOL     OW26113   3.656   1.578   5.585
 8405SOL    HW126114   3.703   1.514   5.647
 8405SOL    HW226115   3.722   1.643   5.548
 8406SOL     OW26116   4.623   1.115   6.286
 8406SOL    HW126117   4.612   1.209   6.320
 8406SOL    HW226118   4.613   1.051   6.362
 8407SOL     OW26119   3.603   6.325   3.497
 8407SOL    HW126120   3.624   6.353   3.590
 8407SOL    HW226121   3.578   6.405   3.442
 8408SOL     OW26122   5.113   6.970   0.801
 8408SOL    HW126123   5.115   0.032   0.742
 8408SOL    HW226124   5.053   6.901   0.760
 8409SOL     OW26125   4.327   2.421   1.931
 8409SOL    HW126126   4.317   2.391   2.026
 8409SOL    HW226127   4.400   2.489   1.926
 8410SOL     OW26128   6.986   1.503   1.666
 8410SOL    HW126129   0.062   1.534   1.678
 8410SOL    HW226130   6.984   1.404   1.659
 8411SOL     OW26131   0.492   6.062   0.999
 8411SOL    HW126132   0.537   6.151   0.990
 8411SOL    HW226133   0.432   6.062   1.078
 8412SOL     OW26134   2.831   3.281   0.752
 8412SOL    HW126135   2.857   3.280   0.848
 8412SOL    HW226136   2.731   3.283   0.744
 8413SOL     OW26137   4.122   5.502   5.951
 8413SOL    HW126138   4.112   5.460   5.861
 8413SOL    HW226139   4.039   5.551   5.975
 8414SOL     OW26140   1.613   1.006   2.411
 8414SOL    HW126141   1.537   0.948   2.382
 8414SOL    HW226142   1.618   1.006   2.511
 8415SOL     OW26143   2.641   0.062   4.244
 8415SOL    HW126144   2.714   7.016   4.262
 8415SOL    HW226145   2.670   0.125   4.172
 8416SOL     OW26146   6.119   1.624   4.683
 8416SOL    HW126147   6.196   1.591   4.738
 8416SOL    HW226148   6.119   1.577   4.595
 8417SOL     OW26149   1.223   2.965   5.319
 8417SOL    HW126150   1.146   2.904   5.336
 8417SOL    HW226151   1.284   2.924   5.252
 8418SOL     OW26152   0.746   5.798   2.058
 8418SOL    HW126153   0.813   5.730   2.089
 8418SOL    HW226154   0.654   5.769   2.086
 8419SOL     OW26155   5.066   0.588   2.853
 8419SOL    HW126156   5.052   0.680   2.889
 8419SOL    HW226157   5.154   0.552   2.887
 8420SOL     OW26158   3.375   6.344   2.224
 8420SOL    HW126159   3.385   6.269   2.290
 8420SOL    HW226160   3.458   6.399   2.222
 8421SOL     OW26161   3.936   6.287   5.923
 8421SOL    HW126162   3.880   6.233   5.860
 8421SOL    HW226163   3.995   6.348   5.870
 8422SOL     OW26164   4.569   2.424   2.484
 8422SOL    HW126165   4.575   2.498   2.416
 8422SOL    HW226166   4.482   2.375   2.472
 8423SOL     OW26167   5.265   4.254   5.934
 8423SOL    HW126168   5.171   4.239   5.967
 8423SOL    HW226169   5.329   4.209   5.996
 8424SOL     OW26170   1.922   0.386   3.394
 8424SOL    HW126171   1.966   0.301   3.423
 8424SOL    HW226172   1.962   0.463   3.444
 8425SOL     OW26173   3.241   3.450   3.498
 8425SOL    HW126174   3.196   3.490   3.419
 8425SOL    HW226175   3.281   3.362   3.472
 8426SOL     OW26176   3.767   2.981   2.382
 8426SOL    HW126177   3.825   3.018   2.454
 8426SOL    HW226178   3.679   2.954   2.421
 8427SOL     OW26179   3.184   3.073   3.370
 8427SOL    HW126180   3.237   3.156   3.355
 8427SOL    HW226181   3.153   3.037   3.282
 8428SOL     OW26182   0.089   0.569   0.619
 8428SOL    HW126183   0.030   0.492   0.642
 8428SOL    HW226184   0.037   0.654   0.626
 8429SOL     OW26185   2.095   5.618   6.229
 8429SOL    HW126186   2.178   5.673   6.227
 8429SOL    HW226187   2.027   5.662   6.288
 8430SOL     OW26188   4.654   6.126   4.001
 8430SOL    HW126189   4.590   6.202   4.012
 8430SOL    HW226190   4.647   6.065   4.080
 8431SOL     OW26191   2.559   2.787   6.352
 8431SOL    HW126192   2.640   2.749   6.307
 8431SOL    HW226193   2.505   2.838   6.284
 8432SOL     OW26194   6.622   5.495   5.838
 8432SOL    HW126195   6.643   5.425   5.906
 8432SOL    HW226196   6.673   5.476   5.754
 8433SOL     OW26197   4.519   2.219   1.152
 8433SOL    HW126198   4.599   2.231   1.210
 8433SOL    HW226199   4.548   2.190   1.061
 8434SOL     OW26200   1.912   5.658   4.731
 8434SOL    HW126201   1.865   5.729   4.784
 8434SOL    HW226202   1.891   5.670   4.634
 8435SOL     OW26203   5.044   0.637   2.584
 8435SOL    HW126204   5.044   0.609   2.680
 8435SOL    HW226205   5.115   0.707   2.570
 8436SOL     OW26206   2.356   6.476   3.618
 8436SOL    HW126207   2.264   6.435   3.615
 8436SOL    HW226208   2.380   6.498   3.712
 8437SOL     OW26209   2.073   2.968   2.475
 8437SOL    HW126210   2.085   3.068   2.479
 8437SOL    HW226211   2.150   2.927   2.426
 8438SOL     OW26212   1.493   3.996   3.147
 8438SOL    HW126213   1.581   4.004   3.193
 8438SOL    HW226214   1.473   3.900   3.129
 8439SOL     OW26215   6.084   5.055   3.346
 8439SOL    HW126216   6.042   5.100   3.424
 8439SOL    HW226217   6.148   5.118   3.302
 8440SOL     OW26218   2.116   1.492   3.512
 8440SOL    HW126219   2.197   1.480   3.455
 8440SOL    HW226220   2.142   1.491   3.608
 8441SOL     OW26221   5.673   6.281   5.336
 8441SOL    HW126222   5.723   6.201   5.370
 8441SOL    HW226223   5.600   6.251   5.275
 8442SOL     OW26224   3.710   0.658   5.087
 8442SOL    HW126225   3.761   0.744   5.079
 8442SOL    HW226226   3.672   0.634   4.998
 8443SOL     OW26227   1.597   4.885   3.471
 8443SOL    HW126228   1.674   4.822   3.483
 8443SOL    HW226229   1.520   4.836   3.429
 8444SOL     OW26230   4.293   6.047   3.027
 8444SOL    HW126231   4.289   5.991   3.110
 8444SOL    HW226232   4.200   6.075   3.002
 8445SOL     OW26233   3.466   6.965   6.668
 8445SOL    HW126234   3.410   6.957   6.750
 8445SOL    HW226235   3.563   6.966   6.695
 8446SOL     OW26236   0.260   6.231   5.607
 8446SOL    HW126237   0.337   6.227   5.544
 8446SOL    HW226238   0.270   6.310   5.667
 8447SOL     OW26239   4.188   1.403   2.574
 8447SOL    HW126240   4.257   1.447   2.517
 8447SOL    HW226241   4.133   1.473   2.620
 8448SOL     OW26242   4.669   6.437   3.248
 8448SOL    HW126243   4.731   6.360   3.234
 8448SOL    HW226244   4.585   6.421   3.196
 8449SOL     OW26245   1.883   2.593   3.226
 8449SOL    HW126246   1.977   2.614   3.252
 8449SOL    HW226247   1.880   2.507   3.175
 8450SOL     OW26248   6.487   0.600   0.288
 8450SOL    HW126249   6.425   0.593   0.210
 8450SOL    HW226250   6.575   0.560   0.264
 8451SOL     OW26251   4.147   1.937   1.406
 8451SOL    HW126252   4.135   1.882   1.323
 8451SOL    HW226253   4.182   2.028   1.381
 8452SOL     OW26254   4.890   1.895   4.702
 8452SOL    HW126255   4.976   1.881   4.653
 8452SOL    HW226256   4.910   1.932   4.793
 8453SOL     OW26257   1.060   6.063   6.961
 8453SOL    HW126258   1.116   6.010   0.006
 8453SOL    HW226259   0.972   6.018   6.949
 8454SOL     OW26260   0.566   4.451   6.763
 8454SOL    HW126261   0.472   4.479   6.746
 8454SOL    HW226262   0.568   4.378   6.831
 8455SOL     OW26263   1.013   0.757   2.591
 8455SOL    HW126264   0.953   0.790   2.518
 8455SOL    HW226265   1.027   0.659   2.581
 8456SOL     OW26266   5.079   0.826   2.984
 8456SOL    HW126267   5.073   0.909   2.928
 8456SOL    HW226268   5.109   0.850   3.076
 8457SOL     OW26269   5.905   6.540   4.730
 8457SOL    HW126270   5.834   6.473   4.709
 8457SOL    HW226271   5.986   6.493   4.767
 8458SOL     OW26272   0.266   0.394   7.019
 8458SOL    HW126273   0.230   0.357   0.086
 8458SOL    HW226274   0.275   0.321   6.952
 8459SOL     OW26275   1.554   5.763   3.520
 8459SOL    HW126276   1.592   5.710   3.445
 8459SOL    HW226277   1.543   5.858   3.492
 8460SOL     OW26278   3.379   4.176   4.859
 8460SOL    HW126279   3.462   4.141   4.816
 8460SOL    HW226280   3.376   4.276   4.850
 8461SOL     OW26281   0.252   2.866   4.735
 8461SOL    HW126282   0.165   2.820   4.717
 8461SOL    HW226283   0.324   2.823   4.681
 8462SOL     OW26284   2.545   1.775   1.581
 8462SOL    HW126285   2.447   1.789   1.568
 8462SOL    HW226286   2.580   1.846   1.643
 8463SOL     OW26287   6.153   0.897   2.460
 8463SOL    HW126288   6.141   0.895   2.360
 8463SOL    HW226289   6.245   0.929   2.482
 8464SOL     OW26290   5.815   2.913   4.640
 8464SOL    HW126291   5.782   2.937   4.731
 8464SOL    HW226292   5.794   2.816   4.622
 8465SOL     OW26293   1.314   1.721   0.723
 8465SOL    HW126294   1.306   1.709   0.625
 8465SOL    HW226295   1.400   1.769   0.744
 8466SOL     OW26296   0.991   6.035   3.310
 8466SOL    HW126297   1.028   5.944   3.292
 8466SOL    HW226298   0.963   6.042   3.406
 8467SOL     OW26299   2.873   5.417   0.847
 8467SOL    HW126300   2.937   5.492   0.828
 8467SOL    HW226301   2.921   5.330   0.843
 8468SOL     OW26302   4.512   2.302   6.822
 8468SOL    HW126303   4.481   2.324   6.729
 8468SOL    HW226304   4.519   2.202   6.831
 8469SOL     OW26305   3.535   3.088   6.603
 8469SOL    HW126306   3.509   3.025   6.676
 8469SOL    HW226307   3.488   3.064   6.519
 8470SOL     OW26308   2.942   3.194   6.762
 8470SOL    HW126309   2.872   3.224   6.828
 8470SOL    HW226310   2.898   3.143   6.688
 8471SOL     OW26311   3.194   0.702   3.810
 8471SOL    HW126312   3.172   0.799   3.802
 8471SOL    HW226313   3.192   0.675   3.907
 8472SOL     OW26314   0.623   6.827   4.314
 8472SOL    HW126315   0.573   6.799   4.395
 8472SOL    HW226316   0.703   6.768   4.302
 8473SOL     OW26317   6.528   5.221   6.738
 8473SOL    HW126318   6.612   5.274   6.729
 8473SOL    HW226319   6.452   5.282   6.761
 8474SOL     OW26320   3.429   3.387   1.332
 8474SOL    HW126321   3.473   3.299   1.312
 8474SOL    HW226322   3.330   3.377   1.328
 8475SOL     OW26323   6.099   1.944   2.388
 8475SOL    HW126324   6.071   1.994   2.306
 8475SOL    HW226325   6.196   1.960   2.405
 8476SOL     OW26326   4.918   1.070   1.863
 8476SOL    HW126327   4.964   1.138   1.806
 8476SOL    HW226328   4.941   1.084   1.959
 8477SOL     OW26329   2.641   0.010   1.257
 8477SOL    HW126330   2.584   0.078   1.211
 8477SOL    HW226331   2.710   6.994   1.193
 8478SOL     OW26332   1.465   0.889   5.921
 8478SOL    HW126333   1.436   0.823   5.990
 8478SOL    HW226334   1.384   0.934   5.882
 8479SOL     OW26335   5.851   0.913   0.845
 8479SOL    HW126336   5.869   0.960   0.759
 8479SOL    HW226337   5.917   0.838   0.856
 8480SOL     OW26338   3.295   0.593   1.335
 8480SOL    HW126339   3.392   0.603   1.313
 8480SOL    HW226340   3.277   0.633   1.425
 8481SOL     OW26341   3.571   1.446   4.414
 8481SOL    HW126342   3.519   1.505   4.352
 8481SOL    HW226343   3.660   1.489   4.434
 8482SOL     OW26344   1.343   6.986   2.036
 8482SOL    HW126345   1.278   0.016   2.093
 8482SOL    HW226346   1.331   7.013   1.940
 8483SOL     OW26347   3.660   5.979   1.408
 8483SOL    HW126348   3.575   5.946   1.450
 8483SOL    HW226349   3.713   5.901   1.375
 8484SOL     OW26350   0.702   4.989   4.799
 8484SOL    HW126351   0.672   5.074   4.843
 8484SOL    HW226352   0.750   5.011   4.714
 8485SOL     OW26353   1.868   4.138   6.925
 8485SOL    HW126354   1.869   4.072   6.850
 8485SOL    HW226355   1.921   4.102   7.002
 8486SOL     OW26356   5.801   0.988   2.128
 8486SOL    HW126357   5.733   0.922   2.159
 8486SOL    HW226358   5.763   1.042   2.053
 8487SOL     OW26359   5.374   0.343   1.810
 8487SOL    HW126360   5.290   0.340   1.755
 8487SOL    HW226361   5.454   0.335   1.750
 8488SOL     OW26362   5.216   3.949   4.378
 8488SOL    HW126363   5.194   3.865   4.428
 8488SOL    HW226364   5.290   3.930   4.313
 8489SOL     OW26365   5.224   4.712   1.385
 8489SOL    HW126366   5.168   4.750   1.459
 8489SOL    HW226367   5.180   4.630   1.349
 8490SOL     OW26368   4.303   5.379   3.147
 8490SOL    HW126369   4.289   5.282   3.125
 8490SOL    HW226370   4.372   5.386   3.219
 8491SOL     OW26371   2.263   0.544   2.106
 8491SOL    HW126372   2.203   0.617   2.073
 8491SOL    HW226373   2.351   0.584   2.135
 8492SOL     OW26374   6.519   2.463   5.237
 8492SOL    HW126375   6.518   2.461   5.337
 8492SOL    HW226376   6.449   2.401   5.202
 8493SOL     OW26377   4.355   1.810   6.723
 8493SOL    HW126378   4.366   1.838   6.818
 8493SOL    HW226379   4.349   1.710   6.719
 8494SOL     OW26380   2.893   5.625   6.958
 8494SOL    HW126381   2.902   5.724   6.947
 8494SOL    HW226382   2.852   5.586   6.876
 8495SOL     OW26383   6.844   2.324   0.782
 8495SOL    HW126384   6.745   2.334   0.793
 8495SOL    HW226385   6.889   2.362   0.863
 8496SOL     OW26386   0.015   2.324   3.435
 8496SOL    HW126387   6.945   2.369   3.427
 8496SOL    HW226388   0.044   2.325   3.531
 8497SOL     OW26389   6.235   5.020   3.732
 8497SOL    HW126390   6.331   4.993   3.726
 8497SOL    HW226391   6.214   5.084   3.658
 8498SOL     OW26392   0.063   0.305   1.108
 8498SOL    HW126393   0.058   0.326   1.205
 8498SOL    HW226394   0.132   0.363   1.065
 8499SOL     OW26395   2.902   4.321   6.227
 8499SOL    HW126396   2.874   4.414   6.202
 8499SOL    HW226397   2.990   4.300   6.185
 8500SOL     OW26398   2.338   6.892   6.161
 8500SOL    HW126399   2.346   6.824   6.089
 8500SOL    HW226400   2.371   6.981   6.128
 8501SOL     OW26401   2.135   3.258   6.594
 8501SOL    HW126402   2.148   3.169   6.549
 8501SOL    HW226403   2.083   3.319   6.534
 8502SOL     OW26404   6.797   6.557   1.841
 8502SOL    HW126405   6.810   6.571   1.743
 8502SOL    HW226406   6.852   6.624   1.891
 8503SOL     OW26407   2.808   4.942   3.254
 8503SOL    HW126408   2.734   4.878   3.236
 8503SOL    HW226409   2.826   4.996   3.171
 8504SOL     OW26410   1.589   5.406   3.417
 8504SOL    HW126411   1.496   5.370   3.419
 8504SOL    HW226412   1.637   5.379   3.500
 8505SOL     OW26413   4.909   3.649   3.620
 8505SOL    HW126414   4.979   3.713   3.587
 8505SOL    HW226415   4.864   3.688   3.700
 8506SOL     OW26416   1.315   6.811   0.351
 8506SOL    HW126417   1.327   6.761   0.436
 8506SOL    HW226418   1.295   6.747   0.277
 8507SOL     OW26419   1.908   1.473   6.446
 8507SOL    HW126420   1.819   1.517   6.432
 8507SOL    HW226421   1.969   1.497   6.371
 8508SOL     OW26422   0.174   2.213   5.680
 8508SOL    HW126423   0.138   2.142   5.741
 8508SOL    HW226424   0.121   2.296   5.691
 8509SOL     OW26425   5.892   1.772   4.049
 8509SOL    HW126426   5.915   1.847   4.111
 8509SOL    HW226427   5.851   1.697   4.101
 8510SOL     OW26428   5.689   5.552   2.844
 8510SOL    HW126429   5.678   5.651   2.853
 8510SOL    HW226430   5.785   5.527   2.860
 8511SOL     OW26431   6.735   4.736   1.254
 8511SOL    HW126432   6.684   4.744   1.169
 8511SOL    HW226433   6.713   4.648   1.298
 8512SOL     OW26434   4.574   2.267   0.107
 8512SOL    HW126435   4.559   2.351   0.055
 8512SOL    HW226436   4.550   2.189   0.050
 8513SOL     OW26437   5.967   4.037   0.851
 8513SOL    HW126438   6.010   4.089   0.777
 8513SOL    HW226439   5.933   4.100   0.920
 8514SOL     OW26440   2.986   1.473   4.858
 8514SOL    HW126441   3.068   1.442   4.811
 8514SOL    HW226442   2.912   1.485   4.792
 8515SOL     OW26443   0.551   1.320   0.066
 8515SOL    HW126444   0.635   1.368   0.092
 8515SOL    HW226445   0.573   1.226   0.041
 8516SOL     OW26446   5.760   2.997   2.411
 8516SOL    HW126447   5.779   3.074   2.350
 8516SOL    HW226448   5.710   3.030   2.492
 8517SOL     OW26449   1.772   2.447   5.086
 8517SOL    HW126450   1.803   2.478   4.996
 8517SOL    HW226451   1.781   2.348   5.092
 8518SOL     OW26452   5.086   4.730   6.557
 8518SOL    HW126453   5.119   4.721   6.651
 8518SOL    HW226454   5.136   4.803   6.511
 8519SOL     OW26455   1.630   4.503   0.966
 8519SOL    HW126456   1.639   4.408   0.995
 8519SOL    HW226457   1.653   4.511   0.869
 8520SOL     OW26458   3.873   4.014   4.569
 8520SOL    HW126459   3.934   3.937   4.552
 8520SOL    HW226460   3.814   4.029   4.490
 8521SOL     OW26461   1.289   6.747   5.371
 8521SOL    HW126462   1.368   6.714   5.423
 8521SOL    HW226463   1.316   6.761   5.275
 8522SOL     OW26464   1.173   0.020   0.398
 8522SOL    HW126465   1.196   0.054   0.489
 8522SOL    HW226466   1.207   6.946   0.387
 8523SOL     OW26467   2.496   0.093   6.414
 8523SOL    HW126468   2.494   0.077   6.316
 8523SOL    HW226469   2.403   0.091   6.450
 8524SOL     OW26470   1.179   5.124   4.781
 8524SOL    HW126471   1.129   5.164   4.857
 8524SOL    HW226472   1.146   5.031   4.764
 8525SOL     OW26473   6.779   4.951   1.458
 8525SOL    HW126474   6.711   4.935   1.386
 8525SOL    HW226475   6.790   4.868   1.513
 8526SOL     OW26476   2.219   6.899   0.426
 8526SOL    HW126477   2.309   6.884   0.386
 8526SOL    HW226478   2.220   6.869   0.522
 8527SOL     OW26479   3.503   0.391   6.387
 8527SOL    HW126480   3.496   0.489   6.369
 8527SOL    HW226481   3.534   0.344   6.304
 8528SOL     OW26482   4.690   2.293   0.911
 8528SOL    HW126483   4.729   2.255   0.827
 8528SOL    HW226484   4.758   2.352   0.955
 8529SOL     OW26485   1.315   5.984   0.279
 8529SOL    HW126486   1.408   5.979   0.245
 8529SOL    HW226487   1.316   6.020   0.373
 8530SOL     OW26488   3.092   3.133   4.243
 8530SOL    HW126489   3.047   3.091   4.164
 8530SOL    HW226490   3.043   3.216   4.269
 8531SOL     OW26491   6.717   5.875   3.667
 8531SOL    HW126492   6.746   5.900   3.759
 8531SOL    HW226493   6.797   5.862   3.609
 8532SOL     OW26494   3.961   6.393   4.364
 8532SOL    HW126495   3.899   6.436   4.298
 8532SOL    HW226496   3.932   6.299   4.379
 8533SOL     OW26497   1.284   6.227   6.957
 8533SOL    HW126498   1.193   6.187   6.963
 8533SOL    HW226499   1.294   6.298   0.008
 8534SOL     OW26500   4.441   2.119   3.990
 8534SOL    HW126501   4.400   2.033   3.962
 8534SOL    HW226502   4.370   2.184   4.015
 8535SOL     OW26503   5.518   0.921   3.500
 8535SOL    HW126504   5.561   0.993   3.555
 8535SOL    HW226505   5.449   0.874   3.555
 8536SOL     OW26506   0.352   0.830   4.537
 8536SOL    HW126507   0.340   0.766   4.462
 8536SOL    HW226508   0.276   0.821   4.602
 8537SOL     OW26509   6.484   1.176   3.478
 8537SOL    HW126510   6.449   1.087   3.505
 8537SOL    HW226511   6.452   1.246   3.542
 8538SOL     OW26512   1.061   1.642   0.521
 8538SOL    HW126513   1.145   1.695   0.511
 8538SOL    HW226514   1.026   1.652   0.614
 8539SOL     OW26515   6.120   2.863   2.921
 8539SOL    HW126516   6.057   2.785   2.925
 8539SOL    HW226517   6.104   2.923   2.999
 8540SOL     OW26518   4.179   0.090   6.502
 8540SOL    HW126519   4.244   0.014   6.507
 8540SOL    HW226520   4.110   0.079   6.574
 8541SOL     OW26521   2.371   2.172   3.780
 8541SOL    HW126522   2.322   2.257   3.760
 8541SOL    HW226523   2.423   2.182   3.865
 8542SOL     OW26524   4.194   4.423   6.304
 8542SOL    HW126525   4.147   4.336   6.310
 8542SOL    HW226526   4.127   4.497   6.300
 8543SOL     OW26527   2.144   2.680   0.193
 8543SOL    HW126528   2.069   2.632   0.239
 8543SOL    HW226529   2.213   2.614   0.164
 8544SOL     OW26530   5.423   2.609   3.621
 8544SOL    HW126531   5.480   2.640   3.545
 8544SOL    HW226532   5.451   2.655   3.705
 8545SOL     OW26533   4.829   6.198   5.353
 8545SOL    HW126534   4.733   6.218   5.373
 8545SOL    HW226535   4.834   6.128   5.282
 8546SOL     OW26536   5.212   1.893   3.769
 8546SOL    HW126537   5.222   1.842   3.684
 8546SOL    HW226538   5.300   1.900   3.815
 8547SOL     OW26539   1.266   4.761   4.184
 8547SOL    HW126540   1.220   4.699   4.248
 8547SOL    HW226541   1.365   4.753   4.195
 8548SOL     OW26542   5.436   1.058   5.356
 8548SOL    HW126543   5.527   1.069   5.318
 8548SOL    HW226544   5.419   0.962   5.376
 8549SOL     OW26545   6.416   3.165   4.214
 8549SOL    HW126546   6.412   3.077   4.261
 8549SOL    HW226547   6.416   3.150   4.115
 8550SOL     OW26548   1.740   5.298   6.387
 8550SOL    HW126549   1.838   5.306   6.408
 8550SOL    HW226550   1.719   5.203   6.362
 8551SOL     OW26551   3.759   4.241   6.732
 8551SOL    HW126552   3.787   4.287   6.816
 8551SOL    HW226553   3.826   4.259   6.660
 8552SOL     OW26554   3.216   5.778   3.226
 8552SOL    HW126555   3.128   5.808   3.190
 8552SOL    HW226556   3.245   5.695   3.178
 8553SOL     OW26557   4.915   6.521   0.313
 8553SOL    HW126558   4.829   6.561   0.343
 8553SOL    HW226559   4.968   6.491   0.392
 8554SOL     OW26560   0.161   4.370   6.729
 8554SOL    HW126561   0.181   4.296   6.665
 8554SOL    HW226562   0.085   4.425   6.694
 8555SOL     OW26563   0.508   0.854   3.985
 8555SOL    HW126564   0.497   0.754   3.983
 8555SOL    HW226565   0.540   0.886   3.896
 8556SOL     OW26566   6.718   0.593   3.901
 8556SOL    HW126567   6.686   0.563   3.991
 8556SOL    HW226568   6.680   0.683   3.880
 8557SOL     OW26569   0.190   6.874   1.515
 8557SOL    HW126570   0.203   6.953   1.575
 8557SOL    HW226571   0.135   6.805   1.561
 8558SOL     OW26572   1.830   5.426   2.491
 8558SOL    HW126573   1.926   5.430   2.461
 8558SOL    HW226574   1.778   5.369   2.427
 8559SOL     OW26575   0.938   0.583   1.722
 8559SOL    HW126576   0.872   0.627   1.662
 8559SOL    HW226577   0.894   0.509   1.772
 8560SOL     OW26578   6.348   1.331   0.254
 8560SOL    HW126579   6.355   1.429   0.240
 8560SOL    HW226580   6.366   1.283   0.168
 8561SOL     OW26581   5.015   5.945   3.107
 8561SOL    HW126582   5.006   6.016   3.037
 8561SOL    HW226583   5.078   5.874   3.074
 8562SOL     OW26584   3.452   6.837   4.396
 8562SOL    HW126585   3.389   6.906   4.361
 8562SOL    HW226586   3.457   6.843   4.495
 8563SOL     OW26587   2.701   2.881   6.548
 8563SOL    HW126588   2.637   2.848   6.479
 8563SOL    HW226589   2.751   2.803   6.587
 8564SOL     OW26590   0.626   0.013   3.867
 8564SOL    HW126591   0.611   6.948   3.919
 8564SOL    HW226592   0.686   0.074   3.919
 8565SOL     OW26593   3.791   0.110   0.587
 8565SOL    HW126594   3.852   0.086   0.511
 8565SOL    HW226595   3.846   0.125   0.669
 8566SOL     OW26596   1.060   2.042   2.896
 8566SOL    HW126597   1.017   2.043   2.986
 8566SOL    HW226598   1.098   2.133   2.877
 8567SOL     OW26599   5.516   1.465   1.006
 8567SOL    HW126600   5.610   1.481   1.037
 8567SOL    HW226601   5.509   1.487   0.909
 8568SOL     OW26602   5.579   2.062   0.377
 8568SOL    HW126603   5.634   1.990   0.333
 8568SOL    HW226604   5.639   2.133   0.413
 8569SOL     OW26605   4.654   1.298   4.296
 8569SOL    HW126606   4.596   1.272   4.219
 8569SOL    HW226607   4.609   1.370   4.349
 8570SOL     OW26608   0.423   3.843   6.246
 8570SOL    HW126609   0.358   3.843   6.322
 8570SOL    HW226610   0.420   3.931   6.199
 8571SOL     OW26611   6.385   4.284   4.560
 8571SOL    HW126612   6.424   4.231   4.635
 8571SOL    HW226613   6.409   4.242   4.472
 8572SOL     OW26614   1.724   5.130   5.127
 8572SOL    HW126615   1.729   5.193   5.049
 8572SOL    HW226616   1.805   5.071   5.127
 8573SOL     OW26617   4.498   5.963   6.027
 8573SOL    HW126618   4.442   5.895   6.074
 8573SOL    HW226619   4.582   5.919   5.994
 8574SOL     OW26620   6.921   3.556   5.648
 8574SOL    HW126621   7.018   3.538   5.662
 8574SOL    HW226622   6.902   3.565   5.551
 8575SOL     OW26623   2.824   2.820   0.426
 8575SOL    HW126624   2.734   2.783   0.452
 8575SOL    HW226625   2.880   2.747   0.387
 8576SOL     OW26626   0.746   0.124   1.647
 8576SOL    HW126627   0.750   0.026   1.666
 8576SOL    HW226628   0.812   0.171   1.705
 8577SOL     OW26629   6.180   5.801   3.315
 8577SOL    HW126630   6.170   5.899   3.327
 8577SOL    HW226631   6.120   5.770   3.241
 8578SOL     OW26632   4.688   0.429   3.754
 8578SOL    HW126633   4.679   0.434   3.854
 8578SOL    HW226634   4.616   0.371   3.716
 8579SOL     OW26635   1.277   4.943   3.500
 8579SOL    HW126636   1.216   4.992   3.562
 8579SOL    HW226637   1.335   4.881   3.552
 8580SOL     OW26638   1.659   6.459   1.829
 8580SOL    HW126639   1.674   6.531   1.898
 8580SOL    HW226640   1.561   6.448   1.813
 8581SOL     OW26641   3.140   1.770   1.073
 8581SOL    HW126642   3.193   1.746   1.154
 8581SOL    HW226643   3.069   1.836   1.098
 8582SOL     OW26644   4.489   4.537   2.159
 8582SOL    HW126645   4.519   4.458   2.105
 8582SOL    HW226646   4.390   4.549   2.148
 8583SOL     OW26647   6.000   0.266   5.680
 8583SOL    HW126648   6.034   0.204   5.609
 8583SOL    HW226649   5.901   0.263   5.682
 8584SOL     OW26650   0.192   5.455   0.376
 8584SOL    HW126651   0.285   5.487   0.391
 8584SOL    HW226652   0.133   5.486   0.450
 8585SOL     OW26653   0.292   0.959   0.455
 8585SOL    HW126654   0.282   0.942   0.357
 8585SOL    HW226655   0.379   1.004   0.472
 8586SOL     OW26656   3.752   5.645   2.756
 8586SOL    HW126657   3.763   5.606   2.665
 8586SOL    HW226658   3.791   5.738   2.757
 8587SOL     OW26659   6.945   1.447   2.415
 8587SOL    HW126660   6.987   1.493   2.493
 8587SOL    HW226661   7.015   1.394   2.366
 8588SOL     OW26662   4.097   2.535   0.179
 8588SOL    HW126663   4.059   2.449   0.212
 8588SOL    HW226664   4.053   2.561   0.093
 8589SOL     OW26665   3.595   0.976   4.216
 8589SOL    HW126666   3.652   0.931   4.285
 8589SOL    HW226667   3.566   0.909   4.148
 8590SOL     OW26668   6.187   5.425   4.810
 8590SOL    HW126669   6.256   5.388   4.873
 8590SOL    HW226670   6.227   5.501   4.759
 8591SOL     OW26671   1.021   3.616   6.268
 8591SOL    HW126672   0.971   3.633   6.353
 8591SOL    HW226673   1.093   3.684   6.257
 8592SOL     OW26674   6.873   4.193   0.955
 8592SOL    HW126675   6.798   4.127   0.959
 8592SOL    HW226676   6.900   4.219   1.048
 8593SOL     OW26677   1.769   0.008   2.297
 8593SOL    HW126678   1.734   7.008   2.206
 8593SOL    HW226679   1.700   0.059   2.349
 8594SOL     OW26680   2.883   3.520   4.034
 8594SOL    HW126681   2.899   3.612   4.068
 8594SOL    HW226682   2.969   3.468   4.035
 8595SOL     OW26683   1.942   2.348   2.454
 8595SOL    HW126684   1.916   2.253   2.436
 8595SOL    HW226685   1.981   2.389   2.372
 8596SOL     OW26686   5.939   5.576   1.679
 8596SOL    HW126687   5.918   5.540   1.588
 8596SOL    HW226688   5.855   5.581   1.733
 8597SOL     OW26689   2.819   1.417   0.705
 8597SOL    HW126690   2.768   1.350   0.651
 8597SOL    HW226691   2.883   1.369   0.766
 8598SOL     OW26692   6.361   3.732   1.055
 8598SOL    HW126693   6.261   3.737   1.066
 8598SOL    HW226694   6.403   3.707   1.142
 8599SOL     OW26695   1.359   2.912   3.150
 8599SOL    HW126696   1.311   2.873   3.228
 8599SOL    HW226697   1.458   2.915   3.168
 8600SOL     OW26698   6.392   5.024   6.609
 8600SOL    HW126699   6.314   5.040   6.548
 8600SOL    HW226700   6.435   5.111   6.631
 8601SOL     OW26701   0.292   6.820   4.053
 8601SOL    HW126702   0.381   6.785   4.023
 8601SOL    HW226703   0.279   6.913   4.019
 8602SOL     OW26704   2.538   5.701   2.240
 8602SOL    HW126705   2.595   5.779   2.268
 8602SOL    HW226706   2.487   5.726   2.157
 8603SOL     OW26707   4.088   3.010   0.417
 8603SOL    HW126708   4.099   3.100   0.459
 8603SOL    HW226709   4.111   3.015   0.320
 8604SOL     OW26710   5.643   3.001   3.831
 8604SOL    HW126711   5.679   3.050   3.911
 8604SOL    HW226712   5.602   3.067   3.768
 8605SOL     OW26713   2.268   5.998   3.526
 8605SOL    HW126714   2.246   6.085   3.482
 8605SOL    HW226715   2.360   6.001   3.562
 8606SOL     OW26716   3.879   4.747   6.015
 8606SOL    HW126717   3.828   4.687   5.954
 8606SOL    HW226718   3.818   4.816   6.054
 8607SOL     OW26719   4.355   5.715   2.179
 8607SOL    HW126720   4.372   5.665   2.264
 8607SOL    HW226721   4.443   5.737   2.136
 8608SOL     OW26722   4.089   5.288   2.817
 8608SOL    HW126723   4.186   5.266   2.815
 8608SOL    HW226724   4.036   5.210   2.783
 8609SOL     OW26725   3.461   0.410   5.186
 8609SOL    HW126726   3.529   0.437   5.254
 8609SOL    HW226727   3.507   0.385   5.101
 8610SOL     OW26728   1.125   6.429   3.437
 8610SOL    HW126729   1.114   6.496   3.512
 8610SOL    HW226730   1.188   6.357   3.466
 8611SOL     OW26731   1.841   1.988   4.701
 8611SOL    HW126732   1.856   2.052   4.776
 8611SOL    HW226733   1.929   1.964   4.661
 8612SOL     OW26734   4.206   3.095   6.384
 8612SOL    HW126735   4.107   3.099   6.372
 8612SOL    HW226736   4.237   3.000   6.373
 8613SOL     OW26737   2.016   1.890   1.027
 8613SOL    HW126738   2.029   1.791   1.018
 8613SOL    HW226739   1.991   1.912   1.121
 8614SOL     OW26740   1.024   2.696   3.042
 8614SOL    HW126741   1.021   2.790   3.076
 8614SOL    HW226742   1.119   2.665   3.036
 8615SOL     OW26743   4.080   1.842   5.795
 8615SOL    HW126744   4.086   1.928   5.744
 8615SOL    HW226745   4.095   1.765   5.733
 8616SOL     OW26746   0.864   4.529   0.337
 8616SOL    HW126747   0.881   4.544   0.434
 8616SOL    HW226748   0.779   4.477   0.325
 8617SOL     OW26749   5.871   2.713   0.864
 8617SOL    HW126750   5.791   2.745   0.814
 8617SOL    HW226751   5.846   2.633   0.919
 8618SOL     OW26752   4.756   6.685   3.088
 8618SOL    HW126753   4.725   6.597   3.124
 8618SOL    HW226754   4.684   6.753   3.101
 8619SOL     OW26755   4.603   5.153   0.047
 8619SOL    HW126756   4.660   5.109   0.116
 8619SOL    HW226757   4.571   5.085   7.000
 8620SOL     OW26758   5.780   6.259   2.211
 8620SOL    HW126759   5.870   6.269   2.169
 8620SOL    HW226760   5.786   6.281   2.309
 8621SOL     OW26761   5.922   1.485   3.801
 8621SOL    HW126762   5.865   1.553   3.847
 8621SOL    HW226763   5.973   1.529   3.727
 8622SOL     OW26764   4.796   5.115   0.486
 8622SOL    HW126765   4.839   5.205   0.491
 8622SOL    HW226766   4.707   5.123   0.442
 8623SOL     OW26767   1.112   3.765   2.920
 8623SOL    HW126768   1.090   3.811   3.006
 8623SOL    HW226769   1.124   3.667   2.937
 8624SOL     OW26770   0.843   4.052   2.918
 8624SOL    HW126771   0.813   3.999   2.997
 8624SOL    HW226772   0.856   3.992   2.840
 8625SOL     OW26773   4.115   1.178   4.506
 8625SOL    HW126774   4.205   1.161   4.468
 8625SOL    HW226775   4.110   1.141   4.599
 8626SOL     OW26776   3.180   3.583   4.260
 8626SOL    HW126777   3.146   3.587   4.353
 8626SOL    HW226778   3.254   3.649   4.249
 8627SOL     OW26779   0.930   0.978   1.115
 8627SOL    HW126780   0.886   1.065   1.139
 8627SOL    HW226781   0.956   0.930   1.199
 8628SOL     OW26782   5.390   1.041   6.677
 8628SOL    HW126783   5.424   1.132   6.653
 8628SOL    HW226784   5.445   0.971   6.632
 8629SOL     OW26785   1.366   4.595   3.967
 8629SOL    HW126786   1.272   4.628   3.967
 8629SOL    HW226787   1.389   4.561   4.059
 8630SOL     OW26788   5.915   4.117   3.940
 8630SOL    HW126789   5.822   4.134   3.910
 8630SOL    HW226790   5.926   4.147   4.034
 8631SOL     OW26791   3.738   6.403   4.783
 8631SOL    HW126792   3.686   6.338   4.727
 8631SOL    HW226793   3.836   6.389   4.769
 8632SOL     OW26794   3.436   0.185   3.224
 8632SOL    HW126795   3.476   0.257   3.281
 8632SOL    HW226796   3.337   0.200   3.215
 8633SOL     OW26797   5.363   1.118   3.960
 8633SOL    HW126798   5.356   1.018   3.960
 8633SOL    HW226799   5.290   1.157   4.015
 8634SOL     OW26800   6.716   4.781   1.786
 8634SOL    HW126801   6.776   4.853   1.822
 8634SOL    HW226802   6.748   4.692   1.817
 8635SOL     OW26803   5.928   3.718   5.868
 8635SOL    HW126804   5.973   3.798   5.906
 8635SOL    HW226805   5.892   3.739   5.778
 8636SOL     OW26806   6.472   6.096   0.628
 8636SOL    HW126807   6.411   6.146   0.689
 8636SOL    HW226808   6.483   6.002   0.662
 8637SOL     OW26809   1.854   0.812   0.825
 8637SOL    HW126810   1.899   0.826   0.914
 8637SOL    HW226811   1.900   0.868   0.756
 8638SOL     OW26812   2.882   4.376   0.187
 8638SOL    HW126813   2.934   4.294   0.210
 8638SOL    HW226814   2.931   4.429   0.117
 8639SOL     OW26815   5.752   3.697   1.829
 8639SOL    HW126816   5.670   3.715   1.774
 8639SOL    HW226817   5.776   3.780   1.880
 8640SOL     OW26818   5.088   4.721   0.888
 8640SOL    HW126819   5.010   4.688   0.942
 8640SOL    HW226820   5.055   4.761   0.802
 8641SOL     OW26821   6.926   4.095   3.219
 8641SOL    HW126822   6.879   4.148   3.290
 8641SOL    HW226823   6.895   4.126   3.129
 8642SOL     OW26824   4.294   0.974   1.925
 8642SOL    HW126825   4.392   0.976   1.944
 8642SOL    HW226826   4.250   0.907   1.984
 8643SOL     OW26827   4.381   0.589   6.527
 8643SOL    HW126828   4.377   0.512   6.464
 8643SOL    HW226829   4.289   0.609   6.562
 8644SOL     OW26830   5.695   2.142   4.772
 8644SOL    HW126831   5.731   2.225   4.813
 8644SOL    HW226832   5.755   2.113   4.697
 8645SOL     OW26833   6.496   3.938   1.434
 8645SOL    HW126834   6.570   4.001   1.414
 8645SOL    HW226835   6.508   3.854   1.380
 8646SOL     OW26836   5.112   0.856   6.928
 8646SOL    HW126837   5.018   0.887   6.915
 8646SOL    HW226838   5.116   0.756   6.922
 8647SOL     OW26839   3.717   4.626   0.110
 8647SOL    HW126840   3.639   4.664   0.161
 8647SOL    HW226841   3.731   4.679   0.027
 8648SOL     OW26842   5.535   0.761   4.537
 8648SOL    HW126843   5.603   0.707   4.487
 8648SOL    HW226844   5.446   0.751   4.495
 8649SOL     OW26845   6.204   3.840   5.533
 8649SOL    HW126846   6.174   3.868   5.442
 8649SOL    HW226847   6.266   3.910   5.570
 8650SOL     OW26848   2.218   5.286   3.942
 8650SOL    HW126849   2.157   5.209   3.956
 8650SOL    HW226850   2.297   5.258   3.888
 8651SOL     OW26851   3.923   1.669   0.077
 8651SOL    HW126852   3.959   1.577   0.061
 8651SOL    HW226853   3.830   1.674   0.041
 8652SOL     OW26854   2.098   3.783   3.607
 8652SOL    HW126855   2.171   3.845   3.578
 8652SOL    HW226856   2.077   3.719   3.533
 8653SOL     OW26857   0.478   2.774   6.696
 8653SOL    HW126858   0.483   2.818   6.786
 8653SOL    HW226859   0.382   2.753   6.675
 8654SOL     OW26860   0.215   6.530   3.108
 8654SOL    HW126861   0.308   6.539   3.144
 8654SOL    HW226862   0.158   6.603   3.146
 8655SOL     OW26863   5.792   6.486   4.401
 8655SOL    HW126864   5.748   6.423   4.338
 8655SOL    HW226865   5.722   6.532   4.456
 8656SOL     OW26866   6.430   0.923   1.174
 8656SOL    HW126867   6.394   0.832   1.190
 8656SOL    HW226868   6.481   0.953   1.255
 8657SOL     OW26869   4.821   4.915   6.321
 8657SOL    HW126870   4.900   4.854   6.316
 8657SOL    HW226871   4.738   4.865   6.297
 8658SOL     OW26872   5.648   4.797   0.374
 8658SOL    HW126873   5.625   4.785   0.471
 8658SOL    HW226874   5.568   4.830   0.325
 8659SOL     OW26875   4.576   0.595   3.165
 8659SOL    HW126876   4.612   0.573   3.256
 8659SOL    HW226877   4.652   0.621   3.106
 8660SOL     OW26878   5.675   3.494   0.518
 8660SOL    HW126879   5.599   3.541   0.472
 8660SOL    HW226880   5.760   3.543   0.499
 8661SOL     OW26881   6.581   4.404   1.700
 8661SOL    HW126882   6.591   4.305   1.711
 8661SOL    HW226883   6.533   4.424   1.615
 8662SOL     OW26884   6.360   6.233   1.234
 8662SOL    HW126885   6.328   6.293   1.307
 8662SOL    HW226886   6.353   6.280   1.146
 8663SOL     OW26887   2.317   5.644   0.925
 8663SOL    HW126888   2.248   5.577   0.951
 8663SOL    HW226889   2.378   5.604   0.856
 8664SOL     OW26890   4.017   5.791   6.832
 8664SOL    HW126891   4.089   5.818   6.768
 8664SOL    HW226892   4.054   5.790   6.925
 8665SOL     OW26893   4.275   5.515   5.134
 8665SOL    HW126894   4.207   5.536   5.063
 8665SOL    HW226895   4.359   5.565   5.116
 8666SOL     OW26896   4.930   2.746   5.371
 8666SOL    HW126897   5.030   2.739   5.372
 8666SOL    HW226898   4.890   2.668   5.419
 8667SOL     OW26899   5.088   1.643   3.386
 8667SOL    HW126900   5.044   1.716   3.334
 8667SOL    HW226901   5.172   1.678   3.428
 8668SOL     OW26902   5.076   2.203   4.182
 8668SOL    HW126903   5.170   2.204   4.216
 8668SOL    HW226904   5.074   2.167   4.089
 8669SOL     OW26905   4.508   0.770   5.868
 8669SOL    HW126906   4.552   0.684   5.892
 8669SOL    HW226907   4.476   0.766   5.773
 8670SOL     OW26908   3.786   5.421   4.367
 8670SOL    HW126909   3.764   5.323   4.375
 8670SOL    HW226910   3.792   5.462   4.458
 8671SOL     OW26911   6.152   6.985   3.545
 8671SOL    HW126912   6.102   0.049   3.521
 8671SOL    HW226913   6.123   6.953   3.635
 8672SOL     OW26914   3.364   4.993   4.327
 8672SOL    HW126915   3.317   5.061   4.270
 8672SOL    HW226916   3.381   5.031   4.417
 8673SOL     OW26917   6.857   1.948   0.593
 8673SOL    HW126918   6.869   1.858   0.550
 8673SOL    HW226919   6.767   1.984   0.569
 8674SOL     OW26920   6.996   0.497   2.709
 8674SOL    HW126921   6.961   0.585   2.676
 8674SOL    HW226922   0.037   0.512   2.787
 8675SOL     OW26923   2.785   1.387   3.600
 8675SOL    HW126924   2.788   1.463   3.535
 8675SOL    HW226925   2.743   1.307   3.557
 8676SOL     OW26926   3.982   0.234   2.575
 8676SOL    HW126927   3.937   0.161   2.626
 8676SOL    HW226928   3.973   0.217   2.477
 8677SOL     OW26929   2.808   3.957   6.278
 8677SOL    HW126930   2.827   3.962   6.180
 8677SOL    HW226931   2.822   4.047   6.320
 8678SOL     OW26932   1.387   0.411   6.490
 8678SOL    HW126933   1.291   0.433   6.474
 8678SOL    HW226934   1.399   0.312   6.491
 8679SOL     OW26935   6.321   1.751   5.292
 8679SOL    HW126936   6.322   1.654   5.269
 8679SOL    HW226937   6.409   1.792   5.269
 8680SOL     OW26938   1.854   3.566   0.154
 8680SOL    HW126939   1.930   3.593   0.212
 8680SOL    HW226940   1.860   3.615   0.067
 8681SOL     OW26941   4.089   4.504   0.640
 8681SOL    HW126942   4.006   4.555   0.618
 8681SOL    HW226943   4.153   4.510   0.563
 8682SOL     OW26944   2.725   6.532   2.668
 8682SOL    HW126945   2.638   6.483   2.662
 8682SOL    HW226946   2.708   6.630   2.660
 8683SOL     OW26947   1.017   3.010   1.176
 8683SOL    HW126948   1.069   2.988   1.258
 8683SOL    HW226949   1.073   2.994   1.095
 8684SOL     OW26950   6.180   2.693   5.317
 8684SOL    HW126951   6.208   2.611   5.368
 8684SOL    HW226952   6.232   2.699   5.232
 8685SOL     OW26953   0.837   1.909   6.887
 8685SOL    HW126954   0.915   1.865   6.843
 8685SOL    HW226955   0.752   1.868   6.854
 8686SOL     OW26956   0.032   1.890   2.786
 8686SOL    HW126957   6.995   1.887   2.703
 8686SOL    HW226958   0.118   1.841   2.770
 8687SOL     OW26959   3.556   6.721   2.197
 8687SOL    HW126960   3.641   6.747   2.150
 8687SOL    HW226961   3.527   6.631   2.165
 8688SOL     OW26962   3.177   6.879   1.122
 8688SOL    HW126963   3.189   6.848   1.216
 8688SOL    HW226964   3.259   6.928   1.092
 8689SOL     OW26965   4.309   5.597   0.297
 8689SOL    HW126966   4.354   5.670   0.245
 8689SOL    HW226967   4.310   5.513   0.243
 8690SOL     OW26968   0.866   1.732   3.500
 8690SOL    HW126969   0.868   1.824   3.460
 8690SOL    HW226970   0.952   1.685   3.479
 8691SOL     OW26971   4.764   2.617   6.672
 8691SOL    HW126972   4.769   2.533   6.618
 8691SOL    HW226973   4.820   2.688   6.630
 8692SOL     OW26974   2.772   2.121   3.423
 8692SOL    HW126975   2.733   2.130   3.331
 8692SOL    HW226976   2.786   2.024   3.444
 8693SOL     OW26977   5.782   1.996   0.679
 8693SOL    HW126978   5.756   2.056   0.604
 8693SOL    HW226979   5.855   2.039   0.732
 8694SOL     OW26980   4.728   0.025   6.844
 8694SOL    HW126981   4.775   0.040   6.930
 8694SOL    HW226982   4.781   0.064   6.769
 8695SOL     OW26983   5.154   3.081   5.405
 8695SOL    HW126984   5.087   3.031   5.459
 8695SOL    HW226985   5.234   3.023   5.390
 8696SOL     OW26986   3.086   5.674   0.965
 8696SOL    HW126987   3.112   5.770   0.970
 8696SOL    HW226988   3.087   5.645   0.869
 8697SOL     OW26989   6.810   3.358   1.189
 8697SOL    HW126990   6.781   3.356   1.094
 8697SOL    HW226991   6.907   3.381   1.193
 8698SOL     OW26992   5.404   5.769   4.677
 8698SOL    HW126993   5.373   5.804   4.588
 8698SOL    HW226994   5.440   5.676   4.665
 8699SOL     OW26995   0.868   1.539   5.751
 8699SOL    HW126996   0.955   1.539   5.702
 8699SOL    HW226997   0.799   1.490   5.697
 8700SOL     OW26998   2.095   0.706   4.872
 8700SOL    HW126999   2.147   0.694   4.956
 8700SOL    HW227000   2.139   0.777   4.816
 8701SOL     OW27001   0.923   0.991   5.269
 8701SOL    HW127002   0.904   1.014   5.365
 8701SOL    HW227003   1.001   1.044   5.237
 8702SOL     OW27004   5.548   4.818   0.630
 8702SOL    HW127005   5.573   4.757   0.705
 8702SOL    HW227006   5.453   4.848   0.640
 8703SOL     OW27007   3.270   5.619   1.181
 8703SOL    HW127008   3.202   5.656   1.117
 8703SOL    HW227009   3.240   5.530   1.214
 8704SOL     OW27010   6.807   4.603   2.428
 8704SOL    HW127011   6.717   4.563   2.410
 8704SOL    HW227012   6.805   4.700   2.404
 8705SOL     OW27013   4.945   0.493   6.157
 8705SOL    HW127014   4.854   0.518   6.190
 8705SOL    HW227015   4.938   0.462   6.062
 8706SOL     OW27016   4.881   2.026   6.746
 8706SOL    HW127017   4.834   1.992   6.665
 8706SOL    HW227018   4.966   2.071   6.718
 8707SOL     OW27019   4.504   3.223   6.865
 8707SOL    HW127020   4.480   3.204   6.770
 8707SOL    HW227021   4.485   3.142   6.921
 8708SOL     OW27022   3.625   1.159   1.590
 8708SOL    HW127023   3.637   1.245   1.638
 8708SOL    HW227024   3.627   1.175   1.491
 8709SOL     OW27025   6.990   4.690   0.181
 8709SOL    HW127026   6.960   4.759   0.116
 8709SOL    HW227027   0.067   4.666   0.162
 8710SOL     OW27028   1.562   3.388   2.786
 8710SOL    HW127029   1.548   3.426   2.695
 8710SOL    HW227030   1.609   3.300   2.778
 8711SOL     OW27031   6.322   0.601   2.883
 8711SOL    HW127032   6.332   0.696   2.914
 8711SOL    HW227033   6.267   0.599   2.800
 8712SOL     OW27034   3.356   1.653   4.592
 8712SOL    HW127035   3.322   1.580   4.533
 8712SOL    HW227036   3.405   1.613   4.670
 8713SOL     OW27037   6.977   4.290   3.910
 8713SOL    HW127038   6.981   4.218   3.841
 8713SOL    HW227039   6.883   4.301   3.942
 8714SOL     OW27040   1.359   1.250   6.139
 8714SOL    HW127041   1.390   1.162   6.174
 8714SOL    HW227042   1.334   1.241   6.042
 8715SOL     OW27043   6.346   0.908   1.562
 8715SOL    HW127044   6.435   0.945   1.536
 8715SOL    HW227045   6.278   0.981   1.565
 8716SOL     OW27046   0.485   1.522   1.711
 8716SOL    HW127047   0.532   1.468   1.641
 8716SOL    HW227048   0.527   1.505   1.800
 8717SOL     OW27049   4.079   3.718   2.190
 8717SOL    HW127050   4.059   3.815   2.202
 8717SOL    HW227051   4.081   3.673   2.279
 8718SOL     OW27052   0.083   2.379   4.675
 8718SOL    HW127053   0.030   2.295   4.673
 8718SOL    HW227054   0.033   2.451   4.628
 8719SOL     OW27055   1.429   0.713   5.385
 8719SOL    HW127056   1.403   0.710   5.481
 8719SOL    HW227057   1.474   0.800   5.364
 8720SOL     OW27058   5.837   5.306   4.994
 8720SOL    HW127059   5.806   5.309   5.089
 8720SOL    HW227060   5.904   5.378   4.978
 8721SOL     OW27061   6.458   1.604   4.430
 8721SOL    HW127062   6.361   1.594   4.453
 8721SOL    HW227063   6.473   1.693   4.387
 8722SOL     OW27064   3.635   1.969   0.575
 8722SOL    HW127065   3.554   1.925   0.613
 8722SOL    HW227066   3.689   1.901   0.525
 8723SOL     OW27067   6.350   5.595   0.577
 8723SOL    HW127068   6.422   5.640   0.522
 8723SOL    HW227069   6.267   5.587   0.523
 8724SOL     OW27070   5.629   0.127   5.868
 8724SOL    HW127071   5.714   0.119   5.921
 8724SOL    HW227072   5.584   0.038   5.863
 8725SOL     OW27073   2.056   0.206   0.182
 8725SOL    HW127074   1.981   0.273   0.181
 8725SOL    HW227075   2.131   0.238   0.125
 8726SOL     OW27076   5.919   6.901   1.476
 8726SOL    HW127077   5.913   7.000   1.489
 8726SOL    HW227078   6.000   6.879   1.423
 8727SOL     OW27079   6.675   6.221   1.717
 8727SOL    HW127080   6.641   6.291   1.780
 8727SOL    HW227081   6.752   6.257   1.665
 8728SOL     OW27082   2.982   6.732   5.230
 8728SOL    HW127083   3.009   6.650   5.178
 8728SOL    HW227084   3.044   6.744   5.308
 8729SOL     OW27085   4.229   5.641   3.370
 8729SOL    HW127086   4.270   5.617   3.282
 8729SOL    HW227087   4.160   5.712   3.357
 8730SOL     OW27088   0.051   5.800   2.279
 8730SOL    HW127089   7.008   5.730   2.314
 8730SOL    HW227090   0.076   5.779   2.185
 8731SOL     OW27091   1.051   2.112   3.509
 8731SOL    HW127092   1.149   2.091   3.511
 8731SOL    HW227093   1.011   2.095   3.600
 8732SOL     OW27094   5.413   4.109   1.950
 8732SOL    HW127095   5.437   4.025   1.999
 8732SOL    HW227096   5.419   4.187   2.012
 8733SOL     OW27097   1.045   6.469   2.202
 8733SOL    HW127098   1.049   6.523   2.286
 8733SOL    HW227099   1.138   6.450   2.171
 8734SOL     OW27100   0.694   5.507   1.484
 8734SOL    HW127101   0.744   5.572   1.541
 8734SOL    HW227102   0.719   5.414   1.511
 8735SOL     OW27103   0.553   1.873   0.452
 8735SOL    HW127104   0.609   1.917   0.381
 8735SOL    HW227105   0.462   1.914   0.452
 8736SOL     OW27106   0.770   5.598   6.888
 8736SOL    HW127107   0.690   5.613   6.946
 8736SOL    HW227108   0.744   5.612   6.792
 8737SOL     OW27109   3.312   6.229   5.821
 8737SOL    HW127110   3.350   6.139   5.842
 8737SOL    HW227111   3.220   6.237   5.861
 8738SOL     OW27112   1.537   3.981   4.004
 8738SOL    HW127113   1.555   3.969   4.102
 8738SOL    HW227114   1.586   3.910   3.953
 8739SOL     OW27115   6.757   3.329   5.660
 8739SOL    HW127116   6.675   3.366   5.703
 8739SOL    HW227117   6.834   3.392   5.675
 8740SOL     OW27118   2.744   0.337   6.280
 8740SOL    HW127119   2.689   0.317   6.199
 8740SOL    HW227120   2.747   0.436   6.295
 8741SOL     OW27121   1.235   2.842   2.286
 8741SOL    HW127122   1.165   2.775   2.311
 8741SOL    HW227123   1.201   2.899   2.212
 8742SOL     OW27124   4.974   6.826   1.533
 8742SOL    HW127125   4.987   6.733   1.569
 8742SOL    HW227126   4.969   6.890   1.609
 8743SOL     OW27127   1.895   5.877   1.942
 8743SOL    HW127128   1.941   5.950   1.891
 8743SOL    HW227129   1.958   5.839   2.010
 8744SOL     OW27130   4.509   2.719   6.709
 8744SOL    HW127131   4.603   2.687   6.707
 8744SOL    HW227132   4.488   2.755   6.801
 8745SOL     OW27133   5.919   2.064   5.318
 8745SOL    HW127134   5.859   1.992   5.283
 8745SOL    HW227135   6.007   2.026   5.345
 8746SOL     OW27136   4.981   5.095   5.811
 8746SOL    HW127137   5.012   5.043   5.890
 8746SOL    HW227138   4.886   5.122   5.825
 8747SOL     OW27139   1.263   2.666   3.998
 8747SOL    HW127140   1.266   2.620   4.086
 8747SOL    HW227141   1.185   2.633   3.945
 8748SOL     OW27142   1.392   0.694   6.574
 8748SOL    HW127143   1.439   0.759   6.515
 8748SOL    HW227144   1.386   0.605   6.528
 8749SOL     OW27145   3.680   0.948   3.846
 8749SOL    HW127146   3.777   0.947   3.871
 8749SOL    HW227147   3.664   0.887   3.768
 8750SOL     OW27148   1.821   2.180   5.072
 8750SOL    HW127149   1.734   2.181   5.023
 8750SOL    HW227150   1.895   2.162   5.006
 8751SOL     OW27151   0.777   0.016   2.030
 8751SOL    HW127152   0.754   0.092   2.090
 8751SOL    HW227153   0.753   6.949   2.074
 8752SOL     OW27154   2.516   3.371   6.419
 8752SOL    HW127155   2.486   3.424   6.498
 8752SOL    HW227156   2.437   3.324   6.378
 8753SOL     OW27157   5.082   1.286   5.184
 8753SOL    HW127158   4.983   1.284   5.200
 8753SOL    HW227159   5.129   1.310   5.269
 8754SOL     OW27160   0.586   1.574   6.129
 8754SOL    HW127161   0.498   1.527   6.138
 8754SOL    HW227162   0.646   1.520   6.069
 8755SOL     OW27163   2.686   0.696   0.393
 8755SOL    HW127164   2.615   0.649   0.341
 8755SOL    HW227165   2.763   0.634   0.410
 8756SOL     OW27166   2.265   2.807   3.843
 8756SOL    HW127167   2.307   2.717   3.856
 8756SOL    HW227168   2.166   2.796   3.834
 8757SOL     OW27169   4.181   6.512   4.845
 8757SOL    HW127170   4.276   6.483   4.834
 8757SOL    HW227171   4.178   6.610   4.864
 8758SOL     OW27172   5.784   6.420   1.606
 8758SOL    HW127173   5.689   6.440   1.583
 8758SOL    HW227174   5.795   6.322   1.618
 8759SOL     OW27175   4.921   0.732   5.764
 8759SOL    HW127176   4.866   0.815   5.776
 8759SOL    HW227177   4.993   0.730   5.834
 8760SOL     OW27178   1.637   1.969   4.483
 8760SOL    HW127179   1.657   1.871   4.477
 8760SOL    HW227180   1.707   2.014   4.539
 8761SOL     OW27181   5.283   0.519   6.936
 8761SOL    HW127182   5.344   0.597   6.923
 8761SOL    HW227183   5.295   0.454   6.861
 8762SOL     OW27184   1.441   3.574   1.173
 8762SOL    HW127185   1.368   3.639   1.150
 8762SOL    HW227186   1.412   3.518   1.250
 8763SOL     OW27187   6.882   6.382   5.738
 8763SOL    HW127188   6.884   6.475   5.774
 8763SOL    HW227189   6.821   6.326   5.793
 8764SOL     OW27190   4.932   1.485   4.067
 8764SOL    HW127191   4.928   1.414   4.137
 8764SOL    HW227192   4.840   1.508   4.037
 8765SOL     OW27193   5.183   6.696   4.770
 8765SOL    HW127194   5.265   6.732   4.726
 8765SOL    HW227195   5.207   6.655   4.858
 8766SOL     OW27196   2.497   4.866   2.727
 8766SOL    HW127197   2.587   4.825   2.711
 8766SOL    HW227198   2.464   4.838   2.817
 8767SOL     OW27199   4.672   1.097   3.154
 8767SOL    HW127200   4.606   1.169   3.131
 8767SOL    HW227201   4.671   1.027   3.082
 8768SOL     OW27202   1.786   3.365   0.422
 8768SOL    HW127203   1.743   3.437   0.368
 8768SOL    HW227204   1.876   3.344   0.385
 8769SOL     OW27205   1.093   6.985   5.803
 8769SOL    HW127206   1.126   6.928   5.879
 8769SOL    HW227207   1.118   6.943   5.716
 8770SOL     OW27208   5.060   4.223   1.452
 8770SOL    HW127209   5.070   4.147   1.516
 8770SOL    HW227210   5.045   4.187   1.360
 8771SOL     OW27211   1.792   1.451   6.816
 8771SOL    HW127212   1.838   1.367   6.789
 8771SOL    HW227213   1.824   1.526   6.758
 8772SOL     OW27214   5.880   1.461   6.433
 8772SOL    HW127215   5.879   1.434   6.529
 8772SOL    HW227216   5.967   1.434   6.392
 8773SOL     OW27217   3.256   2.100   3.024
 8773SOL    HW127218   3.210   2.107   2.935
 8773SOL    HW227219   3.189   2.112   3.097
 8774SOL     OW27220   0.906   1.645   0.765
 8774SOL    HW127221   0.920   1.717   0.833
 8774SOL    HW227222   0.813   1.649   0.731
 8775SOL     OW27223   5.890   6.801   3.287
 8775SOL    HW127224   5.939   6.750   3.358
 8775SOL    HW227225   5.934   6.785   3.198
 8776SOL     OW27226   3.066   3.060   4.840
 8776SOL    HW127227   2.978   3.014   4.834
 8776SOL    HW227228   3.103   3.050   4.932
 8777SOL     OW27229   6.324   5.619   2.119
 8777SOL    HW127230   6.305   5.522   2.103
 8777SOL    HW227231   6.286   5.673   2.044
 8778SOL     OW27232   0.026   2.015   3.580
 8778SOL    HW127233   0.032   1.958   3.499
 8778SOL    HW227234   6.949   2.031   3.602
 8779SOL     OW27235   1.849   4.571   1.524
 8779SOL    HW127236   1.783   4.554   1.597
 8779SOL    HW227237   1.803   4.565   1.435
 8780SOL     OW27238   0.522   5.339   4.168
 8780SOL    HW127239   0.516   5.438   4.161
 8780SOL    HW227240   0.617   5.310   4.157
 8781SOL     OW27241   0.690   1.733   2.911
 8781SOL    HW127242   0.669   1.798   2.985
 8781SOL    HW227243   0.607   1.686   2.883
 8782SOL     OW27244   4.644   1.473   2.479
 8782SOL    HW127245   4.576   1.519   2.422
 8782SOL    HW227246   4.631   1.501   2.574
 8783SOL     OW27247   5.986   3.726   4.253
 8783SOL    HW127248   6.077   3.736   4.214
 8783SOL    HW227249   5.922   3.787   4.206
 8784SOL     OW27250   5.639   5.688   5.501
 8784SOL    HW127251   5.683   5.657   5.417
 8784SOL    HW227252   5.539   5.685   5.489
 8785SOL     OW27253   5.344   4.254   6.890
 8785SOL    HW127254   5.359   4.199   6.808
 8785SOL    HW227255   5.421   4.317   6.903
 8786SOL     OW27256   1.557   6.554   0.100
 8786SOL    HW127257   1.608   6.639   0.110
 8786SOL    HW227258   1.613   6.487   0.052
 8787SOL     OW27259   2.169   3.480   1.560
 8787SOL    HW127260   2.254   3.531   1.545
 8787SOL    HW227261   2.143   3.485   1.656
 8788SOL     OW27262   6.588   1.851   5.264
 8788SOL    HW127263   6.584   1.949   5.285
 8788SOL    HW227264   6.638   1.837   5.178
 8789SOL     OW27265   6.526   0.045   6.585
 8789SOL    HW127266   6.484   6.974   6.593
 8789SOL    HW227267   6.473   0.112   6.637
 8790SOL     OW27268   6.826   1.789   6.619
 8790SOL    HW127269   6.865   1.723   6.554
 8790SOL    HW227270   6.730   1.767   6.634
 8791SOL     OW27271   4.717   6.768   5.730
 8791SOL    HW127272   4.713   6.777   5.830
 8791SOL    HW227273   4.811   6.783   5.699
 8792SOL     OW27274   4.524   6.832   3.133
 8792SOL    HW127275   4.535   6.828   3.233
 8792SOL    HW227276   4.482   6.919   3.108
 8793SOL     OW27277   2.078   5.873   3.643
 8793SOL    HW127278   2.162   5.917   3.609
 8793SOL    HW227279   2.003   5.940   3.643
 8794SOL     OW27280   1.966   6.646   2.726
 8794SOL    HW127281   1.923   6.578   2.785
 8794SOL    HW227282   1.895   6.704   2.685
 8795SOL     OW27283   1.761   6.587   5.774
 8795SOL    HW127284   1.752   6.522   5.850
 8795SOL    HW227285   1.857   6.596   5.749
 8796SOL     OW27286   4.653   2.009   5.486
 8796SOL    HW127287   4.585   2.019   5.558
 8796SOL    HW227288   4.617   2.047   5.401
 8797SOL     OW27289   0.538   6.176   6.160
 8797SOL    HW127290   0.528   6.268   6.123
 8797SOL    HW227291   0.498   6.110   6.096
 8798SOL     OW27292   5.541   3.514   5.241
 8798SOL    HW127293   5.462   3.489   5.185
 8798SOL    HW227294   5.511   3.534   5.334
 8799SOL     OW27295   3.200   4.861   2.991
 8799SOL    HW127296   3.279   4.815   3.031
 8799SOL    HW227297   3.230   4.927   2.923
 8800SOL     OW27298   4.629   4.678   6.119
 8800SOL    HW127299   4.543   4.627   6.117
 8800SOL    HW227300   4.611   4.776   6.129
 8801SOL     OW27301   2.569   1.413   4.311
 8801SOL    HW127302   2.654   1.459   4.336
 8801SOL    HW227303   2.491   1.461   4.352
 8802SOL     OW27304   1.986   6.143   2.292
 8802SOL    HW127305   1.935   6.192   2.221
 8802SOL    HW227306   2.076   6.118   2.256
 8803SOL     OW27307   2.636   5.735   0.047
 8803SOL    HW127308   2.721   5.688   0.071
 8803SOL    HW227309   2.562   5.704   0.107
 8804SOL     OW27310   3.939   0.530   1.374
 8804SOL    HW127311   3.909   0.613   1.328
 8804SOL    HW227312   3.968   0.463   1.306
 8805SOL     OW27313   0.822   0.178   3.454
 8805SOL    HW127314   0.904   0.124   3.469
 8805SOL    HW227315   0.845   0.260   3.401
 8806SOL     OW27316   1.579   5.017   0.303
 8806SOL    HW127317   1.550   5.016   0.399
 8806SOL    HW227318   1.679   5.019   0.298
 8807SOL     OW27319   0.123   6.198   5.945
 8807SOL    HW127320   0.174   6.113   5.959
 8807SOL    HW227321   0.028   6.176   5.923
 8808SOL     OW27322   5.301   1.182   0.195
 8808SOL    HW127323   5.304   1.216   0.101
 8808SOL    HW227324   5.294   1.082   0.193
 8809SOL     OW27325   5.839   4.023   1.683
 8809SOL    HW127326   5.792   4.070   1.758
 8809SOL    HW227327   5.892   3.947   1.720
 8810SOL     OW27328   4.480   1.476   3.399
 8810SOL    HW127329   4.405   1.512   3.453
 8810SOL    HW227330   4.497   1.381   3.425
 8811SOL     OW27331   2.773   1.799   2.989
 8811SOL    HW127332   2.798   1.741   2.911
 8811SOL    HW227333   2.719   1.746   3.054
 8812SOL     OW27334   0.943   0.898   0.601
 8812SOL    HW127335   0.905   0.881   0.692
 8812SOL    HW227336   0.919   0.823   0.540
 8813SOL     OW27337   1.378   6.416   1.867
 8813SOL    HW127338   1.320   6.467   1.803
 8813SOL    HW227339   1.324   6.388   1.946
 8814SOL     OW27340   6.295   0.981   6.994
 8814SOL    HW127341   6.266   0.917   0.047
 8814SOL    HW227342   6.388   0.958   6.966
 8815SOL     OW27343   0.347   6.046   2.103
 8815SOL    HW127344   0.407   6.114   2.062
 8815SOL    HW227345   0.265   6.036   2.046
 8816SOL     OW27346   1.294   5.823   1.621
 8816SOL    HW127347   1.302   5.726   1.647
 8816SOL    HW227348   1.385   5.866   1.624
 8817SOL     OW27349   1.395   5.750   5.272
 8817SOL    HW127350   1.378   5.838   5.317
 8817SOL    HW227351   1.342   5.746   5.187
 8818SOL     OW27352   0.447   4.476   4.206
 8818SOL    HW127353   0.533   4.483   4.156
 8818SOL    HW227354   0.465   4.470   4.304
 8819SOL     OW27355   5.157   6.432   4.104
 8819SOL    HW127356   5.120   6.447   4.196
 8819SOL    HW227357   5.087   6.391   4.046
 8820SOL     OW27358   1.929   2.599   4.275
 8820SOL    HW127359   1.972   2.686   4.301
 8820SOL    HW227360   1.923   2.540   4.356
 8821SOL     OW27361   2.733   0.615   6.297
 8821SOL    HW127362   2.814   0.671   6.280
 8821SOL    HW227363   2.721   0.604   6.396
 8822SOL     OW27364   0.658   1.398   3.365
 8822SOL    HW127365   0.740   1.353   3.329
 8822SOL    HW227366   0.670   1.497   3.361
 8823SOL     OW27367   1.687   6.793   0.909
 8823SOL    HW127368   1.714   6.803   0.813
 8823SOL    HW227369   1.617   6.860   0.931
 8824SOL     OW27370   3.240   4.008   0.673
 8824SOL    HW127371   3.333   4.012   0.709
 8824SOL    HW227372   3.181   4.069   0.725
 8825SOL     OW27373   1.215   1.042   2.279
 8825SOL    HW127374   1.256   1.034   2.189
 8825SOL    HW227375   1.263   1.112   2.332
 8826SOL     OW27376   5.700   1.159   6.454
 8826SOL    HW127377   5.607   1.189   6.473
 8826SOL    HW227378   5.726   1.187   6.361
 8827SOL     OW27379   1.966   1.573   3.289
 8827SOL    HW127380   2.035   1.575   3.361
 8827SOL    HW227381   1.935   1.666   3.270
 8828SOL     OW27382   2.599   6.281   2.462
 8828SOL    HW127383   2.524   6.283   2.529
 8828SOL    HW227384   2.598   6.193   2.414
 8829SOL     OW27385   0.349   2.125   6.984
 8829SOL    HW127386   0.430   2.160   6.936
 8829SOL    HW227387   0.268   2.170   6.947
 8830SOL     OW27388   0.807   1.357   0.131
 8830SOL    HW127389   0.879   1.327   0.194
 8830SOL    HW227390   0.834   1.443   0.088
 8831SOL     OW27391   6.396   1.064   3.131
 8831SOL    HW127392   6.320   1.054   3.196
 8831SOL    HW227393   6.483   1.066   3.180
 8832SOL     OW27394   6.580   0.468   2.503
 8832SOL    HW127395   6.538   0.398   2.445
 8832SOL    HW227396   6.679   0.468   2.489
 8833SOL     OW27397   2.351   5.120   4.577
 8833SOL    HW127398   2.411   5.051   4.618
 8833SOL    HW227399   2.256   5.088   4.580
 8834SOL     OW27400   5.881   3.058   4.892
 8834SOL    HW127401   5.928   3.109   4.964
 8834SOL    HW227402   5.916   2.965   4.889
 8835SOL     OW27403   6.979   6.590   5.508
 8835SOL    HW127404   6.999   6.493   5.492
 8835SOL    HW227405   0.046   6.640   5.520
 8836SOL     OW27406   4.301   1.485   0.090
 8836SOL    HW127407   4.327   1.466   0.185
 8836SOL    HW227408   4.382   1.476   0.031
 8837SOL     OW27409   0.356   0.766   1.600
 8837SOL    HW127410   0.311   0.682   1.569
 8837SOL    HW227411   0.322   0.844   1.546
 8838SOL     OW27412   2.721   5.330   3.198
 8838SOL    HW127413   2.754   5.254   3.143
 8838SOL    HW227414   2.697   5.296   3.290
 8839SOL     OW27415   6.250   6.125   3.424
 8839SOL    HW127416   6.310   6.047   3.441
 8839SOL    HW227417   6.231   6.173   3.510
 8840SOL     OW27418   5.638   2.406   2.327
 8840SOL    HW127419   5.699   2.330   2.348
 8840SOL    HW227420   5.682   2.492   2.354
 8841SOL     OW27421   0.906   1.802   5.209
 8841SOL    HW127422   0.852   1.866   5.264
 8841SOL    HW227423   0.849   1.765   5.135
 8842SOL     OW27424   2.349   2.633   1.601
 8842SOL    HW127425   2.290   2.711   1.580
 8842SOL    HW227426   2.391   2.600   1.517
 8843SOL     OW27427   1.235   2.426   5.086
 8843SOL    HW127428   1.275   2.465   5.169
 8843SOL    HW227429   1.147   2.469   5.067
 8844SOL     OW27430   6.535   1.034   6.148
 8844SOL    HW127431   6.446   1.033   6.101
 8844SOL    HW227432   6.526   1.083   6.235
 8845SOL     OW27433   4.799   4.077   0.457
 8845SOL    HW127434   4.817   4.051   0.362
 8845SOL    HW227435   4.817   3.999   0.517
 8846SOL     OW27436   2.092   4.403   3.958
 8846SOL    HW127437   2.166   4.342   3.932
 8846SOL    HW227438   2.117   4.498   3.938
 8847SOL     OW27439   2.984   0.252   1.970
 8847SOL    HW127440   2.975   0.222   1.875
 8847SOL    HW227441   3.080   0.243   1.998
 8848SOL     OW27442   1.773   0.425   2.171
 8848SOL    HW127443   1.676   0.406   2.184
 8848SOL    HW227444   1.784   0.511   2.122
 8849SOL     OW27445   2.517   6.691   1.707
 8849SOL    HW127446   2.496   6.772   1.652
 8849SOL    HW227447   2.609   6.658   1.684
 8850SOL     OW27448   3.518   2.523   6.668
 8850SOL    HW127449   3.597   2.501   6.610
 8850SOL    HW227450   3.549   2.542   6.761
 8851SOL     OW27451   1.649   4.437   2.232
 8851SOL    HW127452   1.628   4.492   2.151
 8851SOL    HW227453   1.747   4.442   2.251
 8852SOL     OW27454   0.951   1.371   6.177
 8852SOL    HW127455   0.873   1.331   6.226
 8852SOL    HW227456   1.018   1.405   6.243
 8853SOL     OW27457   3.734   1.071   0.476
 8853SOL    HW127458   3.673   1.148   0.459
 8853SOL    HW227459   3.681   0.994   0.511
 8854SOL     OW27460   1.580   3.129   5.152
 8854SOL    HW127461   1.484   3.100   5.140
 8854SOL    HW227462   1.633   3.052   5.188
 8855SOL     OW27463   5.656   5.209   1.051
 8855SOL    HW127464   5.707   5.151   0.987
 8855SOL    HW227465   5.559   5.204   1.030
 8856SOL     OW27466   0.978   5.612   6.242
 8856SOL    HW127467   0.958   5.708   6.262
 8856SOL    HW227468   1.030   5.572   6.317
 8857SOL     OW27469   6.422   0.939   5.140
 8857SOL    HW127470   6.436   0.990   5.055
 8857SOL    HW227471   6.331   0.899   5.139
 8858SOL     OW27472   6.033   4.625   4.597
 8858SOL    HW127473   6.098   4.701   4.598
 8858SOL    HW227474   6.008   4.602   4.691
 8859SOL     OW27475   0.488   0.916   3.722
 8859SOL    HW127476   0.390   0.912   3.704
 8859SOL    HW227477   0.528   0.992   3.671
 8860SOL     OW27478   6.620   2.273   1.692
 8860SOL    HW127479   6.543   2.218   1.661
 8860SOL    HW227480   6.663   2.228   1.771
 8861SOL     OW27481   4.129   2.287   1.472
 8861SOL    HW127482   4.135   2.356   1.544
 8861SOL    HW227483   4.220   2.273   1.432
 8862SOL     OW27484   4.709   4.980   5.227
 8862SOL    HW127485   4.758   5.056   5.269
 8862SOL    HW227486   4.746   4.964   5.135
 8863SOL     OW27487   2.286   4.053   3.837
 8863SOL    HW127488   2.282   3.976   3.901
 8863SOL    HW227489   2.275   4.019   3.744
 8864SOL     OW27490   5.882   1.485   5.209
 8864SOL    HW127491   5.965   1.443   5.246
 8864SOL    HW227492   5.863   1.570   5.257
 8865SOL     OW27493   2.093   1.463   6.660
 8865SOL    HW127494   2.032   1.508   6.594
 8865SOL    HW227495   2.182   1.445   6.617
 8866SOL     OW27496   6.058   5.712   2.212
 8866SOL    HW127497   6.136   5.649   2.224
 8866SOL    HW227498   6.091   5.798   2.174
 8867SOL     OW27499   6.579   3.937   2.592
 8867SOL    HW127500   6.525   3.865   2.634
 8867SOL    HW227501   6.666   3.900   2.559
 8868SOL     OW27502   0.148   3.692   3.219
 8868SOL    HW127503   0.135   3.645   3.306
 8868SOL    HW227504   0.149   3.791   3.235
 8869SOL     OW27505   2.955   6.293   3.662
 8869SOL    HW127506   3.043   6.314   3.705
 8869SOL    HW227507   2.921   6.205   3.696
 8870SOL     OW27508   1.611   0.029   2.058
 8870SOL    HW127509   1.612   0.106   1.994
 8870SOL    HW227510   1.523   7.001   2.054
 8871SOL     OW27511   0.469   1.072   3.033
 8871SOL    HW127512   0.396   1.051   2.968
 8871SOL    HW227513   0.551   1.019   3.010
 8872SOL     OW27514   0.420   4.647   4.919
 8872SOL    HW127515   0.508   4.658   4.965
 8872SOL    HW227516   0.419   4.702   4.835
 8873SOL     OW27517   1.236   0.834   2.444
 8873SOL    HW127518   1.223   0.894   2.366
 8873SOL    HW227519   1.158   0.842   2.506
 8874SOL     OW27520   2.999   5.572   0.396
 8874SOL    HW127521   2.987   5.539   0.303
 8874SOL    HW227522   2.915   5.615   0.429
 8875SOL     OW27523   0.325   3.291   3.741
 8875SOL    HW127524   0.334   3.374   3.686
 8875SOL    HW227525   0.391   3.223   3.711
 8876SOL     OW27526   3.551   0.695   6.418
 8876SOL    HW127527   3.634   0.728   6.372
 8876SOL    HW227528   3.577   0.640   6.497
 8877SOL     OW27529   1.648   4.094   1.292
 8877SOL    HW127530   1.694   4.163   1.236
 8877SOL    HW227531   1.594   4.034   1.233
 8878SOL     OW27532   4.298   4.440   0.794
 8878SOL    HW127533   4.207   4.443   0.754
 8878SOL    HW227534   4.365   4.420   0.723
 8879SOL     OW27535   5.996   4.637   2.609
 8879SOL    HW127536   6.008   4.599   2.517
 8879SOL    HW227537   6.019   4.734   2.609
 8880SOL     OW27538   4.659   6.635   3.807
 8880SOL    HW127539   4.758   6.640   3.793
 8880SOL    HW227540   4.634   6.684   3.890
 8881SOL     OW27541   4.214   5.239   4.365
 8881SOL    HW127542   4.298   5.192   4.391
 8881SOL    HW227543   4.237   5.330   4.329
 8882SOL     OW27544   4.297   0.444   1.196
 8882SOL    HW127545   4.355   0.363   1.209
 8882SOL    HW227546   4.330   0.518   1.254
 8883SOL     OW27547   0.416   6.259   4.546
 8883SOL    HW127548   0.503   6.288   4.586
 8883SOL    HW227549   0.417   6.160   4.534
 8884SOL     OW27550   5.269   3.563   4.907
 8884SOL    HW127551   5.199   3.514   4.960
 8884SOL    HW227552   5.359   3.545   4.946
 8885SOL     OW27553   6.037   5.740   0.521
 8885SOL    HW127554   6.001   5.653   0.487
 8885SOL    HW227555   5.966   5.809   0.515
 8886SOL     OW27556   3.344   5.794   6.849
 8886SOL    HW127557   3.286   5.712   6.846
 8886SOL    HW227558   3.403   5.795   6.768
 8887SOL     OW27559   4.809   1.747   1.198
 8887SOL    HW127560   4.747   1.679   1.235
 8887SOL    HW227561   4.878   1.770   1.267
 8888SOL     OW27562   2.539   1.699   3.494
 8888SOL    HW127563   2.584   1.629   3.439
 8888SOL    HW227564   2.571   1.694   3.588
 8889SOL     OW27565   0.472   6.532   6.255
 8889SOL    HW127566   0.379   6.560   6.279
 8889SOL    HW227567   0.496   6.571   6.166
 8890SOL     OW27568   0.384   0.094   0.016
 8890SOL    HW127569   0.447   0.101   0.092
 8890SOL    HW227570   0.417   0.148   6.958
 8891SOL     OW27571   6.071   4.486   0.317
 8891SOL    HW127572   5.978   4.523   0.322
 8891SOL    HW227573   6.099   4.480   0.221
 8892SOL     OW27574   2.783   5.739   3.437
 8892SOL    HW127575   2.794   5.836   3.461
 8892SOL    HW227576   2.810   5.725   3.342
 8893SOL     OW27577   1.425   4.810   4.889
 8893SOL    HW127578   1.513   4.856   4.897
 8893SOL    HW227579   1.372   4.823   4.972
 8894SOL     OW27580   4.356   1.835   6.985
 8894SOL    HW127581   4.257   1.848   6.995
 8894SOL    HW227582   4.382   1.749   0.009
 8895SOL     OW27583   0.532   3.793   1.196
 8895SOL    HW127584   0.466   3.755   1.131
 8895SOL    HW227585   0.621   3.801   1.152
 8896SOL     OW27586   0.334   2.051   4.148
 8896SOL    HW127587   0.311   2.000   4.230
 8896SOL    HW227588   0.291   2.142   4.152
 8897SOL     OW27589   2.048   4.248   4.203
 8897SOL    HW127590   2.089   4.320   4.146
 8897SOL    HW227591   2.116   4.179   4.224
 8898SOL     OW27592   5.151   4.114   2.707
 8898SOL    HW127593   5.053   4.113   2.691
 8898SOL    HW227594   5.192   4.031   2.667
 8899SOL     OW27595   6.692   3.345   6.139
 8899SOL    HW127596   6.687   3.445   6.133
 8899SOL    HW227597   6.751   3.310   6.066
 8900SOL     OW27598   5.082   2.855   4.022
 8900SOL    HW127599   4.997   2.906   4.036
 8900SOL    HW227600   5.063   2.757   4.027
 8901SOL     OW27601   1.320   2.651   4.599
 8901SOL    HW127602   1.292   2.730   4.653
 8901SOL    HW227603   1.342   2.680   4.506
 8902SOL     OW27604   0.736   4.319   0.117
 8902SOL    HW127605   0.761   4.409   0.083
 8902SOL    HW227606   0.655   4.286   0.067
 8903SOL     OW27607   1.418   0.340   4.778
 8903SOL    HW127608   1.403   0.279   4.856
 8903SOL    HW227609   1.444   0.431   4.811
 8904SOL     OW27610   0.476   1.185   3.306
 8904SOL    HW127611   0.481   1.178   3.206
 8904SOL    HW227612   0.493   1.279   3.334
 8905SOL     OW27613   1.683   3.773   2.072
 8905SOL    HW127614   1.747   3.844   2.043
 8905SOL    HW227615   1.599   3.816   2.105
 8906SOL     OW27616   6.813   6.768   0.665
 8906SOL    HW127617   6.735   6.713   0.694
 8906SOL    HW227618   6.796   6.864   0.686
 8907SOL     OW27619   3.927   3.109   4.928
 8907SOL    HW127620   3.883   3.161   4.856
 8907SOL    HW227621   3.889   3.016   4.930
 8908SOL     OW27622   1.416   6.024   0.962
 8908SOL    HW127623   1.336   6.038   0.904
 8908SOL    HW227624   1.486   5.974   0.911
 8909SOL     OW27625   2.817   0.756   0.127
 8909SOL    HW127626   2.774   0.681   0.077
 8909SOL    HW227627   2.746   0.817   0.163
 8910SOL     OW27628   1.700   2.040   3.963
 8910SOL    HW127629   1.644   2.054   4.044
 8910SOL    HW227630   1.700   1.943   3.939
 8911SOL     OW27631   4.667   1.540   3.985
 8911SOL    HW127632   4.671   1.618   3.923
 8911SOL    HW227633   4.633   1.571   4.074
 8912SOL     OW27634   3.508   3.756   4.763
 8912SOL    HW127635   3.529   3.852   4.745
 8912SOL    HW227636   3.409   3.743   4.762
 8913SOL     OW27637   5.065   6.018   6.891
 8913SOL    HW127638   4.970   6.047   6.899
 8913SOL    HW227639   5.091   6.012   6.795
 8914SOL     OW27640   4.944   6.616   6.407
 8914SOL    HW127641   4.905   6.580   6.323
 8914SOL    HW227642   5.001   6.696   6.386
 8915SOL     OW27643   1.113   1.246   3.562
 8915SOL    HW127644   1.044   1.175   3.581
 8915SOL    HW227645   1.103   1.320   3.628
 8916SOL     OW27646   5.163   1.411   6.624
 8916SOL    HW127647   5.261   1.424   6.639
 8916SOL    HW227648   5.146   1.316   6.596
 8917SOL     OW27649   5.691   1.859   0.246
 8917SOL    HW127650   5.761   1.894   0.184
 8917SOL    HW227651   5.613   1.826   0.192
 8918SOL     OW27652   0.798   4.563   1.995
 8918SOL    HW127653   0.698   4.556   1.988
 8918SOL    HW227654   0.821   4.632   2.063
 8919SOL     OW27655   5.317   3.953   0.005
 8919SOL    HW127656   5.251   4.016   6.982
 8919SOL    HW227657   5.378   3.917   6.953
 8920SOL     OW27658   6.651   1.475   0.110
 8920SOL    HW127659   6.711   1.411   0.157
 8920SOL    HW227660   6.580   1.507   0.173
 8921SOL     OW27661   1.332   3.057   1.104
 8921SOL    HW127662   1.398   3.087   1.173
 8921SOL    HW227663   1.321   3.129   1.035
 8922SOL     OW27664   3.569   0.799   3.636
 8922SOL    HW127665   3.499   0.729   3.647
 8922SOL    HW227666   3.602   0.797   3.541
 8923SOL     OW27667   1.587   2.231   4.951
 8923SOL    HW127668   1.554   2.318   4.915
 8923SOL    HW227669   1.537   2.207   5.034
 8924SOL     OW27670   5.072   5.221   4.727
 8924SOL    HW127671   5.155   5.189   4.772
 8924SOL    HW227672   5.006   5.147   4.723
 8925SOL     OW27673   1.218   0.823   3.674
 8925SOL    HW127674   1.307   0.851   3.638
 8925SOL    HW227675   1.196   0.879   3.754
 8926SOL     OW27676   6.784   3.098   5.133
 8926SOL    HW127677   6.869   3.142   5.107
 8926SOL    HW227678   6.803   3.015   5.185
 8927SOL     OW27679   6.658   1.567   6.299
 8927SOL    HW127680   6.690   1.593   6.208
 8927SOL    HW227681   6.601   1.485   6.292
 8928SOL     OW27682   1.992   6.403   5.082
 8928SOL    HW127683   1.905   6.448   5.063
 8928SOL    HW227684   2.051   6.408   5.001
 8929SOL     OW27685   0.180   2.136   4.509
 8929SOL    HW127686   0.158   2.088   4.593
 8929SOL    HW227687   0.105   2.196   4.483
 8930SOL     OW27688   1.796   4.706   3.692
 8930SOL    HW127689   1.789   4.649   3.610
 8930SOL    HW227690   1.725   4.680   3.758
 8931SOL     OW27691   3.758   2.904   1.171
 8931SOL    HW127692   3.724   2.816   1.205
 8931SOL    HW227693   3.835   2.934   1.228
 8932SOL     OW27694   0.141   2.683   3.057
 8932SOL    HW127695   0.085   2.717   2.982
 8932SOL    HW227696   0.184   2.596   3.031
 8933SOL     OW27697   3.818   1.951   5.911
 8933SOL    HW127698   3.820   1.851   5.907
 8933SOL    HW227699   3.880   1.983   5.982
 8934SOL     OW27700   2.792   5.801   4.305
 8934SOL    HW127701   2.706   5.852   4.301
 8934SOL    HW227702   2.784   5.728   4.373
 8935SOL     OW27703   6.975   4.818   1.174
 8935SOL    HW127704   6.885   4.791   1.208
 8935SOL    HW227705   7.003   4.904   1.218
 8936SOL     OW27706   1.982   3.129   0.996
 8936SOL    HW127707   2.056   3.100   1.057
 8936SOL    HW227708   2.014   3.127   0.901
 8937SOL     OW27709   0.429   6.777   5.769
 8937SOL    HW127710   0.411   6.873   5.791
 8937SOL    HW227711   0.342   6.730   5.753
 8938SOL     OW27712   6.519   5.606   1.188
 8938SOL    HW127713   6.510   5.675   1.116
 8938SOL    HW227714   6.533   5.516   1.145
 8939SOL     OW27715   5.191   2.158   4.569
 8939SOL    HW127716   5.144   2.225   4.512
 8939SOL    HW227717   5.286   2.187   4.583
 8940SOL     OW27718   6.393   0.967   3.797
 8940SOL    HW127719   6.476   0.919   3.826
 8940SOL    HW227720   6.411   1.065   3.792
 8941SOL     OW27721   5.472   2.651   6.205
 8941SOL    HW127722   5.557   2.598   6.213
 8941SOL    HW227723   5.410   2.606   6.141
 8942SOL     OW27724   0.498   2.351   5.320
 8942SOL    HW127725   0.509   2.301   5.406
 8942SOL    HW227726   0.417   2.318   5.273
 8943SOL     OW27727   4.719   3.213   1.159
 8943SOL    HW127728   4.812   3.236   1.130
 8943SOL    HW227729   4.719   3.194   1.258
 8944SOL     OW27730   4.369   5.702   0.731
 8944SOL    HW127731   4.455   5.753   0.723
 8944SOL    HW227732   4.341   5.699   0.827
 8945SOL     OW27733   2.604   0.669   4.516
 8945SOL    HW127734   2.559   0.631   4.435
 8945SOL    HW227735   2.568   0.624   4.598
 8946SOL     OW27736   3.661   1.642   5.046
 8946SOL    HW127737   3.755   1.643   5.011
 8946SOL    HW227738   3.632   1.736   5.064
 8947SOL     OW27739   3.643   3.530   5.646
 8947SOL    HW127740   3.712   3.600   5.627
 8947SOL    HW227741   3.552   3.572   5.646
 8948SOL     OW27742   5.509   4.746   3.161
 8948SOL    HW127743   5.550   4.730   3.251
 8948SOL    HW227744   5.559   4.818   3.113
 8949SOL     OW27745   1.367   0.027   6.751
 8949SOL    HW127746   1.460   0.054   6.774
 8949SOL    HW227747   1.303   0.074   6.813
 8950SOL     OW27748   4.889   3.175   5.187
 8950SOL    HW127749   4.849   3.083   5.180
 8950SOL    HW227750   4.820   3.238   5.223
 8951SOL     OW27751   1.602   2.941   5.524
 8951SOL    HW127752   1.640   2.943   5.617
 8951SOL    HW227753   1.675   2.926   5.458
 8952SOL     OW27754   1.368   1.176   3.272
 8952SOL    HW127755   1.345   1.272   3.258
 8952SOL    HW227756   1.446   1.169   3.334
 8953SOL     OW27757   1.903   3.307   0.064
 8953SOL    HW127758   1.957   3.269   0.139
 8953SOL    HW227759   1.851   3.386   0.097
 8954SOL     OW27760   1.442   6.035   6.341
 8954SOL    HW127761   1.450   6.133   6.324
 8954SOL    HW227762   1.435   5.986   6.254
 8955SOL     OW27763   0.164   4.256   3.512
 8955SOL    HW127764   0.137   4.299   3.426
 8955SOL    HW227765   0.113   4.297   3.588
 8956SOL     OW27766   0.448   1.067   6.318
 8956SOL    HW127767   0.432   1.030   6.409
 8956SOL    HW227768   0.361   1.083   6.272
 8957SOL     OW27769   2.671   4.878   1.979
 8957SOL    HW127770   2.714   4.788   1.972
 8957SOL    HW227771   2.665   4.919   1.888
 8958SOL     OW27772   1.638   6.658   4.104
 8958SOL    HW127773   1.639   6.558   4.110
 8958SOL    HW227774   1.719   6.695   4.148
 8959SOL     OW27775   1.462   4.648   0.498
 8959SOL    HW127776   1.499   4.705   0.425
 8959SOL    HW227777   1.402   4.703   0.556
 8960SOL     OW27778   3.839   5.490   2.021
 8960SOL    HW127779   3.912   5.431   1.986
 8960SOL    HW227780   3.756   5.474   1.969
 8961SOL     OW27781   1.357   2.245   4.139
 8961SOL    HW127782   1.395   2.153   4.152
 8961SOL    HW227783   1.397   2.307   4.206
 8962SOL     OW27784   5.967   0.866   3.589
 8962SOL    HW127785   5.963   0.767   3.575
 8962SOL    HW227786   6.039   0.905   3.532
 8963SOL     OW27787   5.528   0.446   4.494
 8963SOL    HW127788   5.575   0.402   4.570
 8963SOL    HW227789   5.589   0.452   4.415
 8964SOL     OW27790   5.033   4.964   2.229
 8964SOL    HW127791   5.133   4.965   2.229
 8964SOL    HW227792   4.999   4.969   2.135
 8965SOL     OW27793   1.489   5.180   1.672
 8965SOL    HW127794   1.494   5.111   1.744
 8965SOL    HW227795   1.487   5.271   1.714
 8966SOL     OW27796   1.946   2.174   6.200
 8966SOL    HW127797   1.850   2.185   6.175
 8966SOL    HW227798   1.981   2.261   6.235
 8967SOL     OW27799   4.303   0.378   0.683
 8967SOL    HW127800   4.276   0.430   0.603
 8967SOL    HW227801   4.356   0.438   0.744
 8968SOL     OW27802   5.212   6.469   1.441
 8968SOL    HW127803   5.200   6.564   1.412
 8968SOL    HW227804   5.132   6.440   1.493
 8969SOL     OW27805   5.818   1.011   3.752
 8969SOL    HW127806   5.869   1.095   3.772
 8969SOL    HW227807   5.876   0.947   3.702
 8970SOL     OW27808   3.471   2.475   1.495
 8970SOL    HW127809   3.548   2.483   1.559
 8970SOL    HW227810   3.504   2.438   1.408
 8971SOL     OW27811   3.613   5.902   2.227
 8971SOL    HW127812   3.712   5.907   2.230
 8971SOL    HW227813   3.581   5.823   2.279
 8972SOL     OW27814   5.513   6.255   5.906
 8972SOL    HW127815   5.482   6.169   5.864
 8972SOL    HW227816   5.584   6.235   5.974
 8973SOL     OW27817   1.762   4.870   0.561
 8973SOL    HW127818   1.790   4.880   0.656
 8973SOL    HW227819   1.668   4.903   0.551
 8974SOL     OW27820   0.628   4.116   6.095
 8974SOL    HW127821   0.669   4.173   6.166
 8974SOL    HW227822   0.669   4.025   6.097
 8975SOL     OW27823   2.758   0.135   0.854
 8975SOL    HW127824   2.845   0.122   0.807
 8975SOL    HW227825   2.695   0.062   0.828
 8976SOL     OW27826   1.882   5.360   4.501
 8976SOL    HW127827   1.786   5.347   4.476
 8976SOL    HW227828   1.940   5.344   4.421
 8977SOL     OW27829   6.113   1.377   5.311
 8977SOL    HW127830   6.116   1.304   5.380
 8977SOL    HW227831   6.202   1.385   5.267
 8978SOL     OW27832   5.690   6.135   0.272
 8978SOL    HW127833   5.785   6.118   0.246
 8978SOL    HW227834   5.683   6.226   0.314
 8979SOL     OW27835   1.876   3.991   4.965
 8979SOL    HW127836   1.902   3.896   4.986
 8979SOL    HW227837   1.925   4.053   5.025
 8980SOL     OW27838   3.456   3.180   4.655
 8980SOL    HW127839   3.357   3.167   4.660
 8980SOL    HW227840   3.478   3.274   4.682
 8981SOL     OW27841   3.556   1.095   4.980
 8981SOL    HW127842   3.562   1.163   5.053
 8981SOL    HW227843   3.573   1.138   4.892
 8982SOL     OW27844   2.563   3.655   0.798
 8982SOL    HW127845   2.645   3.711   0.791
 8982SOL    HW227846   2.550   3.604   0.713
 8983SOL     OW27847   3.688   5.328   6.760
 8983SOL    HW127848   3.714   5.313   6.664
 8983SOL    HW227849   3.617   5.262   6.786
 8984SOL     OW27850   2.260   5.772   3.382
 8984SOL    HW127851   2.256   5.860   3.430
 8984SOL    HW227852   2.355   5.743   3.373
 8985SOL     OW27853   3.473   2.686   0.405
 8985SOL    HW127854   3.571   2.671   0.418
 8985SOL    HW227855   3.431   2.709   0.493
 8986SOL     OW27856   3.544   4.877   2.849
 8986SOL    HW127857   3.549   4.926   2.936
 8986SOL    HW227858   3.470   4.917   2.794
 8987SOL     OW27859   5.316   5.797   2.940
 8987SOL    HW127860   5.317   5.707   2.898
 8987SOL    HW227861   5.369   5.795   3.025
 8988SOL     OW27862   0.563   5.467   3.535
 8988SOL    HW127863   0.498   5.417   3.479
 8988SOL    HW227864   0.645   5.412   3.549
 8989SOL     OW27865   4.856   2.844   6.510
 8989SOL    HW127866   4.892   2.781   6.442
 8989SOL    HW227867   4.843   2.934   6.468
 8990SOL     OW27868   0.827   4.904   3.870
 8990SOL    HW127869   0.911   4.852   3.851
 8990SOL    HW227870   0.813   4.910   3.969
 8991SOL     OW27871   1.393   2.325   4.665
 8991SOL    HW127872   1.315   2.264   4.670
 8991SOL    HW227873   1.404   2.375   4.751
 8992SOL     OW27874   5.777   2.218   6.791
 8992SOL    HW127875   5.849   2.236   6.859
 8992SOL    HW227876   5.778   2.290   6.722
 8993SOL     OW27877   4.148   3.472   6.078
 8993SOL    HW127878   4.187   3.438   6.163
 8993SOL    HW227879   4.068   3.529   6.098
 8994SOL     OW27880   2.063   4.476   4.867
 8994SOL    HW127881   1.972   4.462   4.905
 8994SOL    HW227882   2.068   4.436   4.775
 8995SOL     OW27883   0.202   1.595   1.715
 8995SOL    HW127884   0.302   1.591   1.724
 8995SOL    HW227885   0.178   1.664   1.646
 8996SOL     OW27886   5.105   3.758   6.807
 8996SOL    HW127887   5.105   3.858   6.818
 8996SOL    HW227888   5.142   3.716   6.890
 8997SOL     OW27889   4.888   0.708   5.115
 8997SOL    HW127890   4.827   0.659   5.052
 8997SOL    HW227891   4.976   0.723   5.071
 8998SOL     OW27892   6.290   3.893   3.953
 8998SOL    HW127893   6.389   3.890   3.940
 8998SOL    HW227894   6.259   3.988   3.946
 8999SOL     OW27895   4.485   6.876   5.948
 8999SOL    HW127896   4.477   6.951   5.882
 8999SOL    HW227897   4.404   6.817   5.943
 9000SOL     OW27898   1.570   4.033   1.562
 9000SOL    HW127899   1.622   4.050   1.478
 9000SOL    HW227900   1.474   4.019   1.539
 9001SOL     OW27901   0.120   4.764   2.342
 9001SOL    HW127902   0.209   4.723   2.362
 9001SOL    HW227903   0.086   4.811   2.424
 9002SOL     OW27904   1.225   4.312   5.408
 9002SOL    HW127905   1.302   4.349   5.356
 9002SOL    HW227906   1.146   4.301   5.348
 9003SOL     OW27907   5.504   2.710   1.473
 9003SOL    HW127908   5.487   2.791   1.417
 9003SOL    HW227909   5.422   2.688   1.525
 9004SOL     OW27910   4.356   5.238   0.983
 9004SOL    HW127911   4.447   5.279   0.976
 9004SOL    HW227912   4.291   5.292   0.930
 9005SOL     OW27913   5.504   1.056   5.960
 9005SOL    HW127914   5.495   1.151   5.932
 9005SOL    HW227915   5.517   0.998   5.879
 9006SOL     OW27916   3.016   0.102   0.727
 9006SOL    HW127917   3.100   0.055   0.755
 9006SOL    HW227918   3.037   0.164   0.651
 9007SOL     OW27919   2.499   1.102   2.726
 9007SOL    HW127920   2.546   1.067   2.807
 9007SOL    HW227921   2.429   1.169   2.753
 9008SOL     OW27922   0.331   5.333   2.927
 9008SOL    HW127923   0.371   5.338   2.836
 9008SOL    HW227924   0.404   5.319   2.994
 9009SOL     OW27925   3.804   5.244   1.025
 9009SOL    HW127926   3.823   5.338   1.054
 9009SOL    HW227927   3.890   5.197   1.006
 9010SOL     OW27928   2.189   6.815   4.130
 9010SOL    HW127929   2.160   6.910   4.139
 9010SOL    HW227930   2.203   6.776   4.221
 9011SOL     OW27931   3.907   0.713   1.950
 9011SOL    HW127932   3.978   0.643   1.963
 9011SOL    HW227933   3.949   0.796   1.914
 9012SOL     OW27934   2.622   5.751   0.783
 9012SOL    HW127935   2.553   5.798   0.838
 9012SOL    HW227936   2.625   5.654   0.809
 9013SOL     OW27937   1.398   0.056   4.377
 9013SOL    HW127938   1.376   0.116   4.453
 9013SOL    HW227939   1.336   0.075   4.301
 9014SOL     OW27940   6.389   2.822   1.880
 9014SOL    HW127941   6.439   2.739   1.903
 9014SOL    HW227942   6.306   2.799   1.829
 9015SOL     OW27943   4.848   2.505   1.027
 9015SOL    HW127944   4.918   2.506   0.955
 9015SOL    HW227945   4.816   2.599   1.043
 9016SOL     OW27946   5.662   4.990   6.827
 9016SOL    HW127947   5.589   4.953   6.771
 9016SOL    HW227948   5.657   5.090   6.828
 9017SOL     OW27949   3.661   0.896   4.697
 9017SOL    HW127950   3.750   0.941   4.690
 9017SOL    HW227951   3.608   0.937   4.771
 9018SOL     OW27952   4.029   3.410   6.687
 9018SOL    HW127953   4.014   3.330   6.629
 9018SOL    HW227954   4.044   3.381   6.781
 9019SOL     OW27955   1.375   3.833   2.902
 9019SOL    HW127956   1.276   3.826   2.912
 9019SOL    HW227957   1.397   3.875   2.814
 9020SOL     OW27958   6.694   5.438   1.504
 9020SOL    HW127959   6.773   5.440   1.566
 9020SOL    HW227960   6.678   5.530   1.468
 9021SOL     OW27961   6.802   0.319   3.906
 9021SOL    HW127962   6.818   0.418   3.904
 9021SOL    HW227963   6.722   0.300   3.963
 9022SOL     OW27964   3.872   2.630   6.740
 9022SOL    HW127965   3.965   2.654   6.712
 9022SOL    HW227966   3.871   2.537   6.775
 9023SOL     OW27967   4.133   2.956   1.181
 9023SOL    HW127968   4.113   2.889   1.109
 9023SOL    HW227969   4.064   2.948   1.253
 9024SOL     OW27970   0.936   5.007   5.908
 9024SOL    HW127971   0.888   5.091   5.882
 9024SOL    HW227972   0.927   4.939   5.835
 9025SOL     OW27973   0.482   5.398   0.598
 9025SOL    HW127974   0.425   5.434   0.672
 9025SOL    HW227975   0.471   5.454   0.516
 9026SOL     OW27976   3.834   1.476   0.425
 9026SOL    HW127977   3.898   1.401   0.407
 9026SOL    HW227978   3.789   1.502   0.339
 9027SOL     OW27979   1.181   3.659   3.696
 9027SOL    HW127980   1.138   3.595   3.633
 9027SOL    HW227981   1.113   3.695   3.760
 9028SOL     OW27982   3.614   3.147   4.908
 9028SOL    HW127983   3.592   3.159   4.811
 9028SOL    HW227984   3.665   3.227   4.940
 9029SOL     OW27985   4.306   0.778   4.548
 9029SOL    HW127986   4.346   0.848   4.607
 9029SOL    HW227987   4.359   0.772   4.463
 9030SOL     OW27988   2.332   2.569   3.978
 9030SOL    HW127989   2.350   2.607   4.068
 9030SOL    HW227990   2.298   2.476   3.987
 9031SOL     OW27991   4.535   0.320   4.205
 9031SOL    HW127992   4.441   0.328   4.173
 9031SOL    HW227993   4.546   0.373   4.289
 9032SOL     OW27994   4.713   3.632   1.363
 9032SOL    HW127995   4.637   3.577   1.397
 9032SOL    HW227996   4.796   3.610   1.415
 9033SOL     OW27997   0.263   5.193   2.421
 9033SOL    HW127998   0.218   5.269   2.376
 9033SOL    HW227999   0.230   5.107   2.383
 9034SOL     OW28000   3.472   6.101   5.140
 9034SOL    HW128001   3.436   6.164   5.072
 9034SOL    HW228002   3.567   6.077   5.117
 9035SOL     OW28003   2.231   5.737   0.098
 9035SOL    HW128004   2.320   5.752   0.142
 9035SOL    HW228005   2.171   5.815   0.117
 9036SOL     OW28006   1.490   3.385   4.886
 9036SOL    HW128007   1.584   3.351   4.892
 9036SOL    HW228008   1.448   3.382   4.977
 9037SOL     OW28009   0.863   2.878   4.368
 9037SOL    HW128010   0.848   2.889   4.466
 9037SOL    HW228011   0.779   2.902   4.319
 9038SOL     OW28012   4.799   3.090   6.387
 9038SOL    HW128013   4.743   3.121   6.464
 9038SOL    HW228014   4.864   3.162   6.362
 9039SOL     OW28015   3.339   4.632   6.625
 9039SOL    HW128016   3.425   4.635   6.575
 9039SOL    HW228017   3.288   4.716   6.608
 9040SOL     OW28018   2.289   2.158   1.762
 9040SOL    HW128019   2.219   2.211   1.714
 9040SOL    HW228020   2.346   2.219   1.817
 9041SOL     OW28021   0.776   2.270   1.161
 9041SOL    HW128022   0.763   2.303   1.068
 9041SOL    HW228023   0.851   2.203   1.162
 9042SOL     OW28024   3.733   6.069   5.049
 9042SOL    HW128025   3.811   6.062   5.111
 9042SOL    HW228026   3.734   5.991   4.986
 9043SOL     OW28027   2.563   1.501   6.720
 9043SOL    HW128028   2.627   1.572   6.691
 9043SOL    HW228029   2.519   1.529   6.805
 9044SOL     OW28030   0.755   0.479   0.207
 9044SOL    HW128031   0.660   0.501   0.231
 9044SOL    HW228032   0.768   0.491   0.109
 9045SOL     OW28033   4.324   0.327   3.388
 9045SOL    HW128034   4.413   0.360   3.358
 9045SOL    HW228035   4.263   0.404   3.406
 9046SOL     OW28036   3.773   3.297   2.461
 9046SOL    HW128037   3.837   3.228   2.494
 9046SOL    HW228038   3.690   3.252   2.428
 9047SOL     OW28039   1.535   4.338   5.605
 9047SOL    HW128040   1.503   4.407   5.539
 9047SOL    HW228041   1.456   4.293   5.646
 9048SOL     OW28042   5.767   2.243   6.131
 9048SOL    HW128043   5.748   2.333   6.171
 9048SOL    HW228044   5.860   2.241   6.095
 9049SOL     OW28045   3.346   6.632   6.103
 9049SOL    HW128046   3.307   6.646   6.194
 9049SOL    HW228047   3.430   6.578   6.111
 9050SOL     OW28048   0.556   4.307   1.674
 9050SOL    HW128049   0.563   4.254   1.589
 9050SOL    HW228050   0.643   4.351   1.693
 9051SOL     OW28051   2.552   1.336   1.236
 9051SOL    HW128052   2.610   1.258   1.257
 9051SOL    HW228053   2.475   1.306   1.179
 9052SOL     OW28054   2.036   2.864   4.302
 9052SOL    HW128055   2.107   2.913   4.351
 9052SOL    HW228056   2.040   2.887   4.204
 9053SOL     OW28057   2.148   1.399   1.421
 9053SOL    HW128058   2.240   1.393   1.458
 9053SOL    HW228059   2.149   1.376   1.324
 9054SOL     OW28060   2.848   5.469   3.835
 9054SOL    HW128061   2.917   5.541   3.830
 9054SOL    HW228062   2.891   5.383   3.864
 9055SOL     OW28063   6.769   4.169   4.772
 9055SOL    HW128064   6.837   4.176   4.845
 9055SOL    HW228065   6.689   4.225   4.796
 9056SOL     OW28066   6.464   2.320   2.534
 9056SOL    HW128067   6.431   2.370   2.614
 9056SOL    HW228068   6.504   2.383   2.468
 9057SOL     OW28069   4.568   1.666   4.210
 9057SOL    HW128070   4.580   1.636   4.305
 9057SOL    HW228071   4.600   1.760   4.200
 9058SOL     OW28072   1.501   0.359   6.234
 9058SOL    HW128073   1.536   0.412   6.311
 9058SOL    HW228074   1.476   0.267   6.266
 9059SOL     OW28075   1.593   2.372   2.533
 9059SOL    HW128076   1.670   2.333   2.483
 9059SOL    HW228077   1.612   2.468   2.553
 9060SOL     OW28078   5.160   2.963   4.661
 9060SOL    HW128079   5.185   2.996   4.570
 9060SOL    HW228080   5.192   2.869   4.673
 9061SOL     OW28081   4.588   5.470   2.479
 9061SOL    HW128082   4.505   5.481   2.424
 9061SOL    HW228083   4.653   5.542   2.456
 9062SOL     OW28084   1.559   5.408   1.806
 9062SOL    HW128085   1.509   5.399   1.892
 9062SOL    HW228086   1.657   5.420   1.825
 9063SOL     OW28087   2.964   1.668   3.604
 9063SOL    HW128088   2.911   1.651   3.688
 9063SOL    HW228089   3.020   1.587   3.584
 9064SOL     OW28090   6.807   3.619   0.086
 9064SOL    HW128091   6.837   3.527   0.111
 9064SOL    HW228092   6.729   3.613   0.023
 9065SOL     OW28093   3.114   0.715   0.471
 9065SOL    HW128094   3.145   0.679   0.383
 9065SOL    HW228095   3.016   0.733   0.468
 9066SOL     OW28096   5.159   6.841   6.992
 9066SOL    HW128097   5.168   6.820   6.894
 9066SOL    HW228098   5.107   6.925   7.003
 9067SOL     OW28099   1.426   0.170   3.228
 9067SOL    HW128100   1.366   0.103   3.272
 9067SOL    HW228101   1.444   0.245   3.291
 9068SOL     OW28102   1.420   6.080   5.878
 9068SOL    HW128103   1.433   6.021   5.799
 9068SOL    HW228104   1.349   6.043   5.937
 9069SOL     OW28105   2.023   2.551   5.945
 9069SOL    HW128106   1.991   2.646   5.951
 9069SOL    HW228107   2.097   2.545   5.878
 9070SOL     OW28108   1.524   3.964   4.692
 9070SOL    HW128109   1.481   4.039   4.641
 9070SOL    HW228110   1.521   3.984   4.790
 9071SOL     OW28111   6.358   6.462   6.818
 9071SOL    HW128112   6.430   6.527   6.793
 9071SOL    HW228113   6.400   6.378   6.852
 9072SOL     OW28114   6.744   3.902   0.584
 9072SOL    HW128115   6.676   3.933   0.650
 9072SOL    HW228116   6.712   3.922   0.491
 9073SOL     OW28117   2.173   0.902   2.112
 9073SOL    HW128118   2.123   0.986   2.134
 9073SOL    HW228119   2.117   0.823   2.138
 9074SOL     OW28120   1.343   6.856   3.043
 9074SOL    HW128121   1.260   6.834   3.094
 9074SOL    HW228122   1.413   6.787   3.062
 9075SOL     OW28123   6.619   0.826   2.199
 9075SOL    HW128124   6.546   0.888   2.228
 9075SOL    HW228125   6.681   0.811   2.276
 9076SOL     OW28126   6.936   0.950   5.562
 9076SOL    HW128127   6.983   0.919   5.479
 9076SOL    HW228128   6.959   0.888   5.637
 9077SOL     OW28129   5.590   6.533   2.286
 9077SOL    HW128130   5.616   6.462   2.351
 9077SOL    HW228131   5.491   6.535   2.276
 9078SOL     OW28132   4.099   3.471   4.507
 9078SOL    HW128133   4.107   3.401   4.437
 9078SOL    HW228134   4.102   3.428   4.598
 9079SOL     OW28135   3.216   6.771   4.875
 9079SOL    HW128136   3.268   6.720   4.943
 9079SOL    HW228137   3.118   6.760   4.893
 9080SOL     OW28138   5.425   2.559   0.221
 9080SOL    HW128139   5.343   2.540   0.166
 9080SOL    HW228140   5.454   2.653   0.206
 9081SOL     OW28141   5.677   6.478   2.041
 9081SOL    HW128142   5.723   6.392   2.065
 9081SOL    HW228143   5.653   6.527   2.125
 9082SOL     OW28144   3.336   1.218   3.678
 9082SOL    HW128145   3.336   1.315   3.704
 9082SOL    HW228146   3.297   1.208   3.586
 9083SOL     OW28147   4.856   4.503   5.226
 9083SOL    HW128148   4.936   4.502   5.165
 9083SOL    HW228149   4.879   4.548   5.312
 9084SOL     OW28150   3.043   3.977   3.282
 9084SOL    HW128151   3.127   4.022   3.312
 9084SOL    HW228152   2.976   3.978   3.357
 9085SOL     OW28153   2.101   2.208   1.328
 9085SOL    HW128154   2.193   2.180   1.353
 9085SOL    HW228155   2.105   2.281   1.261
 9086SOL     OW28156   0.449   3.952   1.398
 9086SOL    HW128157   0.350   3.950   1.409
 9086SOL    HW228158   0.475   3.898   1.318
 9087SOL     OW28159   4.895   3.908   2.424
 9087SOL    HW128160   4.845   3.852   2.358
 9087SOL    HW228161   4.990   3.875   2.431
 9088SOL     OW28162   6.269   0.587   6.515
 9088SOL    HW128163   6.257   0.651   6.591
 9088SOL    HW228164   6.208   0.612   6.440
 9089SOL     OW28165   4.437   0.076   5.781
 9089SOL    HW128166   4.339   0.058   5.791
 9089SOL    HW228167   4.457   0.168   5.813
 9090SOL     OW28168   5.536   1.079   4.224
 9090SOL    HW128169   5.452   1.112   4.180
 9090SOL    HW228170   5.599   1.045   4.154
 9091SOL     OW28171   3.259   3.759   6.857
 9091SOL    HW128172   3.315   3.781   6.777
 9091SOL    HW228173   3.182   3.823   6.863
 9092SOL     OW28174   6.665   2.195   0.009
 9092SOL    HW128175   6.745   2.134   0.005
 9092SOL    HW228176   6.672   2.263   6.955
 9093SOL     OW28177   1.547   6.802   5.145
 9093SOL    HW128178   1.519   6.838   5.055
 9093SOL    HW228179   1.538   6.875   5.213
 9094SOL     OW28180   0.652   3.535   1.965
 9094SOL    HW128181   0.743   3.507   1.932
 9094SOL    HW228182   0.651   3.533   2.065
 9095SOL     OW28183   5.474   6.146   5.187
 9095SOL    HW128184   5.399   6.088   5.155
 9095SOL    HW228185   5.561   6.101   5.166
 9096SOL     OW28186   6.449   5.741   2.784
 9096SOL    HW128187   6.485   5.648   2.778
 9096SOL    HW228188   6.411   5.756   2.874
 9097SOL     OW28189   1.044   3.014   5.880
 9097SOL    HW128190   0.946   2.999   5.897
 9097SOL    HW228191   1.098   2.968   5.951
 9098SOL     OW28192   1.994   3.484   4.490
 9098SOL    HW128193   2.038   3.423   4.556
 9098SOL    HW228194   1.912   3.524   4.531
 9099SOL     OW28195   2.200   3.384   6.831
 9099SOL    HW128196   2.178   3.357   6.737
 9099SOL    HW228197   2.162   3.317   6.894
 9100SOL     OW28198   1.089   4.754   2.999
 9100SOL    HW128199   1.020   4.684   2.980
 9100SOL    HW228200   1.132   4.735   3.087
 9101SOL     OW28201   1.768   1.620   1.797
 9101SOL    HW128202   1.794   1.551   1.729
 9101SOL    HW228203   1.700   1.681   1.757
 9102SOL     OW28204   4.522   5.792   2.424
 9102SOL    HW128205   4.527   5.869   2.360
 9102SOL    HW228206   4.506   5.827   2.517
 9103SOL     OW28207   6.356   1.750   0.517
 9103SOL    HW128208   6.361   1.847   0.494
 9103SOL    HW228209   6.274   1.732   0.571
 9104SOL     OW28210   6.256   0.748   0.193
 9104SOL    HW128211   6.297   0.817   0.252
 9104SOL    HW228212   6.161   0.733   0.219
 9105SOL     OW28213   2.156   0.490   6.407
 9105SOL    HW128214   2.184   0.581   6.375
 9105SOL    HW228215   2.223   0.422   6.378
 9106SOL     OW28216   1.590   4.912   6.977
 9106SOL    HW128217   1.610   4.839   6.911
 9106SOL    HW228218   1.674   4.963   6.996
 9107SOL     OW28219   2.239   1.056   0.193
 9107SOL    HW128220   2.156   1.105   0.167
 9107SOL    HW228221   2.318   1.116   0.183
 9108SOL     OW28222   5.680   5.081   6.140
 9108SOL    HW128223   5.641   4.991   6.119
 9108SOL    HW228224   5.778   5.079   6.124
 9109SOL     OW28225   5.136   2.915   2.366
 9109SOL    HW128226   5.148   2.961   2.278
 9109SOL    HW228227   5.111   2.819   2.352
 9110SOL     OW28228   1.377   5.532   4.433
 9110SOL    HW128229   1.325   5.460   4.479
 9110SOL    HW228230   1.471   5.501   4.418
 9111SOL     OW28231   4.491   3.098   5.323
 9111SOL    HW128232   4.489   3.000   5.308
 9111SOL    HW228233   4.466   3.118   5.418
 9112SOL     OW28234   1.236   5.437   2.213
 9112SOL    HW128235   1.222   5.464   2.308
 9112SOL    HW228236   1.310   5.493   2.173
 9113SOL     OW28237   4.887   1.915   3.405
 9113SOL    HW128238   4.828   1.835   3.393
 9113SOL    HW228239   4.908   1.954   3.316
 9114SOL     OW28240   1.348   6.113   5.082
 9114SOL    HW128241   1.286   6.055   5.029
 9114SOL    HW228242   1.403   6.168   5.019
 9115SOL     OW28243   5.567   4.418   4.206
 9115SOL    HW128244   5.474   4.412   4.170
 9115SOL    HW228245   5.586   4.338   4.262
 9116SOL     OW28246   0.559   6.712   3.390
 9116SOL    HW128247   0.589   6.804   3.364
 9116SOL    HW228248   0.560   6.704   3.490
 9117SOL     OW28249   3.953   0.704   6.723
 9117SOL    HW128250   3.996   0.622   6.759
 9117SOL    HW228251   3.991   0.724   6.632
 9118SOL     OW28252   6.271   4.335   1.198
 9118SOL    HW128253   6.283   4.265   1.269
 9118SOL    HW228254   6.174   4.361   1.193
 9119SOL     OW28255   3.653   0.608   0.495
 9119SOL    HW128256   3.672   0.639   0.402
 9119SOL    HW228257   3.669   0.509   0.501
 9120SOL     OW28258   5.650   3.057   5.156
 9120SOL    HW128259   5.690   3.100   5.075
 9120SOL    HW228260   5.555   3.032   5.137
 9121SOL     OW28261   3.167   0.404   5.189
 9121SOL    HW128262   3.265   0.416   5.205
 9121SOL    HW228263   3.139   0.313   5.219
 9122SOL     OW28264   2.452   4.424   2.463
 9122SOL    HW128265   2.433   4.463   2.553
 9122SOL    HW228266   2.534   4.467   2.425
 9123SOL     OW28267   1.199   0.438   4.184
 9123SOL    HW128268   1.200   0.388   4.097
 9123SOL    HW228269   1.184   0.535   4.166
 9124SOL     OW28270   3.164   5.596   1.467
 9124SOL    HW128271   3.139   5.523   1.403
 9124SOL    HW228272   3.155   5.685   1.422
 9125SOL     OW28273   4.618   6.659   1.029
 9125SOL    HW128274   4.580   6.715   0.955
 9125SOL    HW228275   4.609   6.563   1.004
 9126SOL     OW28276   3.666   4.378   0.027
 9126SOL    HW128277   3.676   4.476   0.042
 9126SOL    HW228278   3.740   4.329   0.073
 9127SOL     OW28279   0.002   4.151   5.520
 9127SOL    HW128280   0.080   4.141   5.581
 9127SOL    HW228281   0.021   4.105   5.433
 9128SOL     OW28282   5.571   3.261   5.342
 9128SOL    HW128283   5.553   3.340   5.284
 9128SOL    HW228284   5.601   3.184   5.286
 9129SOL     OW28285   1.506   2.540   0.461
 9129SOL    HW128286   1.599   2.555   0.495
 9129SOL    HW228287   1.446   2.522   0.539
 9130SOL     OW28288   2.620   3.960   5.352
 9130SOL    HW128289   2.536   3.966   5.298
 9130SOL    HW228290   2.678   4.039   5.332
 9131SOL     OW28291   5.569   2.888   0.865
 9131SOL    HW128292   5.484   2.922   0.904
 9131SOL    HW228293   5.571   2.908   0.767
 9132SOL     OW28294   0.162   4.460   3.897
 9132SOL    HW128295   0.085   4.401   3.920
 9132SOL    HW228296   0.243   4.404   3.878
 9133SOL     OW28297   4.614   1.194   0.698
 9133SOL    HW128298   4.634   1.152   0.610
 9133SOL    HW228299   4.681   1.266   0.716
 9134SOL     OW28300   4.098   5.324   0.707
 9134SOL    HW128301   4.103   5.339   0.806
 9134SOL    HW228302   4.059   5.405   0.663
 9135SOL     OW28303   0.263   6.567   2.794
 9135SOL    HW128304   0.287   6.553   2.891
 9135SOL    HW228305   0.180   6.517   2.773
 9136SOL     OW28306   6.122   4.591   6.985
 9136SOL    HW128307   6.099   4.493   6.989
 9136SOL    HW228308   6.192   4.605   6.916
 9137SOL     OW28309   5.178   6.422   6.277
 9137SOL    HW128310   5.188   6.490   6.350
 9137SOL    HW228311   5.143   6.336   6.316
 9138SOL     OW28312   3.215   3.330   0.962
 9138SOL    HW128313   3.227   3.313   1.060
 9138SOL    HW228314   3.158   3.258   0.922
 9139SOL     OW28315   6.545   0.214   1.067
 9139SOL    HW128316   6.613   0.282   1.037
 9139SOL    HW228317   6.460   0.260   1.090
 9140SOL     OW28318   1.025   4.342   3.192
 9140SOL    HW128319   0.942   4.372   3.144
 9140SOL    HW228320   1.050   4.251   3.160
 9141SOL     OW28321   6.646   6.041   5.604
 9141SOL    HW128322   6.682   6.027   5.511
 9141SOL    HW228323   6.561   6.094   5.599
 9142SOL     OW28324   1.108   4.521   3.936
 9142SOL    HW128325   1.195   4.489   3.899
 9142SOL    HW228326   1.043   4.446   3.937
 9143SOL     OW28327   0.299   4.013   2.573
 9143SOL    HW128328   0.276   3.916   2.565
 9143SOL    HW228329   0.293   4.057   2.484
 9144SOL     OW28330   2.575   4.355   5.781
 9144SOL    HW128331   2.478   4.348   5.803
 9144SOL    HW228332   2.608   4.446   5.805
 9145SOL     OW28333   1.450   6.347   5.822
 9145SOL    HW128334   1.450   6.249   5.841
 9145SOL    HW228335   1.504   6.365   5.740
 9146SOL     OW28336   6.319   2.893   2.745
 9146SOL    HW128337   6.262   2.865   2.822
 9146SOL    HW228338   6.395   2.949   2.777
 9147SOL     OW28339   4.077   0.112   4.172
 9147SOL    HW128340   4.154   0.089   4.232
 9147SOL    HW228341   4.002   0.048   4.186
 9148SOL     OW28342   6.056   6.295   1.726
 9148SOL    HW128343   6.066   6.227   1.799
 9148SOL    HW228344   5.981   6.267   1.666
 9149SOL     OW28345   0.386   3.708   2.341
 9149SOL    HW128346   0.335   3.694   2.256
 9149SOL    HW228347   0.382   3.626   2.397
 9150SOL     OW28348   2.663   2.387   0.898
 9150SOL    HW128349   2.634   2.292   0.884
 9150SOL    HW228350   2.763   2.392   0.898
 9151SOL     OW28351   1.858   3.164   3.871
 9151SOL    HW128352   1.764   3.132   3.855
 9151SOL    HW228353   1.896   3.199   3.785
 9152SOL     OW28354   2.038   4.616   3.140
 9152SOL    HW128355   2.083   4.596   3.053
 9152SOL    HW228356   2.024   4.531   3.191
 9153SOL     OW28357   6.584   4.028   0.300
 9153SOL    HW128358   6.595   4.088   0.221
 9153SOL    HW228359   6.605   3.933   0.273
 9154SOL     OW28360   5.774   4.797   2.370
 9154SOL    HW128361   5.829   4.715   2.352
 9154SOL    HW228362   5.722   4.822   2.289
 9155SOL     OW28363   1.300   6.403   2.522
 9155SOL    HW128364   1.246   6.477   2.483
 9155SOL    HW228365   1.366   6.370   2.455
 9156SOL     OW28366   6.675   4.077   6.877
 9156SOL    HW128367   6.617   3.996   6.874
 9156SOL    HW228368   6.741   4.073   6.803
 9157SOL     OW28369   1.928   5.065   6.199
 9157SOL    HW128370   1.900   5.051   6.104
 9157SOL    HW228371   1.849   5.050   6.259
 9158SOL     OW28372   6.797   3.578   4.780
 9158SOL    HW128373   6.887   3.540   4.762
 9158SOL    HW228374   6.728   3.524   4.732
 9159SOL     OW28375   3.673   1.579   3.964
 9159SOL    HW128376   3.587   1.621   3.992
 9159SOL    HW228377   3.724   1.642   3.906
 9160SOL     OW28378   0.071   4.552   1.258
 9160SOL    HW128379   0.089   4.493   1.178
 9160SOL    HW228380   0.021   4.633   1.229
 9161SOL     OW28381   6.225   4.665   1.511
 9161SOL    HW128382   6.199   4.603   1.586
 9161SOL    HW228383   6.295   4.728   1.543
 9162SOL     OW28384   4.213   1.915   1.679
 9162SOL    HW128385   4.234   1.924   1.582
 9162SOL    HW228386   4.209   1.818   1.703
 9163SOL     OW28387   1.298   2.421   3.678
 9163SOL    HW128388   1.245   2.342   3.648
 9163SOL    HW228389   1.243   2.504   3.669
 9164SOL     OW28390   2.980   0.068   0.097
 9164SOL    HW128391   3.073   0.085   0.131
 9164SOL    HW228392   2.924   0.030   0.171
 9165SOL     OW28393   5.276   1.757   6.082
 9165SOL    HW128394   5.185   1.792   6.059
 9165SOL    HW228395   5.277   1.722   6.175
 9166SOL     OW28396   5.288   5.897   1.689
 9166SOL    HW128397   5.199   5.929   1.722
 9166SOL    HW228398   5.341   5.974   1.656
 9167SOL     OW28399   1.695   1.387   4.538
 9167SOL    HW128400   1.632   1.463   4.525
 9167SOL    HW228401   1.662   1.307   4.487
 9168SOL     OW28402   6.650   6.069   4.490
 9168SOL    HW128403   6.613   6.147   4.439
 9168SOL    HW228404   6.586   5.993   4.485
 9169SOL     OW28405   6.697   5.817   0.614
 9169SOL    HW128406   6.791   5.844   0.592
 9169SOL    HW228407   6.655   5.776   0.533
 9170SOL     OW28408   1.463   1.497   6.163
 9170SOL    HW128409   1.414   1.410   6.154
 9170SOL    HW228410   1.431   1.560   6.093
 9171SOL     OW28411   3.285   4.677   0.043
 9171SOL    HW128412   3.236   4.718   6.985
 9171SOL    HW228413   3.257   4.581   0.052
 9172SOL     OW28414   4.583   1.226   3.578
 9172SOL    HW128415   4.506   1.275   3.619
 9172SOL    HW228416   4.647   1.199   3.650
 9173SOL     OW28417   5.824   3.257   4.670
 9173SOL    HW128418   5.833   3.203   4.753
 9173SOL    HW228419   5.750   3.219   4.614
 9174SOL     OW28420   0.616   4.449   0.396
 9174SOL    HW128421   0.549   4.480   0.328
 9174SOL    HW228422   0.611   4.350   0.405
 9175SOL     OW28423   2.229   0.397   6.964
 9175SOL    HW128424   2.170   0.478   6.967
 9175SOL    HW228425   2.235   0.363   6.870
 9176SOL     OW28426   1.518   1.733   2.795
 9176SOL    HW128427   1.596   1.679   2.764
 9176SOL    HW228428   1.452   1.674   2.842
 9177SOL     OW28429   0.601   4.176   3.812
 9177SOL    HW128430   0.673   4.200   3.878
 9177SOL    HW228431   0.643   4.133   3.732
 9178SOL     OW28432   2.048   5.948   0.386
 9178SOL    HW128433   2.127   5.981   0.333
 9178SOL    HW228434   1.996   5.883   0.330
 9179SOL     OW28435   3.418   5.441   4.392
 9179SOL    HW128436   3.441   5.382   4.314
 9179SOL    HW228437   3.442   5.394   4.477
 9180SOL     OW28438   6.699   0.700   5.201
 9180SOL    HW128439   6.782   0.716   5.148
 9180SOL    HW228440   6.620   0.698   5.140
 9181SOL     OW28441   2.818   1.880   3.509
 9181SOL    HW128442   2.744   1.859   3.573
 9181SOL    HW228443   2.891   1.813   3.520
 9182SOL     OW28444   1.356   1.287   2.958
 9182SOL    HW128445   1.291   1.241   3.018
 9182SOL    HW228446   1.334   1.265   2.863
 9183SOL     OW28447   0.807   1.930   6.118
 9183SOL    HW128448   0.847   2.014   6.153
 9183SOL    HW228449   0.858   1.851   6.154
 9184SOL     OW28450   3.818   3.199   0.457
 9184SOL    HW128451   3.917   3.202   0.473
 9184SOL    HW228452   3.792   3.109   0.424
 9185SOL     OW28453   1.097   0.893   6.709
 9185SOL    HW128454   1.059   0.947   6.784
 9185SOL    HW228455   1.174   0.839   6.742
 9186SOL     OW28456   5.429   1.026   6.241
 9186SOL    HW128457   5.475   1.015   6.153
 9186SOL    HW228458   5.418   1.123   6.262
 9187SOL     OW28459   5.757   2.218   0.496
 9187SOL    HW128460   5.733   2.305   0.539
 9187SOL    HW228461   5.821   2.234   0.421
 9188SOL     OW28462   1.405   0.402   1.952
 9188SOL    HW128463   1.468   0.342   1.902
 9188SOL    HW228464   1.449   0.491   1.968
 9189SOL     OW28465   4.107   1.531   4.756
 9189SOL    HW128466   4.198   1.547   4.792
 9189SOL    HW228467   4.113   1.480   4.670
 9190SOL     OW28468   6.854   2.162   5.398
 9190SOL    HW128469   6.943   2.120   5.378
 9190SOL    HW228470   6.865   2.231   5.470
 9191SOL     OW28471   5.587   6.583   0.688
 9191SOL    HW128472   5.497   6.581   0.731
 9191SOL    HW228473   5.617   6.677   0.677
 9192SOL     OW28474   5.364   4.547   4.789
 9192SOL    HW128475   5.410   4.537   4.700
 9192SOL    HW228476   5.433   4.554   4.861
 9193SOL     OW28477   3.706   2.908   3.746
 9193SOL    HW128478   3.779   2.973   3.768
 9193SOL    HW228479   3.667   2.872   3.830
 9194SOL     OW28480   3.260   6.019   2.836
 9194SOL    HW128481   3.216   5.939   2.794
 9194SOL    HW228482   3.305   6.073   2.765
 9195SOL     OW28483   6.683   3.249   3.149
 9195SOL    HW128484   6.618   3.285   3.082
 9195SOL    HW228485   6.701   3.153   3.130
 9196SOL     OW28486   4.495   0.251   3.638
 9196SOL    HW128487   4.417   0.313   3.634
 9196SOL    HW228488   4.535   0.242   3.546
 9197SOL     OW28489   3.460   3.212   5.952
 9197SOL    HW128490   3.545   3.182   5.908
 9197SOL    HW228491   3.471   3.304   5.988
 9198SOL     OW28492   5.047   2.486   5.282
 9198SOL    HW128493   5.025   2.394   5.314
 9198SOL    HW228494   5.026   2.493   5.184
 9199SOL     OW28495   1.415   3.509   6.578
 9199SOL    HW128496   1.481   3.453   6.527
 9199SOL    HW228497   1.387   3.587   6.522
 9200SOL     OW28498   6.220   6.559   0.705
 9200SOL    HW128499   6.261   6.642   0.666
 9200SOL    HW228500   6.279   6.481   0.685
 9201SOL     OW28501   1.844   4.155   3.238
 9201SOL    HW128502   1.866   4.126   3.145
 9201SOL    HW228503   1.804   4.079   3.288
 9202SOL     OW28504   3.182   5.378   3.851
 9202SOL    HW128505   3.113   5.318   3.891
 9202SOL    HW228506   3.138   5.460   3.814
 9203SOL     OW28507   5.123   0.758   6.337
 9203SOL    HW128508   5.026   0.777   6.349
 9203SOL    HW228509   5.160   0.821   6.269
 9204SOL     OW28510   4.664   4.242   1.699
 9204SOL    HW128511   4.643   4.257   1.602
 9204SOL    HW228512   4.580   4.218   1.748
 9205SOL     OW28513   4.942   3.120   2.389
 9205SOL    HW128514   5.025   3.065   2.400
 9205SOL    HW228515   4.862   3.060   2.391
 9206SOL     OW28516   0.537   6.796   2.924
 9206SOL    HW128517   0.451   6.833   2.888
 9206SOL    HW228518   0.592   6.760   2.849
 9207SOL     OW28519   4.120   6.212   0.154
 9207SOL    HW128520   4.053   6.246   0.087
 9207SOL    HW228521   4.202   6.182   0.106
 9208SOL     OW28522   4.440   4.761   2.593
 9208SOL    HW128523   4.529   4.804   2.607
 9208SOL    HW228524   4.382   4.821   2.538
 9209SOL     OW28525   3.847   0.761   3.158
 9209SOL    HW128526   3.891   0.675   3.184
 9209SOL    HW228527   3.881   0.791   3.070
 9210SOL     OW28528   1.519   7.005   0.696
 9210SOL    HW128529   1.442   0.011   0.638
 9210SOL    HW228530   1.569   6.930   0.654
 9211SOL     OW28531   4.867   1.770   6.156
 9211SOL    HW128532   4.778   1.770   6.203
 9211SOL    HW228533   4.889   1.676   6.129
 9212SOL     OW28534   6.095   3.315   4.603
 9212SOL    HW128535   6.009   3.274   4.634
 9212SOL    HW228536   6.093   3.414   4.619
 9213SOL     OW28537   6.579   0.077   2.582
 9213SOL    HW128538   6.582   0.166   2.627
 9213SOL    HW228539   6.652   0.072   2.515
 9214SOL     OW28540   2.086   2.383   5.171
 9214SOL    HW128541   2.121   2.291   5.159
 9214SOL    HW228542   2.027   2.386   5.252
 9215SOL     OW28543   0.704   3.281   2.831
 9215SOL    HW128544   0.702   3.183   2.855
 9215SOL    HW228545   0.617   3.323   2.858
 9216SOL     OW28546   2.769   5.645   4.535
 9216SOL    HW128547   2.847   5.586   4.559
 9216SOL    HW228548   2.684   5.597   4.552
 9217SOL     OW28549   4.363   1.127   6.142
 9217SOL    HW128550   4.322   1.057   6.083
 9217SOL    HW228551   4.454   1.097   6.170
 9218SOL     OW28552   6.314   5.378   6.814
 9218SOL    HW128553   6.327   5.443   6.889
 9218SOL    HW228554   6.224   5.335   6.822
 9219SOL     OW28555   3.468   2.697   5.553
 9219SOL    HW128556   3.459   2.764   5.480
 9219SOL    HW228557   3.423   2.612   5.527
 9220SOL     OW28558   0.995   6.491   3.782
 9220SOL    HW128559   1.067   6.448   3.837
 9220SOL    HW228560   1.033   6.566   3.728
 9221SOL     OW28561   2.542   1.616   0.856
 9221SOL    HW128562   2.484   1.602   0.936
 9221SOL    HW228563   2.632   1.576   0.873
 9222SOL     OW28564   1.962   2.914   4.027
 9222SOL    HW128565   1.991   2.840   3.966
 9222SOL    HW228566   1.875   2.951   3.995
 9223SOL     OW28567   0.520   3.182   5.023
 9223SOL    HW128568   0.451   3.215   5.088
 9223SOL    HW228569   0.580   3.257   4.996
 9224SOL     OW28570   2.352   4.278   3.478
 9224SOL    HW128571   2.426   4.345   3.491
 9224SOL    HW228572   2.267   4.327   3.460
 9225SOL     OW28573   5.210   5.997   6.667
 9225SOL    HW128574   5.171   5.960   6.583
 9225SOL    HW228575   5.275   6.069   6.644
 9226SOL     OW28576   0.892   0.859   0.874
 9226SOL    HW128577   0.874   0.761   0.878
 9226SOL    HW228578   0.947   0.887   0.953
 9227SOL     OW28579   2.350   4.678   0.724
 9227SOL    HW128580   2.256   4.657   0.751
 9227SOL    HW228581   2.408   4.599   0.740
 9228SOL     OW28582   3.510   3.104   5.454
 9228SOL    HW128583   3.429   3.116   5.512
 9228SOL    HW228584   3.528   3.189   5.405
 9229SOL     OW28585   0.215   4.985   0.317
 9229SOL    HW128586   0.166   4.974   0.230
 9229SOL    HW228587   0.157   4.951   0.392
 9230SOL     OW28588   4.459   1.435   5.193
 9230SOL    HW128589   4.477   1.452   5.290
 9230SOL    HW228590   4.514   1.357   5.162
 9231SOL     OW28591   6.390   5.397   3.584
 9231SOL    HW128592   6.347   5.413   3.495
 9231SOL    HW228593   6.423   5.484   3.621
 9232SOL     OW28594   1.416   4.940   2.713
 9232SOL    HW128595   1.490   4.990   2.668
 9232SOL    HW228596   1.330   4.991   2.703
 9233SOL     OW28597   0.737   6.788   6.640
 9233SOL    HW128598   0.698   6.866   6.688
 9233SOL    HW228599   0.780   6.727   6.707
 9234SOL     OW28600   2.028   4.000   0.537
 9234SOL    HW128601   2.088   3.952   0.473
 9234SOL    HW228602   2.001   4.088   0.498
 9235SOL     OW28603   1.987   2.168   3.373
 9235SOL    HW128604   2.011   2.076   3.343
 9235SOL    HW228605   2.018   2.234   3.306
 9236SOL     OW28606   2.837   3.461   6.603
 9236SOL    HW128607   2.796   3.433   6.516
 9236SOL    HW228608   2.869   3.380   6.652
 9237SOL     OW28609   5.643   4.980   3.082
 9237SOL    HW128610   5.557   5.030   3.095
 9237SOL    HW228611   5.677   4.995   2.990
 9238SOL     OW28612   1.567   2.640   5.144
 9238SOL    HW128613   1.634   2.565   5.135
 9238SOL    HW228614   1.582   2.706   5.071
 9239SOL     OW28615   1.443   5.136   0.049
 9239SOL    HW128616   1.380   5.131   0.127
 9239SOL    HW228617   1.479   5.045   0.030
 9240SOL     OW28618   4.276   2.306   2.805
 9240SOL    HW128619   4.322   2.343   2.886
 9240SOL    HW228620   4.185   2.273   2.830
 9241SOL     OW28621   6.021   6.309   1.425
 9241SOL    HW128622   6.008   6.218   1.385
 9241SOL    HW228623   6.119   6.327   1.435
 9242SOL     OW28624   1.105   2.536   0.312
 9242SOL    HW128625   1.057   2.519   0.398
 9242SOL    HW228626   1.100   2.634   0.290
 9243SOL     OW28627   0.944   0.697   0.168
 9243SOL    HW128628   1.031   0.658   0.198
 9243SOL    HW228629   0.869   0.637   0.195
 9244SOL     OW28630   3.095   6.857   5.464
 9244SOL    HW128631   3.159   6.912   5.411
 9244SOL    HW228632   3.143   6.810   5.538
 9245SOL     OW28633   1.380   4.699   3.607
 9245SOL    HW128634   1.458   4.654   3.651
 9245SOL    HW228635   1.312   4.630   3.583
 9246SOL     OW28636   6.398   0.349   6.443
 9246SOL    HW128637   6.324   0.305   6.391
 9246SOL    HW228638   6.373   0.444   6.462
 9247SOL     OW28639   3.670   6.550   3.151
 9247SOL    HW128640   3.639   6.463   3.114
 9247SOL    HW228641   3.651   6.623   3.086
 9248SOL     OW28642   2.214   1.232   6.770
 9248SOL    HW128643   2.302   1.202   6.809
 9248SOL    HW228644   2.185   1.316   6.815
 9249SOL     OW28645   3.429   6.009   0.915
 9249SOL    HW128646   3.478   6.095   0.905
 9249SOL    HW228647   3.449   5.970   1.005
 9250SOL     OW28648   0.455   2.807   3.717
 9250SOL    HW128649   0.491   2.724   3.676
 9250SOL    HW228650   0.391   2.784   3.790
 9251SOL     OW28651   2.777   2.872   1.248
 9251SOL    HW128652   2.842   2.857   1.323
 9251SOL    HW228653   2.808   2.949   1.192
 9252SOL     OW28654   5.283   2.026   5.376
 9252SOL    HW128655   5.343   1.968   5.321
 9252SOL    HW228656   5.236   2.092   5.317
 9253SOL     OW28657   1.101   5.432   5.193
 9253SOL    HW128658   1.022   5.430   5.254
 9253SOL    HW228659   1.077   5.391   5.106
 9254SOL     OW28660   0.219   4.547   2.680
 9254SOL    HW128661   0.257   4.638   2.696
 9254SOL    HW228662   0.147   4.553   2.611
 9255SOL     OW28663   0.084   4.347   0.604
 9255SOL    HW128664   0.094   4.277   0.674
 9255SOL    HW228665   0.029   4.423   0.639
 9256SOL     OW28666   2.625   6.119   1.617
 9256SOL    HW128667   2.586   6.161   1.698
 9256SOL    HW228668   2.680   6.187   1.567
 9257SOL     OW28669   6.758   5.908   3.952
 9257SOL    HW128670   6.761   5.985   4.015
 9257SOL    HW228671   6.726   5.827   4.000
 9258SOL     OW28672   3.531   4.902   1.283
 9258SOL    HW128673   3.577   4.990   1.293
 9258SOL    HW228674   3.591   4.839   1.234
 9259SOL     OW28675   1.899   1.835   0.347
 9259SOL    HW128676   1.977   1.895   0.365
 9259SOL    HW228677   1.877   1.839   0.250
 9260SOL     OW28678   5.920   4.158   4.975
 9260SOL    HW128679   5.940   4.110   4.890
 9260SOL    HW228680   5.966   4.247   4.975
 9261SOL     OW28681   3.726   2.504   1.615
 9261SOL    HW128682   3.816   2.542   1.597
 9261SOL    HW228683   3.724   2.464   1.706
 9262SOL     OW28684   6.503   5.675   4.889
 9262SOL    HW128685   6.558   5.753   4.860
 9262SOL    HW228686   6.422   5.707   4.937
 9263SOL     OW28687   1.833   4.088   4.114
 9263SOL    HW128688   1.748   4.071   4.165
 9263SOL    HW228689   1.905   4.116   4.178
 9264SOL     OW28690   4.427   4.456   0.231
 9264SOL    HW128691   4.493   4.424   0.300
 9264SOL    HW228692   4.463   4.537   0.186
 9265SOL     OW28693   6.294   2.009   0.431
 9265SOL    HW128694   6.349   2.091   0.449
 9265SOL    HW228695   6.218   2.005   0.495
 9266SOL     OW28696   1.262   4.782   1.222
 9266SOL    HW128697   1.207   4.852   1.177
 9266SOL    HW228698   1.359   4.798   1.204
 9267SOL     OW28699   6.343   0.935   4.459
 9267SOL    HW128700   6.275   0.986   4.511
 9267SOL    HW228701   6.329   0.950   4.361
 9268SOL     OW28702   0.785   0.364   1.815
 9268SOL    HW128703   0.812   0.355   1.911
 9268SOL    HW228704   0.687   0.344   1.805
 9269SOL     OW28705   3.903   1.221   0.218
 9269SOL    HW128706   3.870   1.128   0.203
 9269SOL    HW228707   3.978   1.219   0.284
 9270SOL     OW28708   2.031   0.138   6.393
 9270SOL    HW128709   2.015   0.058   6.336
 9270SOL    HW228710   1.978   0.215   6.358
 9271SOL     OW28711   1.214   6.518   5.015
 9271SOL    HW128712   1.127   6.560   5.044
 9271SOL    HW228713   1.257   6.474   5.094
 9272SOL     OW28714   6.770   6.508   6.107
 9272SOL    HW128715   6.682   6.555   6.107
 9272SOL    HW228716   6.792   6.478   6.200
 9273SOL     OW28717   5.115   4.638   3.682
 9273SOL    HW128718   5.044   4.668   3.745
 9273SOL    HW228719   5.075   4.580   3.611
 9274SOL     OW28720   0.523   2.786   0.676
 9274SOL    HW128721   0.444   2.727   0.656
 9274SOL    HW228722   0.592   2.774   0.605
 9275SOL     OW28723   6.716   0.987   0.212
 9275SOL    HW128724   6.760   0.957   0.127
 9275SOL    HW228725   6.748   1.079   0.235
 9276SOL     OW28726   2.702   5.378   0.458
 9276SOL    HW128727   2.718   5.287   0.498
 9276SOL    HW228728   2.783   5.435   0.471
 9277SOL     OW28729   5.017   5.717   1.670
 9277SOL    HW128730   5.003   5.711   1.572
 9277SOL    HW228731   5.108   5.683   1.693
 9278SOL     OW28732   1.173   0.342   5.250
 9278SOL    HW128733   1.139   0.355   5.156
 9278SOL    HW228734   1.109   0.283   5.300
 9279SOL     OW28735   4.350   6.025   1.511
 9279SOL    HW128736   4.399   5.939   1.499
 9279SOL    HW228737   4.258   6.018   1.473
 9280SOL     OW28738   1.574   6.862   2.431
 9280SOL    HW128739   1.484   6.853   2.387
 9280SOL    HW228740   1.613   6.951   2.407
 9281SOL     OW28741   2.464   5.302   0.169
 9281SOL    HW128742   2.559   5.281   0.147
 9281SOL    HW228743   2.461   5.371   0.241
 9282SOL     OW28744   2.953   6.787   4.921
 9282SOL    HW128745   2.920   6.852   4.990
 9282SOL    HW228746   2.876   6.732   4.889
 9283SOL     OW28747   4.241   6.406   0.963
 9283SOL    HW128748   4.309   6.417   1.035
 9283SOL    HW228749   4.223   6.496   0.921
 9284SOL     OW28750   3.470   3.898   5.013
 9284SOL    HW128751   3.459   3.935   4.921
 9284SOL    HW228752   3.555   3.845   5.017
 9285SOL     OW28753   0.531   5.127   2.794
 9285SOL    HW128754   0.561   5.032   2.786
 9285SOL    HW228755   0.571   5.167   2.876
 9286SOL     OW28756   4.465   6.364   1.572
 9286SOL    HW128757   4.374   6.403   1.584
 9286SOL    HW228758   4.470   6.316   1.484
 9287SOL     OW28759   3.746   4.489   6.368
 9287SOL    HW128760   3.833   4.494   6.318
 9287SOL    HW228761   3.671   4.491   6.302
 9288SOL     OW28762   3.426   2.055   2.375
 9288SOL    HW128763   3.473   2.101   2.450
 9288SOL    HW228764   3.380   1.974   2.410
 9289SOL     OW28765   5.108   6.420   0.504
 9289SOL    HW128766   5.207   6.429   0.501
 9289SOL    HW228767   5.080   6.380   0.591
 9290SOL     OW28768   4.525   0.848   3.806
 9290SOL    HW128769   4.428   0.869   3.817
 9290SOL    HW228770   4.536   0.775   3.739
 9291SOL     OW28771   0.921   4.590   6.336
 9291SOL    HW128772   0.858   4.514   6.320
 9291SOL    HW228773   0.889   4.644   6.414
 9292SOL     OW28774   1.255   1.325   6.545
 9292SOL    HW128775   1.176   1.352   6.600
 9292SOL    HW228776   1.260   1.225   6.540
 9293SOL     OW28777   4.947   2.604   4.588
 9293SOL    HW128778   4.872   2.669   4.605
 9293SOL    HW228779   5.012   2.645   4.523
 9294SOL     OW28780   4.642   1.049   0.039
 9294SOL    HW128781   4.550   1.067   0.005
 9294SOL    HW228782   4.697   1.133   0.034
 9295SOL     OW28783   0.659   1.043   5.209
 9295SOL    HW128784   0.757   1.030   5.222
 9295SOL    HW228785   0.639   1.141   5.206
 9296SOL     OW28786   1.760   4.599   0.088
 9296SOL    HW128787   1.729   4.504   0.098
 9296SOL    HW228788   1.691   4.660   0.128
 9297SOL     OW28789   5.882   6.042   2.509
 9297SOL    HW128790   5.951   6.000   2.567
 9297SOL    HW228791   5.874   5.990   2.424
 9298SOL     OW28792   1.656   5.294   6.710
 9298SOL    HW128793   1.725   5.355   6.750
 9298SOL    HW228794   1.679   5.274   6.615
 9299SOL     OW28795   1.991   2.527   4.554
 9299SOL    HW128796   2.002   2.626   4.557
 9299SOL    HW228797   1.995   2.490   4.646
 9300SOL     OW28798   1.452   5.128   5.091
 9300SOL    HW128799   1.446   5.166   4.998
 9300SOL    HW228800   1.548   5.118   5.117
 9301SOL     OW28801   0.690   4.550   4.669
 9301SOL    HW128802   0.749   4.509   4.738
 9301SOL    HW228803   0.626   4.482   4.635
 9302SOL     OW28804   2.417   3.680   5.369
 9302SOL    HW128805   2.429   3.765   5.318
 9302SOL    HW228806   2.363   3.697   5.451
 9303SOL     OW28807   2.397   4.231   0.935
 9303SOL    HW128808   2.428   4.309   0.882
 9303SOL    HW228809   2.403   4.251   1.032
 9304SOL     OW28810   4.237   5.379   0.152
 9304SOL    HW128811   4.192   5.449   0.096
 9304SOL    HW228812   4.168   5.326   0.200
 9305SOL     OW28813   2.003   2.036   1.740
 9305SOL    HW128814   2.033   1.943   1.762
 9305SOL    HW228815   1.908   2.048   1.770
 9306SOL     OW28816   6.714   5.594   4.733
 9306SOL    HW128817   6.688   5.604   4.637
 9306SOL    HW228818   6.633   5.603   4.790
 9307SOL     OW28819   2.606   3.085   1.720
 9307SOL    HW128820   2.560   2.998   1.735
 9307SOL    HW228821   2.541   3.152   1.686
 9308SOL     OW28822   2.149   3.796   2.080
 9308SOL    HW128823   2.078   3.814   2.012
 9308SOL    HW228824   2.184   3.703   2.068
 9309SOL     OW28825   5.007   5.347   6.315
 9309SOL    HW128826   4.938   5.405   6.358
 9309SOL    HW228827   5.061   5.402   6.251
 9310SOL     OW28828   5.967   6.142   0.176
 9310SOL    HW128829   5.989   6.240   0.170
 9310SOL    HW228830   6.034   6.090   0.123
 9311SOL     OW28831   4.714   3.775   1.660
 9311SOL    HW128832   4.727   3.849   1.725
 9311SOL    HW228833   4.753   3.800   1.572
 9312SOL     OW28834   0.670   3.012   2.857
 9312SOL    HW128835   0.628   2.985   2.943
 9312SOL    HW228836   0.613   2.981   2.781
 9313SOL     OW28837   0.420   0.760   2.200
 9313SOL    HW128838   0.400   0.841   2.254
 9313SOL    HW228839   0.348   0.746   2.132
 9314SOL     OW28840   5.306   3.686   0.693
 9314SOL    HW128841   5.252   3.652   0.771
 9314SOL    HW228842   5.399   3.706   0.724
 9315SOL     OW28843   5.184   0.373   6.262
 9315SOL    HW128844   5.279   0.397   6.242
 9315SOL    HW228845   5.124   0.418   6.197
 9316SOL     OW28846   4.573   0.323   5.514
 9316SOL    HW128847   4.638   0.389   5.477
 9316SOL    HW228848   4.624   0.250   5.560
 9317SOL     OW28849   3.942   6.487   3.232
 9317SOL    HW128850   3.877   6.511   3.160
 9317SOL    HW228851   3.906   6.411   3.286
 9318SOL     OW28852   4.524   6.123   1.726
 9318SOL    HW128853   4.535   6.211   1.680
 9318SOL    HW228854   4.461   6.065   1.675
 9319SOL     OW28855   2.689   3.036   0.067
 9319SOL    HW128856   2.597   3.048   0.031
 9319SOL    HW228857   2.696   2.947   0.113
 9320SOL     OW28858   6.601   6.603   6.824
 9320SOL    HW128859   6.600   6.550   6.909
 9320SOL    HW228860   6.663   6.681   6.833
 9321SOL     OW28861   0.641   3.436   4.952
 9321SOL    HW128862   0.639   3.445   4.853
 9321SOL    HW228863   0.733   3.452   4.986
 9322SOL     OW28864   5.867   3.342   6.546
 9322SOL    HW128865   5.804   3.303   6.614
 9322SOL    HW228866   5.939   3.276   6.526
 9323SOL     OW28867   0.921   1.993   5.595
 9323SOL    HW128868   0.863   2.017   5.673
 9323SOL    HW228869   1.007   1.955   5.628
 9324SOL     OW28870   1.138   4.699   1.927
 9324SOL    HW128871   1.068   4.713   1.857
 9324SOL    HW228872   1.102   4.727   2.016
 9325SOL     OW28873   0.939   4.386   3.692
 9325SOL    HW128874   0.967   4.332   3.612
 9325SOL    HW228875   0.865   4.448   3.666
 9326SOL     OW28876   4.675   4.477   1.881
 9326SOL    HW128877   4.656   4.486   1.784
 9326SOL    HW228878   4.632   4.394   1.916
 9327SOL     OW28879   3.756   0.971   3.429
 9327SOL    HW128880   3.790   1.042   3.368
 9327SOL    HW228881   3.821   0.956   3.503
 9328SOL     OW28882   2.466   6.899   4.023
 9328SOL    HW128883   2.383   6.843   4.031
 9328SOL    HW228884   2.493   6.933   4.113
 9329SOL     OW28885   0.206   5.437   6.663
 9329SOL    HW128886   0.205   5.490   6.748
 9329SOL    HW228887   0.116   5.445   6.619
 9330SOL     OW28888   6.899   6.129   6.382
 9330SOL    HW128889   6.826   6.061   6.377
 9330SOL    HW228890   6.977   6.100   6.326
 9331SOL     OW28891   1.760   3.569   4.589
 9331SOL    HW128892   1.721   3.573   4.497
 9331SOL    HW228893   1.693   3.600   4.656
 9332SOL     OW28894   4.669   5.869   1.217
 9332SOL    HW128895   4.737   5.912   1.158
 9332SOL    HW228896   4.581   5.915   1.205
 9333SOL     OW28897   4.332   4.033   0.775
 9333SOL    HW128898   4.343   4.071   0.866
 9333SOL    HW228899   4.376   4.093   0.708
 9334SOL     OW28900   5.961   5.870   5.843
 9334SOL    HW128901   6.029   5.804   5.813
 9334SOL    HW228902   5.990   5.962   5.815
 9335SOL     OW28903   0.886   3.634   1.665
 9335SOL    HW128904   0.797   3.614   1.625
 9335SOL    HW228905   0.957   3.587   1.614
 9336SOL     OW28906   5.729   6.751   5.433
 9336SOL    HW128907   5.814   6.781   5.478
 9336SOL    HW228908   5.748   6.674   5.374
 9337SOL     OW28909   2.483   0.369   6.472
 9337SOL    HW128910   2.550   0.408   6.534
 9337SOL    HW228911   2.492   0.269   6.471
 9338SOL     OW28912   5.344   6.545   0.209
 9338SOL    HW128913   5.372   6.523   0.302
 9338SOL    HW228914   5.266   6.487   0.183
 9339SOL     OW28915   6.178   3.652   5.733
 9339SOL    HW128916   6.117   3.581   5.700
 9339SOL    HW228917   6.161   3.737   5.683
 9340SOL     OW28918   3.741   5.717   1.347
 9340SOL    HW128919   3.784   5.631   1.374
 9340SOL    HW228920   3.670   5.698   1.279
 9341SOL     OW28921   4.974   4.312   0.201
 9341SOL    HW128922   4.879   4.306   0.170
 9341SOL    HW228923   5.001   4.409   0.204
 9342SOL     OW28924   3.201   0.383   3.972
 9342SOL    HW128925   3.231   0.476   3.993
 9342SOL    HW228926   3.101   0.379   3.968
 9343SOL     OW28927   4.481   3.993   1.448
 9343SOL    HW128928   4.438   3.968   1.361
 9343SOL    HW228929   4.579   3.973   1.445
 9344SOL     OW28930   6.347   6.107   5.227
 9344SOL    HW128931   6.318   6.195   5.264
 9344SOL    HW228932   6.300   6.034   5.275
 9345SOL     OW28933   0.888   6.176   0.611
 9345SOL    HW128934   0.793   6.199   0.589
 9345SOL    HW228935   0.945   6.257   0.597
 9346SOL     OW28936   6.144   5.485   0.976
 9346SOL    HW128937   6.107   5.433   1.053
 9346SOL    HW228938   6.091   5.569   0.964
 9347SOL     OW28939   3.614   5.569   0.767
 9347SOL    HW128940   3.515   5.559   0.761
 9347SOL    HW228941   3.639   5.664   0.750
 9348SOL     OW28942   3.164   5.761   1.852
 9348SOL    HW128943   3.183   5.804   1.940
 9348SOL    HW228944   3.165   5.830   1.779
 9349SOL     OW28945   6.622   5.826   1.843
 9349SOL    HW128946   6.566   5.763   1.789
 9349SOL    HW228947   6.693   5.866   1.786
 9350SOL     OW28948   6.970   0.660   6.050
 9350SOL    HW128949   0.042   0.701   6.041
 9350SOL    HW228950   6.903   0.722   6.009
 9351SOL     OW28951   3.645   2.144   6.243
 9351SOL    HW128952   3.589   2.064   6.220
 9351SOL    HW228953   3.688   2.180   6.161
 9352SOL     OW28954   3.576   2.557   5.811
 9352SOL    HW128955   3.599   2.607   5.894
 9352SOL    HW228956   3.529   2.618   5.747
 9353SOL     OW28957   0.927   3.226   1.476
 9353SOL    HW128958   0.937   3.135   1.516
 9353SOL    HW228959   0.848   3.228   1.415
 9354SOL     OW28960   4.860   2.278   1.610
 9354SOL    HW128961   4.812   2.219   1.675
 9354SOL    HW228962   4.869   2.231   1.522
 9355SOL     OW28963   6.959   0.295   3.463
 9355SOL    HW128964   6.940   0.387   3.498
 9355SOL    HW228965   7.005   0.303   3.374
 9356SOL     OW28966   4.226   4.670   2.760
 9356SOL    HW128967   4.217   4.570   2.768
 9356SOL    HW228968   4.312   4.693   2.715
 9357SOL     OW28969   3.592   2.396   0.963
 9357SOL    HW128970   3.585   2.485   1.007
 9357SOL    HW228971   3.523   2.334   1.000
 9358SOL     OW28972   6.056   4.489   2.098
 9358SOL    HW128973   6.128   4.429   2.132
 9358SOL    HW228974   6.070   4.505   2.000
 9359SOL     OW28975   6.396   3.939   5.912
 9359SOL    HW128976   6.428   3.934   5.818
 9359SOL    HW228977   6.325   4.009   5.920
 9360SOL     OW28978   2.361   0.895   0.033
 9360SOL    HW128979   2.314   0.950   0.102
 9360SOL    HW228980   2.459   0.913   0.038
 9361SOL     OW28981   2.994   6.981   2.266
 9361SOL    HW128982   3.068   0.028   2.278
 9361SOL    HW228983   3.009   6.929   2.182
 9362SOL     OW28984   2.241   1.231   2.798
 9362SOL    HW128985   2.196   1.255   2.712
 9362SOL    HW228986   2.178   1.177   2.854
 9363SOL     OW28987   3.452   5.704   2.423
 9363SOL    HW128988   3.492   5.766   2.491
 9363SOL    HW228989   3.492   5.613   2.434
 9364SOL     OW28990   4.185   4.543   0.395
 9364SOL    HW128991   4.106   4.565   0.338
 9364SOL    HW228992   4.259   4.509   0.338
 9365SOL     OW28993   2.933   1.812   4.568
 9365SOL    HW128994   3.019   1.860   4.553
 9365SOL    HW228995   2.918   1.802   4.666
 9366SOL     OW28996   2.877   1.647   0.816
 9366SOL    HW128997   2.931   1.710   0.760
 9366SOL    HW228998   2.852   1.568   0.761
 9367SOL     OW28999   6.941   5.592   3.184
 9367SOL    HW129000   6.842   5.577   3.190
 9367SOL    HW229001   6.963   5.632   3.095
 9368SOL     OW29002   2.718   1.921   1.731
 9368SOL    HW129003   2.704   2.002   1.789
 9368SOL    HW229004   2.812   1.920   1.696
 9369SOL     OW29005   6.914   2.167   4.692
 9369SOL    HW129006   6.894   2.081   4.645
 9369SOL    HW229007   6.836   2.229   4.683
 9370SOL     OW29008   6.037   1.127   2.953
 9370SOL    HW129009   6.091   1.083   2.881
 9370SOL    HW229010   5.975   1.061   2.994
 9371SOL     OW29011   0.630   6.267   0.542
 9371SOL    HW129012   0.571   6.211   0.599
 9371SOL    HW229013   0.586   6.356   0.525
 9372SOL     OW29014   6.124   6.521   4.408
 9372SOL    HW129015   6.137   6.596   4.473
 9372SOL    HW229016   6.028   6.495   4.406
 9373SOL     OW29017   3.503   1.635   3.651
 9373SOL    HW129018   3.526   1.716   3.703
 9373SOL    HW229019   3.543   1.641   3.560
 9374SOL     OW29020   5.117   3.439   0.188
 9374SOL    HW129021   5.071   3.440   0.277
 9374SOL    HW229022   5.213   3.416   0.200
 9375SOL     OW29023   0.145   1.305   3.346
 9375SOL    HW129024   0.125   1.216   3.304
 9375SOL    HW229025   0.212   1.292   3.420
 9376SOL     OW29026   2.372   3.801   1.531
 9376SOL    HW129027   2.322   3.799   1.617
 9376SOL    HW229028   2.379   3.708   1.495
 9377SOL     OW29029   6.057   5.424   3.893
 9377SOL    HW129030   5.992   5.499   3.908
 9377SOL    HW229031   6.083   5.421   3.797
 9378SOL     OW29032   2.436   0.128   0.287
 9378SOL    HW129033   2.419   0.196   0.215
 9378SOL    HW229034   2.379   0.147   0.366
 9379SOL     OW29035   5.048   5.113   4.232
 9379SOL    HW129036   5.143   5.145   4.232
 9379SOL    HW229037   5.043   5.023   4.189
 9380SOL     OW29038   5.811   0.145   5.435
 9380SOL    HW129039   5.736   0.109   5.379
 9380SOL    HW229040   5.773   0.206   5.505
 9381SOL     OW29041   2.112   1.567   5.743
 9381SOL    HW129042   2.110   1.530   5.836
 9381SOL    HW229043   2.207   1.567   5.710
 9382SOL     OW29044   4.363   2.071   2.723
 9382SOL    HW129045   4.321   2.158   2.749
 9382SOL    HW229046   4.299   2.018   2.668
 9383SOL     OW29047   4.177   6.569   4.367
 9383SOL    HW129048   4.121   6.486   4.364
 9383SOL    HW229049   4.153   6.624   4.447
 9384SOL     OW29050   5.227   5.991   2.345
 9384SOL    HW129051   5.298   5.948   2.289
 9384SOL    HW229052   5.169   6.048   2.288
 9385SOL     OW29053   3.646   1.255   3.110
 9385SOL    HW129054   3.713   1.222   3.176
 9385SOL    HW229055   3.679   1.238   3.017
 9386SOL     OW29056   2.696   6.924   5.563
 9386SOL    HW129057   2.622   6.925   5.495
 9386SOL    HW229058   2.735   6.833   5.568
 9387SOL     OW29059   3.324   6.579   0.237
 9387SOL    HW129060   3.278   6.510   0.294
 9387SOL    HW229061   3.405   6.538   0.195
 9388SOL     OW29062   0.104   0.294   3.252
 9388SOL    HW129063   0.183   0.234   3.237
 9388SOL    HW229064   0.094   0.356   3.174
 9389SOL     OW29065   2.544   0.916   5.716
 9389SOL    HW129066   2.532   1.015   5.709
 9389SOL    HW229067   2.488   0.881   5.790
 9390SOL     OW29068   2.616   5.465   2.033
 9390SOL    HW129069   2.614   5.564   2.017
 9390SOL    HW229070   2.607   5.447   2.131
 9391SOL     OW29071   0.384   1.091   5.614
 9391SOL    HW129072   0.359   1.069   5.708
 9391SOL    HW229073   0.484   1.089   5.605
 9392SOL     OW29074   1.671   6.046   4.972
 9392SOL    HW129075   1.592   6.106   4.953
 9392SOL    HW229076   1.721   6.081   5.051
 9393SOL     OW29077   3.804   2.185   5.335
 9393SOL    HW129078   3.766   2.095   5.313
 9393SOL    HW229079   3.904   2.179   5.337
 9394SOL     OW29080   6.057   2.969   2.648
 9394SOL    HW129081   6.116   2.947   2.725
 9394SOL    HW229082   5.961   2.969   2.679
 9395SOL     OW29083   2.274   3.372   0.805
 9395SOL    HW129084   2.220   3.289   0.794
 9395SOL    HW229085   2.256   3.412   0.895
 9396SOL     OW29086   6.051   0.147   5.935
 9396SOL    HW129087   5.973   0.086   5.948
 9396SOL    HW229088   6.040   0.196   5.848
 9397SOL     OW29089   2.550   6.724   0.783
 9397SOL    HW129090   2.551   6.821   0.756
 9397SOL    HW229091   2.607   6.712   0.864
 9398SOL     OW29092   2.732   1.713   6.642
 9398SOL    HW129093   2.704   1.743   6.551
 9398SOL    HW229094   2.726   1.790   6.706
 9399SOL     OW29095   0.169   0.842   5.782
 9399SOL    HW129096   0.177   0.813   5.877
 9399SOL    HW229097   0.167   0.761   5.723
 9400SOL     OW29098   5.543   3.336   2.250
 9400SOL    HW129099   5.600   3.260   2.219
 9400SOL    HW229100   5.599   3.401   2.301
 9401SOL     OW29101   2.994   6.280   3.381
 9401SOL    HW129102   3.056   6.344   3.336
 9401SOL    HW229103   2.987   6.305   3.478
 9402SOL     OW29104   2.128   5.041   6.496
 9402SOL    HW129105   2.134   4.990   6.583
 9402SOL    HW229106   2.214   5.030   6.446
 9403SOL     OW29107   5.059   1.776   4.018
 9403SOL    HW129108   4.989   1.705   4.022
 9403SOL    HW229109   5.051   1.827   3.933
 9404SOL     OW29110   1.545   5.014   6.631
 9404SOL    HW129111   1.547   5.107   6.669
 9404SOL    HW229112   1.465   5.005   6.572
 9405SOL     OW29113   6.072   6.908   0.892
 9405SOL    HW129114   6.006   6.980   0.915
 9405SOL    HW229115   6.124   6.936   0.811
 9406SOL     OW29116   0.208   1.315   4.947
 9406SOL    HW129117   0.213   1.269   4.858
 9406SOL    HW229118   0.186   1.248   5.017
 9407SOL     OW29119   2.980   5.906   3.131
 9407SOL    HW129120   3.016   5.991   3.093
 9407SOL    HW229121   2.880   5.911   3.134
 9408SOL     OW29122   3.792   1.676   6.120
 9408SOL    HW129123   3.724   1.705   6.054
 9408SOL    HW229124   3.772   1.716   6.209
 9409SOL     OW29125   5.807   3.659   3.947
 9409SOL    HW129126   5.886   3.598   3.960
 9409SOL    HW229127   5.839   3.752   3.933
 9410SOL     OW29128   4.263   6.218   2.725
 9410SOL    HW129129   4.354   6.252   2.699
 9410SOL    HW229130   4.251   6.229   2.824
 9411SOL     OW29131   4.199   5.759   0.519
 9411SOL    HW129132   4.279   5.760   0.579
 9411SOL    HW229133   4.217   5.699   0.441
 9412SOL     OW29134   6.995   2.659   1.316
 9412SOL    HW129135   6.994   2.581   1.378
 9412SOL    HW229136   0.063   2.661   1.266
 9413SOL     OW29137   3.951   6.149   5.216
 9413SOL    HW129138   4.021   6.179   5.151
 9413SOL    HW229139   3.984   6.163   5.309
 9414SOL     OW29140   3.062   1.450   2.224
 9414SOL    HW129141   3.098   1.428   2.315
 9414SOL    HW229142   3.133   1.494   2.169
 9415SOL     OW29143   2.254   6.514   2.530
 9415SOL    HW129144   2.213   6.604   2.547
 9415SOL    HW229145   2.181   6.445   2.522
 9416SOL     OW29146   1.410   2.041   1.847
 9416SOL    HW129147   1.389   2.023   1.751
 9416SOL    HW229148   1.427   2.138   1.860
 9417SOL     OW29149   2.442   5.326   5.810
 9417SOL    HW129150   2.408   5.270   5.734
 9417SOL    HW229151   2.377   5.401   5.827
 9418SOL     OW29152   2.393   4.828   1.145
 9418SOL    HW129153   2.341   4.911   1.124
 9418SOL    HW229154   2.440   4.840   1.232
 9419SOL     OW29155   2.978   6.455   4.805
 9419SOL    HW129156   2.986   6.474   4.902
 9419SOL    HW229157   3.047   6.507   4.755
 9420SOL     OW29158   6.754   1.145   4.917
 9420SOL    HW129159   6.770   1.230   4.966
 9420SOL    HW229160   6.840   1.110   4.881
 9421SOL     OW29161   0.663   4.161   5.426
 9421SOL    HW129162   0.653   4.255   5.459
 9421SOL    HW229163   0.752   4.125   5.456
 9422SOL     OW29164   5.305   0.168   2.004
 9422SOL    HW129165   5.339   0.224   1.928
 9422SOL    HW229166   5.289   0.074   1.972
 9423SOL     OW29167   3.935   0.867   3.873
 9423SOL    HW129168   3.922   0.784   3.929
 9423SOL    HW229169   3.958   0.840   3.780
 9424SOL     OW29170   3.862   6.916   4.769
 9424SOL    HW129171   3.834   7.010   4.748
 9424SOL    HW229172   3.792   6.873   4.826
 9425SOL     OW29173   1.192   3.490   5.026
 9425SOL    HW129174   1.191   3.491   4.926
 9425SOL    HW229175   1.276   3.444   5.057
 9426SOL     OW29176   3.240   0.404   6.754
 9426SOL    HW129177   3.223   0.471   6.826
 9426SOL    HW229178   3.313   0.438   6.694
 9427SOL     OW29179   2.673   5.044   5.051
 9427SOL    HW129180   2.739   5.067   4.980
 9427SOL    HW229181   2.657   5.124   5.109
 9428SOL     OW29182   5.829   0.340   3.270
 9428SOL    HW129183   5.890   0.383   3.203
 9428SOL    HW229184   5.876   0.264   3.314
 9429SOL     OW29185   0.975   4.369   2.086
 9429SOL    HW129186   1.056   4.345   2.033
 9429SOL    HW229187   0.920   4.435   2.035
 9430SOL     OW29188   6.910   6.334   1.595
 9430SOL    HW129189   6.966   6.345   1.677
 9430SOL    HW229190   6.967   6.298   1.521
 9431SOL     OW29191   0.001   3.953   0.664
 9431SOL    HW129192   0.047   3.949   0.575
 9431SOL    HW229193   6.921   3.954   0.650
 9432SOL     OW29194   6.050   0.347   2.913
 9432SOL    HW129195   5.988   0.270   2.926
 9432SOL    HW229196   6.144   0.317   2.929
 9433SOL     OW29197   3.540   4.599   5.419
 9433SOL    HW129198   3.463   4.661   5.402
 9433SOL    HW229199   3.560   4.598   5.517
 9434SOL     OW29200   5.670   4.731   2.657
 9434SOL    HW129201   5.588   4.786   2.643
 9434SOL    HW229202   5.730   4.740   2.578
 9435SOL     OW29203   1.591   1.185   4.389
 9435SOL    HW129204   1.558   1.143   4.474
 9435SOL    HW229205   1.534   1.155   4.313
 9436SOL     OW29206   2.157   3.492   0.242
 9436SOL    HW129207   2.215   3.516   0.320
 9436SOL    HW229208   2.193   3.535   0.159
 9437SOL     OW29209   1.844   5.186   3.672
 9437SOL    HW129210   1.940   5.167   3.651
 9437SOL    HW229211   1.834   5.282   3.697
 9438SOL     OW29212   0.775   6.564   2.103
 9438SOL    HW129213   0.693   6.553   2.159
 9438SOL    HW229214   0.854   6.523   2.150
 9439SOL     OW29215   0.156   2.531   1.984
 9439SOL    HW129216   0.185   2.565   2.073
 9439SOL    HW229217   0.078   2.470   1.995
 9440SOL     OW29218   4.736   6.296   5.888
 9440SOL    HW129219   4.819   6.251   5.857
 9440SOL    HW229220   4.656   6.256   5.843
 9441SOL     OW29221   1.937   4.972   5.127
 9441SOL    HW129222   1.938   4.900   5.197
 9441SOL    HW229223   1.958   4.932   5.038
 9442SOL     OW29224   6.846   2.557   0.304
 9442SOL    HW129225   6.795   2.557   0.390
 9442SOL    HW229226   6.898   2.472   0.297
 9443SOL     OW29227   1.687   4.244   1.027
 9443SOL    HW129228   1.684   4.185   0.947
 9443SOL    HW229229   1.779   4.243   1.066
 9444SOL     OW29230   0.274   3.075   0.103
 9444SOL    HW129231   0.288   3.166   0.064
 9444SOL    HW229232   0.317   3.071   0.193
 9445SOL     OW29233   5.674   4.107   1.889
 9445SOL    HW129234   5.686   4.194   1.937
 9445SOL    HW229235   5.578   4.098   1.861
 9446SOL     OW29236   6.471   6.328   1.935
 9446SOL    HW129237   6.566   6.342   1.959
 9446SOL    HW229238   6.412   6.376   2.000
 9447SOL     OW29239   5.494   3.918   2.146
 9447SOL    HW129240   5.485   3.819   2.158
 9447SOL    HW229241   5.494   3.963   2.236
 9448SOL     OW29242   5.693   6.360   0.398
 9448SOL    HW129243   5.621   6.428   0.410
 9448SOL    HW229244   5.781   6.400   0.424
 9449SOL     OW29245   5.782   5.542   5.679
 9449SOL    HW129246   5.710   5.596   5.637
 9449SOL    HW229247   5.818   5.477   5.613
 9450SOL     OW29248   3.402   5.074   4.609
 9450SOL    HW129249   3.487   5.033   4.641
 9450SOL    HW229250   3.326   5.039   4.663
 9451SOL     OW29251   4.344   5.486   6.528
 9451SOL    HW129252   4.427   5.519   6.574
 9451SOL    HW229253   4.265   5.536   6.563
 9452SOL     OW29254   2.266   4.453   1.646
 9452SOL    HW129255   2.227   4.380   1.702
 9452SOL    HW229256   2.316   4.412   1.569
 9453SOL     OW29257   2.216   5.361   2.666
 9453SOL    HW129258   2.169   5.405   2.589
 9453SOL    HW229259   2.252   5.272   2.637
 9454SOL     OW29260   1.418   3.960   5.883
 9454SOL    HW129261   1.432   3.922   5.974
 9454SOL    HW229262   1.448   3.894   5.814
 9455SOL     OW29263   3.454   0.969   2.402
 9455SOL    HW129264   3.471   1.064   2.376
 9455SOL    HW229265   3.388   0.928   2.338
 9456SOL     OW29266   1.044   3.525   0.858
 9456SOL    HW129267   0.991   3.556   0.778
 9456SOL    HW229268   1.091   3.603   0.898
 9457SOL     OW29269   1.725   3.081   0.112
 9457SOL    HW129270   1.782   3.158   0.082
 9457SOL    HW229271   1.782   3.015   0.162
 9458SOL     OW29272   0.086   5.374   5.349
 9458SOL    HW129273   0.052   5.280   5.353
 9458SOL    HW229274   0.126   5.399   5.437
 9459SOL     OW29275   6.471   5.630   1.708
 9459SOL    HW129276   6.472   5.532   1.687
 9459SOL    HW229277   6.382   5.655   1.746
 9460SOL     OW29278   0.788   1.791   4.966
 9460SOL    HW129279   0.814   1.718   4.902
 9460SOL    HW229280   0.810   1.880   4.925
 9461SOL     OW29281   1.003   0.996   3.575
 9461SOL    HW129282   1.057   0.925   3.621
 9461SOL    HW229283   0.907   0.966   3.571
 9462SOL     OW29284   0.648   2.995   2.013
 9462SOL    HW129285   0.695   2.928   2.071
 9462SOL    HW229286   0.577   2.949   1.960
 9463SOL     OW29287   6.067   1.383   6.995
 9463SOL    HW129288   6.008   1.452   6.954
 9463SOL    HW229289   6.059   1.389   0.076
 9464SOL     OW29290   5.879   6.997   6.020
 9464SOL    HW129291   5.953   6.955   6.073
 9464SOL    HW229292   5.795   6.944   6.033
 9465SOL     OW29293   6.467   0.362   3.859
 9465SOL    HW129294   6.479   0.273   3.903
 9465SOL    HW229295   6.424   0.350   3.769
 9466SOL     OW29296   2.464   2.919   5.954
 9466SOL    HW129297   2.421   2.963   5.876
 9466SOL    HW229298   2.558   2.953   5.964
 9467SOL     OW29299   1.478   2.747   2.263
 9467SOL    HW129300   1.517   2.711   2.348
 9467SOL    HW229301   1.380   2.762   2.276
 9468SOL     OW29302   6.637   2.822   5.753
 9468SOL    HW129303   6.588   2.905   5.727
 9468SOL    HW229304   6.583   2.771   5.820
 9469SOL     OW29305   6.617   5.907   2.392
 9469SOL    HW129306   6.653   5.955   2.312
 9469SOL    HW229307   6.593   5.813   2.366
 9470SOL     OW29308   4.865   3.573   0.659
 9470SOL    HW129309   4.773   3.554   0.625
 9470SOL    HW229310   4.868   3.555   0.757
 9471SOL     OW29311   7.011   2.285   5.962
 9471SOL    HW129312   7.003   2.296   6.061
 9471SOL    HW229313   0.032   2.367   5.922
 9472SOL     OW29314   5.842   4.539   4.876
 9472SOL    HW129315   5.782   4.609   4.839
 9472SOL    HW229316   5.799   4.495   4.955
 9473SOL     OW29317   2.349   5.730   6.008
 9473SOL    HW129318   2.325   5.777   6.092
 9473SOL    HW229319   2.435   5.766   5.972
 9474SOL     OW29320   4.518   4.811   2.039
 9474SOL    HW129321   4.525   4.723   2.086
 9474SOL    HW229322   4.435   4.812   1.984
 9475SOL     OW29323   2.868   3.928   1.048
 9475SOL    HW129324   2.854   3.832   1.023
 9475SOL    HW229325   2.950   3.963   1.002
 9476SOL     OW29326   4.158   3.461   5.265
 9476SOL    HW129327   4.118   3.440   5.354
 9476SOL    HW229328   4.231   3.528   5.277
 9477SOL     OW29329   1.074   2.667   0.862
 9477SOL    HW129330   0.977   2.689   0.858
 9477SOL    HW229331   1.091   2.608   0.941
 9478SOL     OW29332   5.919   4.959   5.704
 9478SOL    HW129333   5.958   4.900   5.775
 9478SOL    HW229334   5.986   4.974   5.632
 9479SOL     OW29335   6.121   6.001   6.505
 9479SOL    HW129336   6.142   6.083   6.558
 9479SOL    HW229337   6.198   5.937   6.509
 9480SOL     OW29338   5.383   4.571   0.156
 9480SOL    HW129339   5.450   4.645   0.151
 9480SOL    HW229340   5.305   4.592   0.097
 9481SOL     OW29341   7.012   3.959   1.588
 9481SOL    HW129342   7.008   3.913   1.677
 9481SOL    HW229343   7.013   4.058   1.601
 9482SOL     OW29344   4.626   0.656   1.895
 9482SOL    HW129345   4.679   0.570   1.899
 9482SOL    HW229346   4.655   0.715   1.970
 9483SOL     OW29347   2.029   1.845   0.746
 9483SOL    HW129348   2.003   1.911   0.676
 9483SOL    HW229349   2.113   1.797   0.718
 9484SOL     OW29350   6.307   1.527   4.074
 9484SOL    HW129351   6.369   1.520   4.152
 9484SOL    HW229352   6.321   1.449   4.014
 9485SOL     OW29353   1.119   1.098   3.032
 9485SOL    HW129354   1.097   1.081   3.128
 9485SOL    HW229355   1.186   1.030   3.001
 9486SOL     OW29356   2.757   5.457   1.091
 9486SOL    HW129357   2.797   5.457   0.999
 9486SOL    HW229358   2.800   5.530   1.145
 9487SOL     OW29359   2.967   3.805   3.537
 9487SOL    HW129360   3.023   3.888   3.545
 9487SOL    HW229361   2.961   3.760   3.626
 9488SOL     OW29362   1.863   6.255   0.994
 9488SOL    HW129363   1.881   6.255   1.092
 9488SOL    HW229364   1.774   6.213   0.976
 9489SOL     OW29365   4.008   4.437   1.381
 9489SOL    HW129366   4.103   4.412   1.361
 9489SOL    HW229367   4.004   4.483   1.469
 9490SOL     OW29368   5.502   0.985   1.127
 9490SOL    HW129369   5.500   0.922   1.205
 9490SOL    HW229370   5.427   0.963   1.064
 9491SOL     OW29371   6.349   5.121   4.332
 9491SOL    HW129372   6.262   5.090   4.372
 9491SOL    HW229373   6.362   5.219   4.352
 9492SOL     OW29374   3.270   3.851   1.984
 9492SOL    HW129375   3.180   3.861   2.027
 9492SOL    HW229376   3.309   3.942   1.968
 9493SOL     OW29377   4.620   5.595   3.101
 9493SOL    HW129378   4.543   5.571   3.042
 9493SOL    HW229379   4.643   5.692   3.087
 9494SOL     OW29380   5.312   3.303   6.821
 9494SOL    HW129381   5.290   3.286   6.725
 9494SOL    HW229382   5.229   3.292   6.877
 9495SOL     OW29383   6.458   1.768   4.691
 9495SOL    HW129384   6.489   1.746   4.598
 9495SOL    HW229385   6.476   1.864   4.710
 9496SOL     OW29386   5.633   3.804   0.255
 9496SOL    HW129387   5.589   3.892   0.236
 9496SOL    HW229388   5.726   3.805   0.219
 9497SOL     OW29389   5.562   5.161   0.436
 9497SOL    HW129390   5.646   5.171   0.383
 9497SOL    HW229391   5.585   5.152   0.533
 9498SOL     OW29392   3.472   0.048   5.439
 9498SOL    HW129393   3.565   0.051   5.403
 9498SOL    HW229394   3.407   0.029   5.365
 9499SOL     OW29395   2.989   3.581   5.155
 9499SOL    HW129396   3.052   3.521   5.105
 9499SOL    HW229397   3.041   3.640   5.217
 9500SOL     OW29398   4.096   5.893   1.759
 9500SOL    HW129399   4.034   5.844   1.820
 9500SOL    HW229400   4.099   5.989   1.786
 9501SOL     OW29401   3.558   1.581   4.758
 9501SOL    HW129402   3.636   1.596   4.697
 9501SOL    HW229403   3.577   1.621   4.848
 9502SOL     OW29404   6.308   2.365   5.109
 9502SOL    HW129405   6.309   2.403   5.016
 9502SOL    HW229406   6.300   2.266   5.104
 9503SOL     OW29407   0.296   0.053   2.011
 9503SOL    HW129408   0.393   0.073   2.027
 9503SOL    HW229409   0.270   6.991   2.063
 9504SOL     OW29410   0.020   2.586   0.544
 9504SOL    HW129411   0.102   2.587   0.600
 9504SOL    HW229412   0.043   2.613   0.450
 9505SOL     OW29413   6.385   3.327   3.254
 9505SOL    HW129414   6.410   3.372   3.169
 9505SOL    HW229415   6.304   3.271   3.240
 9506SOL     OW29416   0.064   3.434   6.955
 9506SOL    HW129417   0.151   3.389   6.972
 9506SOL    HW229418   0.077   3.534   6.956
 9507SOL     OW29419   1.421   1.567   3.810
 9507SOL    HW129420   1.507   1.517   3.803
 9507SOL    HW229421   1.394   1.601   3.720
 9508SOL     OW29422   5.813   1.728   0.696
 9508SOL    HW129423   5.793   1.826   0.690
 9508SOL    HW229424   5.802   1.687   0.606
 9509SOL     OW29425   2.035   6.373   5.488
 9509SOL    HW129426   1.944   6.415   5.483
 9509SOL    HW229427   2.045   6.324   5.574
 9510SOL     OW29428   0.056   4.487   2.455
 9510SOL    HW129429   6.990   4.534   2.434
 9510SOL    HW229430   0.036   4.398   2.496
 9511SOL     OW29431   0.437   2.467   0.199
 9511SOL    HW129432   0.455   2.533   0.272
 9511SOL    HW229433   0.431   2.515   0.112
 9512SOL     OW29434   0.981   2.079   3.780
 9512SOL    HW129435   1.069   2.058   3.823
 9512SOL    HW229436   0.907   2.058   3.843
 9513SOL     OW29437   2.062   3.689   3.840
 9513SOL    HW129438   2.051   3.711   3.743
 9513SOL    HW229439   2.081   3.591   3.850
 9514SOL     OW29440   1.918   3.453   6.849
 9514SOL    HW129441   1.999   3.417   6.803
 9514SOL    HW229442   1.900   3.398   6.931
 9515SOL     OW29443   1.450   6.319   6.184
 9515SOL    HW129444   1.450   6.338   6.282
 9515SOL    HW229445   1.390   6.385   6.138
 9516SOL     OW29446   5.107   4.045   3.959
 9516SOL    HW129447   5.053   4.063   3.876
 9516SOL    HW229448   5.077   3.958   3.999
 9517SOL     OW29449   0.827   5.263   1.558
 9517SOL    HW129450   0.910   5.208   1.554
 9517SOL    HW229451   0.781   5.246   1.645
 9518SOL     OW29452   0.773   2.702   6.044
 9518SOL    HW129453   0.865   2.677   6.013
 9518SOL    HW229454   0.768   2.693   6.143
 9519SOL     OW29455   3.182   3.496   2.932
 9519SOL    HW129456   3.275   3.522   2.958
 9519SOL    HW229457   3.185   3.408   2.884
 9520SOL     OW29458   0.245   0.636   5.373
 9520SOL    HW129459   0.213   0.545   5.348
 9520SOL    HW229460   0.323   0.661   5.315
 9521SOL     OW29461   3.706   6.810   1.383
 9521SOL    HW129462   3.756   6.761   1.312
 9521SOL    HW229463   3.644   6.875   1.341
 9522SOL     OW29464   3.877   5.507   1.102
 9522SOL    HW129465   3.860   5.592   1.052
 9522SOL    HW229466   3.865   5.523   1.200
 9523SOL     OW29467   2.476   4.931   4.734
 9523SOL    HW129468   2.546   4.859   4.733
 9523SOL    HW229469   2.464   4.963   4.828
 9524SOL     OW29470   1.363   4.140   0.993
 9524SOL    HW129471   1.317   4.203   1.056
 9524SOL    HW229472   1.458   4.128   1.022
 9525SOL     OW29473   2.112   2.151   5.527
 9525SOL    HW129474   2.057   2.190   5.454
 9525SOL    HW229475   2.200   2.120   5.490
 9526SOL     OW29476   5.311   5.204   6.665
 9526SOL    HW129477   5.323   5.300   6.692
 9526SOL    HW229478   5.310   5.146   6.746
 9527SOL     OW29479   2.990   6.604   3.738
 9527SOL    HW129480   3.067   6.544   3.719
 9527SOL    HW229481   3.006   6.653   3.823
 9528SOL     OW29482   6.461   1.408   1.146
 9528SOL    HW129483   6.415   1.381   1.061
 9528SOL    HW229484   6.559   1.387   1.140
 9529SOL     OW29485   6.814   1.980   1.645
 9529SOL    HW129486   6.750   2.057   1.647
 9529SOL    HW229487   6.765   1.895   1.663
 9530SOL     OW29488   0.315   5.289   4.323
 9530SOL    HW129489   0.403   5.294   4.276
 9530SOL    HW229490   0.276   5.198   4.312
 9531SOL     OW29491   4.200   4.784   3.544
 9531SOL    HW129492   4.133   4.790   3.618
 9531SOL    HW229493   4.287   4.752   3.579
 9532SOL     OW29494   6.473   5.658   2.352
 9532SOL    HW129495   6.423   5.615   2.427
 9532SOL    HW229496   6.415   5.660   2.271
 9533SOL     OW29497   1.688   5.673   4.254
 9533SOL    HW129498   1.588   5.674   4.260
 9533SOL    HW229499   1.726   5.641   4.341
 9534SOL     OW29500   5.794   5.016   4.433
 9534SOL    HW129501   5.839   4.991   4.347
 9534SOL    HW229502   5.718   4.954   4.450
 9535SOL     OW29503   1.384   1.634   5.923
 9535SOL    HW129504   1.464   1.655   5.866
 9535SOL    HW229505   1.348   1.718   5.962
 9536SOL     OW29506   3.677   3.732   5.124
 9536SOL    HW129507   3.738   3.800   5.083
 9536SOL    HW229508   3.717   3.700   5.210
 9537SOL     OW29509   1.894   1.394   3.897
 9537SOL    HW129510   1.929   1.462   3.962
 9537SOL    HW229511   1.970   1.351   3.849
 9538SOL     OW29512   3.656   0.554   4.514
 9538SOL    HW129513   3.690   0.647   4.505
 9538SOL    HW229514   3.572   0.543   4.461
 9539SOL     OW29515   3.906   2.985   3.098
 9539SOL    HW129516   3.808   2.983   3.115
 9539SOL    HW229517   3.943   2.892   3.107
 9540SOL     OW29518   4.675   5.344   4.307
 9540SOL    HW129519   4.615   5.419   4.335
 9540SOL    HW229520   4.736   5.376   4.234
 9541SOL     OW29521   1.420   6.906   4.911
 9541SOL    HW129522   1.426   7.004   4.929
 9541SOL    HW229523   1.414   6.891   4.812
 9542SOL     OW29524   5.855   4.845   4.220
 9542SOL    HW129525   5.766   4.831   4.176
 9542SOL    HW229526   5.928   4.819   4.156
 9543SOL     OW29527   3.163   0.650   6.181
 9543SOL    HW129528   3.136   0.582   6.113
 9543SOL    HW229529   3.114   0.632   6.267
 9544SOL     OW29530   5.109   4.163   3.304
 9544SOL    HW129531   5.033   4.159   3.239
 9544SOL    HW229532   5.195   4.176   3.253
 9545SOL     OW29533   1.382   4.663   1.828
 9545SOL    HW129534   1.465   4.655   1.882
 9545SOL    HW229535   1.305   4.684   1.889
 9546SOL     OW29536   3.192   1.323   5.724
 9546SOL    HW129537   3.154   1.369   5.804
 9546SOL    HW229538   3.181   1.381   5.643
 9547SOL     OW29539   3.487   5.915   4.353
 9547SOL    HW129540   3.550   5.929   4.429
 9547SOL    HW229541   3.500   5.823   4.315
 9548SOL     OW29542   1.168   5.224   5.856
 9548SOL    HW129543   1.133   5.150   5.914
 9548SOL    HW229544   1.134   5.312   5.890
 9549SOL     OW29545   3.734   1.983   2.657
 9549SOL    HW129546   3.791   1.991   2.576
 9549SOL    HW229547   3.662   2.053   2.653
 9550SOL     OW29548   5.729   2.935   1.623
 9550SOL    HW129549   5.777   2.983   1.548
 9550SOL    HW229550   5.736   2.836   1.609
 9551SOL     OW29551   6.423   2.149   5.870
 9551SOL    HW129552   6.435   2.166   5.967
 9551SOL    HW229553   6.509   2.165   5.822
 9552SOL     OW29554   2.541   0.786   6.682
 9552SOL    HW129555   2.603   0.843   6.736
 9552SOL    HW229556   2.451   0.783   6.726
 9553SOL     OW29557   5.180   2.305   0.506
 9553SOL    HW129558   5.156   2.324   0.411
 9553SOL    HW229559   5.179   2.206   0.522
 9554SOL     OW29560   2.660   6.405   3.894
 9554SOL    HW129561   2.658   6.311   3.929
 9554SOL    HW229562   2.566   6.438   3.883
 9555SOL     OW29563   6.109   1.514   3.297
 9555SOL    HW129564   6.112   1.476   3.204
 9555SOL    HW229565   6.137   1.610   3.294
 9556SOL     OW29566   1.508   4.724   1.094
 9556SOL    HW129567   1.508   4.661   1.016
 9556SOL    HW229568   1.544   4.813   1.065
 9557SOL     OW29569   5.180   6.932   1.959
 9557SOL    HW129570   5.196   6.833   1.966
 9557SOL    HW229571   5.111   6.959   2.026
 9558SOL     OW29572   6.030   6.421   5.635
 9558SOL    HW129573   6.118   6.431   5.588
 9558SOL    HW229574   6.030   6.477   5.718
 9559SOL     OW29575   1.473   3.943   6.631
 9559SOL    HW129576   1.515   3.887   6.702
 9559SOL    HW229577   1.404   3.890   6.583
 9560SOL     OW29578   3.736   0.356   2.094
 9560SOL    HW129579   3.712   0.300   2.173
 9560SOL    HW229580   3.761   0.448   2.124
 9561SOL     OW29581   0.678   0.113   0.753
 9561SOL    HW129582   0.603   0.075   0.698
 9561SOL    HW229583   0.670   0.079   0.847
 9562SOL     OW29584   2.596   5.750   4.042
 9562SOL    HW129585   2.533   5.761   4.120
 9562SOL    HW229586   2.684   5.792   4.065
 9563SOL     OW29587   0.489   6.571   0.089
 9563SOL    HW129588   0.493   6.514   0.007
 9563SOL    HW229589   0.571   6.628   0.093
 9564SOL     OW29590   0.823   0.565   1.274
 9564SOL    HW129591   0.780   0.638   1.220
 9564SOL    HW229592   0.900   0.602   1.326
 9565SOL     OW29593   3.067   1.051   4.033
 9565SOL    HW129594   3.002   0.999   3.978
 9565SOL    HW229595   3.132   0.988   4.075
 9566SOL     OW29596   2.694   6.346   0.456
 9566SOL    HW129597   2.650   6.434   0.473
 9566SOL    HW229598   2.673   6.315   0.363
 9567SOL     OW29599   0.004   4.898   0.464
 9567SOL    HW129600   0.046   4.811   0.490
 9567SOL    HW229601   6.942   4.881   0.409
 9568SOL     OW29602   3.932   1.963   0.236
 9568SOL    HW129603   3.876   2.021   0.176
 9568SOL    HW229604   4.021   2.007   0.251
 9569SOL     OW29605   6.277   0.773   1.979
 9569SOL    HW129606   6.281   0.673   1.981
 9569SOL    HW229607   6.191   0.801   1.936
 9570SOL     OW29608   0.308   2.915   0.807
 9570SOL    HW129609   0.306   2.864   0.893
 9570SOL    HW229610   0.384   2.883   0.751
 9571SOL     OW29611   2.803   2.705   6.227
 9571SOL    HW129612   2.771   2.622   6.181
 9571SOL    HW229613   2.887   2.684   6.277
 9572SOL     OW29614   2.221   3.993   3.478
 9572SOL    HW129615   2.154   4.026   3.412
 9572SOL    HW229616   2.281   4.068   3.504
 9573SOL     OW29617   6.667   0.772   5.612
 9573SOL    HW129618   6.751   0.717   5.615
 9573SOL    HW229619   6.657   0.813   5.521
 9574SOL     OW29620   3.939   2.990   1.368
 9574SOL    HW129621   3.967   2.965   1.461
 9574SOL    HW229622   3.907   3.085   1.368
 9575SOL     OW29623   6.086   0.192   2.386
 9575SOL    HW129624   5.993   0.159   2.367
 9575SOL    HW229625   6.081   0.285   2.423
 9576SOL     OW29626   0.988   1.418   0.360
 9576SOL    HW129627   0.993   1.487   0.433
 9576SOL    HW229628   1.049   1.342   0.382
 9577SOL     OW29629   6.823   6.261   0.412
 9577SOL    HW129630   6.829   6.356   0.444
 9577SOL    HW229631   6.816   6.261   0.312
 9578SOL     OW29632   1.011   3.007   2.907
 9578SOL    HW129633   0.998   2.969   2.816
 9578SOL    HW229634   1.098   3.055   2.911
 9579SOL     OW29635   5.920   0.323   2.094
 9579SOL    HW129636   5.950   0.236   2.131
 9579SOL    HW229637   5.828   0.343   2.127
 9580SOL     OW29638   4.832   4.174   1.218
 9580SOL    HW129639   4.790   4.259   1.186
 9580SOL    HW229640   4.880   4.130   1.142
 9581SOL     OW29641   0.238   0.831   6.987
 9581SOL    HW129642   0.159   0.890   6.968
 9581SOL    HW229643   0.223   0.741   6.945
 9582SOL     OW29644   3.821   6.138   4.371
 9582SOL    HW129645   3.742   6.128   4.432
 9582SOL    HW229646   3.846   6.049   4.334
 9583SOL     OW29647   3.326   4.403   1.570
 9583SOL    HW129648   3.270   4.484   1.552
 9583SOL    HW229649   3.354   4.363   1.483
 9584SOL     OW29650   1.663   4.970   4.831
 9584SOL    HW129651   1.761   4.990   4.829
 9584SOL    HW229652   1.611   5.054   4.817
 9585SOL     OW29653   4.992   6.354   1.573
 9585SOL    HW129654   4.999   6.323   1.478
 9585SOL    HW229655   4.956   6.280   1.630
 9586SOL     OW29656   4.767   4.866   1.407
 9586SOL    HW129657   4.713   4.863   1.491
 9586SOL    HW229658   4.820   4.781   1.398
 9587SOL     OW29659   2.175   6.878   2.212
 9587SOL    HW129660   2.257   6.855   2.264
 9587SOL    HW229661   2.108   6.921   2.273
 9588SOL     OW29662   6.209   6.057   0.932
 9588SOL    HW129663   6.193   5.979   0.872
 9588SOL    HW229664   6.139   6.059   1.003
 9589SOL     OW29665   1.734   3.730   6.542
 9589SOL    HW129666   1.825   3.754   6.574
 9589SOL    HW229667   1.666   3.762   6.608
 9590SOL     OW29668   6.017   1.976   1.952
 9590SOL    HW129669   5.960   1.961   2.032
 9590SOL    HW229670   6.025   1.890   1.900
 9591SOL     OW29671   3.176   6.923   5.751
 9591SOL    HW129672   3.255   6.887   5.700
 9591SOL    HW229673   3.174   6.882   5.842
 9592SOL     OW29674   3.070   4.330   6.561
 9592SOL    HW129675   3.023   4.325   6.472
 9592SOL    HW229676   3.083   4.425   6.587
 9593SOL     OW29677   1.734   1.074   5.689
 9593SOL    HW129678   1.778   1.146   5.743
 9593SOL    HW229679   1.706   1.000   5.750
 9594SOL     OW29680   2.479   6.559   4.105
 9594SOL    HW129681   2.551   6.599   4.162
 9594SOL    HW229682   2.405   6.527   4.164
 9595SOL     OW29683   0.310   3.140   3.458
 9595SOL    HW129684   0.290   3.183   3.546
 9595SOL    HW229685   0.234   3.154   3.395
 9596SOL     OW29686   0.837   5.049   0.611
 9596SOL    HW129687   0.849   5.144   0.639
 9596SOL    HW229688   0.795   5.046   0.520
 9597SOL     OW29689   0.934   4.398   1.437
 9597SOL    HW129690   0.841   4.361   1.446
 9597SOL    HW229691   0.943   4.479   1.494
 9598SOL     OW29692   2.051   3.837   2.609
 9598SOL    HW129693   2.024   3.933   2.611
 9598SOL    HW229694   2.084   3.814   2.517
 9599SOL     OW29695   3.383   6.597   4.249
 9599SOL    HW129696   3.307   6.548   4.292
 9599SOL    HW229697   3.401   6.681   4.300
 9600SOL     OW29698   3.381   7.012   1.044
 9600SOL    HW129699   3.460   6.973   0.997
 9600SOL    HW229700   3.375   0.090   1.023
 9601SOL     OW29701   6.021   4.401   0.884
 9601SOL    HW129702   6.030   4.365   0.791
 9601SOL    HW229703   5.940   4.363   0.927
 9602SOL     OW29704   4.396   4.812   5.705
 9602SOL    HW129705   4.337   4.758   5.765
 9602SOL    HW229706   4.491   4.789   5.722
 9603SOL     OW29707   5.687   6.255   6.374
 9603SOL    HW129708   5.780   6.261   6.409
 9603SOL    HW229709   5.629   6.322   6.421
 9604SOL     OW29710   4.402   0.599   1.749
 9604SOL    HW129711   4.479   0.617   1.810
 9604SOL    HW229712   4.352   0.684   1.733
 9605SOL     OW29713   0.125   5.117   2.990
 9605SOL    HW129714   0.186   5.196   2.990
 9605SOL    HW229715   0.171   5.038   3.031
 9606SOL     OW29716   1.824   0.915   0.272
 9606SOL    HW129717   1.907   0.882   0.227
 9606SOL    HW229718   1.757   0.841   0.278
 9607SOL     OW29719   3.230   1.558   6.882
 9607SOL    HW129720   3.211   1.514   6.970
 9607SOL    HW229721   3.201   1.654   6.886
 9608SOL     OW29722   6.901   4.502   2.775
 9608SOL    HW129723   6.926   4.596   2.753
 9608SOL    HW229724   6.837   4.501   2.852
 9609SOL     OW29725   3.958   2.979   6.540
 9609SOL    HW129726   4.039   2.921   6.547
 9609SOL    HW229727   3.891   2.952   6.609
 9610SOL     OW29728   1.828   4.855   2.726
 9610SOL    HW129729   1.924   4.829   2.735
 9610SOL    HW229730   1.771   4.773   2.731
 9611SOL     OW29731   1.684   6.746   0.628
 9611SOL    HW129732   1.755   6.791   0.574
 9611SOL    HW229733   1.721   6.661   0.666
 9612SOL     OW29734   0.270   3.405   1.380
 9612SOL    HW129735   0.243   3.388   1.474
 9612SOL    HW229736   0.349   3.466   1.378
 9613SOL     OW29737   5.791   6.288   3.564
 9613SOL    HW129738   5.803   6.204   3.616
 9613SOL    HW229739   5.845   6.283   3.479
 9614SOL     OW29740   3.609   1.822   2.474
 9614SOL    HW129741   3.553   1.773   2.541
 9614SOL    HW229742   3.637   1.910   2.512
 9615SOL     OW29743   2.899   2.137   1.381
 9615SOL    HW129744   2.840   2.214   1.357
 9615SOL    HW229745   2.848   2.051   1.371
 9616SOL     OW29746   3.468   3.653   1.122
 9616SOL    HW129747   3.410   3.580   1.157
 9616SOL    HW229748   3.522   3.620   1.045
 9617SOL     OW29749   1.979   3.217   3.619
 9617SOL    HW129750   1.921   3.250   3.544
 9617SOL    HW229751   2.054   3.163   3.581
 9618SOL     OW29752   3.204   0.407   1.156
 9618SOL    HW129753   3.110   0.375   1.158
 9618SOL    HW229754   3.220   0.468   1.233
 9619SOL     OW29755   1.895   0.302   5.401
 9619SOL    HW129756   1.946   0.347   5.474
 9619SOL    HW229757   1.802   0.283   5.431
 9620SOL     OW29758   4.416   0.528   4.635
 9620SOL    HW129759   4.384   0.623   4.630
 9620SOL    HW229760   4.423   0.501   4.731
 9621SOL     OW29761   1.589   2.866   1.728
 9621SOL    HW129762   1.575   2.771   1.700
 9621SOL    HW229763   1.572   2.874   1.826
 9622SOL     OW29764   6.100   1.523   0.530
 9622SOL    HW129765   6.017   1.494   0.576
 9622SOL    HW229766   6.178   1.510   0.591
 9623SOL     OW29767   2.078   2.885   6.753
 9623SOL    HW129768   2.003   2.844   6.701
 9623SOL    HW229769   2.099   2.827   6.832
 9624SOL     OW29770   6.229   3.646   3.199
 9624SOL    HW129771   6.208   3.602   3.111
 9624SOL    HW229772   6.191   3.591   3.273
 9625SOL     OW29773   5.454   5.818   0.025
 9625SOL    HW129774   5.489   5.846   6.954
 9625SOL    HW229775   5.452   5.897   0.086
 9626SOL     OW29776   3.821   5.186   0.717
 9626SOL    HW129777   3.920   5.172   0.706
 9626SOL    HW229778   3.801   5.200   0.814
 9627SOL     OW29779   1.369   6.211   6.703
 9627SOL    HW129780   1.337   6.264   6.781
 9627SOL    HW229781   1.319   6.124   6.698
 9628SOL     OW29782   4.915   5.332   0.852
 9628SOL    HW129783   4.931   5.241   0.813
 9628SOL    HW229784   5.000   5.385   0.848
 9629SOL     OW29785   2.362   0.611   1.643
 9629SOL    HW129786   2.314   0.677   1.701
 9629SOL    HW229787   2.442   0.575   1.691
 9630SOL     OW29788   6.017   6.526   5.111
 9630SOL    HW129789   5.997   6.622   5.091
 9630SOL    HW229790   6.005   6.472   5.028
 9631SOL     OW29791   6.198   0.216   6.304
 9631SOL    HW129792   6.203   0.278   6.226
 9631SOL    HW229793   6.113   0.232   6.354
 9632SOL     OW29794   1.429   6.513   2.733
 9632SOL    HW129795   1.379   6.472   2.657
 9632SOL    HW229796   1.426   6.452   2.812
 9633SOL     OW29797   5.574   5.259   6.861
 9633SOL    HW129798   5.551   5.235   6.955
 9633SOL    HW229799   5.524   5.341   6.834
 9634SOL     OW29800   1.457   6.603   3.890
 9634SOL    HW129801   1.518   6.606   3.969
 9634SOL    HW229802   1.502   6.644   3.811
 9635SOL     OW29803   2.349   5.111   4.932
 9635SOL    HW129804   2.409   5.170   4.987
 9635SOL    HW229805   2.264   5.159   4.912
 9636SOL     OW29806   4.272   1.682   5.459
 9636SOL    HW129807   4.359   1.645   5.427
 9636SOL    HW229808   4.253   1.646   5.550
 9637SOL     OW29809   2.108   2.487   6.649
 9637SOL    HW129810   2.031   2.423   6.640
 9637SOL    HW229811   2.178   2.464   6.581
 9638SOL     OW29812   6.492   3.558   5.521
 9638SOL    HW129813   6.472   3.611   5.604
 9638SOL    HW229814   6.473   3.462   5.538
 9639SOL     OW29815   4.101   1.707   2.382
 9639SOL    HW129816   4.050   1.703   2.468
 9639SOL    HW229817   4.040   1.738   2.309
 9640SOL     OW29818   2.382   2.730   3.466
 9640SOL    HW129819   2.374   2.710   3.369
 9640SOL    HW229820   2.426   2.653   3.513
 9641SOL     OW29821   4.746   0.065   0.362
 9641SOL    HW129822   4.691   0.146   0.340
 9641SOL    HW229823   4.757   0.057   0.461
 9642SOL     OW29824   2.896   0.334   4.365
 9642SOL    HW129825   2.800   0.313   4.384
 9642SOL    HW229826   2.954   0.285   4.430
 9643SOL     OW29827   5.597   3.984   3.440
 9643SOL    HW129828   5.675   3.984   3.377
 9643SOL    HW229829   5.512   3.973   3.388
 9644SOL     OW29830   1.249   2.897   6.337
 9644SOL    HW129831   1.165   2.852   6.367
 9644SOL    HW229832   1.258   2.985   6.383
 9645SOL     OW29833   3.155   5.430   5.363
 9645SOL    HW129834   3.232   5.417   5.301
 9645SOL    HW229835   3.098   5.348   5.364
 9646SOL     OW29836   4.330   4.911   2.898
 9646SOL    HW129837   4.270   4.853   2.953
 9646SOL    HW229838   4.419   4.867   2.889
 9647SOL     OW29839   6.621   3.382   1.376
 9647SOL    HW129840   6.592   3.290   1.404
 9647SOL    HW229841   6.702   3.375   1.318
 9648SOL     OW29842   4.099   1.808   1.146
 9648SOL    HW129843   4.178   1.823   1.087
 9648SOL    HW229844   4.019   1.855   1.109
 9649SOL     OW29845   2.722   6.468   0.013
 9649SOL    HW129846   2.746   6.371   0.019
 9649SOL    HW229847   2.801   6.519   6.998
 9650SOL     OW29848   6.905   5.493   2.790
 9650SOL    HW129849   6.837   5.440   2.841
 9650SOL    HW229850   6.954   5.432   2.728
 9651SOL     OW29851   0.487   1.680   5.821
 9651SOL    HW129852   0.582   1.698   5.848
 9651SOL    HW229853   0.425   1.733   5.879
 9652SOL     OW29854   1.089   4.864   2.443
 9652SOL    HW129855   1.111   4.958   2.466
 9652SOL    HW229856   1.143   4.835   2.364
 9653SOL     OW29857   4.547   4.736   4.770
 9653SOL    HW129858   4.629   4.735   4.712
 9653SOL    HW229859   4.556   4.666   4.841
 9654SOL     OW29860   2.404   2.431   1.757
 9654SOL    HW129861   2.372   2.509   1.704
 9654SOL    HW229862   2.495   2.404   1.726
 9655SOL     OW29863   0.019   1.737   6.279
 9655SOL    HW129864   6.996   1.680   6.350
 9655SOL    HW229865   0.044   1.825   6.319
 9656SOL     OW29866   3.169   0.167   2.256
 9656SOL    HW129867   3.222   0.232   2.203
 9656SOL    HW229868   3.229   0.114   2.315
 9657SOL     OW29869   6.089   0.753   4.617
 9657SOL    HW129870   6.157   0.702   4.565
 9657SOL    HW229871   6.036   0.811   4.555
 9658SOL     OW29872   6.155   3.023   2.392
 9658SOL    HW129873   6.127   3.027   2.488
 9658SOL    HW229874   6.228   2.955   2.382
 9659SOL     OW29875   0.514   4.832   0.391
 9659SOL    HW129876   0.526   4.765   0.463
 9659SOL    HW229877   0.431   4.885   0.407
 9660SOL     OW29878   0.989   5.849   0.699
 9660SOL    HW129879   1.002   5.783   0.774
 9660SOL    HW229880   0.899   5.834   0.657
 9661SOL     OW29881   4.513   0.260   0.951
 9661SOL    HW129882   4.510   0.223   0.859
 9661SOL    HW229883   4.517   0.185   1.017
 9662SOL     OW29884   6.038   1.850   4.841
 9662SOL    HW129885   6.086   1.764   4.823
 9662SOL    HW229886   5.940   1.832   4.851
 9663SOL     OW29887   1.827   5.254   3.025
 9663SOL    HW129888   1.912   5.287   2.982
 9663SOL    HW229889   1.817   5.296   3.115
 9664SOL     OW29890   4.482   6.347   2.681
 9664SOL    HW129891   4.462   6.443   2.665
 9664SOL    HW229892   4.581   6.333   2.687
 9665SOL     OW29893   5.605   4.296   5.058
 9665SOL    HW129894   5.669   4.356   5.105
 9665SOL    HW229895   5.564   4.233   5.124
 9666SOL     OW29896   5.756   4.700   2.094
 9666SOL    HW129897   5.753   4.695   1.994
 9666SOL    HW229898   5.667   4.674   2.131
 9667SOL     OW29899   3.787   3.735   3.925
 9667SOL    HW129900   3.798   3.657   3.863
 9667SOL    HW229901   3.747   3.702   4.011
 9668SOL     OW29902   0.069   1.183   5.596
 9668SOL    HW129903   0.168   1.167   5.589
 9668SOL    HW229904   0.021   1.097   5.579
 9669SOL     OW29905   0.474   0.578   0.285
 9669SOL    HW129906   0.430   0.622   0.364
 9669SOL    HW229907   0.422   0.497   0.259
 9670SOL     OW29908   4.843   4.290   6.626
 9670SOL    HW129909   4.906   4.352   6.579
 9670SOL    HW229910   4.814   4.217   6.564
 9671SOL     OW29911   0.204   5.425   5.603
 9671SOL    HW129912   0.244   5.335   5.623
 9671SOL    HW229913   0.169   5.466   5.687
 9672SOL     OW29914   0.749   6.428   4.805
 9672SOL    HW129915   0.782   6.434   4.899
 9672SOL    HW229916   0.707   6.515   4.779
 9673SOL     OW29917   3.731   3.944   6.731
 9673SOL    HW129918   3.736   4.043   6.736
 9673SOL    HW229919   3.695   3.908   6.817
 9674SOL     OW29920   3.267   6.293   1.469
 9674SOL    HW129921   3.178   6.258   1.498
 9674SOL    HW229922   3.288   6.259   1.377
 9675SOL     OW29923   6.443   1.621   2.329
 9675SOL    HW129924   6.378   1.560   2.284
 9675SOL    HW229925   6.521   1.568   2.362
 9676SOL     OW29926   0.877   3.566   5.375
 9676SOL    HW129927   0.882   3.467   5.364
 9676SOL    HW229928   0.782   3.594   5.384
 9677SOL     OW29929   2.077   4.186   6.072
 9677SOL    HW129930   2.175   4.165   6.064
 9677SOL    HW229931   2.024   4.112   6.030
 9678SOL     OW29932   3.881   4.045   3.439
 9678SOL    HW129933   3.825   4.077   3.516
 9678SOL    HW229934   3.937   3.967   3.469
 9679SOL     OW29935   1.466   2.578   1.873
 9679SOL    HW129936   1.386   2.636   1.862
 9679SOL    HW229937   1.516   2.606   1.955
 9680SOL     OW29938   5.854   6.222   3.285
 9680SOL    HW129939   5.823   6.311   3.251
 9680SOL    HW229940   5.794   6.150   3.250
 9681SOL     OW29941   2.127   0.608   1.439
 9681SOL    HW129942   2.223   0.593   1.464
 9681SOL    HW229943   2.098   0.697   1.472
 9682SOL     OW29944   5.600   4.759   3.737
 9682SOL    HW129945   5.642   4.782   3.649
 9682SOL    HW229946   5.500   4.771   3.730
 9683SOL     OW29947   3.670   5.297   0.138
 9683SOL    HW129948   3.689   5.220   0.200
 9683SOL    HW229949   3.752   5.353   0.128
 9684SOL     OW29950   0.688   3.926   5.246
 9684SOL    HW129951   0.676   3.828   5.263
 9684SOL    HW229952   0.608   3.976   5.280
 9685SOL     OW29953   1.789   2.966   1.212
 9685SOL    HW129954   1.868   2.976   1.273
 9685SOL    HW229955   1.760   3.056   1.180
 9686SOL     OW29956   6.821   0.494   1.502
 9686SOL    HW129957   6.805   0.441   1.586
 9686SOL    HW229958   6.741   0.487   1.443
 9687SOL     OW29959   2.445   1.025   3.501
 9687SOL    HW129960   2.489   0.982   3.580
 9687SOL    HW229961   2.375   1.089   3.533
 9688SOL     OW29962   0.369   2.004   3.009
 9688SOL    HW129963   0.326   1.914   2.999
 9688SOL    HW229964   0.466   1.993   3.030
 9689SOL     OW29965   2.952   6.449   6.518
 9689SOL    HW129966   3.021   6.386   6.482
 9689SOL    HW229967   2.953   6.534   6.465
 9690SOL     OW29968   6.041   4.993   0.624
 9690SOL    HW129969   6.088   5.081   0.619
 9690SOL    HW229970   5.981   4.981   0.545
 9691SOL     OW29971   1.926   5.215   2.034
 9691SOL    HW129972   1.971   5.255   2.114
 9691SOL    HW229973   1.917   5.116   2.046
 9692SOL     OW29974   2.740   5.435   1.803
 9692SOL    HW129975   2.813   5.500   1.781
 9692SOL    HW229976   2.712   5.447   1.898
 9693SOL     OW29977   0.296   5.914   1.740
 9693SOL    HW129978   0.230   5.884   1.671
 9693SOL    HW229979   0.347   5.835   1.774
 9694SOL     OW29980   1.458   2.633   0.224
 9694SOL    HW129981   1.378   2.693   0.223
 9694SOL    HW229982   1.474   2.600   0.317
 9695SOL     OW29983   6.690   3.993   1.037
 9695SOL    HW129984   6.743   3.959   1.115
 9695SOL    HW229985   6.593   3.997   1.062
 9696SOL     OW29986   3.841   2.945   1.857
 9696SOL    HW129987   3.830   2.934   1.956
 9696SOL    HW229988   3.757   2.986   1.819
 9697SOL     OW29989   0.493   4.764   6.791
 9697SOL    HW129990   0.554   4.699   6.746
 9697SOL    HW229991   0.500   4.853   6.746
 9698SOL     OW29992   5.806   0.947   5.095
 9698SOL    HW129993   5.876   0.961   5.164
 9698SOL    HW229994   5.808   1.022   5.029
 9699SOL     OW29995   0.952   3.769   6.561
 9699SOL    HW129996   0.965   3.810   6.652
 9699SOL    HW229997   0.949   3.842   6.493
 9700SOL     OW29998   3.201   4.759   5.660
 9700SOL    HW129999   3.176   4.718   5.748
 9700SOL    HW230000   3.205   4.859   5.669
 9701SOL     OW30001   4.297   5.097   4.826
 9701SOL    HW130002   4.339   5.017   4.785
 9701SOL    HW230003   4.219   5.068   4.883
 9702SOL     OW30004   5.318   0.939   0.955
 9702SOL    HW130005   5.373   0.903   0.880
 9702SOL    HW230006   5.276   1.026   0.928
 9703SOL     OW30007   3.151   5.961   4.507
 9703SOL    HW130008   3.191   5.881   4.551
 9703SOL    HW230009   3.123   5.938   4.414
 9704SOL     OW30010   3.430   6.671   2.830
 9704SOL    HW130011   3.378   6.690   2.913
 9704SOL    HW230012   3.398   6.730   2.756
 9705SOL     OW30013   3.692   4.344   0.597
 9705SOL    HW130014   3.747   4.418   0.558
 9705SOL    HW230015   3.597   4.357   0.570
 9706SOL     OW30016   6.467   2.832   2.222
 9706SOL    HW130017   6.437   2.871   2.135
 9706SOL    HW230018   6.422   2.743   2.236
 9707SOL     OW30019   1.331   4.112   2.324
 9707SOL    HW130020   1.260   4.174   2.359
 9707SOL    HW230021   1.292   4.055   2.252
 9708SOL     OW30022   2.356   1.790   3.907
 9708SOL    HW130023   2.431   1.787   3.973
 9708SOL    HW230024   2.286   1.854   3.938
 9709SOL     OW30025   1.549   6.122   3.448
 9709SOL    HW130026   1.643   6.130   3.414
 9709SOL    HW230027   1.486   6.122   3.371
 9710SOL     OW30028   0.043   1.491   3.189
 9710SOL    HW130029   0.106   1.553   3.143
 9710SOL    HW230030   0.090   1.444   3.264
 9711SOL     OW30031   2.005   3.494   5.942
 9711SOL    HW130032   1.937   3.490   5.869
 9711SOL    HW230033   2.097   3.501   5.902
 9712SOL     OW30034   5.351   1.742   4.651
 9712SOL    HW130035   5.344   1.723   4.749
 9712SOL    HW230036   5.268   1.786   4.619
 9713SOL     OW30037   0.718   4.894   3.465
 9713SOL    HW130038   0.758   4.911   3.375
 9713SOL    HW230039   0.667   4.808   3.462
 9714SOL     OW30040   1.965   2.238   1.963
 9714SOL    HW130041   1.985   2.306   2.034
 9714SOL    HW230042   2.044   2.178   1.952
 9715SOL     OW30043   5.284   5.139   4.867
 9715SOL    HW130044   5.377   5.159   4.835
 9715SOL    HW230045   5.288   5.086   4.951
 9716SOL     OW30046   4.111   1.811   6.343
 9716SOL    HW130047   4.176   1.877   6.305
 9716SOL    HW230048   4.081   1.841   6.434
 9717SOL     OW30049   5.674   5.753   3.779
 9717SOL    HW130050   5.728   5.669   3.788
 9717SOL    HW230051   5.707   5.820   3.845
 9718SOL     OW30052   4.078   3.307   1.245
 9718SOL    HW130053   4.176   3.294   1.262
 9718SOL    HW230054   4.025   3.263   1.317
 9719SOL     OW30055   0.396   2.833   0.127
 9719SOL    HW130056   0.347   2.919   0.142
 9719SOL    HW230057   0.453   2.841   0.046
 9720SOL     OW30058   0.348   6.181   2.342
 9720SOL    HW130059   0.353   6.115   2.267
 9720SOL    HW230060   0.288   6.257   2.317
 9721SOL     OW30061   6.942   3.978   2.183
 9721SOL    HW130062   6.952   3.887   2.144
 9721SOL    HW230063   6.898   3.972   2.273
 9722SOL     OW30064   0.382   0.619   3.636
 9722SOL    HW130065   0.329   0.560   3.575
 9722SOL    HW230066   0.476   0.584   3.642
 9723SOL     OW30067   0.489   0.497   3.324
 9723SOL    HW130068   0.499   0.595   3.309
 9723SOL    HW230069   0.413   0.481   3.388
 9724SOL     OW30070   3.057   2.654   1.676
 9724SOL    HW130071   3.036   2.596   1.755
 9724SOL    HW230072   3.112   2.602   1.611
 9725SOL     OW30073   5.297   3.439   6.177
 9725SOL    HW130074   5.386   3.438   6.222
 9725SOL    HW230075   5.225   3.451   6.245
 9726SOL     OW30076   5.029   6.901   4.557
 9726SOL    HW130077   5.078   6.880   4.641
 9726SOL    HW230078   5.082   6.867   4.479
 9727SOL     OW30079   0.704   2.861   5.789
 9727SOL    HW130080   0.800   2.857   5.763
 9727SOL    HW230081   0.690   2.806   5.872
 9728SOL     OW30082   2.133   6.187   6.409
 9728SOL    HW130083   2.054   6.237   6.445
 9728SOL    HW230084   2.127   6.180   6.310
 9729SOL     OW30085   1.007   4.284   3.460
 9729SOL    HW130086   1.061   4.201   3.475
 9729SOL    HW230087   1.010   4.309   3.363
 9730SOL     OW30088   6.888   3.300   2.740
 9730SOL    HW130089   6.853   3.227   2.798
 9730SOL    HW230090   6.837   3.384   2.756
 9731SOL     OW30091   3.678   5.373   0.543
 9731SOL    HW130092   3.657   5.460   0.587
 9731SOL    HW230093   3.755   5.329   0.590
 9732SOL     OW30094   0.106   5.969   2.697
 9732SOL    HW130095   0.099   5.881   2.649
 9732SOL    HW230096   0.014   6.004   2.715
 9733SOL     OW30097   5.138   4.855   4.812
 9733SOL    HW130098   5.180   4.775   4.855
 9733SOL    HW230099   5.102   4.916   4.882
 9734SOL     OW30100   5.326   2.221   3.927
 9734SOL    HW130101   5.241   2.169   3.929
 9734SOL    HW230102   5.343   2.253   3.834
 9735SOL     OW30103   2.379   5.398   1.933
 9735SOL    HW130104   2.462   5.443   1.967
 9735SOL    HW230105   2.305   5.465   1.925
 9736SOL     OW30106   4.745   1.574   6.732
 9736SOL    HW130107   4.822   1.601   6.790
 9736SOL    HW230108   4.667   1.549   6.790
 9737SOL     OW30109   4.341   2.212   5.069
 9737SOL    HW130110   4.300   2.296   5.035
 9737SOL    HW230111   4.298   2.133   5.024
 9738SOL     OW30112   1.933   1.368   2.840
 9738SOL    HW130113   1.857   1.360   2.905
 9738SOL    HW230114   2.015   1.399   2.888
 9739SOL     OW30115   6.615   5.240   1.849
 9739SOL    HW130116   6.627   5.182   1.769
 9739SOL    HW230117   6.702   5.284   1.872
 9740SOL     OW30118   6.383   3.986   2.384
 9740SOL    HW130119   6.384   3.973   2.483
 9740SOL    HW230120   6.313   3.927   2.343
 9741SOL     OW30121   4.437   1.437   2.281
 9741SOL    HW130122   4.393   1.506   2.339
 9741SOL    HW230123   4.453   1.475   2.190
 9742SOL     OW30124   5.451   0.752   3.077
 9742SOL    HW130125   5.380   0.686   3.052
 9742SOL    HW230126   5.437   0.782   3.172
 9743SOL     OW30127   2.036   3.356   5.538
 9743SOL    HW130128   2.103   3.360   5.613
 9743SOL    HW230129   2.072   3.405   5.459
 9744SOL     OW30130   2.111   1.008   1.839
 9744SOL    HW130131   2.093   1.008   1.937
 9744SOL    HW230132   2.059   1.081   1.795
 9745SOL     OW30133   0.560   2.003   5.079
 9745SOL    HW130134   0.556   2.014   5.178
 9745SOL    HW230135   0.580   1.908   5.056
 9746SOL     OW30136   5.546   0.569   5.137
 9746SOL    HW130137   5.494   0.537   5.058
 9746SOL    HW230138   5.557   0.669   5.132
 9747SOL     OW30139   1.221   0.760   0.332
 9747SOL    HW130140   1.286   0.836   0.325
 9747SOL    HW230141   1.228   0.703   0.250
 9748SOL     OW30142   1.201   6.172   4.376
 9748SOL    HW130143   1.205   6.143   4.280
 9748SOL    HW230144   1.258   6.252   4.389
 9749SOL     OW30145   1.337   3.556   4.751
 9749SOL    HW130146   1.291   3.520   4.670
 9749SOL    HW230147   1.387   3.482   4.796
 9750SOL     OW30148   5.203   4.805   3.291
 9750SOL    HW130149   5.246   4.813   3.201
 9750SOL    HW230150   5.195   4.709   3.316
 9751SOL     OW30151   1.572   2.117   0.863
 9751SOL    HW130152   1.569   2.177   0.784
 9751SOL    HW230153   1.666   2.114   0.899
 9752SOL     OW30154   4.005   0.977   5.536
 9752SOL    HW130155   4.094   1.005   5.570
 9752SOL    HW230156   4.016   0.907   5.466
 9753SOL     OW30157   6.618   5.725   5.457
 9753SOL    HW130158   6.648   5.820   5.458
 9753SOL    HW230159   6.691   5.667   5.421
 9754SOL     OW30160   1.520   1.963   0.333
 9754SOL    HW130161   1.574   1.955   0.417
 9754SOL    HW230162   1.505   2.059   0.312
 9755SOL     OW30163   4.079   3.825   4.695
 9755SOL    HW130164   4.116   3.760   4.629
 9755SOL    HW230165   4.083   3.917   4.657
 9756SOL     OW30166   5.652   3.179   0.205
 9756SOL    HW130167   5.576   3.162   0.268
 9756SOL    HW230168   5.639   3.268   0.160
 9757SOL     OW30169   5.834   2.820   3.719
 9757SOL    HW130170   5.808   2.726   3.742
 9757SOL    HW230171   5.772   2.883   3.765
 9758SOL     OW30172   2.494   0.533   6.830
 9758SOL    HW130173   2.426   0.601   6.801
 9758SOL    HW230174   2.457   0.442   6.816
 9759SOL     OW30175   2.788   6.132   1.319
 9759SOL    HW130176   2.692   6.111   1.335
 9759SOL    HW230177   2.796   6.224   1.279
 9760SOL     OW30178   5.299   4.756   5.872
 9760SOL    HW130179   5.243   4.682   5.833
 9760SOL    HW230180   5.393   4.747   5.838
 9761SOL     OW30181   5.115   5.362   1.598
 9761SOL    HW130182   5.171   5.427   1.649
 9761SOL    HW230183   5.034   5.338   1.651
 9762SOL     OW30184   2.569   2.059   5.157
 9762SOL    HW130185   2.515   1.997   5.214
 9762SOL    HW230186   2.666   2.043   5.173
 9763SOL     OW30187   3.347   1.346   1.590
 9763SOL    HW130188   3.368   1.303   1.677
 9763SOL    HW230189   3.274   1.413   1.603
 9764SOL     OW30190   1.311   2.252   3.189
 9764SOL    HW130191   1.291   2.290   3.098
 9764SOL    HW230192   1.266   2.307   3.259
 9765SOL     OW30193   0.245   1.971   6.106
 9765SOL    HW130194   0.220   1.970   6.203
 9765SOL    HW230195   0.306   1.894   6.086
 9766SOL     OW30196   2.947   0.465   3.013
 9766SOL    HW130197   3.010   0.388   3.001
 9766SOL    HW230198   2.953   0.499   3.107
 9767SOL     OW30199   5.168   0.429   5.136
 9767SOL    HW130200   5.180   0.518   5.092
 9767SOL    HW230201   5.248   0.371   5.118
 9768SOL     OW30202   4.571   2.066   2.430
 9768SOL    HW130203   4.570   1.973   2.467
 9768SOL    HW230204   4.539   2.130   2.500
 9769SOL     OW30205   1.129   1.918   1.145
 9769SOL    HW130206   1.228   1.908   1.140
 9769SOL    HW230207   1.085   1.848   1.088
 9770SOL     OW30208   5.489   4.885   6.072
 9770SOL    HW130209   5.469   4.823   6.147
 9770SOL    HW230210   5.520   4.832   5.993
 9771SOL     OW30211   4.361   5.655   5.974
 9771SOL    HW130212   4.268   5.622   5.959
 9771SOL    HW230213   4.391   5.630   6.066
 9772SOL     OW30214   0.013   0.161   2.422
 9772SOL    HW130215   0.063   0.163   2.336
 9772SOL    HW230216   0.078   0.167   2.498
 9773SOL     OW30217   5.890   5.491   3.408
 9773SOL    HW130218   5.840   5.574   3.383
 9773SOL    HW230219   5.831   5.432   3.463
 9774SOL     OW30220   6.057   4.825   3.994
 9774SOL    HW130221   6.007   4.859   3.914
 9774SOL    HW230222   6.150   4.859   3.992
 9775SOL     OW30223   1.603   2.412   4.523
 9775SOL    HW130224   1.581   2.506   4.552
 9775SOL    HW230225   1.533   2.349   4.557
 9776SOL     OW30226   6.665   5.639   4.462
 9776SOL    HW130227   6.667   5.561   4.400
 9776SOL    HW230228   6.587   5.698   4.438
 9777SOL     OW30229   5.044   4.110   6.043
 9777SOL    HW130230   5.069   4.093   6.138
 9777SOL    HW230231   5.074   4.034   5.986
 9778SOL     OW30232   5.213   6.617   2.683
 9778SOL    HW130233   5.120   6.649   2.668
 9778SOL    HW230234   5.257   6.598   2.595
 9779SOL     OW30235   2.645   1.394   5.503
 9779SOL    HW130236   2.702   1.387   5.586
 9779SOL    HW230237   2.689   1.456   5.438
 9780SOL     OW30238   2.530   3.490   0.518
 9780SOL    HW130239   2.578   3.535   0.442
 9780SOL    HW230240   2.573   3.402   0.537
 9781SOL     OW30241   2.631   4.777   5.120
 9781SOL    HW130242   2.607   4.859   5.067
 9781SOL    HW230243   2.714   4.737   5.083
 9782SOL     OW30244   6.182   0.305   1.603
 9782SOL    HW130245   6.268   0.354   1.591
 9782SOL    HW230246   6.149   0.316   1.697
 9783SOL     OW30247   5.841   1.882   2.187
 9783SOL    HW130248   5.782   1.803   2.168
 9783SOL    HW230249   5.867   1.882   2.283
 9784SOL     OW30250   4.463   1.248   3.010
 9784SOL    HW130251   4.389   1.312   3.031
 9784SOL    HW230252   4.460   1.225   2.913
 9785SOL     OW30253   0.182   2.543   2.289
 9785SOL    HW130254   0.227   2.467   2.242
 9785SOL    HW230255   0.251   2.597   2.338
 9786SOL     OW30256   2.537   5.606   5.710
 9786SOL    HW130257   2.474   5.528   5.709
 9786SOL    HW230258   2.625   5.577   5.674
 9787SOL     OW30259   4.860   4.031   2.055
 9787SOL    HW130260   4.959   4.046   2.050
 9787SOL    HW230261   4.816   4.111   2.095
 9788SOL     OW30262   6.471   0.635   5.079
 9788SOL    HW130263   6.455   0.686   4.995
 9788SOL    HW230264   6.398   0.653   5.144
 9789SOL     OW30265   2.339   5.396   5.208
 9789SOL    HW130266   2.263   5.428   5.151
 9789SOL    HW230267   2.304   5.360   5.294
 9790SOL     OW30268   5.592   1.804   4.478
 9790SOL    HW130269   5.499   1.776   4.502
 9790SOL    HW230270   5.657   1.735   4.509
 9791SOL     OW30271   1.220   1.315   2.029
 9791SOL    HW130272   1.279   1.380   1.982
 9791SOL    HW230273   1.263   1.224   2.029
 9792SOL     OW30274   4.337   4.838   1.077
 9792SOL    HW130275   4.250   4.793   1.057
 9792SOL    HW230276   4.322   4.936   1.092
 9793SOL     OW30277   5.803   5.630   2.127
 9793SOL    HW130278   5.896   5.660   2.148
 9793SOL    HW230279   5.750   5.623   2.212
 9794SOL     OW30280   5.109   2.920   6.278
 9794SOL    HW130281   5.013   2.895   6.278
 9794SOL    HW230282   5.146   2.912   6.185
 9795SOL     OW30283   1.692   3.518   3.870
 9795SOL    HW130284   1.646   3.451   3.810
 9795SOL    HW230285   1.754   3.470   3.932
 9796SOL     OW30286   2.728   5.270   0.144
 9796SOL    HW130287   2.789   5.224   0.209
 9796SOL    HW230288   2.719   5.215   0.062
 9797SOL     OW30289   4.906   3.282   6.223
 9797SOL    HW130290   4.871   3.360   6.171
 9797SOL    HW230291   4.970   3.230   6.166
 9798SOL     OW30292   2.898   1.089   1.015
 9798SOL    HW130293   2.822   1.104   1.079
 9798SOL    HW230294   2.936   1.178   0.987
 9799SOL     OW30295   2.919   3.406   2.729
 9799SOL    HW130296   2.916   3.435   2.825
 9799SOL    HW230297   2.943   3.309   2.724
 9800SOL     OW30298   4.543   5.223   6.734
 9800SOL    HW130299   4.610   5.293   6.757
 9800SOL    HW230300   4.471   5.222   6.803
 9801SOL     OW30301   3.711   5.973   6.447
 9801SOL    HW130302   3.733   5.876   6.443
 9801SOL    HW230303   3.794   6.026   6.466
 9802SOL     OW30304   0.441   3.552   1.086
 9802SOL    HW130305   0.455   3.458   1.118
 9802SOL    HW230306   0.355   3.557   1.036
 9803SOL     OW30307   5.907   0.602   6.796
 9803SOL    HW130308   5.947   0.690   6.775
 9803SOL    HW230309   5.858   0.607   6.883
 9804SOL     OW30310   6.345   5.421   4.385
 9804SOL    HW130311   6.404   5.468   4.319
 9804SOL    HW230312   6.278   5.485   4.421
 9805SOL     OW30313   1.803   5.514   0.093
 9805SOL    HW130314   1.901   5.512   0.075
 9805SOL    HW230315   1.768   5.421   0.098
 9806SOL     OW30316   0.348   2.375   2.634
 9806SOL    HW130317   0.335   2.462   2.682
 9806SOL    HW230318   0.260   2.337   2.607
 9807SOL     OW30319   3.978   2.309   0.256
 9807SOL    HW130320   3.910   2.377   0.229
 9807SOL    HW230321   3.983   2.305   0.356
 9808SOL     OW30322   0.222   1.685   4.550
 9808SOL    HW130323   0.125   1.707   4.563
 9808SOL    HW230324   0.230   1.590   4.519
 9809SOL     OW30325   0.267   1.414   4.477
 9809SOL    HW130326   0.256   1.379   4.570
 9809SOL    HW230327   0.312   1.344   4.421
 9810SOL     OW30328   3.092   0.830   3.215
 9810SOL    HW130329   2.998   0.811   3.188
 9810SOL    HW230330   3.129   0.904   3.159
 9811SOL     OW30331   6.860   6.898   2.775
 9811SOL    HW130332   6.896   6.881   2.867
 9811SOL    HW230333   6.919   6.851   2.708
 9812SOL     OW30334   4.836   2.529   6.223
 9812SOL    HW130335   4.848   2.448   6.281
 9812SOL    HW230336   4.908   2.531   6.153
 9813SOL     OW30337   6.821   4.574   0.383
 9813SOL    HW130338   6.863   4.622   0.306
 9813SOL    HW230339   6.755   4.635   0.428
 9814SOL     OW30340   0.118   6.961   5.960
 9814SOL    HW130341   0.022   6.936   5.951
 9814SOL    HW230342   0.129   0.005   6.037
 9815SOL     OW30343   5.740   3.400   1.872
 9815SOL    HW130344   5.818   3.358   1.918
 9815SOL    HW230345   5.756   3.498   1.861
 9816SOL     OW30346   6.447   0.266   6.984
 9816SOL    HW130347   6.396   0.287   6.901
 9816SOL    HW230348   6.530   0.323   6.987
 9817SOL     OW30349   2.917   6.218   6.970
 9817SOL    HW130350   2.898   6.120   6.977
 9817SOL    HW230351   2.896   6.262   0.039
 9818SOL     OW30352   0.985   6.916   3.970
 9818SOL    HW130353   1.069   6.868   3.993
 9818SOL    HW230354   0.925   6.856   3.918
 9819SOL     OW30355   6.264   3.881   5.112
 9819SOL    HW130356   6.176   3.926   5.122
 9819SOL    HW230357   6.261   3.819   5.034
 9820SOL     OW30358   3.852   1.989   6.406
 9820SOL    HW130359   3.893   2.039   6.483
 9820SOL    HW230360   3.784   2.047   6.361
 9821SOL     OW30361   4.534   2.595   1.860
 9821SOL    HW130362   4.525   2.683   1.813
 9821SOL    HW230363   4.613   2.599   1.922
 9822SOL     OW30364   3.296   6.473   5.240
 9822SOL    HW130365   3.229   6.506   5.174
 9822SOL    HW230366   3.278   6.377   5.261
 9823SOL     OW30367   1.717   0.694   3.349
 9823SOL    HW130368   1.720   0.705   3.448
 9823SOL    HW230369   1.772   0.615   3.322
 9824SOL     OW30370   0.767   5.870   5.323
 9824SOL    HW130371   0.744   5.828   5.410
 9824SOL    HW230372   0.813   5.958   5.339
 9825SOL     OW30373   5.464   6.078   6.344
 9825SOL    HW130374   5.409   6.121   6.272
 9825SOL    HW230375   5.538   6.140   6.370
 9826SOL     OW30376   2.396   6.612   5.739
 9826SOL    HW130377   2.333   6.655   5.675
 9826SOL    HW230378   2.451   6.544   5.691
 9827SOL     OW30379   1.576   5.737   1.883
 9827SOL    HW130380   1.579   5.827   1.927
 9827SOL    HW230381   1.665   5.692   1.893
 9828SOL     OW30382   3.929   2.114   5.033
 9828SOL    HW130383   3.974   2.192   5.076
 9828SOL    HW230384   3.956   2.109   4.937
 9829SOL     OW30385   4.571   5.355   5.303
 9829SOL    HW130386   4.590   5.428   5.238
 9829SOL    HW230387   4.531   5.276   5.256
 9830SOL     OW30388   5.971   2.283   2.356
 9830SOL    HW130389   6.051   2.266   2.414
 9830SOL    HW230390   5.973   2.378   2.323
 9831SOL     OW30391   0.531   3.982   2.102
 9831SOL    HW130392   0.600   3.951   2.168
 9831SOL    HW230393   0.458   4.029   2.150
 9832SOL     OW30394   4.620   4.426   4.879
 9832SOL    HW130395   4.530   4.455   4.912
 9832SOL    HW230396   4.612   4.337   4.835
 9833SOL     OW30397   3.399   4.157   4.238
 9833SOL    HW130398   3.452   4.180   4.156
 9833SOL    HW230399   3.335   4.083   4.217
 9834SOL     OW30400   2.143   5.550   5.566
 9834SOL    HW130401   2.150   5.548   5.666
 9834SOL    HW230402   2.169   5.460   5.530
 9835SOL     OW30403   3.393   4.145   4.507
 9835SOL    HW130404   3.384   4.167   4.410
 9835SOL    HW230405   3.309   4.100   4.539
 9836SOL     OW30406   0.245   3.635   5.431
 9836SOL    HW130407   0.226   3.544   5.394
 9836SOL    HW230408   0.335   3.635   5.474
 9837SOL     OW30409   5.145   2.200   2.889
 9837SOL    HW130410   5.220   2.156   2.938
 9837SOL    HW230411   5.060   2.188   2.941
 9838SOL     OW30412   1.091   6.951   1.605
 9838SOL    HW130413   1.043   6.997   1.680
 9838SOL    HW230414   1.026   6.928   1.533
 9839SOL     OW30415   4.325   0.618   2.697
 9839SOL    HW130416   4.308   0.573   2.785
 9839SOL    HW230417   4.416   0.594   2.664
 9840SOL     OW30418   5.932   1.150   0.039
 9840SOL    HW130419   5.847   1.189   0.074
 9840SOL    HW230420   5.977   1.218   6.999
 9841SOL     OW30421   0.369   6.322   4.076
 9841SOL    HW130422   0.450   6.270   4.051
 9841SOL    HW230423   0.392   6.389   4.147
 9842SOL     OW30424   2.818   2.131   6.703
 9842SOL    HW130425   2.750   2.121   6.630
 9842SOL    HW230426   2.834   2.229   6.720
 9843SOL     OW30427   0.851   0.200   1.194
 9843SOL    HW130428   0.785   0.241   1.130
 9843SOL    HW230429   0.802   0.150   1.266
 9844SOL     OW30430   5.281   6.856   3.899
 9844SOL    HW130431   5.285   6.758   3.882
 9844SOL    HW230432   5.332   6.877   3.983
 9845SOL     OW30433   1.826   3.622   1.455
 9845SOL    HW130434   1.924   3.601   1.451
 9845SOL    HW230435   1.788   3.586   1.540
 9846SOL     OW30436   5.601   2.273   0.905
 9846SOL    HW130437   5.627   2.293   0.811
 9846SOL    HW230438   5.507   2.304   0.922
 9847SOL     OW30439   4.032   3.733   0.313
 9847SOL    HW130440   3.953   3.712   0.371
 9847SOL    HW230441   4.088   3.803   0.357
 9848SOL     OW30442   3.491   3.530   5.163
 9848SOL    HW130443   3.538   3.617   5.147
 9848SOL    HW230444   3.426   3.513   5.088
 9849SOL     OW30445   0.776   1.479   4.661
 9849SOL    HW130446   0.687   1.455   4.699
 9849SOL    HW230447   0.832   1.397   4.653
 9850SOL     OW30448   0.666   0.446   4.543
 9850SOL    HW130449   0.658   0.471   4.446
 9850SOL    HW230450   0.656   0.347   4.552
 9851SOL     OW30451   3.777   4.911   4.487
 9851SOL    HW130452   3.867   4.868   4.487
 9851SOL    HW230453   3.726   4.881   4.406
 9852SOL     OW30454   2.205   0.964   0.483
 9852SOL    HW130455   2.296   0.944   0.522
 9852SOL    HW230456   2.215   1.027   0.406
 9853SOL     OW30457   6.697   4.318   3.921
 9853SOL    HW130458   6.688   4.221   3.944
 9853SOL    HW230459   6.626   4.370   3.968
 9854SOL     OW30460   0.929   4.888   6.193
 9854SOL    HW130461   0.831   4.867   6.190
 9854SOL    HW230462   0.969   4.870   6.103
 9855SOL     OW30463   1.313   4.821   1.606
 9855SOL    HW130464   1.363   4.779   1.530
 9855SOL    HW230465   1.336   4.774   1.691
 9856SOL     OW30466   5.844   3.991   3.301
 9856SOL    HW130467   5.853   3.947   3.212
 9856SOL    HW230468   5.842   4.090   3.289
 9857SOL     OW30469   3.791   0.784   4.408
 9857SOL    HW130470   3.865   0.851   4.410
 9857SOL    HW230471   3.785   0.745   4.316
 9858SOL     OW30472   6.426   6.748   2.341
 9858SOL    HW130473   6.414   6.814   2.415
 9858SOL    HW230474   6.452   6.797   2.257
 9859SOL     OW30475   6.524   5.866   3.324
 9859SOL    HW130476   6.614   5.825   3.308
 9859SOL    HW230477   6.535   5.963   3.344
 9860SOL     OW30478   1.403   3.047   4.500
 9860SOL    HW130479   1.399   3.100   4.415
 9860SOL    HW230480   1.312   3.043   4.542
 9861SOL     OW30481   3.854   1.485   4.117
 9861SOL    HW130482   3.784   1.515   4.053
 9861SOL    HW230483   3.837   1.391   4.144
 9862SOL     OW30484   1.294   4.797   0.652
 9862SOL    HW130485   1.262   4.784   0.746
 9862SOL    HW230486   1.218   4.780   0.589
 9863SOL     OW30487   3.665   6.044   0.615
 9863SOL    HW130488   3.697   6.098   0.537
 9863SOL    HW230489   3.640   6.105   0.689
 9864SOL     OW30490   2.802   5.466   5.655
 9864SOL    HW130491   2.800   5.490   5.558
 9864SOL    HW230492   2.882   5.506   5.699
 9865SOL     OW30493   0.132   6.039   5.477
 9865SOL    HW130494   0.181   6.106   5.533
 9865SOL    HW230495   0.141   5.949   5.519
 9866SOL     OW30496   5.984   4.993   4.752
 9866SOL    HW130497   6.055   5.062   4.738
 9866SOL    HW230498   5.971   4.978   4.850
 9867SOL     OW30499   4.520   2.233   1.851
 9867SOL    HW130500   4.608   2.257   1.892
 9867SOL    HW230501   4.453   2.302   1.876
 9868SOL     OW30502   1.848   3.921   3.598
 9868SOL    HW130503   1.796   3.930   3.683
 9868SOL    HW230504   1.936   3.876   3.618
 9869SOL     OW30505   6.655   2.519   0.521
 9869SOL    HW130506   6.703   2.508   0.608
 9869SOL    HW230507   6.570   2.571   0.537
 9870SOL     OW30508   2.732   1.267   2.684
 9870SOL    HW130509   2.761   1.288   2.591
 9870SOL    HW230510   2.642   1.224   2.683
 9871SOL     OW30511   0.033   4.391   4.897
 9871SOL    HW130512   0.116   4.364   4.848
 9871SOL    HW230513   7.008   4.310   4.936
 9872SOL     OW30514   1.402   5.073   5.817
 9872SOL    HW130515   1.316   5.122   5.804
 9872SOL    HW230516   1.456   5.077   5.733
 9873SOL     OW30517   1.040   1.265   5.774
 9873SOL    HW130518   1.083   1.348   5.811
 9873SOL    HW230519   1.025   1.277   5.676
 9874SOL     OW30520   0.783   2.517   4.840
 9874SOL    HW130521   0.708   2.518   4.906
 9874SOL    HW230522   0.759   2.573   4.761
 9875SOL     OW30523   6.447   5.345   0.451
 9875SOL    HW130524   6.523   5.295   0.491
 9875SOL    HW230525   6.438   5.434   0.496
 9876SOL     OW30526   1.512   6.658   3.609
 9876SOL    HW130527   1.606   6.691   3.607
 9876SOL    HW230528   1.511   6.558   3.599
 9877SOL     OW30529   0.770   5.319   4.862
 9877SOL    HW130530   0.778   5.367   4.949
 9877SOL    HW230531   0.805   5.377   4.789
 9878SOL     OW30532   2.430   2.549   6.810
 9878SOL    HW130533   2.456   2.555   6.714
 9878SOL    HW230534   2.336   2.579   6.822
 9879SOL     OW30535   6.786   5.044   6.312
 9879SOL    HW130536   6.769   5.006   6.221
 9879SOL    HW230537   6.723   5.119   6.329
 9880SOL     OW30538   3.013   1.267   6.707
 9880SOL    HW130539   3.037   1.173   6.731
 9880SOL    HW230540   2.916   1.272   6.685
 9881SOL     OW30541   5.959   0.650   4.275
 9881SOL    HW130542   5.950   0.676   4.179
 9881SOL    HW230543   5.941   0.730   4.333
 9882SOL     OW30544   3.513   2.825   4.907
 9882SOL    HW130545   3.449   2.750   4.923
 9882SOL    HW230546   3.496   2.898   4.973
 9883SOL     OW30547   2.368   6.971   1.816
 9883SOL    HW130548   2.395   6.890   1.764
 9883SOL    HW230549   2.271   6.989   1.803
 9884SOL     OW30550   2.612   3.588   5.618
 9884SOL    HW130551   2.579   3.533   5.541
 9884SOL    HW230552   2.712   3.585   5.620
 9885SOL     OW30553   5.545   2.541   4.464
 9885SOL    HW130554   5.614   2.508   4.400
 9885SOL    HW230555   5.477   2.469   4.480
 9886SOL     OW30556   3.926   5.923   1.162
 9886SOL    HW130557   3.853   5.861   1.192
 9886SOL    HW230558   3.890   5.987   1.094
 9887SOL     OW30559   3.286   6.993   6.467
 9887SOL    HW130560   3.232   0.058   6.478
 9887SOL    HW230561   3.358   6.991   6.536
 9888SOL     OW30562   6.154   5.999   2.701
 9888SOL    HW130563   6.182   5.915   2.655
 9888SOL    HW230564   6.128   5.978   2.796
 9889SOL     OW30565   6.788   5.545   3.489
 9889SOL    HW130566   6.852   5.622   3.490
 9889SOL    HW230567   6.839   5.459   3.485
 9890SOL     OW30568   6.881   4.010   1.855
 9890SOL    HW130569   6.882   4.073   1.777
 9890SOL    HW230570   6.969   4.015   1.903
 9891SOL     OW30571   5.790   5.425   0.979
 9891SOL    HW130572   5.729   5.361   1.025
 9891SOL    HW230573   5.853   5.375   0.919
 9892SOL     OW30574   2.175   4.695   4.010
 9892SOL    HW130575   2.118   4.742   4.078
 9892SOL    HW230576   2.252   4.650   4.057
 9893SOL     OW30577   5.261   5.229   3.807
 9893SOL    HW130578   5.268   5.307   3.869
 9893SOL    HW230579   5.233   5.262   3.717
 9894SOL     OW30580   4.431   3.205   6.115
 9894SOL    HW130581   4.479   3.292   6.112
 9894SOL    HW230582   4.346   3.215   6.166
 9895SOL     OW30583   5.108   2.187   6.654
 9895SOL    HW130584   5.200   2.154   6.675
 9895SOL    HW230585   5.107   2.230   6.564
 9896SOL     OW30586   4.038   4.098   0.808
 9896SOL    HW130587   3.990   4.014   0.830
 9896SOL    HW230588   4.061   4.099   0.711
 9897SOL     OW30589   6.195   1.988   3.599
 9897SOL    HW130590   6.200   2.029   3.508
 9897SOL    HW230591   6.111   2.019   3.644
 9898SOL     OW30592   0.990   5.012   5.357
 9898SOL    HW130593   1.080   5.029   5.316
 9898SOL    HW230594   0.989   5.046   5.451
 9899SOL     OW30595   5.298   5.601   1.679
 9899SOL    HW130596   5.363   5.587   1.604
 9899SOL    HW230597   5.308   5.694   1.715
 9900SOL     OW30598   1.371   3.570   3.892
 9900SOL    HW130599   1.307   3.609   3.826
 9900SOL    HW230600   1.391   3.475   3.869
 9901SOL     OW30601   3.257   2.180   5.328
 9901SOL    HW130602   3.240   2.235   5.246
 9901SOL    HW230603   3.171   2.168   5.378
 9902SOL     OW30604   4.526   3.857   0.067
 9902SOL    HW130605   4.625   3.860   0.059
 9902SOL    HW230606   4.489   3.789   0.003
 9903SOL     OW30607   3.681   1.389   1.701
 9903SOL    HW130608   3.607   1.444   1.739
 9903SOL    HW230609   3.711   1.430   1.615
 9904SOL     OW30610   6.813   0.846   1.982
 9904SOL    HW130611   6.740   0.841   2.051
 9904SOL    HW230612   6.775   0.822   1.892
 9905SOL     OW30613   1.222   6.880   5.099
 9905SOL    HW130614   1.161   6.803   5.084
 9905SOL    HW230615   1.272   6.900   5.014
 9906SOL     OW30616   3.055   2.972   6.273
 9906SOL    HW130617   3.029   3.062   6.309
 9906SOL    HW230618   3.091   2.983   6.181
 9907SOL     OW30619   2.262   6.478   3.034
 9907SOL    HW130620   2.343   6.506   3.087
 9907SOL    HW230621   2.239   6.550   2.969
 9908SOL     OW30622   1.357   3.438   5.704
 9908SOL    HW130623   1.447   3.414   5.741
 9908SOL    HW230624   1.286   3.405   5.766
 9909SOL     OW30625   3.933   6.873   2.927
 9909SOL    HW130626   3.849   6.820   2.940
 9909SOL    HW230627   4.012   6.814   2.938
 9910SOL     OW30628   0.150   3.933   1.365
 9910SOL    HW130629   0.094   3.919   1.447
 9910SOL    HW230630   0.146   4.029   1.339
 9911SOL     OW30631   3.291   5.182   3.151
 9911SOL    HW130632   3.257   5.150   3.062
 9911SOL    HW230633   3.215   5.188   3.215
 9912SOL     OW30634   5.130   0.332   1.689
 9912SOL    HW130635   5.065   0.302   1.760
 9912SOL    HW230636   5.079   0.379   1.617
 9913SOL     OW30637   4.705   1.824   2.798
 9913SOL    HW130638   4.799   1.818   2.762
 9913SOL    HW230639   4.707   1.863   2.890
 9914SOL     OW30640   1.724   6.700   4.784
 9914SOL    HW130641   1.664   6.730   4.709
 9914SOL    HW230642   1.799   6.765   4.794
 9915SOL     OW30643   5.187   3.717   4.557
 9915SOL    HW130644   5.261   3.689   4.619
 9915SOL    HW230645   5.136   3.792   4.599
 9916SOL     OW30646   2.221   2.967   1.848
 9916SOL    HW130647   2.145   2.906   1.866
 9916SOL    HW230648   2.193   3.062   1.862
 9917SOL     OW30649   2.733   3.489   5.904
 9917SOL    HW130650   2.778   3.417   5.852
 9917SOL    HW230651   2.637   3.465   5.919
 9918SOL     OW30652   1.654   1.445   5.700
 9918SOL    HW130653   1.579   1.384   5.725
 9918SOL    HW230654   1.632   1.539   5.728
 9919SOL     OW30655   0.389   5.326   3.382
 9919SOL    HW130656   0.327   5.262   3.427
 9919SOL    HW230657   0.336   5.387   3.323
 9920SOL     OW30658   4.414   6.942   1.522
 9920SOL    HW130659   4.356   6.977   1.596
 9920SOL    HW230660   4.493   6.894   1.561
 9921SOL     OW30661   5.584   0.413   2.805
 9921SOL    HW130662   5.493   0.393   2.769
 9921SOL    HW230663   5.591   0.382   2.899
 9922SOL     OW30664   4.332   3.379   0.991
 9922SOL    HW130665   4.267   3.455   0.990
 9922SOL    HW230666   4.303   3.312   1.061
 9923SOL     OW30667   6.437   2.320   6.818
 9923SOL    HW130668   6.409   2.226   6.840
 9923SOL    HW230669   6.363   2.365   6.767
 9924SOL     OW30670   6.518   0.760   3.344
 9924SOL    HW130671   6.568   0.742   3.428
 9924SOL    HW230672   6.564   0.831   3.291
 9925SOL     OW30673   2.460   2.658   4.836
 9925SOL    HW130674   2.378   2.707   4.805
 9925SOL    HW230675   2.507   2.713   4.905
 9926SOL     OW30676   1.224   1.217   0.875
 9926SOL    HW130677   1.165   1.190   0.798
 9926SOL    HW230678   1.307   1.161   0.874
 9927SOL     OW30679   0.510   2.891   2.678
 9927SOL    HW130680   0.418   2.894   2.640
 9927SOL    HW230681   0.508   2.847   2.768
 9928SOL     OW30682   0.066   3.147   3.356
 9928SOL    HW130683   0.007   3.228   3.363
 9928SOL    HW230684   0.029   3.084   3.289
 9929SOL     OW30685   2.321   4.301   6.932
 9929SOL    HW130686   2.352   4.320   0.006
 9929SOL    HW230687   2.359   4.370   6.869
 9930SOL     OW30688   0.090   6.256   6.651
 9930SOL    HW130689   7.013   6.230   6.638
 9930SOL    HW230690   0.131   6.280   6.563
 9931SOL     OW30691   1.870   5.923   5.827
 9931SOL    HW130692   1.889   5.950   5.733
 9931SOL    HW230693   1.899   5.828   5.840
 9932SOL     OW30694   1.440   2.233   0.643
 9932SOL    HW130695   1.421   2.193   0.553
 9932SOL    HW230696   1.384   2.315   0.655
 9933SOL     OW30697   1.267   2.186   3.876
 9933SOL    HW130698   1.300   2.275   3.844
 9933SOL    HW230699   1.294   2.172   3.971
 9934SOL     OW30700   3.615   0.919   5.777
 9934SOL    HW130701   3.610   0.819   5.780
 9934SOL    HW230702   3.522   0.957   5.785
 9935SOL     OW30703   2.535   2.200   0.743
 9935SOL    HW130704   2.508   2.165   0.833
 9935SOL    HW230705   2.459   2.252   0.704
 9936SOL     OW30706   5.969   6.658   5.800
 9936SOL    HW130707   6.029   6.720   5.850
 9936SOL    HW230708   5.996   6.654   5.704
 9937SOL     OW30709   0.449   0.245   3.835
 9937SOL    HW130710   0.509   0.206   3.765
 9937SOL    HW230711   0.386   0.310   3.792
 9938SOL     OW30712   6.586   1.547   3.928
 9938SOL    HW130713   6.678   1.521   3.900
 9938SOL    HW230714   6.565   1.506   4.017
 9939SOL     OW30715   3.114   4.680   1.305
 9939SOL    HW130716   3.068   4.591   1.305
 9939SOL    HW230717   3.099   4.725   1.393
 9940SOL     OW30718   0.377   0.957   3.387
 9940SOL    HW130719   0.310   0.961   3.461
 9940SOL    HW230720   0.423   1.045   3.378
 9941SOL     OW30721   5.056   4.456   6.563
 9941SOL    HW130722   5.067   4.548   6.525
 9941SOL    HW230723   5.059   4.389   6.488
 9942SOL     OW30724   4.994   5.016   2.978
 9942SOL    HW130725   4.969   5.063   2.894
 9942SOL    HW230726   5.006   4.918   2.960
 9943SOL     OW30727   2.361   4.156   6.539
 9943SOL    HW130728   2.425   4.108   6.478
 9943SOL    HW230729   2.371   4.254   6.528
 9944SOL     OW30730   0.436   4.995   6.624
 9944SOL    HW130731   0.372   4.971   6.550
 9944SOL    HW230732   0.402   5.075   6.673
 9945SOL     OW30733   6.105   3.238   6.467
 9945SOL    HW130734   6.131   3.207   6.558
 9945SOL    HW230735   6.161   3.317   6.441
 9946SOL     OW30736   5.387   1.872   1.700
 9946SOL    HW130737   5.430   1.840   1.616
 9946SOL    HW230738   5.304   1.819   1.718
 9947SOL     OW30739   1.115   1.804   3.682
 9947SOL    HW130740   1.077   1.713   3.700
 9947SOL    HW230741   1.143   1.846   3.769
 9948SOL     OW30742   6.282   0.210   4.733
 9948SOL    HW130743   6.310   0.137   4.671
 9948SOL    HW230744   6.225   0.172   4.806
 9949SOL     OW30745   5.799   5.102   3.983
 9949SOL    HW130746   5.851   5.057   3.910
 9949SOL    HW230747   5.863   5.150   4.044
 9950SOL     OW30748   5.917   4.079   5.460
 9950SOL    HW130749   5.824   4.042   5.468
 9950SOL    HW230750   5.945   4.118   5.548
 9951SOL     OW30751   0.379   2.150   3.272
 9951SOL    HW130752   0.421   2.144   3.181
 9951SOL    HW230753   0.340   2.242   3.284
 9952SOL     OW30754   0.523   5.118   2.118
 9952SOL    HW130755   0.622   5.106   2.109
 9952SOL    HW230756   0.492   5.074   2.202
 9953SOL     OW30757   6.193   2.534   3.415
 9953SOL    HW130758   6.183   2.619   3.364
 9953SOL    HW230759   6.290   2.515   3.429
 9954SOL     OW30760   3.638   1.713   5.910
 9954SOL    HW130761   3.547   1.752   5.918
 9954SOL    HW230762   3.632   1.619   5.876
 9955SOL     OW30763   6.287   4.343   0.905
 9955SOL    HW130764   6.197   4.387   0.908
 9955SOL    HW230765   6.316   4.322   0.999
 9956SOL     OW30766   2.049   3.665   3.363
 9956SOL    HW130767   2.111   3.718   3.306
 9956SOL    HW230768   1.969   3.637   3.309
 9957SOL     OW30769   4.803   0.072   0.637
 9957SOL    HW130770   4.773   7.004   0.678
 9957SOL    HW230771   4.869   0.116   0.697
 9958SOL     OW30772   5.479   5.545   0.281
 9958SOL    HW130773   5.427   5.465   0.311
 9958SOL    HW230774   5.518   5.528   0.191
 9959SOL     OW30775   4.616   3.936   0.932
 9959SOL    HW130776   4.628   4.033   0.911
 9959SOL    HW230777   4.555   3.895   0.865
 9960SOL     OW30778   0.531   1.034   0.063
 9960SOL    HW130779   0.585   1.004   0.142
 9960SOL    HW230780   0.434   1.032   0.087
 9961SOL     OW30781   2.684   4.942   1.148
 9961SOL    HW130782   2.613   4.891   1.198
 9961SOL    HW230783   2.766   4.949   1.205
 9962SOL     OW30784   3.389   0.032   1.545
 9962SOL    HW130785   3.302   7.017   1.582
 9962SOL    HW230786   3.381   0.044   1.447
 9963SOL     OW30787   0.705   1.241   6.272
 9963SOL    HW130788   0.702   1.174   6.347
 9963SOL    HW230789   0.623   1.231   6.216
 9964SOL     OW30790   4.369   4.288   6.052
 9964SOL    HW130791   4.304   4.235   5.997
 9964SOL    HW230792   4.331   4.301   6.143
 9965SOL     OW30793   2.979   5.432   4.548
 9965SOL    HW130794   3.029   5.479   4.475
 9965SOL    HW230795   3.039   5.367   4.593
 9966SOL     OW30796   3.948   5.096   2.669
 9966SOL    HW130797   4.005   5.016   2.650
 9966SOL    HW230798   3.860   5.086   2.623
 9967SOL     OW30799   0.214   0.618   2.807
 9967SOL    HW130800   0.295   0.571   2.842
 9967SOL    HW230801   0.192   0.582   2.716
 9968SOL     OW30802   3.568   6.527   0.151
 9968SOL    HW130803   3.631   6.455   0.124
 9968SOL    HW230804   3.559   6.594   0.077
 9969SOL     OW30805   1.729   5.531   3.968
 9969SOL    HW130806   1.705   5.563   4.059
 9969SOL    HW230807   1.819   5.488   3.971
 9970SOL     OW30808   6.530   3.693   1.298
 9970SOL    HW130809   6.613   3.644   1.271
 9970SOL    HW230810   6.476   3.635   1.359
 9971SOL     OW30811   0.709   4.499   2.756
 9971SOL    HW130812   0.639   4.529   2.821
 9971SOL    HW230813   0.695   4.545   2.668
 9972SOL     OW30814   3.206   3.163   6.819
 9972SOL    HW130815   3.111   3.166   6.852
 9972SOL    HW230816   3.210   3.108   6.735
 9973SOL     OW30817   3.145   1.847   3.564
 9973SOL    HW130818   3.083   1.775   3.596
 9973SOL    HW230819   3.197   1.813   3.485
 9974SOL     OW30820   0.995   3.310   2.971
 9974SOL    HW130821   0.996   3.213   2.944
 9974SOL    HW230822   0.900   3.342   2.977
 9975SOL     OW30823   1.886   5.035   7.000
 9975SOL    HW130824   1.890   5.100   6.925
 9975SOL    HW230825   1.906   4.943   6.966
 9976SOL     OW30826   3.258   4.144   6.283
 9976SOL    HW130827   3.311   4.192   6.213
 9976SOL    HW230828   3.312   4.138   6.367
 9977SOL     OW30829   5.343   6.120   5.491
 9977SOL    HW130830   5.262   6.062   5.477
 9977SOL    HW230831   5.425   6.069   5.465
 9978SOL     OW30832   0.772   3.399   6.296
 9978SOL    HW130833   0.758   3.300   6.295
 9978SOL    HW230834   0.858   3.421   6.247
 9979SOL     OW30835   4.232   3.185   5.280
 9979SOL    HW130836   4.208   3.282   5.270
 9979SOL    HW230837   4.331   3.175   5.280
 9980SOL     OW30838   2.147   1.220   0.693
 9980SOL    HW130839   2.079   1.173   0.750
 9980SOL    HW230840   2.237   1.179   0.708
 9981SOL     OW30841   0.248   2.871   1.604
 9981SOL    HW130842   0.224   2.952   1.659
 9981SOL    HW230843   0.295   2.901   1.521
 9982SOL     OW30844   2.239   2.162   5.160
 9982SOL    HW130845   2.235   2.063   5.176
 9982SOL    HW230846   2.332   2.189   5.137
 9983SOL     OW30847   0.787   3.013   1.560
 9983SOL    HW130848   0.806   2.974   1.470
 9983SOL    HW230849   0.767   2.940   1.625
 9984SOL     OW30850   0.129   5.995   1.124
 9984SOL    HW130851   0.215   6.031   1.160
 9984SOL    HW230852   0.116   6.028   1.031
 9985SOL     OW30853   4.064   5.273   0.318
 9985SOL    HW130854   4.005   5.348   0.349
 9985SOL    HW230855   4.009   5.190   0.310
 9986SOL     OW30856   5.275   4.879   0.511
 9986SOL    HW130857   5.191   4.901   0.561
 9986SOL    HW230858   5.291   4.780   0.515
 9987SOL     OW30859   5.139   2.825   1.448
 9987SOL    HW130860   5.082   2.842   1.367
 9987SOL    HW230861   5.153   2.727   1.459
 9988SOL     OW30862   5.357   6.565   4.363
 9988SOL    HW130863   5.444   6.570   4.412
 9988SOL    HW230864   5.292   6.512   4.417
 9989SOL     OW30865   6.374   5.334   2.539
 9989SOL    HW130866   6.334   5.244   2.556
 9989SOL    HW230867   6.447   5.325   2.471
 9990SOL     OW30868   0.443   6.946   3.581
 9990SOL    HW130869   0.481   0.020   3.580
 9990SOL    HW230870   0.510   6.883   3.621
 9991SOL     OW30871   1.583   4.259   3.779
 9991SOL    HW130872   1.605   4.269   3.682
 9991SOL    HW230873   1.664   4.281   3.833
 9992SOL     OW30874   3.753   4.831   0.973
 9992SOL    HW130875   3.691   4.907   0.956
 9992SOL    HW230876   3.727   4.785   1.058
 9993SOL     OW30877   4.003   0.013   4.512
 9993SOL    HW130878   3.996   6.940   4.471
 9993SOL    HW230879   3.930   0.071   4.475
 9994SOL     OW30880   6.645   4.978   4.490
 9994SOL    HW130881   6.669   5.031   4.409
 9994SOL    HW230882   6.678   4.884   4.480
 9995SOL     OW30883   3.010   0.553   4.916
 9995SOL    HW130884   3.036   0.464   4.954
 9995SOL    HW230885   2.984   0.614   4.991
 9996SOL     OW30886   1.908   3.618   0.904
 9996SOL    HW130887   1.924   3.560   0.984
 9996SOL    HW230888   1.948   3.574   0.823
 9997SOL     OW30889   6.044   3.047   3.936
 9997SOL    HW130890   5.998   3.134   3.917
 9997SOL    HW230891   6.106   3.025   3.861
 9998SOL     OW30892   5.100   4.435   2.712
 9998SOL    HW130893   5.042   4.444   2.630
 9998SOL    HW230894   5.050   4.387   2.783
 9999SOL     OW30895   1.035   6.384   4.144
 9999SOL    HW130896   1.020   6.398   4.242
 9999SOL    HW230897   0.986   6.453   4.091
10000SOL     OW30898   5.759   1.881   1.758
10000SOL    HW130899   5.679   1.887   1.818
10000SOL    HW230900   5.809   1.968   1.759
10001SOL     OW30901   4.088   6.311   2.281
10001SOL    HW130902   4.145   6.357   2.349
10001SOL    HW230903   4.101   6.212   2.289
10002SOL     OW30904   2.830   0.838   1.893
10002SOL    HW130905   2.840   0.911   1.961
10002SOL    HW230906   2.920   0.800   1.871
10003SOL     OW30907   1.405   0.963   3.946
10003SOL    HW130908   1.462   1.023   3.891
10003SOL    HW230909   1.309   0.989   3.937
10004SOL     OW30910   6.118   4.479   5.369
10004SOL    HW130911   6.177   4.404   5.340
10004SOL    HW230912   6.149   4.515   5.457
10005SOL     OW30913   2.044   5.616   3.335
10005SOL    HW130914   2.077   5.549   3.268
10005SOL    HW230915   2.118   5.679   3.358
10006SOL     OW30916   5.456   0.470   5.357
10006SOL    HW130917   5.360   0.488   5.377
10006SOL    HW230918   5.475   0.492   5.261
10007SOL     OW30919   1.257   5.348   4.579
10007SOL    HW130920   1.169   5.391   4.559
10007SOL    HW230921   1.249   5.291   4.660
10008SOL     OW30922   4.314   1.694   5.939
10008SOL    HW130923   4.367   1.768   5.981
10008SOL    HW230924   4.238   1.670   5.999
10009SOL     OW30925   0.909   3.664   2.123
10009SOL    HW130926   0.904   3.760   2.097
10009SOL    HW230927   0.936   3.609   2.044
10010SOL     OW30928   2.387   4.649   0.012
10010SOL    HW130929   2.449   4.571   0.005
10010SOL    HW230930   2.325   4.650   6.953
10011SOL     OW30931   1.356   3.390   0.664
10011SOL    HW130932   1.346   3.459   0.736
10011SOL    HW230933   1.380   3.302   0.705
10012SOL     OW30934   4.797   1.328   2.315
10012SOL    HW130935   4.709   1.363   2.348
10012SOL    HW230936   4.835   1.266   2.383
10013SOL     OW30937   0.753   5.991   4.499
10013SOL    HW130938   0.798   5.906   4.471
10013SOL    HW230939   0.683   6.016   4.432
10014SOL     OW30940   0.688   0.023   2.941
10014SOL    HW130941   0.650   6.952   2.964
10014SOL    HW230942   0.713   0.071   3.026
10015SOL     OW30943   4.022   4.455   5.786
10015SOL    HW130944   3.960   4.376   5.783
10015SOL    HW230945   4.076   4.458   5.702
10016SOL     OW30946   2.382   6.920   2.992
10016SOL    HW130947   2.336   6.972   3.063
10016SOL    HW230948   2.318   6.853   2.953
10017SOL     OW30949   2.583   1.624   3.109
10017SOL    HW130950   2.489   1.659   3.115
10017SOL    HW230951   2.591   1.563   3.031
10018SOL     OW30952   6.087   2.677   6.143
10018SOL    HW130953   6.029   2.730   6.205
10018SOL    HW230954   6.105   2.730   6.060
10019SOL     OW30955   0.587   1.460   2.308
10019SOL    HW130956   0.652   1.395   2.349
10019SOL    HW230957   0.558   1.526   2.377
10020SOL     OW30958   6.586   0.531   1.903
10020SOL    HW130959   6.609   0.619   1.862
10020SOL    HW230960   6.520   0.545   1.978
10021SOL     OW30961   1.669   4.109   1.916
10021SOL    HW130962   1.617   4.041   1.865
10021SOL    HW230963   1.614   4.146   1.990
10022SOL     OW30964   2.494   6.066   0.441
10022SOL    HW130965   2.519   5.973   0.468
10022SOL    HW230966   2.555   6.098   0.369
10023SOL     OW30967   2.156   0.022   5.918
10023SOL    HW130968   2.105   0.083   5.979
10023SOL    HW230969   2.235   0.071   5.880
10024SOL     OW30970   1.784   4.760   3.139
10024SOL    HW130971   1.838   4.844   3.145
10024SOL    HW230972   1.844   4.681   3.152
10025SOL     OW30973   0.828   4.439   1.743
10025SOL    HW130974   0.781   4.483   1.819
10025SOL    HW230975   0.901   4.499   1.710
10026SOL     OW30976   5.234   1.557   3.777
10026SOL    HW130977   5.271   1.635   3.828
10026SOL    HW230978   5.297   1.535   3.701
10027SOL     OW30979   1.849   2.017   5.606
10027SOL    HW130980   1.935   2.046   5.565
10027SOL    HW230981   1.853   2.031   5.705
10028SOL     OW30982   4.001   0.807   1.656
10028SOL    HW130983   3.947   0.886   1.683
10028SOL    HW230984   3.989   0.791   1.558
10029SOL     OW30985   0.210   3.373   5.056
10029SOL    HW130986   0.148   3.423   5.117
10029SOL    HW230987   0.208   3.415   4.965
10030SOL     OW30988   2.623   6.988   4.571
10030SOL    HW130989   2.612   0.068   4.582
10030SOL    HW230990   2.654   6.947   4.657
10031SOL     OW30991   3.130   4.889   4.040
10031SOL    HW130992   3.230   4.897   4.038
10031SOL    HW230993   3.101   4.822   3.972
10032SOL     OW30994   2.979   6.118   4.846
10032SOL    HW130995   2.899   6.144   4.900
10032SOL    HW230996   2.952   6.099   4.752
10033SOL     OW30997   4.135   1.715   3.072
10033SOL    HW130998   4.195   1.652   3.121
10033SOL    HW230999   4.151   1.705   2.974
10034SOL     OW31000   2.792   0.555   3.280
10034SOL    HW131001   2.704   0.520   3.249
10034SOL    HW231002   2.781   0.598   3.369
10035SOL     OW31003   6.186   2.936   1.497
10035SOL    HW131004   6.191   2.870   1.572
10035SOL    HW231005   6.250   3.010   1.514
10036SOL     OW31006   6.229   0.648   6.922
10036SOL    HW131007   6.312   0.678   6.968
10036SOL    HW231008   6.172   0.597   6.987
10037SOL     OW31009   6.072   6.766   6.875
10037SOL    HW131010   6.126   6.837   6.830
10037SOL    HW231011   5.984   6.756   6.828
10038SOL     OW31012   4.312   0.175   6.883
10038SOL    HW131013   4.384   0.199   6.817
10038SOL    HW231014   4.342   0.198   6.975
10039SOL     OW31015   5.487   5.102   3.630
10039SOL    HW131016   5.415   5.145   3.684
10039SOL    HW231017   5.447   5.040   3.563
10040SOL     OW31018   3.500   0.127   0.214
10040SOL    HW131019   3.483   0.191   0.139
10040SOL    HW231020   3.520   0.179   0.298
10041SOL     OW31021   6.571   4.881   5.672
10041SOL    HW131022   6.635   4.804   5.677
10041SOL    HW231023   6.508   4.866   5.595
10042SOL     OW31024   0.852   0.699   5.020
10042SOL    HW131025   0.826   0.644   4.941
10042SOL    HW231026   0.774   0.754   5.049
10043SOL     OW31027   1.911   1.049   3.259
10043SOL    HW131028   1.882   1.033   3.165
10043SOL    HW231029   1.872   1.134   3.293
10044SOL     OW31030   2.104   1.089   5.250
10044SOL    HW131031   2.132   1.182   5.227
10044SOL    HW231032   2.023   1.093   5.309
10045SOL     OW31033   4.511   6.880   4.531
10045SOL    HW131034   4.603   6.842   4.515
10045SOL    HW231035   4.450   6.852   4.457
10046SOL     OW31036   0.066   2.355   1.771
10046SOL    HW131037   0.108   2.445   1.761
10046SOL    HW231038   0.000   2.357   1.846
10047SOL     OW31039   6.462   1.353   4.947
10047SOL    HW131040   6.487   1.299   5.028
10047SOL    HW231041   6.448   1.292   4.869
10048SOL     OW31042   3.498   1.552   1.818
10048SOL    HW131043   3.564   1.606   1.870
10048SOL    HW231044   3.424   1.611   1.786
10049SOL     OW31045   2.056   0.770   6.647
10049SOL    HW131046   1.974   0.713   6.653
10049SOL    HW231047   2.036   0.861   6.684
10050SOL     OW31048   5.197   2.687   4.455
10050SOL    HW131049   5.211   2.697   4.554
10050SOL    HW231050   5.223   2.771   4.409
10051SOL     OW31051   6.330   2.742   4.443
10051SOL    HW131052   6.330   2.806   4.520
10051SOL    HW231053   6.282   2.782   4.365
10052SOL     OW31054   1.552   3.347   1.991
10052SOL    HW131055   1.603   3.261   1.980
10052SOL    HW231056   1.617   3.424   1.994
10053SOL     OW31057   3.432   5.268   3.358
10053SOL    HW131058   3.500   5.205   3.393
10053SOL    HW231059   3.406   5.240   3.265
10054SOL     OW31060   4.172   5.858   5.960
10054SOL    HW131061   4.119   5.817   6.034
10054SOL    HW231062   4.255   5.804   5.945
10055SOL     OW31063   6.785   2.390   5.215
10055SOL    HW131064   6.686   2.400   5.212
10055SOL    HW231065   6.811   2.340   5.297
10056SOL     OW31066   6.509   5.040   1.121
10056SOL    HW131067   6.526   4.944   1.098
10056SOL    HW231068   6.595   5.086   1.140
10057SOL     OW31069   3.919   2.130   4.537
10057SOL    HW131070   3.920   2.138   4.636
10057SOL    HW231071   4.002   2.171   4.500
10058SOL     OW31072   6.447   5.288   3.851
10058SOL    HW131073   6.512   5.220   3.882
10058SOL    HW231074   6.425   5.273   3.755
10059SOL     OW31075   5.246   0.226   0.929
10059SOL    HW131076   5.205   0.316   0.938
10059SOL    HW231077   5.232   0.174   1.013
10060SOL     OW31078   2.673   2.355   1.764
10060SOL    HW131079   2.633   2.263   1.769
10060SOL    HW231080   2.731   2.370   1.844
10061SOL     OW31081   6.052   1.141   4.321
10061SOL    HW131082   5.978   1.191   4.274
10061SOL    HW231083   6.019   1.108   4.409
10062SOL     OW31084   5.753   5.896   3.498
10062SOL    HW131085   5.839   5.928   3.538
10062SOL    HW231086   5.709   5.833   3.562
10063SOL     OW31087   1.466   3.110   3.961
10063SOL    HW131088   1.532   3.067   3.899
10063SOL    HW231089   1.439   3.199   3.924
10064SOL     OW31090   4.896   5.660   4.520
10064SOL    HW131091   4.891   5.676   4.422
10064SOL    HW231092   4.945   5.574   4.537
10065SOL     OW31093   1.309   6.834   2.364
10065SOL    HW131094   1.219   6.846   2.321
10065SOL    HW231095   1.297   6.817   2.462
10066SOL     OW31096   0.369   0.185   4.274
10066SOL    HW131097   0.387   0.106   4.332
10066SOL    HW231098   0.454   0.216   4.231
10067SOL     OW31099   5.010   4.782   4.539
10067SOL    HW131100   5.069   4.747   4.612
10067SOL    HW231101   5.067   4.809   4.461
10068SOL     OW31102   5.488   2.822   4.422
10068SOL    HW131103   5.497   2.725   4.443
10068SOL    HW231104   5.481   2.874   4.507
10069SOL     OW31105   3.170   1.009   3.770
10069SOL    HW131106   3.223   1.060   3.703
10069SOL    HW231107   3.105   1.070   3.815
10070SOL     OW31108   0.386   6.122   5.051
10070SOL    HW131109   0.326   6.128   5.130
10070SOL    HW231110   0.482   6.126   5.081
10071SOL     OW31111   4.571   5.342   3.989
10071SOL    HW131112   4.508   5.411   3.954
10071SOL    HW231113   4.535   5.305   4.075
10072SOL     OW31114   0.649   6.099   3.439
10072SOL    HW131115   0.623   6.016   3.390
10072SOL    HW231116   0.609   6.179   3.393
10073SOL     OW31117   6.081   5.027   5.472
10073SOL    HW131118   6.046   5.062   5.385
10073SOL    HW231119   6.159   5.083   5.501
10074SOL     OW31120   1.519   6.900   5.806
10074SOL    HW131121   1.488   6.806   5.793
10074SOL    HW231122   1.549   6.938   5.719
10075SOL     OW31123   1.073   2.318   3.330
10075SOL    HW131124   1.092   2.393   3.394
10075SOL    HW231125   1.016   2.250   3.374
10076SOL     OW31126   4.958   0.394   4.569
10076SOL    HW131127   5.024   0.373   4.497
10076SOL    HW231128   4.898   0.315   4.582
10077SOL     OW31129   4.428   2.299   6.553
10077SOL    HW131130   4.356   2.230   6.543
10077SOL    HW231131   4.387   2.390   6.553
10078SOL     OW31132   6.130   6.409   4.840
10078SOL    HW131133   6.167   6.324   4.878
10078SOL    HW231134   6.201   6.479   4.840
10079SOL     OW31135   1.166   2.908   1.363
10079SOL    HW131136   1.173   2.962   1.447
10079SOL    HW231137   1.242   2.844   1.359
10080SOL     OW31138   2.301   2.749   0.605
10080SOL    HW131139   2.302   2.649   0.601
10080SOL    HW231140   2.299   2.778   0.701
10081SOL     OW31141   0.791   0.299   6.404
10081SOL    HW131142   0.733   0.354   6.464
10081SOL    HW231143   0.738   0.224   6.366
10082SOL     OW31144   6.362   2.116   1.815
10082SOL    HW131145   6.302   2.043   1.782
10082SOL    HW231146   6.409   2.087   1.898
10083SOL     OW31147   4.684   0.832   4.034
10083SOL    HW131148   4.626   0.837   3.953
10083SOL    HW231149   4.657   0.753   4.089
10084SOL     OW31150   2.856   0.908   6.127
10084SOL    HW131151   2.789   0.962   6.076
10084SOL    HW231152   2.929   0.967   6.160
10085SOL     OW31153   0.795   4.941   3.227
10085SOL    HW131154   0.877   4.992   3.202
10085SOL    HW231155   0.716   4.980   3.181
10086SOL     OW31156   6.132   4.777   2.163
10086SOL    HW131157   6.076   4.711   2.214
10086SOL    HW231158   6.133   4.751   2.066
10087SOL     OW31159   1.007   1.051   4.452
10087SOL    HW131160   0.935   0.981   4.458
10087SOL    HW231161   1.086   1.023   4.506
10088SOL     OW31162   0.102   6.664   4.795
10088SOL    HW131163   0.179   6.614   4.757
10088SOL    HW231164   0.019   6.609   4.787
10089SOL     OW31165   2.481   1.610   2.595
10089SOL    HW131166   2.543   1.534   2.574
10089SOL    HW231167   2.491   1.682   2.526
10090SOL     OW31168   1.047   4.623   0.662
10090SOL    HW131169   1.035   4.719   0.634
10090SOL    HW231170   0.958   4.580   0.673
10091SOL     OW31171   1.121   3.240   4.685
10091SOL    HW131172   1.105   3.155   4.635
10091SOL    HW231173   1.057   3.248   4.761
10092SOL     OW31174   1.847   3.654   5.432
10092SOL    HW131175   1.829   3.561   5.399
10092SOL    HW231176   1.810   3.720   5.367
10093SOL     OW31177   0.486   5.430   5.095
10093SOL    HW131178   0.402   5.467   5.134
10093SOL    HW231179   0.490   5.332   5.111
10094SOL     OW31180   2.391   0.468   2.591
10094SOL    HW131181   2.359   0.423   2.508
10094SOL    HW231182   2.363   0.415   2.671
10095SOL     OW31183   6.826   1.658   5.670
10095SOL    HW131184   6.819   1.559   5.660
10095SOL    HW231185   6.748   1.701   5.625
10096SOL     OW31186   6.894   4.954   2.956
10096SOL    HW131187   6.796   4.968   2.940
10096SOL    HW231188   6.941   5.042   2.958
10097SOL     OW31189   1.066   1.590   1.147
10097SOL    HW131190   0.984   1.633   1.109
10097SOL    HW231191   1.046   1.496   1.172
10098SOL     OW31192   1.907   6.169   5.932
10098SOL    HW131193   1.851   6.155   6.013
10098SOL    HW231194   1.916   6.083   5.882
10099SOL     OW31195   6.757   3.569   5.381
10099SOL    HW131196   6.682   3.592   5.443
10099SOL    HW231197   6.735   3.485   5.332
10100SOL     OW31198   4.634   0.856   4.940
10100SOL    HW131199   4.701   0.929   4.959
10100SOL    HW231200   4.598   0.821   5.027
10101SOL     OW31201   0.049   5.106   2.181
10101SOL    HW131202   0.105   5.113   2.099
10101SOL    HW231203   7.001   5.033   2.170
10102SOL     OW31204   3.179   1.392   2.468
10102SOL    HW131205   3.276   1.414   2.462
10102SOL    HW231206   3.129   1.472   2.502
10103SOL     OW31207   2.682   1.253   5.049
10103SOL    HW131208   2.751   1.324   5.061
10103SOL    HW231209   2.715   1.168   5.089
10104SOL     OW31210   0.704   4.438   5.490
10104SOL    HW131211   0.791   4.451   5.537
10104SOL    HW231212   0.721   4.428   5.391
10105SOL     OW31213   1.443   1.503   6.683
10105SOL    HW131214   1.468   1.474   6.775
10105SOL    HW231215   1.393   1.429   6.637
10106SOL     OW31216   5.158   5.281   0.620
10106SOL    HW131217   5.165   5.360   0.682
10106SOL    HW231218   5.205   5.203   0.661
10107SOL     OW31219   6.021   1.135   5.941
10107SOL    HW131220   6.009   1.234   5.947
10107SOL    HW231221   6.001   1.105   5.848
10108SOL     OW31222   6.080   6.385   0.167
10108SOL    HW131223   6.111   6.434   0.085
10108SOL    HW231224   6.160   6.355   0.219
10109SOL     OW31225   4.424   5.822   2.907
10109SOL    HW131226   4.373   5.881   2.970
10109SOL    HW231227   4.520   5.819   2.935
10110SOL     OW31228   3.412   6.737   5.268
10110SOL    HW131229   3.505   6.718   5.302
10110SOL    HW231230   3.374   6.654   5.227
10111SOL     OW31231   6.891   3.282   3.812
10111SOL    HW131232   6.814   3.258   3.872
10111SOL    HW231233   6.856   3.307   3.722
10112SOL     OW31234   5.684   3.898   5.429
10112SOL    HW131235   5.628   3.861   5.355
10112SOL    HW231236   5.627   3.950   5.492
10113SOL     OW31237   4.026   0.842   6.960
10113SOL    HW131238   4.125   0.842   6.969
10113SOL    HW231239   4.001   0.825   6.864
10114SOL     OW31240   5.494   1.535   0.397
10114SOL    HW131241   5.395   1.541   0.392
10114SOL    HW231242   5.531   1.524   0.304
10115SOL     OW31243   1.747   2.389   3.614
10115SOL    HW131244   1.773   2.311   3.557
10115SOL    HW231245   1.737   2.360   3.709
10116SOL     OW31246   1.165   6.936   0.746
10116SOL    HW131247   1.260   6.905   0.749
10116SOL    HW231248   1.119   6.910   0.831
10117SOL     OW31249   6.003   0.258   5.024
10117SOL    HW131250   5.990   0.280   5.121
10117SOL    HW231251   5.992   0.342   4.969
10118SOL     OW31252   0.336   4.810   2.739
10118SOL    HW131253   0.417   4.839   2.687
10118SOL    HW231254   0.258   4.866   2.712
10119SOL     OW31255   2.185   0.168   4.493
10119SOL    HW131256   2.230   0.223   4.423
10119SOL    HW231257   2.223   0.076   4.493
10120SOL     OW31258   0.712   3.117   3.867
10120SOL    HW131259   0.810   3.130   3.879
10120SOL    HW231260   0.678   3.052   3.935
10121SOL     OW31261   6.499   4.728   5.441
10121SOL    HW131262   6.579   4.671   5.460
10121SOL    HW231263   6.472   4.716   5.346
10122SOL     OW31264   5.401   3.027   6.914
10122SOL    HW131265   5.354   3.110   6.887
10122SOL    HW231266   5.422   2.972   6.833
10123SOL     OW31267   0.980   6.141   0.861
10123SOL    HW131268   0.943   6.079   0.930
10123SOL    HW231269   0.934   6.125   0.774
10124SOL     OW31270   2.622   4.305   0.211
10124SOL    HW131271   2.646   4.208   0.210
10124SOL    HW231272   2.704   4.360   0.225
10125SOL     OW31273   1.833   0.727   2.951
10125SOL    HW131274   1.895   0.658   2.989
10125SOL    HW231275   1.744   0.686   2.934
10126SOL     OW31276   5.953   5.715   6.839
10126SOL    HW131277   5.906   5.803   6.833
10126SOL    HW231278   5.888   5.641   6.819
10127SOL     OW31279   3.115   5.474   5.623
10127SOL    HW131280   3.119   5.571   5.648
10127SOL    HW231281   3.140   5.464   5.527
10128SOL     OW31282   0.596   1.352   1.249
10128SOL    HW131283   0.522   1.286   1.236
10128SOL    HW231284   0.603   1.411   1.169
10129SOL     OW31285   5.275   2.859   3.827
10129SOL    HW131286   5.248   2.796   3.754
10129SOL    HW231287   5.201   2.866   3.894
10130SOL     OW31288   1.349   5.418   3.116
10130SOL    HW131289   1.340   5.469   3.202
10130SOL    HW231290   1.349   5.482   3.040
10131SOL     OW31291   0.690   2.214   2.366
10131SOL    HW131292   0.775   2.195   2.415
10131SOL    HW231293   0.712   2.242   2.272
10132SOL     OW31294   3.271   6.793   3.054
10132SOL    HW131295   3.175   6.766   3.056
10132SOL    HW231296   3.279   6.888   3.024
10133SOL     OW31297   4.199   6.174   3.319
10133SOL    HW131298   4.115   6.124   3.300
10133SOL    HW231299   4.277   6.123   3.284
10134SOL     OW31300   6.188   0.776   4.016
10134SOL    HW131301   6.169   0.829   3.934
10134SOL    HW231302   6.272   0.724   4.004
10135SOL     OW31303   4.877   4.114   2.627
10135SOL    HW131304   4.875   4.192   2.565
10135SOL    HW231305   4.852   4.031   2.578
10136SOL     OW31306   5.951   0.088   3.277
10136SOL    HW131307   5.924   7.012   3.290
10136SOL    HW231308   6.048   0.092   3.251
10137SOL     OW31309   6.710   5.399   4.315
10137SOL    HW131310   6.758   5.435   4.235
10137SOL    HW231311   6.768   5.334   4.363
10138SOL     OW31312   5.667   2.429   0.656
10138SOL    HW131313   5.674   2.504   0.722
10138SOL    HW231314   5.581   2.437   0.605
10139SOL     OW31315   3.954   3.114   2.818
10139SOL    HW131316   3.972   3.075   2.908
10139SOL    HW231317   4.025   3.182   2.797
10140SOL     OW31318   6.537   6.042   6.104
10140SOL    HW131319   6.568   6.000   6.019
10140SOL    HW231320   6.485   5.976   6.157
10141SOL     OW31321   2.703   2.417   4.156
10141SOL    HW131322   2.679   2.413   4.059
10141SOL    HW231323   2.777   2.353   4.175
10142SOL     OW31324   4.885   6.567   5.451
10142SOL    HW131325   4.936   6.601   5.530
10142SOL    HW231326   4.947   6.519   5.389
10143SOL     OW31327   4.307   0.053   1.317
10143SOL    HW131328   4.240   0.115   1.356
10143SOL    HW231329   4.358   0.008   1.390
10144SOL     OW31330   3.828   5.939   5.497
10144SOL    HW131331   3.762   6.003   5.458
10144SOL    HW231332   3.916   5.986   5.509
10145SOL     OW31333   2.816   5.885   5.976
10145SOL    HW131334   2.747   5.896   6.047
10145SOL    HW231335   2.903   5.923   6.007
10146SOL     OW31336   3.858   5.153   4.865
10146SOL    HW131337   3.906   5.174   4.950
10146SOL    HW231338   3.914   5.092   4.809
10147SOL     OW31339   4.808   4.404   4.597
10147SOL    HW131340   4.788   4.479   4.661
10147SOL    HW231341   4.769   4.319   4.633
10148SOL     OW31342   6.181   5.932   0.058
10148SOL    HW131343   6.161   5.871   7.000
10148SOL    HW231344   6.133   5.899   0.140
10149SOL     OW31345   4.875   1.690   0.652
10149SOL    HW131346   4.974   1.683   0.638
10149SOL    HW231347   4.842   1.777   0.615
10150SOL     OW31348   4.665   4.203   0.889
10150SOL    HW131349   4.744   4.224   0.831
10150SOL    HW231350   4.650   4.278   0.953
10151SOL     OW31351   1.711   0.255   6.539
10151SOL    HW131352   1.673   0.341   6.574
10151SOL    HW231353   1.799   0.237   6.584
10152SOL     OW31354   1.386   5.461   4.065
10152SOL    HW131355   1.418   5.455   3.971
10152SOL    HW231356   1.372   5.557   4.090
10153SOL     OW31357   4.496   5.867   3.728
10153SOL    HW131358   4.574   5.882   3.790
10153SOL    HW231359   4.414   5.909   3.768
10154SOL     OW31360   6.699   6.276   5.952
10154SOL    HW131361   6.654   6.197   5.994
10154SOL    HW231362   6.715   6.346   6.022
10155SOL     OW31363   4.311   1.387   6.168
10155SOL    HW131364   4.348   1.294   6.161
10155SOL    HW231365   4.245   1.402   6.094
10156SOL     OW31366   6.138   6.689   2.039
10156SOL    HW131367   6.196   6.753   1.988
10156SOL    HW231368   6.046   6.690   2.001
10157SOL     OW31369   5.943   1.840   5.543
10157SOL    HW131370   5.925   1.860   5.639
10157SOL    HW231371   5.983   1.749   5.535
10158SOL     OW31372   4.786   3.948   0.225
10158SOL    HW131373   4.766   3.868   0.280
10158SOL    HW231374   4.854   3.925   0.154
10159SOL     OW31375   3.005   3.143   5.946
10159SOL    HW131376   2.940   3.149   5.871
10159SOL    HW231377   3.037   3.235   5.970
10160SOL     OW31378   1.147   4.597   2.758
10160SOL    HW131379   1.136   4.588   2.857
10160SOL    HW231380   1.058   4.608   2.715
10161SOL     OW31381   3.548   4.734   0.525
10161SOL    HW131382   3.567   4.821   0.572
10161SOL    HW231383   3.458   4.700   0.552
10162SOL     OW31384   2.562   3.705   6.990
10162SOL    HW131385   2.518   3.794   7.006
10162SOL    HW231386   2.602   3.704   6.898
10163SOL     OW31387   5.620   4.382   6.414
10163SOL    HW131388   5.527   4.378   6.451
10163SOL    HW231389   5.623   4.447   6.338
10164SOL     OW31390   6.364   2.940   4.945
10164SOL    HW131391   6.441   2.999   4.968
10164SOL    HW231392   6.285   2.963   5.002
10165SOL     OW31393   1.103   2.333   4.130
10165SOL    HW131394   1.191   2.303   4.092
10165SOL    HW231395   1.118   2.385   4.214
10166SOL     OW31396   3.537   1.027   1.999
10166SOL    HW131397   3.610   1.090   1.975
10166SOL    HW231398   3.575   0.935   2.013
10167SOL     OW31399   4.373   1.093   0.027
10167SOL    HW131400   4.333   1.122   0.114
10167SOL    HW231401   4.320   1.131   6.970
10168SOL     OW31402   6.528   3.811   4.548
10168SOL    HW131403   6.452   3.830   4.610
10168SOL    HW231404   6.613   3.843   4.590
10169SOL     OW31405   6.787   4.262   3.370
10169SOL    HW131406   6.834   4.338   3.414
10169SOL    HW231407   6.688   4.280   3.369
10170SOL     OW31408   0.575   4.239   5.853
10170SOL    HW131409   0.596   4.187   5.935
10170SOL    HW231410   0.570   4.177   5.774
10171SOL     OW31411   6.096   3.742   6.629
10171SOL    HW131412   6.074   3.780   6.540
10171SOL    HW231413   6.193   3.756   6.649
10172SOL     OW31414   6.062   0.490   3.147
10172SOL    HW131415   6.156   0.507   3.179
10172SOL    HW231416   6.065   0.442   3.060
10173SOL     OW31417   1.815   2.298   1.078
10173SOL    HW131418   1.757   2.367   1.034
10173SOL    HW231419   1.796   2.297   1.176
10174SOL     OW31420   5.945   4.981   2.112
10174SOL    HW131421   5.963   4.979   2.013
10174SOL    HW231422   5.994   4.906   2.157
10175SOL     OW31423   6.696   2.703   4.237
10175SOL    HW131424   6.702   2.617   4.288
10175SOL    HW231425   6.617   2.700   4.176
10176SOL     OW31426   1.179   3.277   5.848
10176SOL    HW131427   1.132   3.190   5.863
10176SOL    HW231428   1.239   3.296   5.926
10177SOL     OW31429   2.931   0.327   0.077
10177SOL    HW131430   2.960   0.371   0.162
10177SOL    HW231431   2.965   0.234   0.074
10178SOL     OW31432   6.605   3.204   4.742
10178SOL    HW131433   6.572   3.238   4.831
10178SOL    HW231434   6.539   3.230   4.671
10179SOL     OW31435   0.758   1.727   5.890
10179SOL    HW131436   0.813   1.760   5.966
10179SOL    HW231437   0.816   1.676   5.827
10180SOL     OW31438   3.224   5.174   6.056
10180SOL    HW131439   3.178   5.085   6.057
10180SOL    HW231440   3.202   5.222   5.971
10181SOL     OW31441   5.124   3.670   2.244
10181SOL    HW131442   5.053   3.730   2.207
10181SOL    HW231443   5.123   3.583   2.194
10182SOL     OW31444   5.845   1.640   1.770
10182SOL    HW131445   5.803   1.730   1.757
10182SOL    HW231446   5.882   1.634   1.862
10183SOL     OW31447   1.067   2.128   6.386
10183SOL    HW131448   0.998   2.118   6.314
10183SOL    HW231449   1.062   2.220   6.424
10184SOL     OW31450   5.054   1.922   5.996
10184SOL    HW131451   4.986   1.876   6.054
10184SOL    HW231452   5.083   2.007   6.040
10185SOL     OW31453   4.969   6.223   0.721
10185SOL    HW131454   4.998   6.140   0.673
10185SOL    HW231455   4.912   6.278   0.660
10186SOL     OW31456   5.997   3.366   3.593
10186SOL    HW131457   5.937   3.422   3.651
10186SOL    HW231458   6.045   3.300   3.650
10187SOL     OW31459   1.055   2.030   1.967
10187SOL    HW131460   1.131   1.994   2.022
10187SOL    HW231461   0.991   1.955   1.947
10188SOL     OW31462   3.805   6.032   6.825
10188SOL    HW131463   3.874   5.959   6.828
10188SOL    HW231464   3.720   5.998   6.865
10189SOL     OW31465   2.464   0.358   5.597
10189SOL    HW131466   2.446   0.318   5.507
10189SOL    HW231467   2.535   0.428   5.588
10190SOL     OW31468   5.293   2.696   1.239
10190SOL    HW131469   5.377   2.643   1.230
10190SOL    HW231470   5.307   2.769   1.306
10191SOL     OW31471   4.729   4.312   0.109
10191SOL    HW131472   4.735   4.366   0.025
10191SOL    HW231473   4.665   4.236   0.095
10192SOL     OW31474   4.420   0.932   4.758
10192SOL    HW131475   4.348   0.972   4.815
10192SOL    HW231476   4.502   0.917   4.814
10193SOL     OW31477   4.366   4.001   1.682
10193SOL    HW131478   4.413   3.990   1.594
10193SOL    HW231479   4.394   4.086   1.725
10194SOL     OW31480   5.911   5.039   5.012
10194SOL    HW131481   5.979   5.039   5.085
10194SOL    HW231482   5.880   5.132   4.995
10195SOL     OW31483   5.809   4.479   1.328
10195SOL    HW131484   5.807   4.381   1.348
10195SOL    HW231485   5.882   4.498   1.262
10196SOL     OW31486   5.596   1.496   4.703
10196SOL    HW131487   5.514   1.482   4.757
10196SOL    HW231488   5.676   1.466   4.755
10197SOL     OW31489   7.018   1.846   4.851
10197SOL    HW131490   0.083   1.901   4.856
10197SOL    HW231491   0.020   1.755   4.815
10198SOL     OW31492   4.006   0.668   2.382
10198SOL    HW131493   4.076   0.738   2.393
10198SOL    HW231494   4.041   0.595   2.323
10199SOL     OW31495   2.115   2.880   5.940
10199SOL    HW131496   2.017   2.860   5.941
10199SOL    HW231497   2.157   2.847   6.025
10200SOL     OW31498   4.992   2.252   1.177
10200SOL    HW131499   5.076   2.294   1.143
10200SOL    HW231500   4.918   2.320   1.175
10201SOL     OW31501   0.708   4.690   0.830
10201SOL    HW131502   0.627   4.647   0.872
10201SOL    HW231503   0.783   4.691   0.896
10202SOL     OW31504   4.183   2.256   5.941
10202SOL    HW131505   4.171   2.169   5.989
10202SOL    HW231506   4.111   2.267   5.872
10203SOL     OW31507   5.300   2.583   4.196
10203SOL    HW131508   5.230   2.554   4.131
10203SOL    HW231509   5.262   2.586   4.288
10204SOL     OW31510   5.230   6.530   6.898
10204SOL    HW131511   5.295   6.538   6.822
10204SOL    HW231512   5.241   6.607   6.960
10205SOL     OW31513   0.613   1.697   0.652
10205SOL    HW131514   0.580   1.765   0.587
10205SOL    HW231515   0.607   1.606   0.612
10206SOL     OW31516   0.888   1.152   5.952
10206SOL    HW131517   0.906   1.193   6.041
10206SOL    HW231518   0.950   1.190   5.884
10207SOL     OW31519   1.248   1.549   6.388
10207SOL    HW131520   1.291   1.464   6.418
10207SOL    HW231521   1.307   1.594   6.320
10208SOL     OW31522   5.542   5.132   4.332
10208SOL    HW131523   5.636   5.110   4.357
10208SOL    HW231524   5.512   5.069   4.260
10209SOL     OW31525   6.953   0.378   6.067
10209SOL    HW131526   0.028   0.351   6.046
10209SOL    HW231527   6.946   0.478   6.067
10210SOL     OW31528   4.092   6.652   1.142
10210SOL    HW131529   4.187   6.675   1.124
10210SOL    HW231530   4.065   6.688   1.232
10211SOL     OW31531   3.429   6.472   4.745
10211SOL    HW131532   3.428   6.527   4.829
10211SOL    HW231533   3.510   6.494   4.691
10212SOL     OW31534   1.092   6.983   5.310
10212SOL    HW131535   1.075   6.902   5.366
10212SOL    HW231536   1.158   6.961   5.238
10213SOL     OW31537   5.240   2.688   0.981
10213SOL    HW131538   5.173   2.618   0.958
10213SOL    HW231539   5.269   2.676   1.076
10214SOL     OW31540   1.376   1.737   1.521
10214SOL    HW131541   1.369   1.715   1.424
10214SOL    HW231542   1.311   1.680   1.572
10215SOL     OW31543   4.050   3.647   3.016
10215SOL    HW131544   4.096   3.559   3.028
10215SOL    HW231545   3.951   3.634   3.027
10216SOL     OW31546   6.014   0.348   1.810
10216SOL    HW131547   5.986   0.319   1.902
10216SOL    HW231548   6.003   0.448   1.802
10217SOL     OW31549   2.864   0.996   3.637
10217SOL    HW131550   2.781   1.003   3.693
10217SOL    HW231551   2.935   1.054   3.676
10218SOL     OW31552   0.952   2.722   1.460
10218SOL    HW131553   0.903   2.742   1.375
10218SOL    HW231554   1.043   2.763   1.456
10219SOL     OW31555   0.435   1.255   1.939
10219SOL    HW131556   0.442   1.351   1.969
10219SOL    HW231557   0.357   1.246   1.878
10220SOL     OW31558   3.707   3.107   0.988
10220SOL    HW131559   3.696   3.032   1.053
10220SOL    HW231560   3.631   3.107   0.923
10221SOL     OW31561   0.583   5.838   3.289
10221SOL    HW131562   0.630   5.866   3.206
10221SOL    HW231563   0.485   5.858   3.280
10222SOL     OW31564   2.952   3.213   4.519
10222SOL    HW131565   2.880   3.144   4.508
10222SOL    HW231566   2.943   3.281   4.446
10223SOL     OW31567   0.861   5.490   1.065
10223SOL    HW131568   0.884   5.407   1.115
10223SOL    HW231569   0.895   5.570   1.115
10224SOL     OW31570   6.125   3.721   3.574
10224SOL    HW131571   6.196   3.671   3.524
10224SOL    HW231572   6.111   3.678   3.663
10225SOL     OW31573   1.247   4.048   5.686
10225SOL    HW131574   1.285   4.043   5.779
10225SOL    HW231575   1.170   3.984   5.678
10226SOL     OW31576   3.797   2.124   0.068
10226SOL    HW131577   3.881   2.168   0.034
10226SOL    HW231578   3.717   2.170   0.030
10227SOL     OW31579   5.491   3.936   0.865
10227SOL    HW131580   5.529   3.866   0.805
10227SOL    HW231581   5.541   4.022   0.851
10228SOL     OW31582   5.644   0.923   0.347
10228SOL    HW131583   5.669   0.836   0.390
10228SOL    HW231584   5.547   0.941   0.363
10229SOL     OW31585   0.385   3.299   5.252
10229SOL    HW131586   0.312   3.299   5.184
10229SOL    HW231587   0.440   3.382   5.241
10230SOL     OW31588   6.817   5.630   2.540
10230SOL    HW131589   6.854   5.567   2.608
10230SOL    HW231590   6.782   5.712   2.586
10231SOL     OW31591   1.641   6.452   3.285
10231SOL    HW131592   1.715   6.385   3.282
10231SOL    HW231593   1.678   6.543   3.300
10232SOL     OW31594   3.598   0.005   3.119
10232SOL    HW131595   3.647   6.968   3.185
10232SOL    HW231596   3.541   0.072   3.166
10233SOL     OW31597   3.879   4.245   6.280
10233SOL    HW131598   3.875   4.293   6.192
10233SOL    HW231599   3.792   4.198   6.296
10234SOL     OW31600   6.376   0.643   1.201
10234SOL    HW131601   6.405   0.611   1.291
10234SOL    HW231602   6.284   0.681   1.207
10235SOL     OW31603   1.143   1.007   3.329
10235SOL    HW131604   1.114   1.004   3.424
10235SOL    HW231605   1.238   1.040   3.324
10236SOL     OW31606   2.518   6.638   0.100
10236SOL    HW131607   2.437   6.590   0.133
10236SOL    HW231608   2.595   6.575   0.094
10237SOL     OW31609   0.366   3.158   6.658
10237SOL    HW131610   0.414   3.217   6.723
10237SOL    HW231611   0.293   3.108   6.706
10238SOL     OW31612   4.041   5.087   1.010
10238SOL    HW131613   4.062   4.991   1.029
10238SOL    HW231614   4.118   5.129   0.962
10239SOL     OW31615   1.747   2.911   4.711
10239SOL    HW131616   1.767   2.926   4.614
10239SOL    HW231617   1.791   2.982   4.766
10240SOL     OW31618   2.318   6.901   1.530
10240SOL    HW131619   2.268   6.987   1.541
10240SOL    HW231620   2.276   6.848   1.457
10241SOL     OW31621   4.620   1.959   1.943
10241SOL    HW131622   4.646   1.972   2.039
10241SOL    HW231623   4.526   1.988   1.930
10242SOL     OW31624   0.294   2.430   0.743
10242SOL    HW131625   0.307   2.410   0.840
10242SOL    HW231626   0.291   2.344   0.692
10243SOL     OW31627   2.496   4.419   0.770
10243SOL    HW131628   2.461   4.372   0.689
10243SOL    HW231629   2.585   4.460   0.749
10244SOL     OW31630   2.302   4.115   1.541
10244SOL    HW131631   2.211   4.095   1.506
10244SOL    HW231632   2.342   4.032   1.579
10245SOL     OW31633   3.331   4.157   0.403
10245SOL    HW131634   3.286   4.105   0.475
10245SOL    HW231635   3.370   4.095   0.335
10246SOL     OW31636   3.566   2.961   4.357
10246SOL    HW131637   3.552   2.945   4.454
10246SOL    HW231638   3.478   2.957   4.310
10247SOL     OW31639   1.025   3.850   4.640
10247SOL    HW131640   1.080   3.916   4.693
10247SOL    HW231641   1.072   3.829   4.554
10248SOL     OW31642   1.321   0.437   3.613
10248SOL    HW131643   1.376   0.420   3.532
10248SOL    HW231644   1.244   0.373   3.616
10249SOL     OW31645   1.920   4.757   6.935
10249SOL    HW131646   1.857   4.714   7.000
10249SOL    HW231647   1.997   4.696   6.918
10250SOL     OW31648   5.416   2.672   6.941
10250SOL    HW131649   5.425   2.737   6.866
10250SOL    HW231650   5.443   2.716   0.007
10251SOL     OW31651   1.602   0.380   3.857
10251SOL    HW131652   1.540   0.303   3.847
10251SOL    HW231653   1.552   0.459   3.892
10252SOL     OW31654   4.512   4.113   5.807
10252SOL    HW131655   4.419   4.112   5.843
10252SOL    HW231656   4.577   4.096   5.880
10253SOL     OW31657   4.021   6.655   6.833
10253SOL    HW131658   4.006   6.641   6.931
10253SOL    HW231659   3.933   6.656   6.785
10254SOL     OW31660   5.429   1.930   5.040
10254SOL    HW131661   5.492   1.921   4.963
10254SOL    HW231662   5.478   1.968   5.118
10255SOL     OW31663   3.117   5.828   1.340
10255SOL    HW131664   3.022   5.857   1.330
10255SOL    HW231665   3.167   5.846   1.255
10256SOL     OW31666   5.314   1.003   1.651
10256SOL    HW131667   5.323   0.966   1.559
10256SOL    HW231668   5.396   1.056   1.673
10257SOL     OW31669   2.741   5.085   2.982
10257SOL    HW131670   2.661   5.048   3.028
10257SOL    HW231671   2.804   5.011   2.958
10258SOL     OW31672   2.750   2.001   2.540
10258SOL    HW131673   2.828   1.946   2.511
10258SOL    HW231674   2.762   2.095   2.508
10259SOL     OW31675   0.861   4.084   4.290
10259SOL    HW131676   0.858   4.074   4.389
10259SOL    HW231677   0.932   4.025   4.252
10260SOL     OW31678   1.522   1.090   3.745
10260SOL    HW131679   1.468   1.173   3.733
10260SOL    HW231680   1.619   1.111   3.738
10261SOL     OW31681   0.345   3.747   0.422
10261SOL    HW131682   0.353   3.673   0.489
10261SOL    HW231683   0.434   3.761   0.377
10262SOL     OW31684   3.711   0.936   6.692
10262SOL    HW131685   3.805   0.907   6.677
10262SOL    HW231686   3.658   0.921   6.608
10263SOL     OW31687   6.048   0.961   1.065
10263SOL    HW131688   5.972   0.996   1.010
10263SOL    HW231689   6.045   0.861   1.066
10264SOL     OW31690   6.248   4.986   6.832
10264SOL    HW131691   6.263   5.019   6.739
10264SOL    HW231692   6.152   4.957   6.843
10265SOL     OW31693   2.390   2.989   0.213
10265SOL    HW131694   2.429   2.924   0.278
10265SOL    HW231695   2.419   2.965   0.120
10266SOL     OW31696   3.281   2.930   2.837
10266SOL    HW131697   3.352   2.888   2.780
10266SOL    HW231698   3.309   2.928   2.932
10267SOL     OW31699   5.577   0.453   0.479
10267SOL    HW131700   5.496   0.398   0.500
10267SOL    HW231701   5.628   0.470   0.563
10268SOL     OW31702   4.950   0.407   1.518
10268SOL    HW131703   4.906   0.493   1.542
10268SOL    HW231704   4.931   0.385   1.422
10269SOL     OW31705   1.878   2.091   6.460
10269SOL    HW131706   1.885   2.080   6.361
10269SOL    HW231707   1.799   2.041   6.494
10270SOL     OW31708   3.534   6.099   2.385
10270SOL    HW131709   3.563   6.027   2.322
10270SOL    HW231710   3.602   6.172   2.386
10271SOL     OW31711   2.771   2.150   0.633
10271SOL    HW131712   2.688   2.164   0.688
10271SOL    HW231713   2.772   2.215   0.557
10272SOL     OW31714   6.782   0.829   4.395
10272SOL    HW131715   6.722   0.906   4.417
10272SOL    HW231716   6.866   0.836   4.449
10273SOL     OW31717   2.756   5.387   4.103
10273SOL    HW131718   2.666   5.430   4.104
10273SOL    HW231719   2.750   5.294   4.137
10274SOL     OW31720   0.148   4.776   5.638
10274SOL    HW131721   0.058   4.813   5.613
10274SOL    HW231722   0.200   4.755   5.556
10275SOL     OW31723   0.191   0.678   3.080
10275SOL    HW131724   0.203   0.657   2.983
10275SOL    HW231725   0.280   0.679   3.126
10276SOL     OW31726   4.626   5.733   5.409
10276SOL    HW131727   4.526   5.724   5.402
10276SOL    HW231728   4.662   5.663   5.469
10277SOL     OW31729   1.365   6.907   3.942
10277SOL    HW131730   1.315   6.961   4.010
10277SOL    HW231731   1.416   6.834   3.988
10278SOL     OW31732   0.335   0.252   4.976
10278SOL    HW131733   0.387   0.167   4.982
10278SOL    HW231734   0.386   0.317   4.919
10279SOL     OW31735   2.519   5.533   4.552
10279SOL    HW131736   2.441   5.511   4.611
10279SOL    HW231737   2.485   5.566   4.464
10280SOL     OW31738   5.565   3.791   1.102
10280SOL    HW131739   5.506   3.711   1.096
10280SOL    HW231740   5.542   3.855   1.029
10281SOL     OW31741   6.626   2.190   3.415
10281SOL    HW131742   6.648   2.141   3.331
10281SOL    HW231743   6.611   2.125   3.489
10282SOL     OW31744   4.894   3.206   2.812
10282SOL    HW131745   4.892   3.107   2.825
10282SOL    HW231746   4.901   3.227   2.715
10283SOL     OW31747   0.133   3.786   1.127
10283SOL    HW131748   0.119   3.834   1.213
10283SOL    HW231749   0.161   3.852   1.057
10284SOL     OW31750   0.359   2.093   3.834
10284SOL    HW131751   0.339   2.015   3.894
10284SOL    HW231752   0.420   2.156   3.882
10285SOL     OW31753   4.273   6.133   3.649
10285SOL    HW131754   4.205   6.199   3.618
10285SOL    HW231755   4.361   6.152   3.606
10286SOL     OW31756   3.386   1.386   4.106
10286SOL    HW131757   3.471   1.416   4.062
10286SOL    HW231758   3.310   1.438   4.067
10287SOL     OW31759   2.038   6.409   1.940
10287SOL    HW131760   2.115   6.468   1.964
10287SOL    HW231761   2.033   6.400   1.841
10288SOL     OW31762   3.257   0.024   4.958
10288SOL    HW131763   3.241   6.949   4.927
10288SOL    HW231764   3.352   0.048   4.942
10289SOL     OW31765   3.131   6.329   0.398
10289SOL    HW131766   3.171   6.240   0.416
10289SOL    HW231767   3.131   6.384   0.481
10290SOL     OW31768   3.024   3.127   2.653
10290SOL    HW131769   3.017   3.030   2.632
10290SOL    HW231770   3.020   3.180   2.569
10291SOL     OW31771   3.482   0.623   2.849
10291SOL    HW131772   3.558   0.565   2.818
10291SOL    HW231773   3.430   0.575   2.920
10292SOL     OW31774   0.218   0.821   6.362
10292SOL    HW131775   0.137   0.880   6.359
10292SOL    HW231776   0.291   0.868   6.412
10293SOL     OW31777   0.907   3.681   3.788
10293SOL    HW131778   0.858   3.608   3.740
10293SOL    HW231779   0.880   3.682   3.884
10294SOL     OW31780   3.513   2.117   2.623
10294SOL    HW131781   3.444   2.190   2.624
10294SOL    HW231782   3.496   2.054   2.699
10295SOL     OW31783   1.247   2.476   6.299
10295SOL    HW131784   1.266   2.414   6.375
10295SOL    HW231785   1.193   2.554   6.331
10296SOL     OW31786   5.592   0.911   5.748
10296SOL    HW131787   5.593   0.815   5.775
10296SOL    HW231788   5.663   0.926   5.678
10297SOL     OW31789   3.034   2.076   6.517
10297SOL    HW131790   3.103   2.032   6.575
10297SOL    HW231791   2.949   2.087   6.569
10298SOL     OW31792   1.197   3.985   2.105
10298SOL    HW131793   1.101   3.958   2.107
10298SOL    HW231794   1.254   3.903   2.092
10299SOL     OW31795   4.783   6.786   2.525
10299SOL    HW131796   4.816   6.736   2.605
10299SOL    HW231797   4.767   6.881   2.549
10300SOL     OW31798   1.225   4.244   1.978
10300SOL    HW131799   1.198   4.155   2.015
10300SOL    HW231800   1.323   4.244   1.958
10301SOL     OW31801   3.942   1.484   5.593
10301SOL    HW131802   3.962   1.399   5.544
10301SOL    HW231803   3.924   1.557   5.527
10302SOL     OW31804   2.950   6.303   4.275
10302SOL    HW131805   2.938   6.249   4.191
10302SOL    HW231806   2.861   6.337   4.306
10303SOL     OW31807   1.307   6.393   4.123
10303SOL    HW131808   1.318   6.381   4.024
10303SOL    HW231809   1.212   6.379   4.148
10304SOL     OW31810   6.367   6.908   0.237
10304SOL    HW131811   6.389   6.912   0.140
10304SOL    HW231812   6.442   6.865   0.287
10305SOL     OW31813   3.075   3.850   5.803
10305SOL    HW131814   3.086   3.921   5.734
10305SOL    HW231815   2.995   3.795   5.781
10306SOL     OW31816   5.670   0.010   0.800
10306SOL    HW131817   5.719   7.005   0.884
10306SOL    HW231818   5.686   6.958   0.731
10307SOL     OW31819   2.918   1.157   4.732
10307SOL    HW131820   2.862   1.220   4.678
10307SOL    HW231821   2.990   1.208   4.779
10308SOL     OW31822   2.271   4.697   2.512
10308SOL    HW131823   2.324   4.666   2.591
10308SOL    HW231824   2.232   4.617   2.465
10309SOL     OW31825   5.611   0.471   5.573
10309SOL    HW131826   5.562   0.472   5.486
10309SOL    HW231827   5.562   0.527   5.640
10310SOL     OW31828   2.490   3.280   6.818
10310SOL    HW131829   2.403   3.315   6.851
10310SOL    HW231830   2.474   3.215   6.743
10311SOL     OW31831   5.629   5.608   0.047
10311SOL    HW131832   5.571   5.688   0.031
10311SOL    HW231833   5.641   5.558   6.980
10312SOL     OW31834   4.283   7.019   1.746
10312SOL    HW131835   4.315   0.091   1.770
10312SOL    HW231836   4.186   7.011   1.769
10313SOL     OW31837   4.427   5.524   2.935
10313SOL    HW131838   4.405   5.619   2.913
10313SOL    HW231839   4.357   5.486   2.994
10314SOL     OW31840   0.773   0.562   6.968
10314SOL    HW131841   0.722   0.538   6.885
10314SOL    HW231842   0.743   0.653   7.000
10315SOL     OW31843   5.137   6.544   3.363
10315SOL    HW131844   5.178   6.609   3.428
10315SOL    HW231845   5.062   6.589   3.314
10316SOL     OW31846   6.695   1.634   6.036
10316SOL    HW131847   6.793   1.650   6.032
10316SOL    HW231848   6.651   1.673   5.956
10317SOL     OW31849   3.388   5.964   5.912
10317SOL    HW131850   3.453   5.918   5.973
10317SOL    HW231851   3.374   5.908   5.830
10318SOL     OW31852   5.329   0.017   6.856
10318SOL    HW131853   5.265   0.006   6.932
10318SOL    HW231854   5.285   0.069   6.782
10319SOL     OW31855   0.270   4.737   5.407
10319SOL    HW131856   0.325   4.669   5.454
10319SOL    HW231857   0.269   4.718   5.309
10320SOL     OW31858   6.985   0.143   3.694
10320SOL    HW131859   6.934   0.190   3.766
10320SOL    HW231860   6.966   0.187   3.606
10321SOL     OW31861   6.131   2.142   2.163
10321SOL    HW131862   6.059   2.121   2.097
10321SOL    HW231863   6.103   2.221   2.219
10322SOL     OW31864   4.281   4.838   4.678
10322SOL    HW131865   4.367   4.789   4.689
10322SOL    HW231866   4.217   4.809   4.749
10323SOL     OW31867   6.317   4.571   5.573
10323SOL    HW131868   6.249   4.624   5.624
10323SOL    HW231869   6.372   4.633   5.518
10324SOL     OW31870   2.876   3.577   2.523
10324SOL    HW131871   2.894   3.507   2.592
10324SOL    HW231872   2.882   3.536   2.432
10325SOL     OW31873   0.168   5.485   2.591
10325SOL    HW131874   0.251   5.444   2.630
10325SOL    HW231875   0.095   5.417   2.590
10326SOL     OW31876   5.461   3.852   6.828
10326SOL    HW131877   5.434   3.787   6.757
10326SOL    HW231878   5.559   3.847   6.843
10327SOL     OW31879   2.369   3.263   1.257
10327SOL    HW131880   2.365   3.299   1.164
10327SOL    HW231881   2.455   3.213   1.270
10328SOL     OW31882   6.629   3.024   2.338
10328SOL    HW131883   6.575   3.048   2.419
10328SOL    HW231884   6.577   2.960   2.281
10329SOL     OW31885   3.205   0.481   2.693
10329SOL    HW131886   3.285   0.523   2.651
10329SOL    HW231887   3.122   0.515   2.648
10330SOL     OW31888   4.677   0.675   1.012
10330SOL    HW131889   4.614   0.735   0.963
10330SOL    HW231890   4.702   0.597   0.954
10331SOL     OW31891   6.474   6.189   6.511
10331SOL    HW131892   6.538   6.115   6.530
10331SOL    HW231893   6.467   6.204   6.413
10332SOL     OW31894   1.005   0.726   6.500
10332SOL    HW131895   1.016   0.781   6.417
10332SOL    HW231896   1.006   0.786   6.580
10333SOL     OW31897   0.532   5.664   4.544
10333SOL    HW131898   0.619   5.620   4.518
10333SOL    HW231899   0.478   5.680   4.461
10334SOL     OW31900   2.962   0.006   4.110
10334SOL    HW131901   2.933   6.996   4.201
10334SOL    HW231902   3.061   0.015   4.108
10335SOL     OW31903   0.722   4.652   6.643
10335SOL    HW131904   0.676   4.567   6.670
10335SOL    HW231905   0.817   4.649   6.672
10336SOL     OW31906   6.628   6.893   2.127
10336SOL    HW131907   6.659   6.894   2.032
10336SOL    HW231908   6.685   6.829   2.180
10337SOL     OW31909   6.680   5.582   0.213
10337SOL    HW131910   6.622   5.502   0.198
10337SOL    HW231911   6.775   5.554   0.223
10338SOL     OW31912   1.862   6.614   2.105
10338SOL    HW131913   1.951   6.587   2.068
10338SOL    HW231914   1.835   6.701   2.065
10339SOL     OW31915   6.079   3.806   6.366
10339SOL    HW131916   6.105   3.790   6.270
10339SOL    HW231917   6.008   3.877   6.369
10340SOL     OW31918   1.835   2.616   6.398
10340SOL    HW131919   1.870   2.670   6.322
10340SOL    HW231920   1.735   2.619   6.397
10341SOL     OW31921   2.108   3.481   2.261
10341SOL    HW131922   2.015   3.514   2.274
10341SOL    HW231923   2.131   3.481   2.164
10342SOL     OW31924   1.771   0.722   3.612
10342SOL    HW131925   1.780   0.625   3.636
10342SOL    HW231926   1.689   0.759   3.655
10343SOL     OW31927   2.440   5.220   0.622
10343SOL    HW131928   2.438   5.175   0.533
10343SOL    HW231929   2.416   5.154   0.694
10344SOL     OW31930   3.447   3.847   6.690
10344SOL    HW131931   3.476   3.876   6.781
10344SOL    HW231932   3.512   3.880   6.622
10345SOL     OW31933   1.403   3.112   5.538
10345SOL    HW131934   1.353   3.135   5.454
10345SOL    HW231935   1.488   3.065   5.514
10346SOL     OW31936   0.435   5.579   1.522
10346SOL    HW131937   0.423   5.480   1.516
10346SOL    HW231938   0.524   5.600   1.561
10347SOL     OW31939   4.374   1.125   3.406
10347SOL    HW131940   4.468   1.123   3.438
10347SOL    HW231941   4.312   1.130   3.485
10348SOL     OW31942   6.259   2.915   0.433
10348SOL    HW131943   6.358   2.920   0.442
10348SOL    HW231944   6.217   2.922   0.523
10349SOL     OW31945   0.895   0.143   6.706
10349SOL    HW131946   0.892   0.243   6.707
10349SOL    HW231947   0.937   0.111   6.621
10350SOL     OW31948   2.799   6.089   5.129
10350SOL    HW131949   2.813   6.185   5.102
10350SOL    HW231950   2.849   6.071   5.213
10351SOL     OW31951   4.904   5.618   5.586
10351SOL    HW131952   4.824   5.562   5.567
10351SOL    HW231953   4.886   5.712   5.559
10352SOL     OW31954   3.441   1.029   6.176
10352SOL    HW131955   3.387   1.048   6.094
10352SOL    HW231956   3.430   0.934   6.202
10353SOL     OW31957   6.560   2.958   4.646
10353SOL    HW131958   6.545   3.043   4.697
10353SOL    HW231959   6.657   2.933   4.653
10354SOL     OW31960   5.214   1.089   1.259
10354SOL    HW131961   5.304   1.059   1.290
10354SOL    HW231962   5.222   1.180   1.217
10355SOL     OW31963   2.545   6.535   2.439
10355SOL    HW131964   2.446   6.527   2.429
10355SOL    HW231965   2.585   6.444   2.449
10356SOL     OW31966   6.591   3.868   5.668
10356SOL    HW131967   6.669   3.828   5.716
10356SOL    HW231968   6.612   3.875   5.570
10357SOL     OW31969   2.387   2.132   6.432
10357SOL    HW131970   2.373   2.231   6.439
10357SOL    HW231971   2.315   2.092   6.376
10358SOL     OW31972   0.142   2.889   2.767
10358SOL    HW131973   0.043   2.886   2.753
10358SOL    HW231974   0.185   2.937   2.691
10359SOL     OW31975   0.269   1.342   1.536
10359SOL    HW131976   0.359   1.320   1.574
10359SOL    HW231977   0.274   1.430   1.488
10360SOL     OW31978   5.038   5.662   3.082
10360SOL    HW131979   5.078   5.597   3.017
10360SOL    HW231980   4.982   5.728   3.033
10361SOL     OW31981   3.131   5.872   2.514
10361SOL    HW131982   3.124   5.796   2.449
10361SOL    HW231983   3.147   5.834   2.606
10362SOL     OW31984   2.002   4.783   4.949
10362SOL    HW131985   2.086   4.813   4.994
10362SOL    HW231986   1.987   4.686   4.968
10363SOL     OW31987   5.355   0.324   2.711
10363SOL    HW131988   5.285   0.377   2.664
10363SOL    HW231989   5.320   0.232   2.731
10364SOL     OW31990   2.484   3.982   1.301
10364SOL    HW131991   2.450   3.951   1.390
10364SOL    HW231992   2.414   4.039   1.257
10365SOL     OW31993   4.502   5.360   0.204
10365SOL    HW131994   4.549   5.304   0.135
10365SOL    HW231995   4.405   5.366   0.181
10366SOL     OW31996   2.447   6.615   3.844
10366SOL    HW131997   2.475   6.601   3.939
10366SOL    HW231998   2.524   6.650   3.791
10367SOL     OW31999   6.310   2.235   2.874
10367SOL    HW132000   6.216   2.224   2.843
10367SOL    HW232001   6.315   2.221   2.973
10368SOL     OW32002   2.119   1.152   2.286
10368SOL    HW132003   2.191   1.204   2.240
10368SOL    HW232004   2.152   1.123   2.376
10369SOL     OW32005   3.772   1.721   0.900
10369SOL    HW132006   3.776   1.800   0.962
10369SOL    HW232007   3.710   1.652   0.938
10370SOL     OW32008   3.959   0.938   5.227
10370SOL    HW132009   4.025   0.864   5.213
10370SOL    HW232010   3.884   0.928   5.161
10371SOL     OW32011   4.300   6.188   5.156
10371SOL    HW132012   4.249   6.274   5.157
10371SOL    HW232013   4.308   6.155   5.062
10372SOL     OW32014   2.523   0.918   4.395
10372SOL    HW132015   2.576   1.003   4.398
10372SOL    HW232016   2.576   0.844   4.435
10373SOL     OW32017   1.217   6.680   4.786
10373SOL    HW132018   1.215   6.625   4.870
10373SOL    HW232019   1.129   6.726   4.775
10374SOL     OW32020   3.462   1.851   3.190
10374SOL    HW132021   3.368   1.841   3.222
10374SOL    HW232022   3.506   1.925   3.241
10375SOL     OW32023   5.608   2.211   1.196
10375SOL    HW132024   5.611   2.219   1.096
10375SOL    HW232025   5.607   2.114   1.221
10376SOL     OW32026   0.280   1.322   3.574
10376SOL    HW132027   0.343   1.396   3.595
10376SOL    HW232028   0.259   1.272   3.658
10377SOL     OW32029   0.407   0.494   4.115
10377SOL    HW132030   0.435   0.403   4.145
10377SOL    HW232031   0.451   0.517   4.029
10378SOL     OW32032   6.667   0.364   6.397
10378SOL    HW132033   6.647   0.392   6.303
10378SOL    HW232034   6.582   0.338   6.443
10379SOL     OW32035   5.262   0.430   4.532
10379SOL    HW132036   5.356   0.426   4.499
10379SOL    HW232037   5.238   0.526   4.551
10380SOL     OW32038   5.829   0.117   2.284
10380SOL    HW132039   5.746   0.158   2.247
10380SOL    HW232040   5.809   0.078   2.374
10381SOL     OW32041   4.825   5.419   5.881
10381SOL    HW132042   4.771   5.500   5.902
10381SOL    HW232043   4.768   5.338   5.891
10382SOL     OW32044   2.361   5.577   6.326
10382SOL    HW132045   2.330   5.482   6.317
10382SOL    HW232046   2.308   5.623   6.397
10383SOL     OW32047   0.956   2.484   1.309
10383SOL    HW132048   0.969   2.564   1.367
10383SOL    HW232049   0.858   2.469   1.297
10384SOL     OW32050   6.599   6.537   0.345
10384SOL    HW132051   6.550   6.479   0.410
10384SOL    HW232052   6.696   6.541   0.371
10385SOL     OW32053   6.168   1.034   6.140
10385SOL    HW132054   6.216   1.106   6.190
10385SOL    HW232055   6.102   1.075   6.077
10386SOL     OW32056   6.385   2.702   5.113
10386SOL    HW132057   6.391   2.721   5.015
10386SOL    HW232058   6.431   2.615   5.132
10387SOL     OW32059   1.753   2.860   3.045
10387SOL    HW132060   1.756   2.824   3.139
10387SOL    HW232061   1.737   2.785   2.981
10388SOL     OW32062   1.574   5.027   3.208
10388SOL    HW132063   1.616   5.008   3.297
10388SOL    HW232064   1.645   5.048   3.141
10389SOL     OW32065   1.043   4.783   3.749
10389SOL    HW132066   1.091   4.777   3.837
10389SOL    HW232067   1.079   4.714   3.686
10390SOL     OW32068   1.039   3.255   3.269
10390SOL    HW132069   1.048   3.287   3.174
10390SOL    HW232070   1.130   3.242   3.308
10391SOL     OW32071   2.343   6.492   6.664
10391SOL    HW132072   2.361   6.553   6.742
10391SOL    HW232073   2.393   6.525   6.584
10392SOL     OW32074   6.525   5.051   0.558
10392SOL    HW132075   6.606   5.036   0.614
10392SOL    HW232076   6.451   5.086   0.614
10393SOL     OW32077   0.552   1.120   4.051
10393SOL    HW132078   0.511   1.029   4.051
10393SOL    HW232079   0.651   1.113   4.039
10394SOL     OW32080   2.292   6.328   0.188
10394SOL    HW132081   2.243   6.403   0.233
10394SOL    HW232082   2.303   6.349   0.091
10395SOL     OW32083   0.143   0.774   4.669
10395SOL    HW132084   0.164   0.689   4.717
10395SOL    HW232085   0.047   0.798   4.683
10396SOL     OW32086   0.781   7.009   4.870
10396SOL    HW132087   0.822   6.971   4.953
10396SOL    HW232088   0.825   0.077   4.849
10397SOL     OW32089   3.530   1.275   3.468
10397SOL    HW132090   3.585   1.312   3.542
10397SOL    HW232091   3.482   1.193   3.500
10398SOL     OW32092   6.037   2.494   1.938
10398SOL    HW132093   5.941   2.518   1.945
10398SOL    HW232094   6.064   2.491   1.842
10399SOL     OW32095   5.338   2.452   5.025
10399SOL    HW132096   5.286   2.537   5.034
10399SOL    HW232097   5.348   2.429   4.928
10400SOL     OW32098   2.625   5.486   2.322
10400SOL    HW132099   2.580   5.569   2.291
10400SOL    HW232100   2.714   5.510   2.363
10401SOL     OW32101   0.883   6.024   2.045
10401SOL    HW132102   0.853   5.929   2.032
10401SOL    HW232103   0.878   6.048   2.142
10402SOL     OW32104   0.862   3.284   4.838
10402SOL    HW132105   0.809   3.201   4.820
10402SOL    HW232106   0.846   3.350   4.764
10403SOL     OW32107   5.475   1.470   1.825
10403SOL    HW132108   5.502   1.465   1.728
10403SOL    HW232109   5.548   1.433   1.882
10404SOL     OW32110   0.558   6.529   4.008
10404SOL    HW132111   0.527   6.573   4.093
10404SOL    HW232112   0.498   6.554   3.933
10405SOL     OW32113   1.667   6.418   5.970
10405SOL    HW132114   1.593   6.384   5.912
10405SOL    HW232115   1.695   6.347   6.034
10406SOL     OW32116   2.350   4.143   6.008
10406SOL    HW132117   2.431   4.143   6.066
10406SOL    HW232118   2.376   4.118   5.914
10407SOL     OW32119   0.845   2.507   6.944
10407SOL    HW132120   0.812   2.413   6.955
10407SOL    HW232121   0.793   2.568   7.003
10408SOL     OW32122   4.766   5.248   3.258
10408SOL    HW132123   4.863   5.274   3.263
10408SOL    HW232124   4.757   5.167   3.200
10409SOL     OW32125   0.295   4.572   2.370
10409SOL    HW132126   0.211   4.529   2.404
10409SOL    HW232127   0.345   4.507   2.314
10410SOL     OW32128   4.535   0.619   1.220
10410SOL    HW132129   4.559   0.527   1.253
10410SOL    HW232130   4.592   0.641   1.141
10411SOL     OW32131   2.622   4.592   2.930
10411SOL    HW132132   2.558   4.556   2.998
10411SOL    HW232133   2.713   4.598   2.970
10412SOL     OW32134   1.029   2.157   0.310
10412SOL    HW132135   1.068   2.170   0.401
10412SOL    HW232136   1.000   2.062   0.299
10413SOL     OW32137   6.778   2.676   6.806
10413SOL    HW132138   6.865   2.710   6.843
10413SOL    HW232139   6.704   2.701   6.868
10414SOL     OW32140   5.716   6.227   6.073
10414SOL    HW132141   5.816   6.235   6.061
10414SOL    HW232142   5.696   6.190   6.163
10415SOL     OW32143   0.582   6.210   3.946
10415SOL    HW132144   0.556   6.125   3.902
10415SOL    HW232145   0.635   6.266   3.882
10416SOL     OW32146   5.726   1.399   4.983
10416SOL    HW132147   5.794   1.435   5.047
10416SOL    HW232148   5.765   1.323   4.931
10417SOL     OW32149   3.889   4.846   4.169
10417SOL    HW132150   3.936   4.932   4.151
10417SOL    HW232151   3.954   4.779   4.205
10418SOL     OW32152   6.386   3.890   0.037
10418SOL    HW132153   6.464   3.850   7.007
10418SOL    HW232154   6.305   3.888   6.997
10419SOL     OW32155   3.342   1.105   4.577
10419SOL    HW132156   3.424   1.152   4.611
10419SOL    HW232157   3.368   1.014   4.543
10420SOL     OW32158   7.005   3.816   3.431
10420SOL    HW132159   0.032   3.869   3.360
10420SOL    HW232160   0.034   3.828   3.518
10421SOL     OW32161   1.185   4.250   4.339
10421SOL    HW132162   1.112   4.182   4.330
10421SOL    HW232163   1.146   4.341   4.351
10422SOL     OW32164   6.464   3.445   4.862
10422SOL    HW132165   6.431   3.540   4.862
10422SOL    HW232166   6.494   3.420   4.954
10423SOL     OW32167   3.414   4.883   4.074
10423SOL    HW132168   3.512   4.892   4.055
10423SOL    HW232169   3.395   4.912   4.168
10424SOL     OW32170   3.309   1.071   0.384
10424SOL    HW132171   3.306   1.000   0.455
10424SOL    HW232172   3.229   1.130   0.394
10425SOL     OW32173   2.144   1.476   0.753
10425SOL    HW132174   2.189   1.386   0.757
10425SOL    HW232175   2.084   1.487   0.832
10426SOL     OW32176   6.081   1.942   5.994
10426SOL    HW132177   6.062   2.036   6.023
10426SOL    HW232178   6.127   1.944   5.905
10427SOL     OW32179   5.700   6.820   4.050
10427SOL    HW132180   5.636   6.751   4.017
10427SOL    HW232181   5.748   6.786   4.131
10428SOL     OW32182   2.219   0.689   4.122
10428SOL    HW132183   2.281   0.664   4.048
10428SOL    HW232184   2.143   0.742   4.084
10429SOL     OW32185   0.863   2.845   2.169
10429SOL    HW132186   0.885   2.764   2.114
10429SOL    HW232187   0.844   2.818   2.263
10430SOL     OW32188   2.785   0.208   3.396
10430SOL    HW132189   2.811   0.176   3.305
10430SOL    HW232190   2.829   0.151   3.465
10431SOL     OW32191   3.620   0.692   3.331
10431SOL    HW132192   3.654   0.781   3.304
10431SOL    HW232193   3.622   0.630   3.252
10432SOL     OW32194   0.769   5.456   5.842
10432SOL    HW132195   0.775   5.450   5.942
10432SOL    HW232196   0.860   5.473   5.805
10433SOL     OW32197   2.334   0.043   2.740
10433SOL    HW132198   2.401   7.003   2.693
10433SOL    HW232199   2.325   0.014   2.835
10434SOL     OW32200   4.450   6.828   5.630
10434SOL    HW132201   4.392   6.794   5.704
10434SOL    HW232202   4.546   6.809   5.651
10435SOL     OW32203   2.337   1.872   0.060
10435SOL    HW132204   2.343   1.788   0.113
10435SOL    HW232205   2.405   1.938   0.093
10436SOL     OW32206   6.225   3.628   4.889
10436SOL    HW132207   6.197   3.591   4.800
10436SOL    HW232208   6.146   3.631   4.950
10437SOL     OW32209   5.450   6.115   4.693
10437SOL    HW132210   5.371   6.129   4.752
10437SOL    HW232211   5.493   6.027   4.715
10438SOL     OW32212   6.672   6.449   6.610
10438SOL    HW132213   6.665   6.471   6.707
10438SOL    HW232214   6.584   6.415   6.577
10439SOL     OW32215   6.995   6.444   5.126
10439SOL    HW132216   0.039   6.508   5.082
10439SOL    HW232217   6.963   6.376   5.060
10440SOL     OW32218   6.677   2.423   6.858
10440SOL    HW132219   6.578   2.413   6.843
10440SOL    HW232220   6.711   2.501   6.806
10441SOL     OW32221   3.977   1.816   0.730
10441SOL    HW132222   4.022   1.727   0.716
10441SOL    HW232223   3.891   1.802   0.778
10442SOL     OW32224   2.557   1.636   5.922
10442SOL    HW132225   2.594   1.726   5.944
10442SOL    HW232226   2.613   1.565   5.965
10443SOL     OW32227   0.226   1.754   3.135
10443SOL    HW132228   0.286   1.771   3.213
10443SOL    HW232229   0.137   1.796   3.151
10444SOL     OW32230   3.940   5.852   4.260
10444SOL    HW132231   3.868   5.783   4.246
10444SOL    HW232232   3.964   5.892   4.172
10445SOL     OW32233   1.344   4.139   2.969
10445SOL    HW132234   1.367   4.065   3.032
10445SOL    HW232235   1.379   4.117   2.878
10446SOL     OW32236   1.759   4.163   5.619
10446SOL    HW132237   1.693   4.238   5.615
10446SOL    HW232238   1.735   4.094   5.550
10447SOL     OW32239   0.388   2.264   2.901
10447SOL    HW132240   0.348   2.174   2.919
10447SOL    HW232241   0.387   2.282   2.803
10448SOL     OW32242   2.607   5.972   2.926
10448SOL    HW132243   2.648   5.921   2.850
10448SOL    HW232244   2.643   6.065   2.927
10449SOL     OW32245   3.971   5.253   5.083
10449SOL    HW132246   3.949   5.349   5.072
10449SOL    HW232247   4.065   5.244   5.117
10450SOL     OW32248   0.234   0.762   6.076
10450SOL    HW132249   0.245   0.759   6.175
10450SOL    HW232250   0.291   0.691   6.034
10451SOL     OW32251   2.844   0.791   3.092
10451SOL    HW132252   2.839   0.715   3.156
10451SOL    HW232253   2.777   0.779   3.019
10452SOL     OW32254   6.971   3.446   4.468
10452SOL    HW132255   6.988   3.360   4.516
10452SOL    HW232256   6.876   3.451   4.439
10453SOL     OW32257   3.824   5.703   3.542
10453SOL    HW132258   3.854   5.694   3.637
10453SOL    HW232259   3.747   5.641   3.525
10454SOL     OW32260   7.012   0.618   6.351
10454SOL    HW132261   0.069   0.670   6.389
10454SOL    HW232262   6.989   0.653   6.260
10455SOL     OW32263   6.237   6.302   3.627
10455SOL    HW132264   6.337   6.297   3.628
10455SOL    HW232265   6.208   6.388   3.670
10456SOL     OW32266   0.872   5.043   0.084
10456SOL    HW132267   0.847   5.130   0.043
10456SOL    HW232268   0.960   5.012   0.048
10457SOL     OW32269   3.701   2.670   6.467
10457SOL    HW132270   3.647   2.707   6.542
10457SOL    HW232271   3.788   2.635   6.502
10458SOL     OW32272   6.692   5.831   6.358
10458SOL    HW132273   6.598   5.838   6.323
10458SOL    HW232274   6.703   5.894   6.435
10459SOL     OW32275   0.123   5.365   0.125
10459SOL    HW132276   0.200   5.330   0.072
10459SOL    HW232277   0.153   5.381   0.220
10460SOL     OW32278   0.727   2.191   0.589
10460SOL    HW132279   0.651   2.130   0.611
10460SOL    HW232280   0.797   2.140   0.538
10461SOL     OW32281   6.637   5.424   5.543
10461SOL    HW132282   6.713   5.487   5.554
10461SOL    HW232283   6.670   5.338   5.504
10462SOL     OW32284   4.208   1.972   0.880
10462SOL    HW132285   4.212   1.889   0.825
10462SOL    HW232286   4.113   2.005   0.885
10463SOL     OW32287   4.864   2.821   6.230
10463SOL    HW132288   4.841   2.726   6.209
10463SOL    HW232289   4.809   2.882   6.173
10464SOL     OW32290   6.604   4.943   2.266
10464SOL    HW132291   6.533   4.923   2.198
10464SOL    HW232292   6.694   4.927   2.226
10465SOL     OW32293   5.050   4.648   1.967
10465SOL    HW132294   5.149   4.640   1.954
10465SOL    HW232295   5.010   4.557   1.971
10466SOL     OW32296   5.958   4.968   6.893
10466SOL    HW132297   5.968   4.930   6.985
10466SOL    HW232298   5.865   5.002   6.880
10467SOL     OW32299   1.583   2.734   6.787
10467SOL    HW132300   1.547   2.820   6.751
10467SOL    HW232301   1.669   2.751   6.834
10468SOL     OW32302   2.845   5.104   3.752
10468SOL    HW132303   2.851   5.086   3.654
10468SOL    HW232304   2.751   5.091   3.783
10469SOL     OW32305   6.564   1.271   4.497
10469SOL    HW132306   6.638   1.334   4.476
10469SOL    HW232307   6.481   1.299   4.448
10470SOL     OW32308   2.261   2.925   3.613
10470SOL    HW132309   2.310   2.860   3.556
10470SOL    HW232310   2.269   2.898   3.709
10471SOL     OW32311   3.460   6.952   6.971
10471SOL    HW132312   3.371   6.917   6.999
10471SOL    HW232313   3.487   0.008   0.012
10472SOL     OW32314   3.350   5.025   6.664
10472SOL    HW132315   3.303   5.103   6.705
10472SOL    HW232316   3.443   5.019   6.698
10473SOL     OW32317   5.384   5.338   0.018
10473SOL    HW132318   5.368   5.436   0.015
10473SOL    HW232319   5.303   5.292   0.053
10474SOL     OW32320   4.939   1.035   3.800
10474SOL    HW132321   4.906   1.124   3.770
10474SOL    HW232322   5.024   1.013   3.752
10475SOL     OW32323   1.295   0.032   1.467
10475SOL    HW132324   1.220   7.002   1.513
10475SOL    HW232325   1.347   6.988   1.411
10476SOL     OW32326   3.552   5.730   6.684
10476SOL    HW132327   3.618   5.719   6.610
10476SOL    HW232328   3.562   5.654   6.748
10477SOL     OW32329   6.346   5.856   3.547
10477SOL    HW132330   6.390   5.828   3.462
10477SOL    HW232331   6.336   5.776   3.607
10478SOL     OW32332   5.821   0.787   0.157
10478SOL    HW132333   5.914   0.768   0.187
10478SOL    HW232334   5.776   0.846   0.225
10479SOL     OW32335   0.804   2.134   2.097
10479SOL    HW132336   0.899   2.118   2.071
10479SOL    HW232337   0.748   2.143   2.015
10480SOL     OW32338   2.047   0.116   2.639
10480SOL    HW132339   2.094   0.156   2.560
10480SOL    HW232340   2.041   0.184   2.712
10481SOL     OW32341   0.043   1.130   2.651
10481SOL    HW132342   6.995   1.125   2.724
10481SOL    HW232343   0.110   1.201   2.672
10482SOL     OW32344   5.031   4.220   4.213
10482SOL    HW132345   5.087   4.180   4.285
10482SOL    HW232346   5.052   4.177   4.125
10483SOL     OW32347   6.102   6.093   0.396
10483SOL    HW132348   6.062   6.085   0.487
10483SOL    HW232349   6.030   6.090   0.327
10484SOL     OW32350   6.365   0.969   2.200
10484SOL    HW132351   6.352   0.888   2.142
10484SOL    HW232352   6.298   1.038   2.176
10485SOL     OW32353   5.385   3.550   5.457
10485SOL    HW132354   5.333   3.464   5.465
10485SOL    HW232355   5.333   3.616   5.404
10486SOL     OW32356   5.452   2.821   1.780
10486SOL    HW132357   5.516   2.876   1.727
10486SOL    HW232358   5.359   2.857   1.767
10487SOL     OW32359   6.240   6.892   1.869
10487SOL    HW132360   6.218   6.989   1.882
10487SOL    HW232361   6.224   6.867   1.773
10488SOL     OW32362   2.515   2.409   6.213
10488SOL    HW132363   2.530   2.337   6.144
10488SOL    HW232364   2.597   2.418   6.269
10489SOL     OW32365   0.602   5.725   6.223
10489SOL    HW132366   0.652   5.790   6.166
10489SOL    HW232367   0.573   5.647   6.168
10490SOL     OW32368   6.820   1.218   3.490
10490SOL    HW132369   6.838   1.140   3.431
10490SOL    HW232370   6.807   1.300   3.434
10491SOL     OW32371   1.761   4.447   5.852
10491SOL    HW132372   1.736   4.522   5.791
10491SOL    HW232373   1.748   4.360   5.804
10492SOL     OW32374   5.024   3.418   5.042
10492SOL    HW132375   4.981   3.330   5.060
10492SOL    HW232376   4.955   3.483   5.011
10493SOL     OW32377   3.184   1.164   1.404
10493SOL    HW132378   3.250   1.208   1.464
10493SOL    HW232379   3.230   1.093   1.350
10494SOL     OW32380   5.931   1.835   4.578
10494SOL    HW132381   6.019   1.822   4.532
10494SOL    HW232382   5.943   1.824   4.676
10495SOL     OW32383   1.260   6.562   0.476
10495SOL    HW132384   1.314   6.592   0.555
10495SOL    HW232385   1.317   6.507   0.416
10496SOL     OW32386   0.175   0.060   6.202
10496SOL    HW132387   0.231   0.004   6.262
10496SOL    HW232388   0.200   0.156   6.212
10497SOL     OW32389   1.266   1.002   1.069
10497SOL    HW132390   1.168   1.023   1.071
10497SOL    HW232391   1.282   0.924   1.010
10498SOL     OW32392   2.245   6.564   6.208
10498SOL    HW132393   2.294   6.645   6.242
10498SOL    HW232394   2.196   6.588   6.124
10499SOL     OW32395   3.227   6.043   3.400
10499SOL    HW132396   3.181   6.038   3.489
10499SOL    HW232397   3.179   5.985   3.335
10500SOL     OW32398   1.286   1.880   6.041
10500SOL    HW132399   1.241   1.895   5.952
10500SOL    HW232400   1.243   1.938   6.110
10501SOL     OW32401   1.844   3.658   2.683
10501SOL    HW132402   1.896   3.710   2.616
10501SOL    HW232403   1.755   3.632   2.643
10502SOL     OW32404   3.310   6.348   6.455
10502SOL    HW132405   3.406   6.340   6.431
10502SOL    HW232406   3.288   6.281   6.527
10503SOL     OW32407   3.282   2.812   0.251
10503SOL    HW132408   3.357   2.775   0.305
10503SOL    HW232409   3.215   2.855   0.311
10504SOL     OW32410   2.874   3.349   1.019
10504SOL    HW132411   2.783   3.388   1.032
10504SOL    HW232412   2.943   3.421   1.026
10505SOL     OW32413   6.811   5.945   1.689
10505SOL    HW132414   6.788   6.038   1.716
10505SOL    HW232415   6.800   5.936   1.590
10506SOL     OW32416   0.472   3.817   5.787
10506SOL    HW132417   0.416   3.882   5.840
10506SOL    HW232418   0.516   3.753   5.850
10507SOL     OW32419   1.134   0.383   5.987
10507SOL    HW132420   1.100   0.374   6.081
10507SOL    HW232421   1.086   0.317   5.929
10508SOL     OW32422   5.667   4.450   3.149
10508SOL    HW132423   5.616   4.483   3.228
10508SOL    HW232424   5.673   4.524   3.081
10509SOL     OW32425   1.126   6.785   6.599
10509SOL    HW132426   1.222   6.765   6.578
10509SOL    HW232427   1.121   6.847   6.677
10510SOL     OW32428   6.215   5.750   6.871
10510SOL    HW132429   6.254   5.683   6.934
10510SOL    HW232430   6.120   5.726   6.852
10511SOL     OW32431   4.425   2.657   0.542
10511SOL    HW132432   4.403   2.591   0.470
10511SOL    HW232433   4.345   2.671   0.600
10512SOL     OW32434   4.172   6.979   5.868
10512SOL    HW132435   4.175   6.908   5.797
10512SOL    HW232436   4.147   6.937   5.955
10513SOL     OW32437   0.633   2.591   6.514
10513SOL    HW132438   0.589   2.657   6.574
10513SOL    HW232439   0.698   2.536   6.566
10514SOL     OW32440   0.417   4.395   0.177
10514SOL    HW132441   0.460   4.482   0.152
10514SOL    HW232442   0.375   4.403   0.268
10515SOL     OW32443   6.777   1.780   3.387
10515SOL    HW132444   6.709   1.793   3.459
10515SOL    HW232445   6.804   1.684   3.384
10516SOL     OW32446   4.060   1.151   5.980
10516SOL    HW132447   4.132   1.084   5.958
10516SOL    HW232448   4.076   1.235   5.928
10517SOL     OW32449   6.281   1.492   2.166
10517SOL    HW132450   6.308   1.486   2.070
10517SOL    HW232451   6.182   1.485   2.173
10518SOL     OW32452   0.774   6.770   0.916
10518SOL    HW132453   0.786   6.690   0.974
10518SOL    HW232454   0.854   6.830   0.925
10519SOL     OW32455   3.242   3.076   6.061
10519SOL    HW132456   3.316   3.121   6.010
10519SOL    HW232457   3.154   3.114   6.032
10520SOL     OW32458   3.563   2.556   6.945
10520SOL    HW132459   3.468   2.571   6.971
10520SOL    HW232460   3.620   2.630   6.981
10521SOL     OW32461   6.615   5.839   1.001
10521SOL    HW132462   6.695   5.824   1.059
10521SOL    HW232463   6.542   5.883   1.054
10522SOL     OW32464   6.623   0.595   0.773
10522SOL    HW132465   6.648   0.534   0.698
10522SOL    HW232466   6.523   0.600   0.780
10523SOL     OW32467   0.578   5.740   5.912
10523SOL    HW132468   0.584   5.650   5.956
10523SOL    HW232469   0.653   5.797   5.944
10524SOL     OW32470   2.386   0.347   4.754
10524SOL    HW132471   2.360   0.306   4.667
10524SOL    HW232472   2.374   0.446   4.749
10525SOL     OW32473   2.050   5.974   4.812
10525SOL    HW132474   2.055   5.990   4.910
10525SOL    HW232475   2.142   5.964   4.775
10526SOL     OW32476   0.049   1.152   2.369
10526SOL    HW132477   0.060   1.133   2.467
10526SOL    HW232478   0.097   1.237   2.346
10527SOL     OW32479   0.902   2.867   4.648
10527SOL    HW132480   0.854   2.951   4.671
10527SOL    HW232481   0.950   2.832   4.729
10528SOL     OW32482   0.033   5.047   5.337
10528SOL    HW132483   0.008   4.953   5.358
10528SOL    HW232484   0.131   5.051   5.316
10529SOL     OW32485   6.558   0.028   3.689
10529SOL    HW132486   6.650   0.034   3.728
10529SOL    HW232487   6.539   0.111   3.637
10530SOL     OW32488   2.828   2.125   6.234
10530SOL    HW132489   2.884   2.206   6.251
10530SOL    HW232490   2.882   2.058   6.184
10531SOL     OW32491   1.932   3.201   4.586
10531SOL    HW132492   1.899   3.263   4.515
10531SOL    HW232493   1.942   3.109   4.550
10532SOL     OW32494   4.162   2.499   6.044
10532SOL    HW132495   4.234   2.547   6.094
10532SOL    HW232496   4.195   2.409   6.016
10533SOL     OW32497   2.735   1.350   5.750
10533SOL    HW132498   2.810   1.355   5.815
10533SOL    HW232499   2.654   1.314   5.795
10534SOL     OW32500   0.467   5.575   0.370
10534SOL    HW132501   0.422   5.647   0.423
10534SOL    HW232502   0.566   5.588   0.374
10535SOL     OW32503   0.735   1.234   2.351
10535SOL    HW132504   0.699   1.183   2.429
10535SOL    HW232505   0.831   1.256   2.368
10536SOL     OW32506   4.576   0.558   2.590
10536SOL    HW132507   4.563   0.550   2.491
10536SOL    HW232508   4.632   0.638   2.611
10537SOL     OW32509   2.341   5.187   2.112
10537SOL    HW132510   2.391   5.248   2.052
10537SOL    HW232511   2.352   5.093   2.082
10538SOL     OW32512   4.126   4.175   0.355
10538SOL    HW132513   4.160   4.082   0.367
10538SOL    HW232514   4.061   4.196   0.429
10539SOL     OW32515   0.500   3.364   6.220
10539SOL    HW132516   0.503   3.276   6.172
10539SOL    HW232517   0.590   3.406   6.219
10540SOL     OW32518   1.830   0.316   6.294
10540SOL    HW132519   1.813   0.414   6.289
10540SOL    HW232520   1.765   0.274   6.357
10541SOL     OW32521   3.635   3.253   0.065
10541SOL    HW132522   3.538   3.258   0.042
10541SOL    HW232523   3.660   3.327   0.127
10542SOL     OW32524   0.176   2.481   0.294
10542SOL    HW132525   0.110   2.410   0.271
10542SOL    HW232526   0.267   2.455   0.261
10543SOL     OW32527   0.505   1.633   5.559
10543SOL    HW132528   0.502   1.658   5.656
10543SOL    HW232529   0.412   1.633   5.521
10544SOL     OW32530   2.492   1.850   2.451
10544SOL    HW132531   2.422   1.922   2.451
10544SOL    HW232532   2.580   1.890   2.475
10545SOL     OW32533   6.776   0.699   2.417
10545SOL    HW132534   6.839   0.645   2.361
10545SOL    HW232535   6.826   0.736   2.495
10546SOL     OW32536   2.452   0.233   4.350
10546SOL    HW132537   2.525   0.184   4.301
10546SOL    HW232538   2.364   0.214   4.307
10547SOL     OW32539   4.613   1.539   1.302
10547SOL    HW132540   4.521   1.551   1.341
10547SOL    HW232541   4.661   1.468   1.353
10548SOL     OW32542   5.105   3.950   4.680
10548SOL    HW132543   5.182   3.977   4.738
10548SOL    HW232544   5.063   4.032   4.642
10549SOL     OW32545   1.072   0.807   2.136
10549SOL    HW132546   1.075   0.893   2.085
10549SOL    HW232547   1.110   0.733   2.080
10550SOL     OW32548   5.703   0.317   3.886
10550SOL    HW132549   5.639   0.324   3.809
10550SOL    HW232550   5.686   0.232   3.936
10551SOL     OW32551   1.110   1.957   5.820
10551SOL    HW132552   1.033   2.015   5.848
10551SOL    HW232553   1.168   2.008   5.757
10552SOL     OW32554   3.321   2.449   5.502
10552SOL    HW132555   3.237   2.482   5.458
10552SOL    HW232556   3.360   2.374   5.448
10553SOL     OW32557   0.734   5.562   0.286
10553SOL    HW132558   0.726   5.490   0.217
10553SOL    HW232559   0.821   5.553   0.334
10554SOL     OW32560   6.928   4.871   6.995
10554SOL    HW132561   6.831   4.893   7.003
10554SOL    HW232562   6.971   4.932   6.929
10555SOL     OW32563   3.553   1.471   2.136
10555SOL    HW132564   3.616   1.467   2.058
10555SOL    HW232565   3.578   1.547   2.195
10556SOL     OW32566   2.023   3.276   5.165
10556SOL    HW132567   2.047   3.186   5.200
10556SOL    HW232568   1.923   3.285   5.161
10557SOL     OW32569   6.756   2.833   3.458
10557SOL    HW132570   6.780   2.785   3.374
10557SOL    HW232571   6.839   2.866   3.503
10558SOL     OW32572   4.550   6.296   5.252
10558SOL    HW132573   4.467   6.243   5.233
10558SOL    HW232574   4.551   6.321   5.349
10559SOL     OW32575   4.930   2.022   0.751
10559SOL    HW132576   4.840   2.030   0.708
10559SOL    HW232577   4.920   1.979   0.841
10560SOL     OW32578   1.340   3.898   4.896
10560SOL    HW132579   1.319   3.808   4.858
10560SOL    HW232580   1.276   3.965   4.857
10561SOL     OW32581   2.114   4.538   6.853
10561SOL    HW132582   2.103   4.460   6.790
10561SOL    HW232583   2.104   4.506   6.947
10562SOL     OW32584   4.214   0.877   0.782
10562SOL    HW132585   4.142   0.938   0.814
10562SOL    HW232586   4.192   0.783   0.806
10563SOL     OW32587   1.777   1.827   5.437
10563SOL    HW132588   1.811   1.863   5.524
10563SOL    HW232589   1.802   1.889   5.363
10564SOL     OW32590   5.513   1.423   1.563
10564SOL    HW132591   5.601   1.457   1.530
10564SOL    HW232592   5.468   1.371   1.491
10565SOL     OW32593   6.154   1.290   4.850
10565SOL    HW132594   6.253   1.274   4.849
10565SOL    HW232595   6.135   1.372   4.905
10566SOL     OW32596   3.629   4.178   6.186
10566SOL    HW132597   3.617   4.277   6.179
10566SOL    HW232598   3.619   4.138   6.095
10567SOL     OW32599   1.650   3.675   4.354
10567SOL    HW132600   1.684   3.675   4.260
10567SOL    HW232601   1.688   3.753   4.403
10568SOL     OW32602   4.922   1.157   2.523
10568SOL    HW132603   4.992   1.089   2.545
10568SOL    HW232604   4.891   1.201   2.607
10569SOL     OW32605   5.816   2.778   4.242
10569SOL    HW132606   5.725   2.761   4.204
10569SOL    HW232607   5.819   2.869   4.283
10570SOL     OW32608   1.751   4.594   2.512
10570SOL    HW132609   1.829   4.531   2.510
10570SOL    HW232610   1.775   4.678   2.464
10571SOL     OW32611   6.419   6.262   2.785
10571SOL    HW132612   6.427   6.199   2.862
10571SOL    HW232613   6.420   6.210   2.699
10572SOL     OW32614   5.707   3.516   2.398
10572SOL    HW132615   5.783   3.558   2.347
10572SOL    HW232616   5.646   3.588   2.431
10573SOL     OW32617   6.149   5.567   4.484
10573SOL    HW132618   6.209   5.608   4.552
10573SOL    HW232619   6.088   5.636   4.446
10574SOL     OW32620   0.310   2.000   3.599
10574SOL    HW132621   0.210   2.003   3.592
10574SOL    HW232622   0.338   2.030   3.690
10575SOL     OW32623   1.068   0.450   5.003
10575SOL    HW132624   1.022   0.499   4.929
10575SOL    HW232625   1.095   0.516   5.074
10576SOL     OW32626   1.857   5.658   4.469
10576SOL    HW132627   1.877   5.561   4.478
10576SOL    HW232628   1.935   5.705   4.427
10577SOL     OW32629   2.125   3.039   5.671
10577SOL    HW132630   2.106   3.015   5.766
10577SOL    HW232631   2.039   3.062   5.625
10578SOL     OW32632   5.602   0.000   5.306
10578SOL    HW132633   5.619   6.928   5.343
10578SOL    HW232634   5.506   0.007   5.277
10579SOL     OW32635   4.555   1.738   0.419
10579SOL    HW132636   4.552   1.660   0.481
10579SOL    HW232637   4.638   1.791   0.437
10580SOL     OW32638   6.810   6.289   0.142
10580SOL    HW132639   6.741   6.360   0.127
10580SOL    HW232640   6.811   6.227   0.063
10581SOL     OW32641   5.489   0.552   3.641
10581SOL    HW132642   5.462   0.573   3.547
10581SOL    HW232643   5.465   0.457   3.662
10582SOL     OW32644   3.861   4.912   6.688
10582SOL    HW132645   3.825   4.866   6.768
10582SOL    HW232646   3.929   4.979   6.715
10583SOL     OW32647   3.914   0.943   0.167
10583SOL    HW132648   3.970   0.908   0.092
10583SOL    HW232649   3.820   0.910   0.156
10584SOL     OW32650   5.542   6.780   0.982
10584SOL    HW132651   5.489   6.804   0.901
10584SOL    HW232652   5.490   6.804   1.064
10585SOL     OW32653   0.794   3.130   6.335
10585SOL    HW132654   0.768   3.086   6.422
10585SOL    HW232655   0.739   3.091   6.261
10586SOL     OW32656   2.568   5.838   5.856
10586SOL    HW132657   2.548   5.772   5.784
10586SOL    HW232658   2.666   5.843   5.872
10587SOL     OW32659   6.110   3.448   0.820
10587SOL    HW132660   6.076   3.433   0.727
10587SOL    HW232661   6.187   3.388   0.837
10588SOL     OW32662   1.109   4.985   3.238
10588SOL    HW132663   1.124   5.009   3.334
10588SOL    HW232664   1.180   5.029   3.182
10589SOL     OW32665   5.507   1.919   4.206
10589SOL    HW132666   5.550   2.006   4.183
10589SOL    HW232667   5.534   1.893   4.299
10590SOL     OW32668   1.058   0.361   3.722
10590SOL    HW132669   0.961   0.375   3.702
10590SOL    HW232670   1.096   0.446   3.759
10591SOL     OW32671   0.830   1.912   6.503
10591SOL    HW132672   0.864   1.872   6.417
10591SOL    HW232673   0.802   1.839   6.565
10592SOL     OW32674   6.074   1.377   0.266
10592SOL    HW132675   6.162   1.330   0.260
10592SOL    HW232676   6.026   1.348   0.348
10593SOL     OW32677   1.986   5.520   1.721
10593SOL    HW132678   1.921   5.582   1.763
10593SOL    HW232679   2.069   5.570   1.694
10594SOL     OW32680   6.164   1.736   3.995
10594SOL    HW132681   6.210   1.649   4.013
10594SOL    HW232682   6.066   1.727   4.016
10595SOL     OW32683   3.871   6.528   6.433
10595SOL    HW132684   3.903   6.463   6.502
10595SOL    HW232685   3.842   6.612   6.477
10596SOL     OW32686   3.989   6.714   2.603
10596SOL    HW132687   4.058   6.762   2.658
10596SOL    HW232688   3.904   6.767   2.604
10597SOL     OW32689   1.989   0.948   4.667
10597SOL    HW132690   2.003   1.046   4.659
10597SOL    HW232691   1.964   0.924   4.761
10598SOL     OW32692   2.135   2.451   6.918
10598SOL    HW132693   2.134   2.442   6.818
10598SOL    HW232694   2.080   2.377   6.958
10599SOL     OW32695   5.873   0.932   6.927
10599SOL    HW132696   5.845   0.881   7.009
10599SOL    HW232697   5.913   1.019   6.954
10600SOL     OW32698   2.417   2.924   5.579
10600SOL    HW132699   2.320   2.944   5.596
10600SOL    HW232700   2.460   3.003   5.534
10601SOL     OW32701   2.845   6.473   6.213
10601SOL    HW132702   2.791   6.489   6.131
10601SOL    HW232703   2.791   6.418   6.278
10602SOL     OW32704   4.522   1.770   1.494
10602SOL    HW132705   4.596   1.722   1.447
10602SOL    HW232706   4.453   1.704   1.524
10603SOL     OW32707   1.992   5.441   3.945
10603SOL    HW132708   2.020   5.528   3.905
10603SOL    HW232709   2.060   5.371   3.923
10604SOL     OW32710   6.565   3.815   4.044
10604SOL    HW132711   6.563   3.840   4.141
10604SOL    HW232712   6.658   3.828   4.008
10605SOL     OW32713   1.028   5.200   6.498
10605SOL    HW132714   1.106   5.253   6.464
10605SOL    HW232715   1.053   5.103   6.503
10606SOL     OW32716   0.400   0.303   1.564
10606SOL    HW132717   0.467   0.306   1.490
10606SOL    HW232718   0.447   0.283   1.650
10607SOL     OW32719   5.037   4.418   6.927
10607SOL    HW132720   5.094   4.398   6.847
10607SOL    HW232721   4.941   4.423   6.899
10608SOL     OW32722   5.757   1.602   4.189
10608SOL    HW132723   5.718   1.511   4.174
10608SOL    HW232724   5.683   1.668   4.205
10609SOL     OW32725   4.052   6.486   0.731
10609SOL    HW132726   4.039   6.387   0.744
10609SOL    HW232727   4.060   6.505   0.633
10610SOL     OW32728   1.514   3.110   5.782
10610SOL    HW132729   1.477   3.101   5.689
10610SOL    HW232730   1.535   3.206   5.801
10611SOL     OW32731   5.825   2.802   5.948
10611SOL    HW132732   5.888   2.730   5.976
10611SOL    HW232733   5.868   2.859   5.878
10612SOL     OW32734   2.267   0.426   6.671
10612SOL    HW132735   2.191   0.459   6.614
10612SOL    HW232736   2.344   0.403   6.612
10613SOL     OW32737   0.273   6.439   5.802
10613SOL    HW132738   0.240   6.519   5.852
10613SOL    HW232739   0.241   6.356   5.847
10614SOL     OW32740   6.433   1.205   4.125
10614SOL    HW132741   6.509   1.220   4.061
10614SOL    HW232742   6.347   1.227   4.080
10615SOL     OW32743   5.066   5.410   5.057
10615SOL    HW132744   5.099   5.316   5.056
10615SOL    HW232745   5.058   5.442   5.152
10616SOL     OW32746   3.118   6.241   6.787
10616SOL    HW132747   3.037   6.266   6.840
10616SOL    HW232748   3.123   6.141   6.779
10617SOL     OW32749   2.253   1.975   0.662
10617SOL    HW132750   2.258   1.944   0.757
10617SOL    HW232751   2.205   2.063   0.658
10618SOL     OW32752   5.959   3.371   0.187
10618SOL    HW132753   6.034   3.375   0.253
10618SOL    HW232754   5.906   3.287   0.201
10619SOL     OW32755   1.379   4.384   4.183
10619SOL    HW132756   1.333   4.335   4.258
10619SOL    HW232757   1.387   4.324   4.104
10620SOL     OW32758   1.487   6.201   4.878
10620SOL    HW132759   1.406   6.222   4.825
10620SOL    HW232760   1.546   6.282   4.882
10621SOL     OW32761   1.736   6.187   0.129
10621SOL    HW132762   1.692   6.106   0.168
10621SOL    HW232763   1.670   6.239   0.076
10622SOL     OW32764   3.798   0.333   1.456
10622SOL    HW132765   3.801   0.337   1.555
10622SOL    HW232766   3.851   0.410   1.418
10623SOL     OW32767   5.920   2.252   3.840
10623SOL    HW132768   5.969   2.307   3.773
10623SOL    HW232769   5.846   2.307   3.880
10624SOL     OW32770   1.675   0.768   4.703
10624SOL    HW132771   1.739   0.768   4.780
10624SOL    HW232772   1.704   0.698   4.637
10625SOL     OW32773   0.741   3.064   0.038
10625SOL    HW132774   0.695   3.123   0.105
10625SOL    HW232775   0.684   2.984   0.019
10626SOL     OW32776   0.951   1.795   2.062
10626SOL    HW132777   0.877   1.728   2.056
10626SOL    HW232778   0.978   1.805   2.158
10627SOL     OW32779   6.497   6.677   3.093
10627SOL    HW132780   6.441   6.666   3.175
10627SOL    HW232781   6.504   6.774   3.071
10628SOL     OW32782   6.168   5.927   5.362
10628SOL    HW132783   6.167   5.975   5.449
10628SOL    HW232784   6.219   5.842   5.371
10629SOL     OW32785   2.641   5.059   5.650
10629SOL    HW132786   2.693   4.973   5.647
10629SOL    HW232787   2.693   5.127   5.701
10630SOL     OW32788   6.164   1.776   3.299
10630SOL    HW132789   6.126   1.867   3.316
10630SOL    HW232790   6.221   1.779   3.216
10631SOL     OW32791   0.578   6.810   4.032
10631SOL    HW132792   0.638   6.748   3.982
10631SOL    HW232793   0.598   6.803   4.130
10632SOL     OW32794   6.729   1.710   4.803
10632SOL    HW132795   6.641   1.681   4.765
10632SOL    HW232796   6.793   1.633   4.800
10633SOL     OW32797   2.777   5.656   1.542
10633SOL    HW132798   2.732   5.730   1.591
10633SOL    HW232799   2.858   5.626   1.593
10634SOL     OW32800   3.628   6.253   0.859
10634SOL    HW132801   3.643   6.312   0.780
10634SOL    HW232802   3.579   6.305   0.930
10635SOL     OW32803   2.643   0.551   1.161
10635SOL    HW132804   2.579   0.507   1.224
10635SOL    HW232805   2.591   0.594   1.087
10636SOL     OW32806   0.838   1.923   1.435
10636SOL    HW132807   0.913   1.900   1.497
10636SOL    HW232808   0.874   1.955   1.348
10637SOL     OW32809   3.149   4.059   4.616
10637SOL    HW132810   3.067   4.002   4.611
10637SOL    HW232811   3.213   4.019   4.681
10638SOL     OW32812   6.949   6.456   4.767
10638SOL    HW132813   0.012   6.399   4.760
10638SOL    HW232814   6.867   6.399   4.765
10639SOL     OW32815   1.738   1.115   5.214
10639SOL    HW132816   1.792   1.132   5.296
10639SOL    HW232817   1.723   1.201   5.165
10640SOL     OW32818   5.236   1.575   0.353
10640SOL    HW132819   5.169   1.604   0.421
10640SOL    HW232820   5.189   1.545   0.270
10641SOL     OW32821   5.615   1.604   6.880
10641SOL    HW132822   5.706   1.566   6.899
10641SOL    HW232823   5.615   1.701   6.902
10642SOL     OW32824   0.495   2.801   1.765
10642SOL    HW132825   0.581   2.804   1.715
10642SOL    HW232826   0.420   2.823   1.704
10643SOL     OW32827   2.752   3.427   5.261
10643SOL    HW132828   2.779   3.356   5.197
10643SOL    HW232829   2.815   3.504   5.255
10644SOL     OW32830   4.380   1.388   3.742
10644SOL    HW132831   4.408   1.356   3.832
10644SOL    HW232832   4.408   1.483   3.729
10645SOL     OW32833   2.434   6.887   4.921
10645SOL    HW132834   2.399   6.971   4.879
10645SOL    HW232835   2.362   6.818   4.923
10646SOL     OW32836   1.261   3.330   6.102
10646SOL    HW132837   1.315   3.332   6.186
10646SOL    HW232838   1.174   3.376   6.117
10647SOL     OW32839   6.803   5.190   0.469
10647SOL    HW132840   6.818   5.208   0.371
10647SOL    HW232841   6.714   5.147   0.481
10648SOL     OW32842   4.777   2.739   6.931
10648SOL    HW132843   4.736   2.830   6.925
10648SOL    HW232844   4.791   2.703   6.840
10649SOL     OW32845   6.938   5.099   5.933
10649SOL    HW132846   6.958   5.002   5.921
10649SOL    HW232847   6.842   5.110   5.957
10650SOL     OW32848   2.712   6.118   3.897
10650SOL    HW132849   2.793   6.126   3.954
10650SOL    HW232850   2.708   6.027   3.857
10651SOL     OW32851   4.827   6.513   6.172
10651SOL    HW132852   4.803   6.601   6.130
10651SOL    HW232853   4.910   6.477   6.130
10652SOL     OW32854   3.774   0.583   6.096
10652SOL    HW132855   3.781   0.512   6.027
10652SOL    HW232856   3.679   0.614   6.104
10653SOL     OW32857   5.309   4.190   4.332
10653SOL    HW132858   5.390   4.211   4.385
10653SOL    HW232859   5.285   4.093   4.344
10654SOL     OW32860   4.184   1.263   0.841
10654SOL    HW132861   4.178   1.284   0.939
10654SOL    HW232862   4.109   1.202   0.816
10655SOL     OW32863   2.896   5.924   1.185
10655SOL    HW132864   2.841   5.988   1.239
10655SOL    HW232865   2.897   5.954   1.089
10656SOL     OW32866   6.208   2.480   6.934
10656SOL    HW132867   6.273   2.431   6.992
10656SOL    HW232868   6.222   2.579   6.945
10657SOL     OW32869   5.889   0.869   1.336
10657SOL    HW132870   5.885   0.818   1.250
10657SOL    HW232871   5.922   0.809   1.408
10658SOL     OW32872   0.448   5.040   4.621
10658SOL    HW132873   0.443   4.975   4.697
10658SOL    HW232874   0.386   5.117   4.638
10659SOL     OW32875   6.037   0.322   0.552
10659SOL    HW132876   6.002   0.406   0.594
10659SOL    HW232877   5.962   0.274   0.506
10660SOL     OW32878   4.546   5.417   5.768
10660SOL    HW132879   4.451   5.388   5.779
10660SOL    HW232880   4.566   5.491   5.832
10661SOL     OW32881   0.469   6.667   2.628
10661SOL    HW132882   0.516   6.584   2.599
10661SOL    HW232883   0.401   6.644   2.697
10662SOL     OW32884   6.099   1.619   1.007
10662SOL    HW132885   6.035   1.575   0.944
10662SOL    HW232886   6.111   1.561   1.088
10663SOL     OW32887   6.902   0.231   0.194
10663SOL    HW132888   6.804   0.223   0.209
10663SOL    HW232889   6.930   0.327   0.199
10664SOL     OW32890   2.081   5.500   0.119
10664SOL    HW132891   2.131   5.446   0.187
10664SOL    HW232892   2.140   5.573   0.084
10665SOL     OW32893   6.310   1.494   0.709
10665SOL    HW132894   6.328   1.443   0.792
10665SOL    HW232895   6.391   1.545   0.682
10666SOL     OW32896   1.923   6.638   0.156
10666SOL    HW132897   1.887   6.731   0.159
10666SOL    HW232898   2.021   6.640   0.135
10667SOL     OW32899   3.170   2.175   5.651
10667SOL    HW132900   3.210   2.239   5.717
10667SOL    HW232901   3.072   2.189   5.646
10668SOL     OW32902   1.669   1.581   6.335
10668SOL    HW132903   1.708   1.671   6.312
10668SOL    HW232904   1.620   1.546   6.255
10669SOL     OW32905   1.466   0.252   0.109
10669SOL    HW132906   1.464   0.275   0.012
10669SOL    HW232907   1.376   0.265   0.149
10670SOL     OW32908   6.120   4.442   5.986
10670SOL    HW132909   6.096   4.525   5.936
10670SOL    HW232910   6.219   4.437   5.997
10671SOL     OW32911   2.283   1.258   3.512
10671SOL    HW132912   2.325   1.302   3.432
10671SOL    HW232913   2.288   1.320   3.590
10672SOL     OW32914   0.233   2.925   1.322
10672SOL    HW132915   0.271   2.873   1.245
10672SOL    HW232916   0.140   2.894   1.340
10673SOL     OW32917   2.729   3.003   5.316
10673SOL    HW132918   2.644   3.015   5.264
10673SOL    HW232919   2.708   2.960   5.404
10674SOL     OW32920   3.838   3.254   1.387
10674SOL    HW132921   3.742   3.228   1.392
10674SOL    HW232922   3.860   3.316   1.462
10675SOL     OW32923   0.229   0.397   5.610
10675SOL    HW132924   0.186   0.342   5.538
10675SOL    HW232925   0.176   0.481   5.624
10676SOL     OW32926   6.241   6.972   6.333
10676SOL    HW132927   6.308   6.957   6.406
10676SOL    HW232928   6.228   0.052   6.320
10677SOL     OW32929   0.360   0.355   0.745
10677SOL    HW132930   0.309   0.396   0.820
10677SOL    HW232931   0.458   0.357   0.766
10678SOL     OW32932   2.406   6.347   2.655
10678SOL    HW132933   2.351   6.425   2.625
10678SOL    HW232934   2.348   6.283   2.704
10679SOL     OW32935   5.290   4.969   4.609
10679SOL    HW132936   5.209   4.947   4.664
10679SOL    HW232937   5.277   5.056   4.563
10680SOL     OW32938   1.379   2.876   2.775
10680SOL    HW132939   1.386   2.917   2.684
10680SOL    HW232940   1.352   2.945   2.841
10681SOL     OW32941   6.975   1.681   6.014
10681SOL    HW132942   7.005   1.725   6.099
10681SOL    HW232943   7.005   1.585   6.014
10682SOL     OW32944   0.109   2.040   3.205
10682SOL    HW132945   0.202   2.072   3.187
10682SOL    HW232946   0.053   2.052   3.123
10683SOL     OW32947   1.904   1.568   4.610
10683SOL    HW132948   1.826   1.505   4.604
10683SOL    HW232949   1.951   1.571   4.523
10684SOL     OW32950   5.869   4.681   0.031
10684SOL    HW132951   5.953   4.627   0.022
10684SOL    HW232952   5.888   4.763   0.084
10685SOL     OW32953   6.979   2.983   3.168
10685SOL    HW132954   0.037   2.964   3.107
10685SOL    HW232955   6.946   2.897   3.207
10686SOL     OW32956   3.289   5.162   0.414
10686SOL    HW132957   3.253   5.251   0.438
10686SOL    HW232958   3.388   5.161   0.429
10687SOL     OW32959   0.273   4.895   3.080
10687SOL    HW132960   0.333   4.829   3.126
10687SOL    HW232961   0.242   4.857   2.993
10688SOL     OW32962   6.650   5.139   2.455
10688SOL    HW132963   6.598   5.088   2.387
10688SOL    HW232964   6.667   5.231   2.421
10689SOL     OW32965   0.886   1.213   2.942
10689SOL    HW132966   0.834   1.168   2.870
10689SOL    HW232967   0.982   1.186   2.936
10690SOL     OW32968   4.274   4.784   1.949
10690SOL    HW132969   4.185   4.813   1.983
10690SOL    HW232970   4.263   4.737   1.861
10691SOL     OW32971   6.943   1.241   1.688
10691SOL    HW132972   6.950   1.179   1.611
10691SOL    HW232973   6.896   1.195   1.764
10692SOL     OW32974   3.498   6.070   3.872
10692SOL    HW132975   3.440   6.015   3.813
10692SOL    HW232976   3.581   6.098   3.823
10693SOL     OW32977   6.744   1.596   1.840
10693SOL    HW132978   6.814   1.553   1.785
10693SOL    HW232979   6.729   1.543   1.924
10694SOL     OW32980   3.604   6.411   0.627
10694SOL    HW132981   3.576   6.336   0.567
10694SOL    HW232982   3.532   6.480   0.630
10695SOL     OW32983   0.097   3.155   4.135
10695SOL    HW132984   0.110   3.139   4.037
10695SOL    HW232985   0.063   3.248   4.149
10696SOL     OW32986   0.064   6.404   1.806
10696SOL    HW132987   0.142   6.347   1.778
10696SOL    HW232988   0.047   6.392   1.904
10697SOL     OW32989   2.521   5.596   3.394
10697SOL    HW132990   2.457   5.534   3.349
10697SOL    HW232991   2.614   5.563   3.381
10698SOL     OW32992   2.694   6.596   3.276
10698SOL    HW132993   2.640   6.587   3.359
10698SOL    HW232994   2.769   6.661   3.291
10699SOL     OW32995   2.542   2.510   2.659
10699SOL    HW132996   2.590   2.425   2.682
10699SOL    HW232997   2.591   2.558   2.587
10700SOL     OW32998   6.892   6.690   1.295
10700SOL    HW132999   6.961   6.650   1.234
10700SOL    HW233000   6.904   6.655   1.388
10701SOL     OW33001   2.859   6.083   0.926
10701SOL    HW133002   2.891   6.178   0.930
10701SOL    HW233003   2.771   6.080   0.878
10702SOL     OW33004   6.505   3.253   1.645
10702SOL    HW133005   6.530   3.174   1.700
10702SOL    HW233006   6.416   3.238   1.602
10703SOL     OW33007   4.007   3.828   3.521
10703SOL    HW133008   4.034   3.770   3.443
10703SOL    HW233009   4.048   3.791   3.605
10704SOL     OW33010   5.258   6.659   2.000
10704SOL    HW133011   5.317   6.614   2.067
10704SOL    HW233012   5.248   6.601   1.919
10705SOL     OW33013   0.282   2.657   6.383
10705SOL    HW133014   0.350   2.730   6.385
10705SOL    HW233015   0.194   2.692   6.414
10706SOL     OW33016   3.126   1.104   2.100
10706SOL    HW133017   3.175   1.022   2.129
10706SOL    HW233018   3.188   1.164   2.050
10707SOL     OW33019   5.802   0.220   6.198
10707SOL    HW133020   5.823   0.137   6.145
10707SOL    HW233021   5.843   0.213   6.289
10708SOL     OW33022   5.285   1.309   1.113
10708SOL    HW133023   5.364   1.341   1.060
10708SOL    HW233024   5.223   1.259   1.053
10709SOL     OW33025   6.940   5.984   5.898
10709SOL    HW133026   6.945   5.994   5.798
10709SOL    HW233027   6.847   6.008   5.928
10710SOL     OW33028   6.002   5.205   3.632
10710SOL    HW133029   5.951   5.167   3.710
10710SOL    HW233030   6.044   5.292   3.659
10711SOL     OW33031   1.290   6.415   3.817
10711SOL    HW133032   1.320   6.377   3.729
10711SOL    HW233033   1.346   6.494   3.839
10712SOL     OW33034   3.588   1.200   4.713
10712SOL    HW133035   3.587   1.298   4.734
10712SOL    HW233036   3.642   1.184   4.630
10713SOL     OW33037   0.982   6.308   1.212
10713SOL    HW133038   0.897   6.257   1.200
10713SOL    HW233039   1.010   6.348   1.125
10714SOL     OW33040   6.999   4.841   5.888
10714SOL    HW133041   0.071   4.827   5.849
10714SOL    HW233042   6.990   4.788   5.972
10715SOL     OW33043   5.693   1.338   4.148
10715SOL    HW133044   5.702   1.291   4.061
10715SOL    HW233045   5.597   1.341   4.175
10716SOL     OW33046   5.814   0.048   3.691
10716SOL    HW133047   5.750   6.995   3.667
10716SOL    HW233048   5.799   0.076   3.786
10717SOL     OW33049   0.205   6.732   1.248
10717SOL    HW133050   0.192   6.786   1.331
10717SOL    HW233051   0.256   6.785   1.181
10718SOL     OW33052   7.000   4.721   6.746
10718SOL    HW133053   0.078   4.743   6.738
10718SOL    HW233054   6.976   4.716   6.843
10719SOL     OW33055   5.360   0.550   2.351
10719SOL    HW133056   5.425   0.502   2.410
10719SOL    HW233057   5.319   0.485   2.288
10720SOL     OW33058   0.385   3.397   6.814
10720SOL    HW133059   0.479   3.416   6.844
10720SOL    HW233060   0.363   3.454   6.735
10721SOL     OW33061   4.512   2.536   4.190
10721SOL    HW133062   4.478   2.445   4.170
10721SOL    HW233063   4.538   2.582   4.105
10722SOL     OW33064   0.525   4.241   7.007
10722SOL    HW133065   0.493   4.148   0.007
10722SOL    HW233066   0.478   4.304   0.050
10723SOL     OW33067   6.467   4.290   0.147
10723SOL    HW133068   6.564   4.272   0.135
10723SOL    HW233069   6.452   4.335   0.235
10724SOL     OW33070   3.184   6.537   5.691
10724SOL    HW133071   3.156   6.523   5.596
10724SOL    HW233072   3.283   6.524   5.699
10725SOL     OW33073   6.769   6.271   4.722
10725SOL    HW133074   6.671   6.289   4.710
10725SOL    HW233075   6.800   6.209   4.651
10726SOL     OW33076   5.499   0.488   4.092
10726SOL    HW133077   5.505   0.578   4.050
10726SOL    HW233078   5.583   0.469   4.143
10727SOL     OW33079   2.242   5.660   6.590
10727SOL    HW133080   2.198   5.730   6.535
10727SOL    HW233081   2.258   5.695   6.683
10728SOL     OW33082   5.107   5.699   3.349
10728SOL    HW133083   5.057   5.726   3.266
10728SOL    HW233084   5.162   5.618   3.329
10729SOL     OW33085   6.203   3.200   3.689
10729SOL    HW133086   6.257   3.212   3.606
10729SOL    HW233087   6.260   3.219   3.769
10730SOL     OW33088   1.725   5.870   2.938
10730SOL    HW133089   1.666   5.850   2.860
10730SOL    HW233090   1.765   5.785   2.973
10731SOL     OW33091   4.806   6.479   6.618
10731SOL    HW133092   4.810   6.382   6.593
10731SOL    HW233093   4.825   6.535   6.538
10732SOL     OW33094   6.125   6.207   3.204
10732SOL    HW133095   6.029   6.217   3.232
10732SOL    HW233096   6.179   6.176   3.282
10733SOL     OW33097   0.508   0.845   5.820
10733SOL    HW133098   0.455   0.926   5.845
10733SOL    HW233099   0.476   0.767   5.874
10734SOL     OW33100   1.430   1.436   5.014
10734SOL    HW133101   1.454   1.396   4.925
10734SOL    HW233102   1.400   1.531   5.000
10735SOL     OW33103   0.683   5.383   2.285
10735SOL    HW133104   0.598   5.391   2.233
10735SOL    HW233105   0.714   5.474   2.313
10736SOL     OW33106   5.806   6.432   3.814
10736SOL    HW133107   5.739   6.365   3.846
10736SOL    HW233108   5.821   6.421   3.715
10737SOL     OW33109   6.001   1.454   2.192
10737SOL    HW133110   5.907   1.431   2.163
10737SOL    HW233111   6.034   1.385   2.255
10738SOL     OW33112   3.313   1.314   1.871
10738SOL    HW133113   3.382   1.357   1.930
10738SOL    HW233114   3.233   1.373   1.865
10739SOL     OW33115   5.681   2.412   3.645
10739SOL    HW133116   5.731   2.372   3.568
10739SOL    HW233117   5.744   2.466   3.701
10740SOL     OW33118   1.960   0.212   6.057
10740SOL    HW133119   2.050   0.255   6.060
10740SOL    HW233120   1.894   0.269   6.106
10741SOL     OW33121   2.466   2.121   3.517
10741SOL    HW133122   2.564   2.104   3.510
10741SOL    HW233123   2.442   2.137   3.613
10742SOL     OW33124   6.607   6.316   2.525
10742SOL    HW133125   6.579   6.220   2.529
10742SOL    HW233126   6.554   6.363   2.454
10743SOL     OW33127   3.031   1.095   5.757
10743SOL    HW133128   3.105   1.159   5.735
10743SOL    HW233129   2.986   1.065   5.673
10744SOL     OW33130   2.224   0.877   0.848
10744SOL    HW133131   2.189   0.822   0.773
10744SOL    HW233132   2.147   0.910   0.904
10745SOL     OW33133   1.243   4.790   2.195
10745SOL    HW133134   1.238   4.691   2.185
10745SOL    HW233135   1.329   4.824   2.156
10746SOL     OW33136   2.085   6.390   6.655
10746SOL    HW133137   2.177   6.428   6.650
10746SOL    HW233138   2.091   6.290   6.665
10747SOL     OW33139   5.968   1.233   4.609
10747SOL    HW133140   5.909   1.241   4.529
10747SOL    HW233141   5.943   1.303   4.676
10748SOL     OW33142   3.817   6.096   0.987
10748SOL    HW133143   3.744   6.149   0.943
10748SOL    HW233144   3.892   6.158   1.012
10749SOL     OW33145   5.521   5.174   1.947
10749SOL    HW133146   5.486   5.242   1.882
10749SOL    HW233147   5.589   5.217   2.006
10750SOL     OW33148   4.985   2.587   3.768
10750SOL    HW133149   4.923   2.661   3.796
10750SOL    HW233150   4.946   2.499   3.795
10751SOL     OW33151   0.256   4.619   5.142
10751SOL    HW133152   0.288   4.637   5.049
10751SOL    HW233153   0.231   4.523   5.151
10752SOL     OW33154   6.456   6.410   0.559
10752SOL    HW133155   6.405   6.376   0.480
10752SOL    HW233156   6.442   6.348   0.636
10753SOL     OW33157   4.984   6.833   4.076
10753SOL    HW133158   4.906   6.851   4.135
10753SOL    HW233159   5.057   6.789   4.130
10754SOL     OW33160   0.914   3.941   2.072
10754SOL    HW133161   0.900   3.917   1.976
10754SOL    HW233162   0.853   4.017   2.096
10755SOL     OW33163   6.295   2.862   1.100
10755SOL    HW133164   6.314   2.785   1.160
10755SOL    HW233165   6.211   2.844   1.047
10756SOL     OW33166   0.441   1.668   0.285
10756SOL    HW133167   0.353   1.711   0.303
10756SOL    HW233168   0.510   1.704   0.347
10757SOL     OW33169   0.162   4.173   1.886
10757SOL    HW133170   0.224   4.095   1.895
10757SOL    HW233171   0.186   4.224   1.803
10758SOL     OW33172   0.651   0.498   6.724
10758SOL    HW133173   0.685   0.541   6.640
10758SOL    HW233174   0.573   0.440   6.702
10759SOL     OW33175   2.950   1.979   6.038
10759SOL    HW133176   2.989   1.887   6.051
10759SOL    HW233177   3.016   2.036   5.989
10760SOL     OW33178   1.187   5.301   0.376
10760SOL    HW133179   1.186   5.309   0.476
10760SOL    HW233180   1.180   5.205   0.350
10761SOL     OW33181   0.467   0.830   5.535
10761SOL    HW133182   0.494   0.800   5.627
10761SOL    HW233183   0.432   0.923   5.541
10762SOL     OW33184   3.048   6.235   6.308
10762SOL    HW133185   2.990   6.298   6.256
10762SOL    HW233186   3.120   6.287   6.354
10763SOL     OW33187   4.948   6.991   3.486
10763SOL    HW133188   4.917   6.912   3.433
10763SOL    HW233189   5.014   6.962   3.555
10764SOL     OW33190   4.349   0.551   4.109
10764SOL    HW133191   4.334   0.637   4.159
10764SOL    HW233192   4.310   0.476   4.161
10765SOL     OW33193   6.956   2.094   2.101
10765SOL    HW133194   0.026   2.073   2.060
10765SOL    HW233195   6.895   2.015   2.092
10766SOL     OW33196   1.535   5.610   6.624
10766SOL    HW133197   1.555   5.577   6.532
10766SOL    HW233198   1.611   5.588   6.684
10767SOL     OW33199   1.496   4.957   0.570
10767SOL    HW133200   1.503   5.045   0.616
10767SOL    HW233201   1.407   4.916   0.587
10768SOL     OW33202   5.431   5.950   0.591
10768SOL    HW133203   5.497   5.965   0.665
10768SOL    HW233204   5.446   5.861   0.550
10769SOL     OW33205   3.798   2.919   4.788
10769SOL    HW133206   3.852   2.939   4.707
10769SOL    HW233207   3.714   2.871   4.761
10770SOL     OW33208   5.466   0.209   3.329
10770SOL    HW133209   5.564   0.230   3.324
10770SOL    HW233210   5.448   0.151   3.408
10771SOL     OW33211   4.528   6.274   5.531
10771SOL    HW133212   4.553   6.361   5.573
10771SOL    HW233213   4.503   6.209   5.603
10772SOL     OW33214   5.569   5.525   2.600
10772SOL    HW133215   5.479   5.562   2.575
10772SOL    HW233216   5.573   5.511   2.698
10773SOL     OW33217   0.158   3.390   1.621
10773SOL    HW133218   0.089   3.373   1.551
10773SOL    HW233219   0.149   3.483   1.656
10774SOL     OW33220   0.838   2.923   0.401
10774SOL    HW133221   0.837   2.826   0.427
10774SOL    HW233222   0.867   2.932   0.306
10775SOL     OW33223   1.360   4.122   0.224
10775SOL    HW133224   1.265   4.118   0.253
10775SOL    HW233225   1.402   4.206   0.259
10776SOL     OW33226   1.042   2.797   3.737
10776SOL    HW133227   0.975   2.740   3.691
10776SOL    HW233228   1.132   2.755   3.731
10777SOL     OW33229   3.294   1.561   2.129
10777SOL    HW133230   3.384   1.518   2.131
10777SOL    HW233231   3.302   1.653   2.091
10778SOL     OW33232   6.663   0.254   3.217
10778SOL    HW133233   6.690   0.299   3.132
10778SOL    HW233234   6.566   0.268   3.234
10779SOL     OW33235   5.375   3.857   5.006
10779SOL    HW133236   5.338   3.940   5.048
10779SOL    HW233237   5.302   3.806   4.961
10780SOL     OW33238   1.682   5.582   5.116
10780SOL    HW133239   1.674   5.664   5.059
10780SOL    HW233240   1.719   5.608   5.206
10781SOL     OW33241   6.166   2.358   5.325
10781SOL    HW133242   6.153   2.260   5.342
10781SOL    HW233243   6.216   2.370   5.239
10782SOL     OW33244   1.407   2.179   5.150
10782SOL    HW133245   1.312   2.203   5.134
10782SOL    HW233246   1.413   2.083   5.179
10783SOL     OW33247   0.999   2.594   3.417
10783SOL    HW133248   0.925   2.586   3.350
10783SOL    HW233249   0.961   2.590   3.510
10784SOL     OW33250   3.527   5.876   2.671
10784SOL    HW133251   3.528   5.976   2.684
10784SOL    HW233252   3.519   5.831   2.759
10785SOL     OW33253   1.806   5.699   2.310
10785SOL    HW133254   1.807   5.625   2.377
10785SOL    HW233255   1.713   5.711   2.275
10786SOL     OW33256   3.917   1.348   2.138
10786SOL    HW133257   4.009   1.376   2.164
10786SOL    HW233258   3.868   1.426   2.099
10787SOL     OW33259   4.078   0.555   3.146
10787SOL    HW133260   4.090   0.494   3.224
10787SOL    HW233261   4.141   0.633   3.155
10788SOL     OW33262   1.358   4.411   0.402
10788SOL    HW133263   1.434   4.356   0.366
10788SOL    HW233264   1.392   4.500   0.431
10789SOL     OW33265   6.182   1.139   1.830
10789SOL    HW133266   6.188   1.133   1.730
10789SOL    HW233267   6.209   1.231   1.859
10790SOL     OW33268   0.390   1.753   4.992
10790SOL    HW133269   0.457   1.713   4.929
10790SOL    HW233270   0.353   1.837   4.952
10791SOL     OW33271   1.203   1.554   3.991
10791SOL    HW133272   1.121   1.544   3.935
10791SOL    HW233273   1.284   1.536   3.934
10792SOL     OW33274   3.915   1.845   1.561
10792SOL    HW133275   3.895   1.912   1.632
10792SOL    HW233276   4.005   1.862   1.522
10793SOL     OW33277   4.257   1.914   4.844
10793SOL    HW133278   4.244   1.848   4.770
10793SOL    HW233279   4.342   1.965   4.829
10794SOL     OW33280   5.060   2.485   0.863
10794SOL    HW133281   5.028   2.519   0.774
10794SOL    HW233282   5.054   2.386   0.864
10795SOL     OW33283   0.169   3.974   3.211
10795SOL    HW133284   0.080   4.016   3.225
10795SOL    HW233285   0.231   4.003   3.284
10796SOL     OW33286   0.330   6.898   6.312
10796SOL    HW133287   0.295   6.883   6.405
10796SOL    HW233288   0.396   6.827   6.289
10797SOL     OW33289   4.270   4.259   0.140
10797SOL    HW133290   4.336   4.326   0.174
10797SOL    HW233291   4.194   4.251   0.204
10798SOL     OW33292   1.957   7.008   0.014
10798SOL    HW133293   1.999   0.055   0.077
10798SOL    HW233294   2.028   6.954   6.988
10799SOL     OW33295   2.946   0.802   2.737
10799SOL    HW133296   2.942   0.845   2.827
10799SOL    HW233297   2.859   0.818   2.689
10800SOL     OW33298   1.935   0.211   5.755
10800SOL    HW133299   1.864   0.141   5.745
10800SOL    HW233300   1.985   0.196   5.841
10801SOL     OW33301   2.526   6.738   5.936
10801SOL    HW133302   2.464   6.690   5.874
10801SOL    HW233303   2.544   6.830   5.900
10802SOL     OW33304   0.829   4.983   4.558
10802SOL    HW133305   0.792   4.895   4.527
10802SOL    HW233306   0.841   5.044   4.479
10803SOL     OW33307   0.240   4.272   4.770
10803SOL    HW133308   0.266   4.178   4.750
10803SOL    HW233309   0.253   4.329   4.688
10804SOL     OW33310   4.881   4.940   0.980
10804SOL    HW133311   4.888   4.993   1.064
10804SOL    HW233312   4.839   4.851   1.000
10805SOL     OW33313   4.133   6.245   0.416
10805SOL    HW133314   4.122   6.230   0.318
10805SOL    HW233315   4.053   6.209   0.464
10806SOL     OW33316   5.703   3.901   6.956
10806SOL    HW133317   5.669   3.976   7.013
10806SOL    HW233318   5.782   3.932   6.903
10807SOL     OW33319   4.897   0.217   3.406
10807SOL    HW133320   4.893   0.118   3.420
10807SOL    HW233321   4.945   0.237   3.321
10808SOL     OW33322   0.033   2.781   6.458
10808SOL    HW133323   6.982   2.709   6.453
10808SOL    HW233324   0.012   2.853   6.392
10809SOL     OW33325   3.122   1.046   3.046
10809SOL    HW133326   3.087   1.067   2.955
10809SOL    HW233327   3.200   1.104   3.067
10810SOL     OW33328   0.526   1.863   6.199
10810SOL    HW133329   0.558   1.788   6.141
10810SOL    HW233330   0.599   1.931   6.208
10811SOL     OW33331   4.742   4.777   5.502
10811SOL    HW133332   4.741   4.875   5.484
10811SOL    HW233333   4.684   4.757   5.580
10812SOL     OW33334   6.711   2.141   3.145
10812SOL    HW133335   6.800   2.187   3.143
10812SOL    HW233336   6.650   2.184   3.079
10813SOL     OW33337   2.345   6.014   2.571
10813SOL    HW133338   2.327   5.928   2.619
10813SOL    HW233339   2.349   6.089   2.637
10814SOL     OW33340   1.800   6.695   5.080
10814SOL    HW133341   1.760   6.772   5.131
10814SOL    HW233342   1.786   6.708   4.982
10815SOL     OW33343   4.785   2.368   2.835
10815SOL    HW133344   4.691   2.401   2.829
10815SOL    HW233345   4.814   2.334   2.745
10816SOL     OW33346   1.999   1.820   2.451
10816SOL    HW133347   2.095   1.817   2.424
10816SOL    HW233348   1.988   1.771   2.538
10817SOL     OW33349   4.971   6.613   2.107
10817SOL    HW133350   4.965   6.646   2.201
10817SOL    HW233351   5.067   6.613   2.078
10818SOL     OW33352   4.871   3.067   0.110
10818SOL    HW133353   4.868   3.134   0.185
10818SOL    HW233354   4.844   3.112   0.025
10819SOL     OW33355   0.599   3.647   5.952
10819SOL    HW133356   0.681   3.623   5.901
10819SOL    HW233357   0.610   3.621   6.048
10820SOL     OW33358   6.913   6.971   4.265
10820SOL    HW133359   6.948   0.043   4.244
10820SOL    HW233360   6.982   6.903   4.239
10821SOL     OW33361   6.751   6.930   0.117
10821SOL    HW133362   6.824   6.864   0.099
10821SOL    HW233363   6.750   6.953   0.214
10822SOL     OW33364   1.569   4.991   1.024
10822SOL    HW133365   1.488   5.014   1.078
10822SOL    HW233366   1.630   5.070   1.019
10823SOL     OW33367   1.608   1.189   1.947
10823SOL    HW133368   1.640   1.149   1.862
10823SOL    HW233369   1.669   1.263   1.975
10824SOL     OW33370   5.761   0.307   2.592
10824SOL    HW133371   5.686   0.292   2.528
10824SOL    HW233372   5.727   0.358   2.671
10825SOL     OW33373   3.538   1.828   1.220
10825SOL    HW133374   3.456   1.800   1.270
10825SOL    HW233375   3.619   1.808   1.275
10826SOL     OW33376   6.626   2.989   1.640
10826SOL    HW133377   6.602   2.893   1.627
10826SOL    HW233378   6.678   3.000   1.725
10827SOL     OW33379   0.805   2.362   4.425
10827SOL    HW133380   0.796   2.459   4.449
10827SOL    HW233381   0.902   2.340   4.410
10828SOL     OW33382   1.154   5.858   0.123
10828SOL    HW133383   1.060   5.859   0.158
10828SOL    HW233384   1.217   5.886   0.196
10829SOL     OW33385   2.426   3.548   1.431
10829SOL    HW133386   2.496   3.534   1.362
10829SOL    HW233387   2.424   3.471   1.494
10830SOL     OW33388   4.744   1.691   3.755
10830SOL    HW133389   4.824   1.631   3.764
10830SOL    HW233390   4.772   1.778   3.715
10831SOL     OW33391   5.600   2.570   3.318
10831SOL    HW133392   5.579   2.662   3.351
10831SOL    HW233393   5.698   2.552   3.330
10832SOL     OW33394   0.125   2.178   1.578
10832SOL    HW133395   0.078   2.091   1.590
10832SOL    HW233396   0.101   2.240   1.654
10833SOL     OW33397   3.082   6.552   4.273
10833SOL    HW133398   3.063   6.454   4.277
10833SOL    HW233399   3.026   6.600   4.340
10834SOL     OW33400   0.931   1.049   5.540
10834SOL    HW133401   0.950   1.147   5.533
10834SOL    HW233402   1.007   1.004   5.587
10835SOL     OW33403   6.772   1.862   1.984
10835SOL    HW133404   6.733   1.800   1.917
10835SOL    HW233405   6.713   1.866   2.065
10836SOL     OW33406   1.815   2.113   6.830
10836SOL    HW133407   1.773   2.035   6.876
10836SOL    HW233408   1.873   2.080   6.756
10837SOL     OW33409   0.826   5.932   1.507
10837SOL    HW133410   0.793   5.877   1.430
10837SOL    HW233411   0.884   6.006   1.473
10838SOL     OW33412   6.191   6.575   0.999
10838SOL    HW133413   6.240   6.657   1.028
10838SOL    HW233414   6.215   6.554   0.904
10839SOL     OW33415   2.278   1.934   0.931
10839SOL    HW133416   2.181   1.942   0.954
10839SOL    HW233417   2.307   1.839   0.940
10840SOL     OW33418   3.664   5.053   2.610
10840SOL    HW133419   3.602   4.977   2.629
10840SOL    HW233420   3.622   5.138   2.641
10841SOL     OW33421   4.366   4.596   6.140
10841SOL    HW133422   4.307   4.534   6.193
10841SOL    HW233423   4.324   4.613   6.051
10842SOL     OW33424   6.617   2.668   1.617
10842SOL    HW133425   6.532   2.625   1.649
10842SOL    HW233426   6.649   2.621   1.535
10843SOL     OW33427   0.201   0.940   1.750
10843SOL    HW133428   0.214   0.965   1.846
10843SOL    HW233429   0.282   0.890   1.719
10844SOL     OW33430   3.191   6.436   3.696
10844SOL    HW133431   3.229   6.378   3.624
10844SOL    HW233432   3.259   6.448   3.768
10845SOL     OW33433   1.917   2.870   0.807
10845SOL    HW133434   1.829   2.911   0.784
10845SOL    HW233435   1.925   2.863   0.906
10846SOL     OW33436   3.397   2.083   1.891
10846SOL    HW133437   3.460   2.083   1.969
10846SOL    HW233438   3.412   2.165   1.836
10847SOL     OW33439   3.911   2.632   5.779
10847SOL    HW133440   3.854   2.671   5.707
10847SOL    HW233441   4.006   2.627   5.748
10848SOL     OW33442   1.508   1.582   0.499
10848SOL    HW133443   1.575   1.630   0.556
10848SOL    HW233444   1.555   1.536   0.424
10849SOL     OW33445   2.235   4.850   4.566
10849SOL    HW133446   2.308   4.838   4.634
10849SOL    HW233447   2.149   4.817   4.604
10850SOL     OW33448   5.670   0.483   1.249
10850SOL    HW133449   5.605   0.559   1.250
10850SOL    HW233450   5.622   0.398   1.227
10851SOL     OW33451   4.475   2.215   6.284
10851SOL    HW133452   4.521   2.291   6.239
10851SOL    HW233453   4.455   2.239   6.379
10852SOL     OW33454   0.416   6.478   6.528
10852SOL    HW133455   0.489   6.488   6.460
10852SOL    HW233456   0.447   6.417   6.600
10853SOL     OW33457   2.113   1.853   4.816
10853SOL    HW133458   2.130   1.874   4.719
10853SOL    HW233459   2.200   1.854   4.865
10854SOL     OW33460   0.074   6.557   0.301
10854SOL    HW133461   0.069   6.493   0.224
10854SOL    HW233462   0.170   6.578   0.321
10855SOL     OW33463   1.495   6.018   1.613
10855SOL    HW133464   1.424   6.088   1.614
10855SOL    HW233465   1.567   6.042   1.678
10856SOL     OW33466   6.257   0.341   6.790
10856SOL    HW133467   6.235   0.368   6.697
10856SOL    HW233468   6.262   0.422   6.848
10857SOL     OW33469   6.003   0.507   4.905
10857SOL    HW133470   6.030   0.460   4.821
10857SOL    HW233471   5.915   0.552   4.891
10858SOL     OW33472   2.239   1.889   0.401
10858SOL    HW133473   2.249   1.790   0.399
10858SOL    HW233474   2.250   1.922   0.494
10859SOL     OW33475   0.870   5.318   2.069
10859SOL    HW133476   0.778   5.324   2.107
10859SOL    HW233477   0.933   5.286   2.140
10860SOL     OW33478   5.996   2.747   0.633
10860SOL    HW133479   5.940   2.728   0.713
10860SOL    HW233480   6.070   2.810   0.658
10861SOL     OW33481   3.329   2.859   2.033
10861SOL    HW133482   3.306   2.884   2.127
10861SOL    HW233483   3.427   2.842   2.027
10862SOL     OW33484   3.679   3.002   5.672
10862SOL    HW133485   3.608   3.050   5.620
10862SOL    HW233486   3.710   2.922   5.620
10863SOL     OW33487   2.357   1.512   3.369
10863SOL    HW133488   2.384   1.460   3.288
10863SOL    HW233489   2.431   1.573   3.396
10864SOL     OW33490   3.073   4.800   2.024
10864SOL    HW133491   2.977   4.784   2.044
10864SOL    HW233492   3.094   4.770   1.931
10865SOL     OW33493   3.565   1.521   2.670
10865SOL    HW133494   3.660   1.516   2.639
10865SOL    HW233495   3.557   1.475   2.759
10866SOL     OW33496   6.674   3.543   3.258
10866SOL    HW133497   6.696   3.454   3.219
10866SOL    HW233498   6.738   3.611   3.224
10867SOL     OW33499   4.241   3.349   0.735
10867SOL    HW133500   4.144   3.362   0.753
10867SOL    HW233501   4.291   3.347   0.822
10868SOL     OW33502   1.609   0.854   5.034
10868SOL    HW133503   1.515   0.820   5.032
10868SOL    HW233504   1.658   0.812   5.110
10869NA      NA33505   6.972   1.805   5.773
10870NA      NA33506   4.486   4.532   5.230
10871NA      NA33507   1.547   4.800   3.111
10872NA      NA33508   5.998   3.882   3.461
10873NA      NA33509   3.692   2.286   5.524
10874NA      NA33510   2.269   4.911   0.406
10875NA      NA33511   1.251   5.488   6.937
10876NA      NA33512   3.662   4.177   1.064
10877NA      NA33513   4.220   5.223   0.509
10878NA      NA33514   3.537   1.163   6.379
10879NA      NA33515   5.538   6.888   1.603
10880NA      NA33516   2.130   6.394   5.274
10881NA      NA33517   4.118   5.334   1.786
10882NA      NA33518   3.752   3.449   6.679
   7.01899   7.01899   7.01899
