Generated by trjconv : CNT in water t=  74.00000
33518
    1C        C    1   2.841   2.766   4.747
    1C        C    2   2.896   2.718   4.867
    1C        C    3   2.837   2.769   4.983
    1C        C    4   2.847   2.771   4.258
    1C        C    5   2.899   2.723   4.380
    1C        C    6   2.840   2.765   4.501
    1C        C    7   3.008   2.637   4.623
    1C        C    8   2.892   2.718   4.624
    1C        C    9   3.071   2.597   4.743
    1C        C   10   3.006   2.629   4.864
    1C        C   11   3.177   2.489   4.975
    1C        C   12   3.057   2.560   4.975
    1C        C   13   2.845   2.766   3.771
    1C        C   14   2.894   2.715   3.894
    1C        C   15   2.839   2.765   4.014
    1C        C   16   3.019   2.649   4.135
    1C        C   17   2.900   2.726   4.135
    1C        C   18   3.076   2.609   4.258
    1C        C   19   3.013   2.640   4.381
    1C        C   20   3.206   2.553   4.499
    1C        C   21   3.074   2.605   4.503
    1C        C   22   3.271   2.528   4.622
    1C        C   23   3.203   2.543   4.745
    1C        C   24   3.408   2.474   4.864
    1C        C   25   3.267   2.501   4.864
    1C        C   26   3.485   2.480   4.981
    1C        C   27   2.848   2.767   3.280
    1C        C   28   2.899   2.719   3.403
    1C        C   29   2.848   2.767   3.526
    1C        C   30   3.015   2.638   3.646
    1C        C   31   2.903   2.724   3.649
    1C        C   32   3.077   2.602   3.768
    1C        C   33   3.012   2.636   3.888
    1C        C   34   3.202   2.547   4.013
    1C        C   35   3.075   2.609   4.011
    1C        C   36   3.272   2.530   4.135
    1C        C   37   3.207   2.558   4.257
    1C        C   38   3.413   2.500   4.378
    1C        C   39   3.275   2.531   4.378
    1C        C   40   3.481   2.494   4.501
    1C        C   41   3.410   2.499   4.623
    1C        C   42   3.623   2.481   4.741
    1C        C   43   3.481   2.475   4.742
    1C        C   44   3.699   2.484   4.860
    1C        C   45   3.624   2.478   4.977
    1C        C   46   2.831   2.748   2.792
    1C        C   47   2.889   2.705   2.913
    1C        C   48   2.841   2.759   3.034
    1C        C   49   3.014   2.636   3.157
    1C        C   50   2.901   2.721   3.157
    1C        C   51   3.077   2.605   3.279
    1C        C   52   3.016   2.641   3.401
    1C        C   53   3.202   2.540   3.524
    1C        C   54   3.072   2.597   3.523
    1C        C   55   3.269   2.518   3.646
    1C        C   56   3.203   2.539   3.769
    1C        C   57   3.412   2.505   3.891
    1C        C   58   3.271   2.523   3.892
    1C        C   59   3.481   2.493   4.013
    1C        C   60   3.411   2.504   4.135
    1C        C   61   3.625   2.501   4.255
    1C        C   62   3.484   2.498   4.256
    1C        C   63   3.695   2.505   4.378
    1C        C   64   3.623   2.500   4.499
    1C        C   65   3.831   2.534   4.619
    1C        C   66   3.695   2.497   4.620
    1C        C   67   3.898   2.559   4.741
    1C        C   68   3.835   2.522   4.862
    1C        C   69   4.048   2.579   4.973
    1C        C   70   3.919   2.525   4.974
    1C        C   71   2.822   2.729   2.306
    1C        C   72   2.879   2.686   2.428
    1C        C   73   2.828   2.739   2.549
    1C        C   74   3.006   2.624   2.668
    1C        C   75   2.889   2.702   2.671
    1C        C   76   3.067   2.585   2.790
    1C        C   77   3.007   2.626   2.911
    1C        C   78   3.200   2.541   3.032
    1C        C   79   3.070   2.597   3.034
    1C        C   80   3.268   2.523   3.155
    1C        C   81   3.206   2.546   3.279
    1C        C   82   3.409   2.496   3.399
    1C        C   83   3.270   2.517   3.402
    1C        C   84   3.480   2.496   3.521
    1C        C   85   3.409   2.498   3.643
    1C        C   86   3.619   2.498   3.765
    1C        C   87   3.477   2.495   3.766
    1C        C   88   3.691   2.506   3.886
    1C        C   89   3.622   2.498   4.009
    1C        C   90   3.829   2.546   4.135
    1C        C   91   3.692   2.514   4.131
    1C        C   92   3.899   2.568   4.256
    1C        C   93   3.831   2.543   4.378
    1C        C   94   4.026   2.627   4.496
    1C        C   95   3.900   2.563   4.500
    1C        C   96   4.082   2.670   4.618
    1C        C   97   4.023   2.626   4.739
    1C        C   98   4.181   2.766   4.856
    1C        C   99   4.094   2.652   4.859
    1C        C  100   4.212   2.840   4.971
    1C        C  101   2.820   2.728   2.066
    1C        C  102   2.985   2.588   2.186
    1C        C  103   2.870   2.673   2.184
    1C        C  104   3.058   2.567   2.306
    1C        C  105   2.998   2.611   2.426
    1C        C  106   3.197   2.529   2.548
    1C        C  107   3.068   2.586   2.547
    1C        C  108   3.267   2.512   2.670
    1C        C  109   3.198   2.533   2.791
    1C        C  110   3.408   2.486   2.912
    1C        C  111   3.269   2.515   2.912
    1C        C  112   3.478   2.482   3.034
    1C        C  113   3.406   2.491   3.156
    1C        C  114   3.621   2.492   3.275
    1C        C  115   3.479   2.487   3.276
    1C        C  116   3.688   2.508   3.398
    1C        C  117   3.622   2.501   3.522
    1C        C  118   3.828   2.543   3.641
    1C        C  119   3.692   2.506   3.645
    1C        C  120   3.889   2.572   3.766
    1C        C  121   3.827   2.547   3.890
    1C        C  122   4.019   2.637   4.006
    1C        C  123   3.893   2.572   4.012
    1C        C  124   4.082   2.670   4.128
    1C        C  125   4.024   2.633   4.252
    1C        C  126   4.184   2.769   4.371
    1C        C  127   4.085   2.669   4.374
    1C        C  128   4.232   2.821   4.494
    1C        C  129   4.183   2.769   4.615
    1C        C  130   4.320   2.935   4.735
    1C        C  131   4.234   2.821   4.736
    1C        C  132   4.350   3.002   4.856
    1C        C  133   4.282   2.960   4.970
    1C        C  134   3.167   2.466   2.075
    1C        C  135   3.032   2.502   2.081
    1C        C  136   3.254   2.474   2.185
    1C        C  137   3.189   2.512   2.305
    1C        C  138   3.398   2.472   2.423
    1C        C  139   3.259   2.494   2.426
    1C        C  140   3.475   2.477   2.542
    1C        C  141   3.406   2.488   2.665
    1C        C  142   3.616   2.491   2.785
    1C        C  143   3.475   2.481   2.788
    1C        C  144   3.687   2.502   2.907
    1C        C  145   3.619   2.490   3.030
    1C        C  146   3.827   2.533   3.150
    1C        C  147   3.690   2.499   3.152
    1C        C  148   3.894   2.557   3.273
    1C        C  149   3.826   2.539   3.396
    1C        C  150   4.019   2.628   3.516
    1C        C  151   3.894   2.563   3.517
    1C        C  152   4.079   2.666   3.638
    1C        C  153   4.016   2.633   3.761
    1C        C  154   4.185   2.764   3.884
    1C        C  155   4.072   2.679   3.882
    1C        C  156   4.237   2.813   4.006
    1C        C  157   4.188   2.762   4.128
    1C        C  158   4.330   2.923   4.248
    1C        C  159   4.236   2.817   4.249
    1C        C  160   4.367   2.985   4.370
    1C        C  161   4.323   2.929   4.492
    1C        C  162   4.429   3.115   4.610
    1C        C  163   4.364   2.989   4.613
    1C        C  164   4.463   3.183   4.729
    1C        C  165   4.435   3.115   4.850
    1C        C  166   4.509   3.321   4.969
    1C        C  167   4.484   3.185   4.961
    1C        C  168   3.468   2.431   2.070
    1C        C  169   3.393   2.448   2.187
    1C        C  170   3.614   2.458   2.299
    1C        C  171   3.472   2.455   2.304
    1C        C  172   3.686   2.479   2.419
    1C        C  173   3.616   2.478   2.541
    1C        C  174   3.823   2.533   2.660
    1C        C  175   3.686   2.499   2.663
    1C        C  176   3.888   2.561   2.782
    1C        C  177   3.824   2.537   2.906
    1C        C  178   4.019   2.621   3.025
    1C        C  179   3.893   2.559   3.028
    1C        C  180   4.076   2.661   3.149
    1C        C  181   4.020   2.621   3.272
    1C        C  182   4.188   2.753   3.395
    1C        C  183   4.080   2.662   3.393
    1C        C  184   4.242   2.801   3.517
    1C        C  185   4.193   2.750   3.639
    1C        C  186   4.328   2.915   3.762
    1C        C  187   4.240   2.804   3.760
    1C        C  188   4.374   2.974   3.882
    1C        C  189   4.330   2.920   4.005
    1C        C  190   4.434   3.105   4.125
    1C        C  191   4.375   2.977   4.126
    1C        C  192   4.465   3.174   4.244
    1C        C  193   4.438   3.107   4.366
    1C        C  194   4.499   3.313   4.488
    1C        C  195   4.457   3.178   4.487
    1C        C  196   4.518   3.386   4.608
    1C        C  197   4.508   3.317   4.730
    1C        C  198   4.558   3.532   4.847
    1C        C  199   4.527   3.392   4.850
    1C        C  200   4.581   3.617   4.960
    1C        C  201   3.607   2.414   2.066
    1C        C  202   3.819   2.512   2.180
    1C        C  203   3.687   2.458   2.177
    1C        C  204   3.893   2.537   2.299
    1C        C  205   3.823   2.513   2.419
    1C        C  206   4.017   2.613   2.538
    1C        C  207   3.893   2.544   2.538
    1C        C  208   4.077   2.656   2.658
    1C        C  209   4.015   2.622   2.781
    1C        C  210   4.188   2.746   2.903
    1C        C  211   4.079   2.656   2.902
    1C        C  212   4.240   2.794   3.025
    1C        C  213   4.187   2.748   3.147
    1C        C  214   4.331   2.902   3.269
    1C        C  215   4.236   2.797   3.270
    1C        C  216   4.365   2.968   3.389
    1C        C  217   4.327   2.914   3.514
    1C        C  218   4.429   3.097   3.638
    1C        C  219   4.363   2.972   3.638
    1C        C  220   4.456   3.168   3.758
    1C        C  221   4.437   3.101   3.880
    1C        C  222   4.501   3.304   3.998
    1C        C  223   4.462   3.169   4.002
    1C        C  224   4.518   3.375   4.119
    1C        C  225   4.505   3.309   4.244
    1C        C  226   4.521   3.521   4.361
    1C        C  227   4.519   3.380   4.365
    1C        C  228   4.524   3.596   4.480
    1C        C  229   4.526   3.527   4.603
    1C        C  230   4.496   3.736   4.726
    1C        C  231   4.538   3.600   4.724
    1C        C  232   4.495   3.817   4.841
    1C        C  233   4.543   3.752   4.956
    1C        C  234   4.016   2.609   2.058
    1C        C  235   3.896   2.539   2.065
    1C        C  236   4.081   2.641   2.178
    1C        C  237   4.019   2.602   2.299
    1C        C  238   4.197   2.730   2.417
    1C        C  239   4.083   2.645   2.418
    1C        C  240   4.252   2.779   2.538
    1C        C  241   4.190   2.740   2.659
    1C        C  242   4.329   2.903   2.781
    1C        C  243   4.241   2.792   2.780
    1C        C  244   4.372   2.960   2.903
    1C        C  245   4.327   2.905   3.026
    1C        C  246   4.438   3.086   3.148
    1C        C  247   4.372   2.961   3.148
    1C        C  248   4.451   3.159   3.268
    1C        C  249   4.423   3.097   3.392
    1C        C  250   4.493   3.296   3.511
    1C        C  251   4.453   3.161   3.514
    1C        C  252   4.509   3.370   3.631
    1C        C  253   4.495   3.304   3.755
    1C        C  254   4.527   3.515   3.876
    1C        C  255   4.516   3.374   3.876
    1C        C  256   4.526   3.587   3.997
    1C        C  257   4.528   3.516   4.118
    1C        C  258   4.494   3.729   4.239
    1C        C  259   4.524   3.591   4.238
    1C        C  260   4.472   3.802   4.358
    1C        C  261   4.495   3.735   4.480
    1C        C  262   4.417   3.931   4.601
    1C        C  263   4.472   3.801   4.603
    1C        C  264   4.398   4.007   4.719
    1C        C  265   4.443   3.949   4.840
    1C        C  266   4.321   4.132   4.958
    1C        C  267   4.395   4.014   4.954
    1C        C  268   4.259   2.773   2.060
    1C        C  269   4.191   2.729   2.174
    1C        C  270   4.341   2.885   2.296
    1C        C  271   4.248   2.777   2.294
    1C        C  272   4.373   2.953   2.416
    1C        C  273   4.335   2.893   2.538
    1C        C  274   4.437   3.083   2.657
    1C        C  275   4.367   2.960   2.658
    1C        C  276   4.466   3.146   2.780
    1C        C  277   4.440   3.084   2.904
    1C        C  278   4.504   3.287   3.023
    1C        C  279   4.466   3.151   3.025
    1C        C  280   4.513   3.360   3.143
    1C        C  281   4.493   3.294   3.266
    1C        C  282   4.512   3.505   3.387
    1C        C  283   4.507   3.364   3.388
    1C        C  284   4.507   3.579   3.507
    1C        C  285   4.515   3.511   3.631
    1C        C  286   4.495   3.722   3.751
    1C        C  287   4.520   3.583   3.752
    1C        C  288   4.479   3.794   3.872
    1C        C  289   4.498   3.726   3.995
    1C        C  290   4.431   3.929   4.112
    1C        C  291   4.475   3.795   4.116
    1C        C  292   4.394   3.993   4.233
    1C        C  293   4.418   3.932   4.358
    1C        C  294   4.324   4.123   4.474
    1C        C  295   4.389   3.997   4.480
    1C        C  296   4.281   4.183   4.594
    1C        C  297   4.324   4.128   4.717
    1C        C  298   4.195   4.305   4.831
    1C        C  299   4.283   4.192   4.837
    1C        C  300   4.167   4.398   4.936
    1C        C  301   4.350   2.878   2.060
    1C        C  302   4.466   3.065   2.171
    1C        C  303   4.393   2.942   2.177
    1C        C  304   4.476   3.138   2.292
    1C        C  305   4.437   3.079   2.414
    1C        C  306   4.507   3.281   2.535
    1C        C  307   4.473   3.144   2.535
    1C        C  308   4.513   3.353   2.656
    1C        C  309   4.498   3.284   2.778
    1C        C  310   4.512   3.496   2.897
    1C        C  311   4.514   3.355   2.899
    1C        C  312   4.508   3.570   3.017
    1C        C  313   4.518   3.502   3.140
    1C        C  314   4.485   3.711   3.262
    1C        C  315   4.509   3.572   3.262
    1C        C  316   4.470   3.784   3.382
    1C        C  317   4.493   3.720   3.506
    1C        C  318   4.425   3.921   3.624
    1C        C  319   4.475   3.789   3.628
    1C        C  320   4.387   3.983   3.745
    1C        C  321   4.418   3.921   3.868
    1C        C  322   4.314   4.106   3.987
    1C        C  323   4.392   3.988   3.990
    1C        C  324   4.276   4.167   4.108
    1C        C  325   4.322   4.115   4.231
    1C        C  326   4.180   4.277   4.347
    1C        C  327   4.276   4.174   4.351
    1C        C  328   4.125   4.326   4.468
    1C        C  329   4.181   4.282   4.590
    1C        C  330   4.017   4.424   4.710
    1C        C  331   4.133   4.341   4.709
    1C        C  332   3.966   4.483   4.828
    1C        C  333   4.048   4.471   4.941
    1C        C  334   4.547   3.265   2.060
    1C        C  335   4.530   3.126   2.058
    1C        C  336   4.539   3.347   2.173
    1C        C  337   4.518   3.274   2.293
    1C        C  338   4.519   3.491   2.409
    1C        C  339   4.519   3.350   2.412
    1C        C  340   4.509   3.565   2.529
    1C        C  341   4.513   3.494   2.651
    1C        C  342   4.492   3.705   2.771
    1C        C  343   4.509   3.565   2.773
    1C        C  344   4.478   3.777   2.892
    1C        C  345   4.491   3.710   3.015
    1C        C  346   4.417   3.908   3.135
    1C        C  347   4.472   3.778   3.138
    1C        C  348   4.387   3.975   3.256
    1C        C  349   4.423   3.917   3.379
    1C        C  350   4.320   4.102   3.498
    1C        C  351   4.400   3.985   3.501
    1C        C  352   4.272   4.160   3.617
    1C        C  353   4.310   4.102   3.740
    1C        C  354   4.172   4.260   3.862
    1C        C  355   4.268   4.157   3.863
    1C        C  356   4.120   4.311   3.983
    1C        C  357   4.176   4.267   4.105
    1C        C  358   4.004   4.396   4.227
    1C        C  359   4.124   4.321   4.225
    1C        C  360   3.945   4.438   4.348
    1C        C  361   4.007   4.404   4.471
    1C        C  362   3.819   4.507   4.589
    1C        C  363   3.948   4.450   4.590
    1C        C  364   3.760   4.545   4.711
    1C        C  365   3.836   4.540   4.830
    1C        C  366   3.626   4.589   4.946
    1C        C  367   3.763   4.565   4.946
    1C        C  368   4.509   3.560   2.050
    1C        C  369   4.520   3.486   2.168
    1C        C  370   4.500   3.703   2.285
    1C        C  371   4.516   3.563   2.287
    1C        C  372   4.483   3.776   2.404
    1C        C  373   4.492   3.705   2.525
    1C        C  374   4.421   3.903   2.645
    1C        C  375   4.476   3.773   2.648
    1C        C  376   4.391   3.968   2.767
    1C        C  377   4.424   3.908   2.890
    1C        C  378   4.313   4.088   3.006
    1C        C  379   4.395   3.974   3.011
    1C        C  380   4.272   4.150   3.127
    1C        C  381   4.312   4.094   3.250
    1C        C  382   4.169   4.247   3.375
    1C        C  383   4.268   4.147   3.374
    1C        C  384   4.115   4.301   3.494
    1C        C  385   4.169   4.257   3.617
    1C        C  386   4.003   4.387   3.739
    1C        C  387   4.118   4.306   3.739
    1C        C  388   3.941   4.424   3.861
    1C        C  389   4.001   4.388   3.983
    1C        C  390   3.811   4.484   4.103
    1C        C  391   3.940   4.425   4.105
    1C        C  392   3.745   4.508   4.226
    1C        C  393   3.816   4.495   4.347
    1C        C  394   3.608   4.540   4.471
    1C        C  395   3.748   4.523   4.467
    1C        C  396   3.540   4.557   4.594
    1C        C  397   3.619   4.562   4.711
    1C        C  398   3.408   4.547   4.836
    1C        C  399   3.547   4.568   4.832
    1C        C  400   3.341   4.515   4.956
    1C        C  401   4.494   3.699   2.051
    1C        C  402   4.455   3.914   2.162
    1C        C  403   4.495   3.779   2.166
    1C        C  404   4.415   3.976   2.282
    1C        C  405   4.442   3.911   2.405
    1C        C  406   4.324   4.093   2.523
    1C        C  407   4.398   3.973   2.524
    1C        C  408   4.274   4.147   2.643
    1C        C  409   4.317   4.089   2.764
    1C        C  410   4.177   4.251   2.884
    1C        C  411   4.275   4.149   2.885
    1C        C  412   4.122   4.297   3.006
    1C        C  413   4.171   4.249   3.129
    1C        C  414   4.000   4.372   3.250
    1C        C  415   4.114   4.290   3.252
    1C        C  416   3.939   4.414   3.371
    1C        C  417   3.997   4.380   3.495
    1C        C  418   3.804   4.467   3.614
    1C        C  419   3.936   4.415   3.618
    1C        C  420   3.741   4.493   3.738
    1C        C  421   3.811   4.480   3.859
    1C        C  422   3.605   4.532   3.981
    1C        C  423   3.743   4.504   3.981
    1C        C  424   3.537   4.540   4.105
    1C        C  425   3.607   4.538   4.228
    1C        C  426   3.395   4.550   4.352
    1C        C  427   3.536   4.548   4.350
    1C        C  428   3.324   4.548   4.475
    1C        C  429   3.399   4.558   4.594
    1C        C  430   3.191   4.521   4.718
    1C        C  431   3.332   4.544   4.717
    1C        C  432   3.121   4.498   4.839
    1C        C  433   3.204   4.491   4.952
    1C        C  434   4.386   4.120   2.052
    1C        C  435   4.451   3.996   2.049
    1C        C  436   4.299   4.159   2.159
    1C        C  437   4.339   4.097   2.280
    1C        C  438   4.182   4.246   2.396
    1C        C  439   4.284   4.148   2.399
    1C        C  440   4.124   4.292   2.516
    1C        C  441   4.174   4.247   2.641
    1C        C  442   3.998   4.368   2.762
    1C        C  443   4.116   4.290   2.762
    1C        C  444   3.938   4.406   2.885
    1C        C  445   4.001   4.370   3.006
    1C        C  446   3.807   4.458   3.126
    1C        C  447   3.939   4.406   3.127
    1C        C  448   3.739   4.484   3.247
    1C        C  449   3.807   4.464   3.369
    1C        C  450   3.604   4.528   3.489
    1C        C  451   3.741   4.493   3.491
    1C        C  452   3.537   4.539   3.612
    1C        C  453   3.604   4.530   3.736
    1C        C  454   3.393   4.541   3.862
    1C        C  455   3.535   4.539   3.859
    1C        C  456   3.324   4.533   3.984
    1C        C  457   3.396   4.545   4.105
    1C        C  458   3.191   4.503   4.233
    1C        C  459   3.327   4.541   4.229
    1C        C  460   3.122   4.483   4.355
    1C        C  461   3.187   4.513   4.477
    1C        C  462   2.994   4.428   4.599
    1C        C  463   3.120   4.493   4.599
    1C        C  464   2.928   4.398   4.719
    1C        C  465   2.989   4.442   4.840
    1C        C  466   2.800   4.334   4.953
    1C        C  467   2.904   4.427   4.954
    1C        C  468   4.121   4.285   2.037
    1C        C  469   4.187   4.248   2.155
    1C        C  470   4.004   4.366   2.276
    1C        C  471   4.128   4.296   2.275
    1C        C  472   3.938   4.395   2.397
    1C        C  473   4.002   4.363   2.519
    1C        C  474   3.807   4.456   2.641
    1C        C  475   3.938   4.401   2.639
    1C        C  476   3.738   4.480   2.761
    1C        C  477   3.807   4.457   2.882
    1C        C  478   3.601   4.512   3.005
    1C        C  479   3.738   4.477   3.004
    1C        C  480   3.529   4.524   3.126
    1C        C  481   3.600   4.510   3.247
    1C        C  482   3.389   4.529   3.376
    1C        C  483   3.530   4.526   3.369
    1C        C  484   3.317   4.533   3.498
    1C        C  485   3.396   4.536   3.615
    1C        C  486   3.189   4.498   3.743
    1C        C  487   3.326   4.531   3.738
    1C        C  488   3.121   4.477   3.865
    1C        C  489   3.186   4.502   3.988
    1C        C  490   2.997   4.413   4.111
    1C        C  491   3.123   4.477   4.112
    1C        C  492   2.937   4.379   4.234
    1C        C  493   2.997   4.418   4.356
    1C        C  494   2.823   4.299   4.479
    1C        C  495   2.934   4.386   4.478
    1C        C  496   2.773   4.249   4.602
    1C        C  497   2.819   4.307   4.722
    1C        C  498   2.667   4.154   4.844
    1C        C  499   2.755   4.264   4.840
    1C        C  500   2.594   4.110   4.956
    1C        C  501   4.000   4.354   2.038
    1C        C  502   3.811   4.459   2.154
    1C        C  503   3.941   4.403   2.155
    1C        C  504   3.738   4.467   2.274
    1C        C  505   3.805   4.441   2.396
    1C        C  506   3.602   4.500   2.516
    1C        C  507   3.740   4.472   2.517
    1C        C  508   3.529   4.507   2.636
    1C        C  509   3.600   4.511   2.759
    1C        C  510   3.391   4.523   2.880
    1C        C  511   3.532   4.520   2.882
    1C        C  512   3.321   4.524   3.003
    1C        C  513   3.388   4.534   3.127
    1C        C  514   3.185   4.489   3.250
    1C        C  515   3.322   4.523   3.251
    1C        C  516   3.118   4.469   3.373
    1C        C  517   3.181   4.495   3.496
    1C        C  518   2.994   4.409   3.623
    1C        C  519   3.120   4.474   3.622
    1C        C  520   2.936   4.370   3.745
    1C        C  521   2.999   4.406   3.867
    1C        C  522   2.834   4.277   3.992
    1C        C  523   2.938   4.371   3.989
    1C        C  524   2.785   4.229   4.116
    1C        C  525   2.826   4.292   4.236
    1C        C  526   2.696   4.126   4.360
    1C        C  527   2.772   4.246   4.359
    1C        C  528   2.654   4.071   4.483
    1C        C  529   2.682   4.140   4.602
    1C        C  530   2.583   3.953   4.726
    1C        C  531   2.642   4.083   4.725
    1C        C  532   2.538   3.896   4.849
    1C        C  533   2.519   3.992   4.954
    1C        C  534   3.615   4.559   2.042
    1C        C  535   3.743   4.503   2.040
    1C        C  536   3.529   4.530   2.153
    1C        C  537   3.600   4.503   2.273
    1C        C  538   3.389   4.504   2.395
    1C        C  539   3.529   4.512   2.395
    1C        C  540   3.315   4.500   2.516
    1C        C  541   3.388   4.507   2.637
    1C        C  542   3.179   4.483   2.765
    1C        C  543   3.318   4.511   2.760
    1C        C  544   3.113   4.461   2.888
    1C        C  545   3.185   4.485   3.008
    1C        C  546   2.991   4.397   3.130
    1C        C  547   3.116   4.464   3.129
    1C        C  548   2.936   4.360   3.255
    1C        C  549   2.993   4.404   3.377
    1C        C  550   2.828   4.276   3.501
    1C        C  551   2.936   4.367   3.501
    1C        C  552   2.776   4.228   3.623
    1C        C  553   2.830   4.277   3.745
    1C        C  554   2.703   4.113   3.870
    1C        C  555   2.784   4.228   3.869
    1C        C  556   2.663   4.055   3.993
    1C        C  557   2.701   4.116   4.114
    1C        C  558   2.600   3.935   4.243
    1C        C  559   2.664   4.061   4.239
    1C        C  560   2.572   3.870   4.366
    1C        C  561   2.594   3.943   4.484
    1C        C  562   2.533   3.742   4.617
    1C        C  563   2.564   3.880   4.607
    1C        C  564   2.515   3.675   4.739
    1C        C  565   2.520   3.754   4.857
    1C        C  566   2.525   3.540   4.974
    1C        C  567   2.515   3.679   4.975
    1C        C  568   3.321   4.466   2.035
    1C        C  569   3.388   4.510   2.150
    1C        C  570   3.177   4.476   2.276
    1C        C  571   3.318   4.499   2.273
    1C        C  572   3.108   4.460   2.398
    1C        C  573   3.176   4.477   2.521
    1C        C  574   2.982   4.400   2.644
    1C        C  575   3.110   4.458   2.644
    1C        C  576   2.923   4.360   2.766
    1C        C  577   2.987   4.398   2.886
    1C        C  578   2.820   4.270   3.009
    1C        C  579   2.929   4.359   3.009
    1C        C  580   2.775   4.220   3.134
    1C        C  581   2.831   4.266   3.255
    1C        C  582   2.696   4.109   3.381
    1C        C  583   2.784   4.219   3.379
    1C        C  584   2.659   4.051   3.505
    1C        C  585   2.691   4.115   3.626
    1C        C  586   2.596   3.927   3.754
    1C        C  587   2.661   4.052   3.749
    1C        C  588   2.567   3.865   3.878
    1C        C  589   2.600   3.929   4.000
    1C        C  590   2.529   3.732   4.125
    1C        C  591   2.568   3.868   4.123
    1C        C  592   2.513   3.665   4.249
    1C        C  593   2.529   3.735   4.370
    1C        C  594   2.510   3.530   4.496
    1C        C  595   2.520   3.671   4.496
    1C        C  596   2.512   3.457   4.617
    1C        C  597   2.510   3.532   4.737
    1C        C  598   2.521   3.320   4.858
    1C        C  599   2.517   3.461   4.859
    1C        C  600   2.521   3.245   4.976
    1C        C  601   3.188   4.429   2.036
    1C        C  602   2.980   4.387   2.156
    1C        C  603   3.114   4.438   2.155
    1C        C  604   2.922   4.353   2.281
    1C        C  605   2.984   4.393   2.401
    1C        C  606   2.810   4.273   2.525
    1C        C  607   2.920   4.361   2.523
    1C        C  608   2.762   4.217   2.645
    1C        C  609   2.814   4.270   2.765
    1C        C  610   2.680   4.108   2.894
    1C        C  611   2.766   4.220   2.888
    1C        C  612   2.650   4.047   3.018
    1C        C  613   2.690   4.107   3.139
    1C        C  614   2.587   3.923   3.265
    1C        C  615   2.647   4.051   3.262
    1C        C  616   2.563   3.858   3.388
    1C        C  617   2.592   3.926   3.508
    1C        C  618   2.528   3.727   3.633
    1C        C  619   2.567   3.863   3.632
    1C        C  620   2.511   3.662   3.758
    1C        C  621   2.524   3.731   3.880
    1C        C  622   2.503   3.521   4.005
    1C        C  623   2.513   3.662   4.003
    1C        C  624   2.503   3.452   4.128
    1C        C  625   2.504   3.525   4.249
    1C        C  626   2.527   3.319   4.377
    1C        C  627   2.512   3.459   4.374
    1C        C  628   2.553   3.248   4.497
    1C        C  629   2.538   3.319   4.618
    1C        C  630   2.592   3.113   4.742
    1C        C  631   2.541   3.246   4.739
    1C        C  632   2.615   3.048   4.866
    1C        C  633   2.559   3.110   4.983
    1C        C  634   2.777   4.299   2.053
    1C        C  635   2.885   4.389   2.049
    1C        C  636   2.744   4.224   2.166
    1C        C  637   2.810   4.266   2.284
    1C        C  638   2.675   4.102   2.408
    1C        C  639   2.760   4.215   2.406
    1C        C  640   2.634   4.042   2.529
    1C        C  641   2.678   4.103   2.648
    1C        C  642   2.585   3.918   2.776
    1C        C  643   2.643   4.047   2.773
    1C        C  644   2.559   3.853   2.899
    1C        C  645   2.585   3.921   3.020
    1C        C  646   2.524   3.721   3.143
    1C        C  647   2.562   3.857   3.143
    1C        C  648   2.508   3.652   3.265
    1C        C  649   2.522   3.723   3.387
    1C        C  650   2.505   3.516   3.517
    1C        C  651   2.512   3.657   3.512
    1C        C  652   2.511   3.447   3.640
    1C        C  653   2.501   3.521   3.760
    1C        C  654   2.536   3.312   3.888
    1C        C  655   2.508   3.450   3.882
    1C        C  656   2.549   3.244   4.011
    1C        C  657   2.531   3.313   4.133
    1C        C  658   2.601   3.117   4.256
    1C        C  659   2.552   3.249   4.257
    1C        C  660   2.631   3.051   4.378
    1C        C  661   2.599   3.115   4.500
    1C        C  662   2.710   2.935   4.621
    1C        C  663   2.627   3.049   4.621
    1C        C  664   2.753   2.878   4.744
    1C        C  665   2.694   2.929   4.863
    1C        C  666   2.735   2.864   4.980
    1C        C  667   2.676   4.018   2.048
    1C        C  668   2.682   4.097   2.164
    1C        C  669   2.581   3.910   2.290
    1C        C  670   2.639   4.040   2.286
    1C        C  671   2.547   3.844   2.410
    1C        C  672   2.575   3.914   2.530
    1C        C  673   2.514   3.716   2.658
    1C        C  674   2.552   3.852   2.655
    1C        C  675   2.512   3.643   2.778
    1C        C  676   2.527   3.716   2.898
    1C        C  677   2.500   3.508   3.026
    1C        C  678   2.512   3.649   3.022
    1C        C  679   2.505   3.438   3.149
    1C        C  680   2.504   3.511   3.270
    1C        C  681   2.534   3.307   3.398
    1C        C  682   2.504   3.445   3.395
    1C        C  683   2.552   3.240   3.521
    1C        C  684   2.535   3.308   3.643
    1C        C  685   2.605   3.110   3.767
    1C        C  686   2.551   3.241   3.767
    1C        C  687   2.632   3.048   3.891
    1C        C  688   2.597   3.111   4.013
    1C        C  689   2.711   2.933   4.135
    1C        C  690   2.632   3.050   4.135
    1C        C  691   2.753   2.876   4.257
    1C        C  692   2.708   2.933   4.379
    1C        C  693   2.748   2.872   4.500
    1C        C  694   2.623   3.888   2.055
    1C        C  695   2.513   3.703   2.170
    1C        C  696   2.572   3.832   2.173
    1C        C  697   2.493   3.638   2.294
    1C        C  698   2.513   3.708   2.415
    1C        C  699   2.487   3.501   2.540
    1C        C  700   2.495   3.642   2.539
    1C        C  701   2.491   3.429   2.662
    1C        C  702   2.496   3.502   2.783
    1C        C  703   2.523   3.294   2.905
    1C        C  704   2.501   3.434   2.906
    1C        C  705   2.543   3.228   3.029
    1C        C  706   2.530   3.299   3.150
    1C        C  707   2.595   3.104   3.274
    1C        C  708   2.545   3.236   3.276
    1C        C  709   2.628   3.043   3.397
    1C        C  710   2.597   3.105   3.520
    1C        C  711   2.707   2.928   3.646
    1C        C  712   2.629   3.046   3.644
    1C        C  713   2.751   2.871   3.768
    1C        C  714   2.712   2.932   3.889
    1C        C  715   2.749   2.874   4.013
    1C        C  716   2.442   3.498   2.059
    1C        C  717   2.483   3.631   2.054
    1C        C  718   2.459   3.419   2.177
    1C        C  719   2.473   3.497   2.295
    1C        C  720   2.512   3.290   2.418
    1C        C  721   2.487   3.429   2.418
    1C        C  722   2.534   3.221   2.539
    1C        C  723   2.516   3.290   2.661
    1C        C  724   2.583   3.090   2.787
    1C        C  725   2.539   3.224   2.784
    1C        C  726   2.620   3.031   2.910
    1C        C  727   2.598   3.098   3.032
    1C        C  728   2.703   2.916   3.158
    1C        C  729   2.626   3.034   3.155
    1C        C  730   2.746   2.864   3.282
    1C        C  731   2.708   2.927   3.403
    1C        C  732   2.751   2.870   3.525
    1C        C  733   2.485   3.196   2.069
    1C        C  734   2.482   3.278   2.182
    1C        C  735   2.582   3.082   2.302
    1C        C  736   2.523   3.211   2.301
    1C        C  737   2.613   3.018   2.424
    1C        C  738   2.586   3.089   2.543
    1C        C  739   2.694   2.907   2.665
    1C        C  740   2.618   3.026   2.665
    1C        C  741   2.741   2.856   2.789
    1C        C  742   2.696   2.911   2.911
    1C        C  743   2.744   2.861   3.034
    1C        C  744   2.545   3.070   2.068
    1C        C  745   2.690   2.901   2.182
    1C        C  746   2.606   3.015   2.181
    1C        C  747   2.732   2.839   2.302
    1C        C  748   2.687   2.898   2.422
    1C        C  749   2.738   2.849   2.545
    1C        C  750   2.737   2.840   2.065
    1C        C  751   3.663   2.305   1.984
    1C        O  752   3.670   2.187   2.027
    1C        O  753   3.647   2.308   1.844
    1C        C  754   4.626   3.058   1.968
    1C        O  755   4.589   3.026   1.852
    1C        O  756   4.742   3.001   2.022
    1C        C  757   4.442   4.228   1.967
    1C        O  758   4.500   4.327   2.021
    1C        O  759   4.414   4.219   1.830
    1C        C  760   3.617   4.692   1.977
    1C        O  761   3.647   4.801   2.032
    1C        O  762   3.580   4.713   1.844
    1C        C  763   2.855   4.518   1.983
    1C        O  764   2.882   4.535   1.861
    1C        O  765   2.797   4.625   2.052
    1C        C  766   2.331   3.462   1.967
    1C        O  767   2.341   3.500   1.847
    1C        O  768   2.202   3.475   2.019
    1C        C  769   4.679   3.579   5.063
    1C        O  770   4.661   3.599   5.186
    1C        O  771   4.813   3.544   5.040
    1C        C  772   4.279   4.467   5.004
    1C        O  773   4.345   4.414   5.098
    1C        O  774   4.303   4.604   5.017
    1C        C  775   4.137   2.537   5.084
    1C        O  776   4.215   2.438   5.074
    1C        O  777   4.130   2.584   5.216
    1C        C  778   2.867   4.541   5.041
    1C        O  779   2.755   4.599   5.043
    1C        O  780   2.937   4.564   5.160
    1C        C  781   2.456   3.030   5.053
    1C        O  782   2.343   3.009   5.000
    1C        O  783   2.436   3.041   5.190
    1C        C  784   2.381   4.009   5.005
    1C        O  785   2.301   4.097   4.963
    1C        O  786   2.351   3.950   5.128
    1C        C  787   2.943   2.421   1.995
    1C        O  788   2.952   2.408   1.870
    1C        O  789   2.899   2.303   2.054
    1C        C  790   3.179   2.359   5.045
    1C        O  791   3.166   2.251   4.981
    1C        O  792   3.256   2.344   5.161
    1C        H  793   4.291   3.016   5.061
    1C        H  794   4.136   2.833   5.046
    1C        H  795   4.466   3.139   5.056
    1C        H  796   4.481   3.370   5.060
    1C        H  797   4.573   3.816   5.036
    1C        H  798   4.374   3.951   5.038
    1C        H  799   4.319   4.189   5.049
    1C        H  800   4.025   4.535   5.023
    1C        H  801   3.809   4.559   5.042
    1C        H  802   3.581   4.642   5.027
    1C        H  803   3.385   4.496   5.051
    1C        H  804   3.148   4.505   5.042
    1C        H  805   3.899   2.459   5.057
    1C        H  806   3.670   2.479   5.074
    1C        H  807   3.005   2.565   5.068
    1C        H  808   3.446   2.475   5.081
    1C        H  809   2.887   2.750   5.076
    1C        H  810   2.659   2.852   5.054
    1C        H  811   2.430   3.260   5.029
    1C        H  812   2.540   3.496   5.070
    1C        H  813   2.469   3.718   5.064
    1C        H  814   2.604   4.167   5.046
    1C        H  815   2.765   4.299   5.048
    1C        H  816   2.674   2.853   1.980
    1C        H  817   2.827   2.673   1.975
    1C        H  818   3.188   2.381   2.014
    1C        H  819   3.414   2.458   1.982
    1C        H  820   3.867   2.488   1.976
    1C        H  821   4.080   2.593   1.974
    1C        H  822   4.296   2.691   2.001
    1C        H  823   4.424   2.867   1.983
    1C        H  824   4.516   3.309   1.967
    1C        H  825   4.531   3.515   1.955
    1C        H  826   4.505   3.752   1.959
    1C        H  827   3.791   4.496   1.944
    1C        H  828   3.938   4.340   1.952
    1C        H  829   4.184   4.317   1.957
    1C        H  830   4.534   3.990   1.981
    1C        H  831   2.586   3.850   1.962
    1C        H  832   2.670   4.060   1.950
    1C        H  833   2.696   4.309   1.984
    1C        H  834   3.353   4.504   1.941
    1C        H  835   3.150   4.367   1.957
    1C        H  836   2.481   3.004   2.012
    1C        H  837   2.474   3.239   1.972
    1C        H  838   2.472   3.689   1.964
    2V3OU   H29  839   2.804   3.544   1.170
    2V3OU   C27  840   2.775   3.492   1.266
    2V3OU   H27  841   2.715   3.565   1.327
    2V3OU   H28  842   2.722   3.394   1.257
    2V3OU   O11  843   2.902   3.473   1.327
    2V3OU   C15  844   2.918   3.388   1.434
    2V3OU   C13  845   3.049   3.373   1.483
    2V3OU   C14  846   3.075   3.265   1.569
    2V3OU   C16  847   2.968   3.187   1.610
    2V3OU    H6  848   2.986   3.108   1.684
    2V3OU   C12  849   3.212   3.222   1.603
    2V3OU    O2  850   3.236   3.118   1.667
    2V3OU   C10  851   3.325   3.298   1.547
    2V3OU    C8  852   3.456   3.265   1.577
    2V3OU   O10  853   3.485   3.143   1.631
    2V3OU   H26  854   3.400   3.112   1.663
    2V3OU    C6  855   3.564   3.345   1.527
    2V3OU    C5  856   3.538   3.462   1.456
    2V3OU    C4  857   3.702   3.290   1.522
    2V3OU    H4  858   3.727   3.223   1.609
    2V3OU    H5  859   3.706   3.229   1.427
    2V3OU    C2  860   3.814   3.394   1.518
    2V3OU    O6  861   3.802   3.474   1.636
    2V3OU   H21  862   3.761   3.556   1.605
    2V3OU    C3  863   3.781   3.492   1.405
    2V3OU    H2  864   3.858   3.574   1.410
    2V3OU    H3  865   3.782   3.435   1.309
    2V3OU   C25  866   3.950   3.326   1.495
    2V3OU    O7  867   3.994   3.291   1.386
    2V3OU   C26  868   4.025   3.286   1.620
    2V3OU   H22  869   4.051   3.384   1.668
    2V3OU   H23  870   4.117   3.227   1.593
    2V3OU    O8  871   3.957   3.205   1.714
    2V3OU   H24  872   3.909   3.268   1.770
    2V3OU    C1  873   3.646   3.560   1.423
    2V3OU    H1  874   3.621   3.613   1.327
    2V3OU    O3  875   3.656   3.657   1.528
    2V3OU   C19  876   3.615   3.793   1.511
    2V3OU    H9  877   3.513   3.806   1.465
    2V3OU    O4  878   3.713   3.848   1.426
    2V3OU   C20  879   3.843   3.869   1.483
    2V3OU   H10  880   3.889   3.769   1.507
    2V3OU   C24  881   3.606   3.852   1.652
    2V3OU   H16  882   3.535   3.788   1.710
    2V3OU   H17  883   3.557   3.950   1.629
    2V3OU   C23  884   3.747   3.871   1.709
    2V3OU   H15  885   3.793   3.768   1.726
    2V3OU    N1  886   3.736   3.950   1.830
    2V3OU   H19  887   3.804   3.915   1.894
    2V3OU   H20  888   3.650   3.922   1.873
    2V3OU   C21  889   3.844   3.949   1.614
    2V3OU   H11  890   3.946   3.928   1.659
    2V3OU    O5  891   3.820   4.088   1.605
    2V3OU   H18  892   3.774   4.098   1.690
    2V3OU   C22  893   3.910   3.946   1.370
    2V3OU   H12  894   3.858   4.044   1.352
    2V3OU   H13  895   3.903   3.889   1.274
    2V3OU   H14  896   4.019   3.960   1.389
    2V3OU   C11  897   3.159   3.464   1.448
    2V3OU    O1  898   3.136   3.582   1.413
    2V3OU    C9  899   3.296   3.413   1.469
    2V3OU    C7  900   3.401   3.494   1.427
    2V3OU    O9  901   3.386   3.608   1.350
    2V3OU   H25  902   3.291   3.621   1.334
    2V3OU   C17  903   2.810   3.309   1.479
    2V3OU    H7  904   2.706   3.336   1.460
    2V3OU   C18  905   2.836   3.207   1.571
    2V3OU    H8  906   2.750   3.144   1.598
    3SOL     OW  907   1.534   3.123   0.394
    3SOL    HW1  908   1.523   3.205   0.338
    3SOL    HW2  909   1.625   3.122   0.435
    4SOL     OW  910   5.789   0.405   1.688
    4SOL    HW1  911   5.815   0.489   1.735
    4SOL    HW2  912   5.812   0.412   1.591
    5SOL     OW  913   3.290   2.291   1.123
    5SOL    HW1  914   3.313   2.315   1.218
    5SOL    HW2  915   3.245   2.369   1.079
    6SOL     OW  916   2.877   1.912   1.239
    6SOL    HW1  917   2.801   1.948   1.293
    6SOL    HW2  918   2.852   1.909   1.143
    7SOL     OW  919   6.049   1.350   1.590
    7SOL    HW1  920   6.036   1.425   1.654
    7SOL    HW2  921   6.049   1.385   1.497
    8SOL     OW  922   2.371   1.130   5.029
    8SOL    HW1  923   2.289   1.121   4.973
    8SOL    HW2  924   2.350   1.181   5.112
    9SOL     OW  925   1.516   3.491   5.639
    9SOL    HW1  926   1.513   3.588   5.665
    9SOL    HW2  927   1.530   3.435   5.720
   10SOL     OW  928   0.359   3.448   0.190
   10SOL    HW1  929   0.386   3.461   0.095
   10SOL    HW2  930   0.398   3.522   0.245
   11SOL     OW  931   3.872   6.643   0.135
   11SOL    HW1  932   3.804   6.573   0.115
   11SOL    HW2  933   3.953   6.600   0.175
   12SOL     OW  934   5.483   6.586   2.547
   12SOL    HW1  935   5.480   6.540   2.458
   12SOL    HW2  936   5.399   6.565   2.598
   13SOL     OW  937   2.431   6.471   3.501
   13SOL    HW1  938   2.338   6.437   3.501
   13SOL    HW2  939   2.430   6.571   3.510
   14SOL     OW  940   3.326   6.138   1.191
   14SOL    HW1  941   3.309   6.236   1.180
   14SOL    HW2  942   3.338   6.116   1.288
   15SOL     OW  943   1.575   6.274   6.627
   15SOL    HW1  944   1.603   6.213   6.701
   15SOL    HW2  945   1.626   6.250   6.544
   16SOL     OW  946   6.331   1.932   5.656
   16SOL    HW1  947   6.340   2.001   5.729
   16SOL    HW2  948   6.422   1.909   5.622
   17SOL     OW  949   5.284   6.735   4.574
   17SOL    HW1  950   5.343   6.655   4.588
   17SOL    HW2  951   5.243   6.730   4.483
   18SOL     OW  952   1.573   1.490   6.284
   18SOL    HW1  953   1.490   1.519   6.331
   18SOL    HW2  954   1.653   1.516   6.339
   19SOL     OW  955   1.067   0.227   2.103
   19SOL    HW1  956   1.147   0.190   2.057
   19SOL    HW2  957   0.984   0.198   2.054
   20SOL     OW  958   3.175   2.171   4.262
   20SOL    HW1  959   3.083   2.208   4.274
   20SOL    HW2  960   3.211   2.143   4.351
   21SOL     OW  961   3.168   2.533   1.021
   21SOL    HW1  962   3.134   2.580   1.102
   21SOL    HW2  963   3.100   2.537   0.948
   22SOL     OW  964   1.307   6.872   5.986
   22SOL    HW1  965   1.273   6.963   5.963
   22SOL    HW2  966   1.342   6.828   5.903
   23SOL     OW  967   3.741   6.368   4.411
   23SOL    HW1  968   3.707   6.351   4.504
   23SOL    HW2  969   3.841   6.374   4.413
   24SOL     OW  970   4.233   1.371   4.875
   24SOL    HW1  971   4.297   1.393   4.801
   24SOL    HW2  972   4.266   1.409   4.961
   25SOL     OW  973   3.634   5.577   0.600
   25SOL    HW1  974   3.703   5.536   0.660
   25SOL    HW2  975   3.588   5.504   0.549
   26SOL     OW  976   6.329   1.555   2.345
   26SOL    HW1  977   6.407   1.510   2.302
   26SOL    HW2  978   6.360   1.601   2.429
   27SOL     OW  979   5.802   6.400   2.388
   27SOL    HW1  980   5.750   6.486   2.396
   27SOL    HW2  981   5.897   6.417   2.411
   28SOL     OW  982   3.947   0.355   0.016
   28SOL    HW1  983   3.886   0.309   0.081
   28SOL    HW2  984   4.041   0.324   0.031
   29SOL     OW  985   4.575   2.146   1.749
   29SOL    HW1  986   4.558   2.206   1.827
   29SOL    HW2  987   4.609   2.058   1.782
   30SOL     OW  988   3.500   0.654   4.643
   30SOL    HW1  989   3.441   0.689   4.570
   30SOL    HW2  990   3.445   0.632   4.724
   31SOL     OW  991   0.378   0.255   5.618
   31SOL    HW1  992   0.388   0.321   5.693
   31SOL    HW2  993   0.321   0.295   5.547
   32SOL     OW  994   0.463   1.992   1.331
   32SOL    HW1  995   0.398   2.008   1.405
   32SOL    HW2  996   0.543   1.945   1.367
   33SOL     OW  997   1.751   2.150   5.969
   33SOL    HW1  998   1.804   2.216   5.914
   33SOL    HW2  999   1.791   2.059   5.959
   34SOL     OW 1000   1.164   0.570   4.904
   34SOL    HW1 1001   1.235   0.561   4.835
   34SOL    HW2 1002   1.205   0.572   4.995
   35SOL     OW 1003   4.482   1.615   6.559
   35SOL    HW1 1004   4.544   1.675   6.507
   35SOL    HW2 1005   4.535   1.563   6.625
   36SOL     OW 1006   1.511   2.025   5.870
   36SOL    HW1 1007   1.590   2.077   5.900
   36SOL    HW2 1008   1.473   1.974   5.948
   37SOL     OW 1009   3.024   6.684   1.948
   37SOL    HW1 1010   3.020   6.750   2.023
   37SOL    HW2 1011   2.989   6.596   1.980
   38SOL     OW 1012   6.842   6.425   3.048
   38SOL    HW1 1013   6.935   6.408   3.016
   38SOL    HW2 1014   6.832   6.522   3.072
   39SOL     OW 1015   0.109   3.598   5.272
   39SOL    HW1 1016   0.103   3.607   5.173
   39SOL    HW2 1017   0.114   3.690   5.313
   40SOL     OW 1018   6.903   0.519   1.941
   40SOL    HW1 1019   6.939   0.466   2.018
   40SOL    HW2 1020   6.803   0.516   1.943
   41SOL     OW 1021   1.141   6.688   5.479
   41SOL    HW1 1022   1.136   6.759   5.549
   41SOL    HW2 1023   1.225   6.636   5.492
   42SOL     OW 1024   3.497   0.561   0.102
   42SOL    HW1 1025   3.514   0.585   0.198
   42SOL    HW2 1026   3.577   0.583   0.047
   43SOL     OW 1027   5.485   5.794   5.428
   43SOL    HW1 1028   5.579   5.775   5.457
   43SOL    HW2 1029   5.446   5.714   5.383
   44SOL     OW 1030   0.598   2.944   6.274
   44SOL    HW1 1031   0.538   2.927   6.196
   44SOL    HW2 1032   0.649   3.029   6.258
   45SOL     OW 1033   2.584   0.396   2.086
   45SOL    HW1 1034   2.573   0.297   2.099
   45SOL    HW2 1035   2.658   0.413   2.021
   46SOL     OW 1036   1.805   3.980   4.066
   46SOL    HW1 1037   1.872   3.951   4.134
   46SOL    HW2 1038   1.716   3.992   4.109
   47SOL     OW 1039   6.350   4.835   3.589
   47SOL    HW1 1040   6.401   4.921   3.598
   47SOL    HW2 1041   6.339   4.813   3.493
   48SOL     OW 1042   0.385   2.585   5.231
   48SOL    HW1 1043   0.342   2.673   5.210
   48SOL    HW2 1044   0.373   2.565   5.328
   49SOL     OW 1045   4.721   2.124   0.998
   49SOL    HW1 1046   4.632   2.092   1.031
   49SOL    HW2 1047   4.791   2.103   1.066
   50SOL     OW 1048   6.736   4.058   4.359
   50SOL    HW1 1049   6.812   4.096   4.307
   50SOL    HW2 1050   6.700   4.127   4.421
   51SOL     OW 1051   3.649   5.193   2.783
   51SOL    HW1 1052   3.708   5.245   2.721
   51SOL    HW2 1053   3.596   5.257   2.839
   52SOL     OW 1054   1.700   2.081   1.774
   52SOL    HW1 1055   1.790   2.106   1.808
   52SOL    HW2 1056   1.679   1.987   1.802
   53SOL     OW 1057   5.211   0.261   4.005
   53SOL    HW1 1058   5.253   0.315   4.078
   53SOL    HW2 1059   5.169   0.179   4.044
   54SOL     OW 1060   4.017   5.361   5.673
   54SOL    HW1 1061   4.101   5.309   5.689
   54SOL    HW2 1062   4.037   5.441   5.616
   55SOL     OW 1063   4.144   1.713   0.397
   55SOL    HW1 1064   4.239   1.690   0.417
   55SOL    HW2 1065   4.121   1.801   0.440
   56SOL     OW 1066   1.263   0.444   1.965
   56SOL    HW1 1067   1.275   0.395   2.051
   56SOL    HW2 1068   1.172   0.485   1.962
   57SOL     OW 1069   5.743   0.820   0.229
   57SOL    HW1 1070   5.695   0.741   0.190
   57SOL    HW2 1071   5.759   0.805   0.326
   58SOL     OW 1072   6.924   6.384   6.985
   58SOL    HW1 1073   6.972   6.362   0.054
   58SOL    HW2 1074   6.885   6.475   6.991
   59SOL     OW 1075   1.090   0.157   5.412
   59SOL    HW1 1076   1.129   0.248   5.420
   59SOL    HW2 1077   1.156   0.095   5.369
   60SOL     OW 1078   4.170   6.792   4.967
   60SOL    HW1 1079   4.248   6.753   4.918
   60SOL    HW2 1080   4.100   6.721   4.979
   61SOL     OW 1081   4.537   0.178   4.437
   61SOL    HW1 1082   4.440   0.156   4.445
   61SOL    HW2 1083   4.548   0.274   4.413
   62SOL     OW 1084   1.394   0.746   4.575
   62SOL    HW1 1085   1.481   0.697   4.584
   62SOL    HW2 1086   1.401   0.813   4.501
   63SOL     OW 1087   0.017   2.937   3.269
   63SOL    HW1 1088   0.083   3.006   3.298
   63SOL    HW2 1089   6.943   2.980   3.255
   64SOL     OW 1090   6.918   3.747   5.768
   64SOL    HW1 1091   7.004   3.717   5.808
   64SOL    HW2 1092   6.845   3.684   5.795
   65SOL     OW 1093   6.565   4.699   5.797
   65SOL    HW1 1094   6.543   4.775   5.859
   65SOL    HW2 1095   6.481   4.662   5.757
   66SOL     OW 1096   2.921   1.079   0.493
   66SOL    HW1 1097   2.868   1.146   0.545
   66SOL    HW2 1098   2.928   1.109   0.398
   67SOL     OW 1099   5.308   6.046   4.627
   67SOL    HW1 1100   5.227   5.994   4.600
   67SOL    HW2 1101   5.326   6.118   4.560
   68SOL     OW 1102   5.694   1.814   5.617
   68SOL    HW1 1103   5.768   1.782   5.676
   68SOL    HW2 1104   5.703   1.912   5.602
   69SOL     OW 1105   2.900   3.667   6.011
   69SOL    HW1 1106   2.938   3.723   6.084
   69SOL    HW2 1107   2.968   3.599   5.983
   70SOL     OW 1108   7.006   5.188   1.928
   70SOL    HW1 1109   6.984   5.125   2.003
   70SOL    HW2 1110   0.006   5.279   1.965
   71SOL     OW 1111   1.222   2.472   3.372
   71SOL    HW1 1112   1.233   2.466   3.273
   71SOL    HW2 1113   1.159   2.546   3.394
   72SOL     OW 1114   2.766   5.404   4.143
   72SOL    HW1 1115   2.836   5.445   4.084
   72SOL    HW2 1116   2.678   5.405   4.095
   73SOL     OW 1117   4.379   2.519   0.239
   73SOL    HW1 1118   4.300   2.541   0.295
   73SOL    HW2 1119   4.354   2.450   0.171
   74SOL     OW 1120   4.845   5.846   6.061
   74SOL    HW1 1121   4.841   5.802   5.971
   74SOL    HW2 1122   4.931   5.824   6.106
   75SOL     OW 1123   3.882   5.660   5.746
   75SOL    HW1 1124   3.870   5.730   5.675
   75SOL    HW2 1125   3.792   5.623   5.772
   76SOL     OW 1126   2.535   2.895   1.701
   76SOL    HW1 1127   2.519   2.983   1.657
   76SOL    HW2 1128   2.616   2.901   1.759
   77SOL     OW 1129   5.556   5.409   6.518
   77SOL    HW1 1130   5.635   5.381   6.464
   77SOL    HW2 1131   5.472   5.388   6.467
   78SOL     OW 1132   6.333   6.330   5.897
   78SOL    HW1 1133   6.311   6.370   5.986
   78SOL    HW2 1134   6.430   6.342   5.879
   79SOL     OW 1135   3.028   0.157   0.192
   79SOL    HW1 1136   3.044   0.093   0.117
   79SOL    HW2 1137   3.112   0.209   0.210
   80SOL     OW 1138   0.195   1.310   4.065
   80SOL    HW1 1139   0.127   1.384   4.062
   80SOL    HW2 1140   0.168   1.238   4.001
   81SOL     OW 1141   1.545   0.614   3.028
   81SOL    HW1 1142   1.550   0.702   2.979
   81SOL    HW2 1143   1.565   0.628   3.125
   82SOL     OW 1144   0.074   4.715   5.250
   82SOL    HW1 1145   0.160   4.749   5.211
   82SOL    HW2 1146   0.087   4.690   5.346
   83SOL     OW 1147   0.179   6.836   0.544
   83SOL    HW1 1148   0.185   6.907   0.475
   83SOL    HW2 1149   0.096   6.849   0.598
   84SOL     OW 1150   5.721   3.800   1.504
   84SOL    HW1 1151   5.718   3.778   1.602
   84SOL    HW2 1152   5.810   3.841   1.482
   85SOL     OW 1153   0.660   2.841   5.001
   85SOL    HW1 1154   0.703   2.898   4.931
   85SOL    HW2 1155   0.693   2.747   4.991
   86SOL     OW 1156   0.669   0.695   5.863
   86SOL    HW1 1157   0.623   0.728   5.946
   86SOL    HW2 1158   0.767   0.709   5.872
   87SOL     OW 1159   3.968   1.112   0.789
   87SOL    HW1 1160   3.937   1.205   0.769
   87SOL    HW2 1161   3.917   1.076   0.867
   88SOL     OW 1162   5.330   1.027   0.564
   88SOL    HW1 1163   5.351   1.122   0.585
   88SOL    HW2 1164   5.254   0.996   0.621
   89SOL     OW 1165   1.439   2.889   6.111
   89SOL    HW1 1166   1.531   2.916   6.140
   89SOL    HW2 1167   1.440   2.867   6.014
   90SOL     OW 1168   5.645   6.340   3.723
   90SOL    HW1 1169   5.658   6.319   3.626
   90SOL    HW2 1170   5.575   6.281   3.761
   91SOL     OW 1171   4.775   4.713   4.877
   91SOL    HW1 1172   4.873   4.721   4.861
   91SOL    HW2 1173   4.744   4.623   4.848
   92SOL     OW 1174   3.434   5.169   1.883
   92SOL    HW1 1175   3.439   5.073   1.856
   92SOL    HW2 1176   3.376   5.219   1.819
   93SOL     OW 1177   3.157   5.399   5.788
   93SOL    HW1 1178   3.198   5.468   5.729
   93SOL    HW2 1179   3.227   5.337   5.822
   94SOL     OW 1180   2.954   5.731   0.648
   94SOL    HW1 1181   2.925   5.664   0.717
   94SOL    HW2 1182   3.042   5.703   0.610
   95SOL     OW 1183   7.006   0.428   4.795
   95SOL    HW1 1184   0.054   0.420   4.718
   95SOL    HW2 1185   0.021   0.499   4.857
   96SOL     OW 1186   1.926   0.081   5.678
   96SOL    HW1 1187   1.948   0.102   5.583
   96SOL    HW2 1188   1.958   0.155   5.738
   97SOL     OW 1189   5.893   3.036   4.928
   97SOL    HW1 1190   5.926   3.114   4.981
   97SOL    HW2 1191   5.832   3.068   4.856
   98SOL     OW 1192   5.914   2.513   5.568
   98SOL    HW1 1193   5.932   2.479   5.660
   98SOL    HW2 1194   5.900   2.612   5.571
   99SOL     OW 1195   4.443   1.779   1.112
   99SOL    HW1 1196   4.380   1.736   1.176
   99SOL    HW2 1197   4.454   1.875   1.135
  100SOL     OW 1198   0.127   5.374   6.737
  100SOL    HW1 1199   0.168   5.299   6.684
  100SOL    HW2 1200   0.030   5.382   6.714
  101SOL     OW 1201   1.718   6.420   3.968
  101SOL    HW1 1202   1.621   6.410   3.991
  101SOL    HW2 1203   1.731   6.400   3.871
  102SOL     OW 1204   4.485   0.250   4.015
  102SOL    HW1 1205   4.502   0.235   3.917
  102SOL    HW2 1206   4.453   0.344   4.028
  103SOL     OW 1207   3.873   1.724   1.168
  103SOL    HW1 1208   3.966   1.743   1.139
  103SOL    HW2 1209   3.820   1.808   1.167
  104SOL     OW 1210   0.070   5.924   2.600
  104SOL    HW1 1211   0.136   5.987   2.558
  104SOL    HW2 1212   7.009   5.908   2.537
  105SOL     OW 1213   4.968   0.845   6.257
  105SOL    HW1 1214   4.889   0.802   6.301
  105SOL    HW2 1215   4.985   0.934   6.299
  106SOL     OW 1216   3.053   6.592   6.580
  106SOL    HW1 1217   2.960   6.595   6.618
  106SOL    HW2 1218   3.065   6.506   6.530
  107SOL     OW 1219   2.357   3.047   1.024
  107SOL    HW1 1220   2.388   2.967   0.973
  107SOL    HW2 1221   2.427   3.119   1.018
  108SOL     OW 1222   5.127   4.480   5.632
  108SOL    HW1 1223   5.028   4.469   5.623
  108SOL    HW2 1224   5.164   4.405   5.687
  109SOL     OW 1225   6.403   0.866   1.192
  109SOL    HW1 1226   6.364   0.774   1.188
  109SOL    HW2 1227   6.498   0.863   1.159
  110SOL     OW 1228   3.963   5.809   4.896
  110SOL    HW1 1229   3.936   5.735   4.834
  110SOL    HW2 1230   4.019   5.772   4.970
  111SOL     OW 1231   3.478   0.935   3.373
  111SOL    HW1 1232   3.429   0.904   3.455
  111SOL    HW2 1233   3.418   0.993   3.318
  112SOL     OW 1234   6.929   6.802   6.036
  112SOL    HW1 1235   6.945   6.705   6.055
  112SOL    HW2 1236   6.980   6.829   5.955
  113SOL     OW 1237   0.261   5.192   3.176
  113SOL    HW1 1238   0.215   5.199   3.087
  113SOL    HW2 1239   0.224   5.113   3.226
  114SOL     OW 1240   0.723   6.944   6.879
  114SOL    HW1 1241   0.735   0.005   6.943
  114SOL    HW2 1242   0.638   6.956   6.828
  115SOL     OW 1243   5.179   1.386   4.671
  115SOL    HW1 1244   5.183   1.347   4.763
  115SOL    HW2 1245   5.110   1.458   4.668
  116SOL     OW 1246   6.261   4.413   2.298
  116SOL    HW1 1247   6.280   4.397   2.201
  116SOL    HW2 1248   6.249   4.512   2.313
  117SOL     OW 1249   1.664   6.893   6.314
  117SOL    HW1 1250   1.621   6.939   6.236
  117SOL    HW2 1251   1.647   6.795   6.307
  118SOL     OW 1252   0.680   0.184   2.343
  118SOL    HW1 1253   0.761   0.142   2.302
  118SOL    HW2 1254   0.648   0.260   2.286
  119SOL     OW 1255   6.723   2.978   6.066
  119SOL    HW1 1256   6.793   2.910   6.084
  119SOL    HW2 1257   6.736   3.056   6.128
  120SOL     OW 1258   6.055   6.646   1.065
  120SOL    HW1 1259   6.029   6.552   1.087
  120SOL    HW2 1260   6.015   6.672   0.977
  121SOL     OW 1261   2.392   3.455   5.803
  121SOL    HW1 1262   2.387   3.486   5.898
  121SOL    HW2 1263   2.480   3.480   5.764
  122SOL     OW 1264   0.982   2.679   4.368
  122SOL    HW1 1265   0.889   2.641   4.370
  122SOL    HW2 1266   0.982   2.769   4.411
  123SOL     OW 1267   0.838   2.062   1.072
  123SOL    HW1 1268   0.852   2.117   1.154
  123SOL    HW2 1269   0.799   1.973   1.097
  124SOL     OW 1270   4.645   3.142   1.208
  124SOL    HW1 1271   4.578   3.083   1.253
  124SOL    HW2 1272   4.701   3.189   1.277
  125SOL     OW 1273   1.782   3.156   1.499
  125SOL    HW1 1274   1.833   3.205   1.569
  125SOL    HW2 1275   1.840   3.144   1.418
  126SOL     OW 1276   3.398   4.955   1.393
  126SOL    HW1 1277   3.474   4.920   1.339
  126SOL    HW2 1278   3.406   5.054   1.403
  127SOL     OW 1279   0.013   6.205   6.395
  127SOL    HW1 1280   0.044   6.168   6.307
  127SOL    HW2 1281   6.941   6.164   6.419
  128SOL     OW 1282   4.793   2.505   1.553
  128SOL    HW1 1283   4.861   2.432   1.555
  128SOL    HW2 1284   4.835   2.591   1.579
  129SOL     OW 1285   2.770   3.825   6.575
  129SOL    HW1 1286   2.739   3.895   6.511
  129SOL    HW2 1287   2.740   3.848   6.667
  130SOL     OW 1288   1.651   1.882   4.292
  130SOL    HW1 1289   1.689   1.938   4.219
  130SOL    HW2 1290   1.576   1.931   4.336
  131SOL     OW 1291   4.601   1.449   2.906
  131SOL    HW1 1292   4.572   1.354   2.921
  131SOL    HW2 1293   4.701   1.454   2.911
  132SOL     OW 1294   1.093   2.617   0.849
  132SOL    HW1 1295   0.998   2.645   0.833
  132SOL    HW2 1296   1.136   2.680   0.913
  133SOL     OW 1297   6.583   5.589   2.397
  133SOL    HW1 1298   6.586   5.586   2.297
  133SOL    HW2 1299   6.654   5.529   2.434
  134SOL     OW 1300   6.922   3.603   2.766
  134SOL    HW1 1301   6.972   3.536   2.820
  134SOL    HW2 1302   6.832   3.566   2.743
  135SOL     OW 1303   4.906   1.897   4.120
  135SOL    HW1 1304   4.855   1.834   4.178
  135SOL    HW2 1305   4.849   1.976   4.097
  136SOL     OW 1306   5.532   4.766   5.205
  136SOL    HW1 1307   5.470   4.820   5.148
  136SOL    HW2 1308   5.491   4.677   5.224
  137SOL     OW 1309   3.727   6.852   5.634
  137SOL    HW1 1310   3.776   6.913   5.572
  137SOL    HW2 1311   3.637   6.890   5.654
  138SOL     OW 1312   7.015   5.354   4.867
  138SOL    HW1 1313   6.994   5.265   4.826
  138SOL    HW2 1314   6.951   5.372   4.942
  139SOL     OW 1315   3.416   4.666   5.615
  139SOL    HW1 1316   3.340   4.729   5.596
  139SOL    HW2 1317   3.382   4.588   5.668
  140SOL     OW 1318   6.479   4.516   4.597
  140SOL    HW1 1319   6.559   4.519   4.657
  140SOL    HW2 1320   6.397   4.499   4.651
  141SOL     OW 1321   1.411   2.227   4.193
  141SOL    HW1 1322   1.454   2.292   4.255
  141SOL    HW2 1323   1.415   2.262   4.100
  142SOL     OW 1324   1.857   5.519   1.475
  142SOL    HW1 1325   1.929   5.567   1.526
  142SOL    HW2 1326   1.898   5.466   1.401
  143SOL     OW 1327   5.879   4.206   1.599
  143SOL    HW1 1328   5.897   4.212   1.697
  143SOL    HW2 1329   5.789   4.245   1.579
  144SOL     OW 1330   2.639   0.103   6.975
  144SOL    HW1 1331   2.676   0.073   6.887
  144SOL    HW2 1332   2.541   0.082   6.979
  145SOL     OW 1333   0.149   5.766   0.233
  145SOL    HW1 1334   0.126   5.670   0.218
  145SOL    HW2 1335   0.066   5.817   0.253
  146SOL     OW 1336   5.224   5.197   1.211
  146SOL    HW1 1337   5.301   5.143   1.176
  146SOL    HW2 1338   5.138   5.157   1.179
  147SOL     OW 1339   6.390   2.089   1.138
  147SOL    HW1 1340   6.424   2.003   1.101
  147SOL    HW2 1341   6.341   2.071   1.224
  148SOL     OW 1342   1.025   5.298   5.533
  148SOL    HW1 1343   1.054   5.393   5.542
  148SOL    HW2 1344   1.011   5.258   5.624
  149SOL     OW 1345   3.152   1.266   4.771
  149SOL    HW1 1346   3.112   1.248   4.861
  149SOL    HW2 1347   3.252   1.269   4.779
  150SOL     OW 1348   0.238   5.094   6.686
  150SOL    HW1 1349   0.170   5.032   6.726
  150SOL    HW2 1350   0.291   5.137   6.758
  151SOL     OW 1351   4.080   1.888   1.624
  151SOL    HW1 1352   4.145   1.958   1.652
  151SOL    HW2 1353   3.986   1.923   1.631
  152SOL     OW 1354   3.197   0.785   4.129
  152SOL    HW1 1355   3.227   0.793   4.034
  152SOL    HW2 1356   3.185   0.689   4.152
  153SOL     OW 1357   1.853   1.705   3.327
  153SOL    HW1 1358   1.849   1.804   3.329
  153SOL    HW2 1359   1.947   1.675   3.343
  154SOL     OW 1360   6.597   2.052   2.216
  154SOL    HW1 1361   6.565   2.105   2.295
  154SOL    HW2 1362   6.662   1.983   2.248
  155SOL     OW 1363   6.832   1.028   3.052
  155SOL    HW1 1364   6.926   1.063   3.058
  155SOL    HW2 1365   6.786   1.072   2.975
  156SOL     OW 1366   6.237   2.272   1.042
  156SOL    HW1 1367   6.290   2.197   1.082
  156SOL    HW2 1368   6.153   2.285   1.095
  157SOL     OW 1369   5.956   3.779   2.536
  157SOL    HW1 1370   5.981   3.874   2.520
  157SOL    HW2 1371   6.034   3.731   2.578
  158SOL     OW 1372   1.994   1.127   2.649
  158SOL    HW1 1373   2.061   1.080   2.705
  158SOL    HW2 1374   2.040   1.192   2.589
  159SOL     OW 1375   4.744   4.232   2.170
  159SOL    HW1 1376   4.661   4.263   2.124
  159SOL    HW2 1377   4.775   4.302   2.234
  160SOL     OW 1378   6.400   4.223   5.867
  160SOL    HW1 1379   6.367   4.129   5.857
  160SOL    HW2 1380   6.467   4.243   5.796
  161SOL     OW 1381   2.425   5.324   4.826
  161SOL    HW1 1382   2.470   5.243   4.864
  161SOL    HW2 1383   2.326   5.310   4.824
  162SOL     OW 1384   4.392   5.345   1.484
  162SOL    HW1 1385   4.309   5.401   1.474
  162SOL    HW2 1386   4.459   5.393   1.540
  163SOL     OW 1387   4.606   0.826   2.758
  163SOL    HW1 1388   4.673   0.832   2.832
  163SOL    HW2 1389   4.565   0.735   2.758
  164SOL     OW 1390   5.902   3.441   0.713
  164SOL    HW1 1391   5.959   3.433   0.632
  164SOL    HW2 1392   5.929   3.521   0.766
  165SOL     OW 1393   5.060   3.179   6.199
  165SOL    HW1 1394   5.019   3.209   6.285
  165SOL    HW2 1395   4.993   3.128   6.146
  166SOL     OW 1396   0.830   0.141   2.591
  166SOL    HW1 1397   0.776   0.092   2.658
  166SOL    HW2 1398   0.781   0.145   2.504
  167SOL     OW 1399   6.042   2.847   0.082
  167SOL    HW1 1400   6.140   2.826   0.084
  167SOL    HW2 1401   6.026   2.937   0.122
  168SOL     OW 1402   2.547   5.555   0.873
  168SOL    HW1 1403   2.450   5.567   0.849
  168SOL    HW2 1404   2.566   5.458   0.886
  169SOL     OW 1405   2.043   6.526   1.906
  169SOL    HW1 1406   2.082   6.511   1.997
  169SOL    HW2 1407   2.015   6.622   1.897
  170SOL     OW 1408   0.612   1.404   3.090
  170SOL    HW1 1409   0.607   1.380   3.187
  170SOL    HW2 1410   0.706   1.429   3.068
  171SOL     OW 1411   3.418   3.776   0.130
  171SOL    HW1 1412   3.432   3.870   0.097
  171SOL    HW2 1413   3.336   3.772   0.186
  172SOL     OW 1414   0.169   2.765   5.653
  172SOL    HW1 1415   0.082   2.719   5.637
  172SOL    HW2 1416   0.181   2.839   5.587
  173SOL     OW 1417   0.278   6.441   5.654
  173SOL    HW1 1418   0.197   6.493   5.626
  173SOL    HW2 1419   0.314   6.478   5.739
  174SOL     OW 1420   2.526   5.386   3.983
  174SOL    HW1 1421   2.433   5.379   3.947
  174SOL    HW2 1422   2.591   5.360   3.911
  175SOL     OW 1423   1.195   5.634   3.011
  175SOL    HW1 1424   1.102   5.607   2.988
  175SOL    HW2 1425   1.193   5.711   3.075
  176SOL     OW 1426   2.466   4.693   0.874
  176SOL    HW1 1427   2.433   4.788   0.876
  176SOL    HW2 1428   2.432   4.644   0.954
  177SOL     OW 1429   4.483   1.674   2.794
  177SOL    HW1 1430   4.557   1.738   2.773
  177SOL    HW2 1431   4.519   1.597   2.847
  178SOL     OW 1432   5.296   5.108   6.505
  178SOL    HW1 1433   5.326   5.066   6.420
  178SOL    HW2 1434   5.364   5.091   6.576
  179SOL     OW 1435   3.069   0.409   0.403
  179SOL    HW1 1436   3.011   0.458   0.338
  179SOL    HW2 1437   3.018   0.393   0.488
  180SOL     OW 1438   0.588   2.071   6.942
  180SOL    HW1 1439   0.673   2.064   6.889
  180SOL    HW2 1440   0.553   2.165   6.936
  181SOL     OW 1441   3.386   3.238   5.463
  181SOL    HW1 1442   3.402   3.336   5.469
  181SOL    HW2 1443   3.340   3.216   5.377
  182SOL     OW 1444   4.143   2.165   4.726
  182SOL    HW1 1445   4.094   2.185   4.811
  182SOL    HW2 1446   4.149   2.066   4.713
  183SOL     OW 1447   4.993   1.137   1.892
  183SOL    HW1 1448   4.960   1.121   1.986
  183SOL    HW2 1449   4.951   1.220   1.856
  184SOL     OW 1450   0.123   4.508   2.813
  184SOL    HW1 1451   0.204   4.455   2.789
  184SOL    HW2 1452   0.070   4.459   2.882
  185SOL     OW 1453   1.991   4.193   6.064
  185SOL    HW1 1454   2.063   4.191   5.995
  185SOL    HW2 1455   2.009   4.122   6.133
  186SOL     OW 1456   5.636   0.133   3.330
  186SOL    HW1 1457   5.669   0.055   3.383
  186SOL    HW2 1458   5.561   0.104   3.271
  187SOL     OW 1459   5.919   1.533   4.135
  187SOL    HW1 1460   5.949   1.567   4.046
  187SOL    HW2 1461   5.863   1.602   4.180
  188SOL     OW 1462   6.492   2.224   3.451
  188SOL    HW1 1463   6.508   2.323   3.446
  188SOL    HW2 1464   6.394   2.208   3.460
  189SOL     OW 1465   2.186   4.452   2.633
  189SOL    HW1 1466   2.199   4.422   2.539
  189SOL    HW2 1467   2.246   4.399   2.694
  190SOL     OW 1468   3.591   1.259   5.954
  190SOL    HW1 1469   3.578   1.166   5.921
  190SOL    HW2 1470   3.502   1.303   5.965
  191SOL     OW 1471   5.230   5.972   6.169
  191SOL    HW1 1472   5.321   5.938   6.193
  191SOL    HW2 1473   5.233   6.011   6.077
  192SOL     OW 1474   6.877   0.764   1.810
  192SOL    HW1 1475   6.906   0.686   1.866
  192SOL    HW2 1476   6.876   0.736   1.714
  193SOL     OW 1477   5.350   3.939   0.005
  193SOL    HW1 1478   5.439   3.958   0.047
  193SOL    HW2 1479   5.362   3.927   6.922
  194SOL     OW 1480   3.345   0.425   3.467
  194SOL    HW1 1481   3.296   0.479   3.398
  194SOL    HW2 1482   3.291   0.420   3.551
  195SOL     OW 1483   0.793   5.954   3.508
  195SOL    HW1 1484   0.702   5.987   3.534
  195SOL    HW2 1485   0.784   5.870   3.454
  196SOL     OW 1486   0.728   1.921   0.680
  196SOL    HW1 1487   0.799   1.919   0.610
  196SOL    HW2 1488   0.638   1.915   0.636
  197SOL     OW 1489   1.733   0.696   0.723
  197SOL    HW1 1490   1.666   0.655   0.784
  197SOL    HW2 1491   1.824   0.666   0.748
  198SOL     OW 1492   3.359   2.098   3.748
  198SOL    HW1 1493   3.331   2.023   3.688
  198SOL    HW2 1494   3.278   2.142   3.787
  199SOL     OW 1495   1.265   2.649   4.347
  199SOL    HW1 1496   1.171   2.670   4.373
  199SOL    HW2 1497   1.265   2.583   4.271
  200SOL     OW 1498   6.773   2.412   0.168
  200SOL    HW1 1499   6.714   2.333   0.188
  200SOL    HW2 1500   6.793   2.461   0.252
  201SOL     OW 1501   0.248   0.625   6.416
  201SOL    HW1 1502   0.249   0.721   6.387
  201SOL    HW2 1503   0.228   0.621   6.514
  202SOL     OW 1504   4.763   6.668   0.158
  202SOL    HW1 1505   4.704   6.625   0.091
  202SOL    HW2 1506   4.859   6.647   0.138
  203SOL     OW 1507   5.881   2.798   5.592
  203SOL    HW1 1508   5.831   2.878   5.560
  203SOL    HW2 1509   5.951   2.826   5.657
  204SOL     OW 1510   6.235   1.067   5.846
  204SOL    HW1 1511   6.203   1.017   5.765
  204SOL    HW2 1512   6.249   1.003   5.921
  205SOL     OW 1513   1.172   2.931   2.368
  205SOL    HW1 1514   1.155   2.981   2.283
  205SOL    HW2 1515   1.239   2.981   2.423
  206SOL     OW 1516   0.491   3.636   0.369
  206SOL    HW1 1517   0.570   3.684   0.331
  206SOL    HW2 1518   0.507   3.615   0.465
  207SOL     OW 1519   5.742   1.907   4.448
  207SOL    HW1 1520   5.653   1.948   4.426
  207SOL    HW2 1521   5.761   1.918   4.545
  208SOL     OW 1522   1.070   4.336   4.440
  208SOL    HW1 1523   1.127   4.254   4.450
  208SOL    HW2 1524   1.012   4.347   4.521
  209SOL     OW 1525   6.197   4.086   2.750
  209SOL    HW1 1526   6.232   4.073   2.842
  209SOL    HW2 1527   6.267   4.060   2.683
  210SOL     OW 1528   4.498   2.793   6.979
  210SOL    HW1 1529   4.560   2.721   7.008
  210SOL    HW2 1530   4.516   2.817   6.883
  211SOL     OW 1531   0.282   1.487   2.666
  211SOL    HW1 1532   0.229   1.535   2.736
  211SOL    HW2 1533   0.302   1.394   2.698
  212SOL     OW 1534   2.106   3.687   2.906
  212SOL    HW1 1535   2.126   3.761   2.841
  212SOL    HW2 1536   2.046   3.620   2.862
  213SOL     OW 1537   1.542   4.592   1.254
  213SOL    HW1 1538   1.533   4.629   1.346
  213SOL    HW2 1539   1.639   4.585   1.231
  214SOL     OW 1540   4.689   6.178   2.213
  214SOL    HW1 1541   4.640   6.090   2.215
  214SOL    HW2 1542   4.650   6.236   2.141
  215SOL     OW 1543   2.336   4.736   2.731
  215SOL    HW1 1544   2.296   4.786   2.808
  215SOL    HW2 1545   2.281   4.753   2.649
  216SOL     OW 1546   1.129   6.753   2.685
  216SOL    HW1 1547   1.131   6.690   2.763
  216SOL    HW2 1548   1.170   6.709   2.605
  217SOL     OW 1549   1.553   4.445   6.587
  217SOL    HW1 1550   1.577   4.537   6.620
  217SOL    HW2 1551   1.628   4.410   6.532
  218SOL     OW 1552   1.268   1.674   4.683
  218SOL    HW1 1553   1.169   1.676   4.666
  218SOL    HW2 1554   1.290   1.601   4.747
  219SOL     OW 1555   4.316   1.654   0.734
  219SOL    HW1 1556   4.251   1.581   0.753
  219SOL    HW2 1557   4.290   1.737   0.783
  220SOL     OW 1558   3.020   6.856   0.670
  220SOL    HW1 1559   2.931   6.819   0.643
  220SOL    HW2 1560   3.065   6.896   0.590
  221SOL     OW 1561   4.516   5.761   2.070
  221SOL    HW1 1562   4.439   5.727   2.016
  221SOL    HW2 1563   4.590   5.694   2.070
  222SOL     OW 1564   2.252   4.722   6.362
  222SOL    HW1 1565   2.299   4.635   6.367
  222SOL    HW2 1566   2.176   4.715   6.297
  223SOL     OW 1567   6.129   2.893   5.204
  223SOL    HW1 1568   6.220   2.864   5.235
  223SOL    HW2 1569   6.121   2.992   5.212
  224SOL     OW 1570   2.385   1.376   6.606
  224SOL    HW1 1571   2.393   1.294   6.664
  224SOL    HW2 1572   2.440   1.449   6.646
  225SOL     OW 1573   4.653   5.319   5.341
  225SOL    HW1 1574   4.646   5.370   5.255
  225SOL    HW2 1575   4.578   5.253   5.346
  226SOL     OW 1576   1.077   2.137   6.524
  226SOL    HW1 1577   1.014   2.097   6.457
  226SOL    HW2 1578   1.036   2.219   6.563
  227SOL     OW 1579   0.960   3.611   1.582
  227SOL    HW1 1580   1.051   3.603   1.622
  227SOL    HW2 1581   0.934   3.525   1.538
  228SOL     OW 1582   1.771   6.541   2.961
  228SOL    HW1 1583   1.808   6.522   2.869
  228SOL    HW2 1584   1.704   6.615   2.955
  229SOL     OW 1585   4.532   5.784   6.071
  229SOL    HW1 1586   4.479   5.849   6.016
  229SOL    HW2 1587   4.622   5.822   6.091
  230SOL     OW 1588   4.846   5.531   4.994
  230SOL    HW1 1589   4.807   5.499   4.907
  230SOL    HW2 1590   4.920   5.470   5.022
  231SOL     OW 1591   5.488   1.437   6.996
  231SOL    HW1 1592   5.494   1.512   0.047
  231SOL    HW2 1593   5.472   1.474   6.905
  232SOL     OW 1594   1.683   2.617   5.576
  232SOL    HW1 1595   1.703   2.679   5.652
  232SOL    HW2 1596   1.606   2.653   5.523
  233SOL     OW 1597   2.890   1.484   3.170
  233SOL    HW1 1598   2.823   1.557   3.154
  233SOL    HW2 1599   2.860   1.401   3.124
  234SOL     OW 1600   4.675   1.042   6.837
  234SOL    HW1 1601   4.752   1.094   6.799
  234SOL    HW2 1602   4.702   1.001   6.924
  235SOL     OW 1603   4.632   2.663   3.148
  235SOL    HW1 1604   4.616   2.716   3.065
  235SOL    HW2 1605   4.552   2.606   3.167
  236SOL     OW 1606   4.613   4.782   6.404
  236SOL    HW1 1607   4.573   4.790   6.496
  236SOL    HW2 1608   4.636   4.873   6.369
  237SOL     OW 1609   6.299   3.666   2.873
  237SOL    HW1 1610   6.276   3.683   2.969
  237SOL    HW2 1611   6.369   3.731   2.843
  238SOL     OW 1612   6.483   1.456   0.857
  238SOL    HW1 1613   6.436   1.544   0.867
  238SOL    HW2 1614   6.569   1.470   0.808
  239SOL     OW 1615   1.116   3.875   0.055
  239SOL    HW1 1616   1.126   3.908   0.149
  239SOL    HW2 1617   1.047   3.803   0.052
  240SOL     OW 1618   5.694   3.098   3.069
  240SOL    HW1 1619   5.712   3.013   3.019
  240SOL    HW2 1620   5.639   3.159   3.012
  241SOL     OW 1621   2.854   1.541   3.849
  241SOL    HW1 1622   2.760   1.569   3.869
  241SOL    HW2 1623   2.917   1.609   3.886
  242SOL     OW 1624   3.373   3.873   3.181
  242SOL    HW1 1625   3.306   3.800   3.172
  242SOL    HW2 1626   3.334   3.948   3.234
  243SOL     OW 1627   4.601   2.392   5.889
  243SOL    HW1 1628   4.659   2.473   5.893
  243SOL    HW2 1629   4.564   2.373   5.980
  244SOL     OW 1630   5.037   3.626   5.122
  244SOL    HW1 1631   5.094   3.544   5.131
  244SOL    HW2 1632   4.942   3.599   5.106
  245SOL     OW 1633   3.338   1.858   2.953
  245SOL    HW1 1634   3.327   1.948   2.996
  245SOL    HW2 1635   3.254   1.835   2.903
  246SOL     OW 1636   6.524   1.155   2.167
  246SOL    HW1 1637   6.618   1.180   2.192
  246SOL    HW2 1638   6.477   1.120   2.248
  247SOL     OW 1639   1.950   1.715   1.342
  247SOL    HW1 1640   1.880   1.678   1.281
  247SOL    HW2 1641   2.007   1.640   1.376
  248SOL     OW 1642   1.867   2.445   2.271
  248SOL    HW1 1643   1.811   2.520   2.234
  248SOL    HW2 1644   1.821   2.358   2.253
  249SOL     OW 1645   5.503   6.465   5.089
  249SOL    HW1 1646   5.423   6.406   5.074
  249SOL    HW2 1647   5.539   6.449   5.181
  250SOL     OW 1648   4.447   2.287   1.277
  250SOL    HW1 1649   4.389   2.287   1.359
  250SOL    HW2 1650   4.518   2.357   1.286
  251SOL     OW 1651   4.044   4.202   5.603
  251SOL    HW1 1652   4.056   4.157   5.691
  251SOL    HW2 1653   4.113   4.169   5.539
  252SOL     OW 1654   5.949   6.064   5.353
  252SOL    HW1 1655   5.915   6.026   5.267
  252SOL    HW2 1656   6.044   6.092   5.342
  253SOL     OW 1657   4.309   5.975   6.150
  253SOL    HW1 1658   4.235   6.017   6.202
  253SOL    HW2 1659   4.394   6.026   6.166
  254SOL     OW 1660   5.703   2.630   5.047
  254SOL    HW1 1661   5.796   2.595   5.031
  254SOL    HW2 1662   5.704   2.691   5.126
  255SOL     OW 1663   2.064   4.308   5.619
  255SOL    HW1 1664   1.986   4.370   5.607
  255SOL    HW2 1665   2.103   4.286   5.530
  256SOL     OW 1666   5.070   2.340   4.954
  256SOL    HW1 1667   5.019   2.256   4.939
  256SOL    HW2 1668   5.060   2.369   5.049
  257SOL     OW 1669   4.820   6.511   2.373
  257SOL    HW1 1670   4.760   6.587   2.348
  257SOL    HW2 1671   4.910   6.546   2.399
  258SOL     OW 1672   2.043   3.488   5.775
  258SOL    HW1 1673   2.123   3.520   5.724
  258SOL    HW2 1674   2.063   3.399   5.815
  259SOL     OW 1675   3.712   0.289   3.806
  259SOL    HW1 1676   3.799   0.335   3.786
  259SOL    HW2 1677   3.680   0.316   3.897
  260SOL     OW 1678   3.611   5.296   3.792
  260SOL    HW1 1679   3.646   5.321   3.702
  260SOL    HW2 1680   3.511   5.285   3.787
  261SOL     OW 1681   4.107   4.790   6.744
  261SOL    HW1 1682   4.044   4.848   6.694
  261SOL    HW2 1683   4.187   4.770   6.687
  262SOL     OW 1684   1.944   3.809   6.740
  262SOL    HW1 1685   1.852   3.824   6.778
  262SOL    HW2 1686   2.006   3.880   6.773
  263SOL     OW 1687   1.433   5.918   4.167
  263SOL    HW1 1688   1.406   5.858   4.093
  263SOL    HW2 1689   1.393   5.885   4.253
  264SOL     OW 1690   0.103   3.712   6.428
  264SOL    HW1 1691   0.030   3.704   6.495
  264SOL    HW2 1692   0.082   3.656   6.348
  265SOL     OW 1693   6.769   6.854   4.511
  265SOL    HW1 1694   6.795   6.758   4.511
  265SOL    HW2 1695   6.727   6.878   4.424
  266SOL     OW 1696   3.854   1.504   5.743
  266SOL    HW1 1697   3.786   1.474   5.675
  266SOL    HW2 1698   3.855   1.440   5.819
  267SOL     OW 1699   1.364   0.878   4.809
  267SOL    HW1 1700   1.370   0.822   4.726
  267SOL    HW2 1701   1.269   0.906   4.823
  268SOL     OW 1702   3.327   1.260   1.235
  268SOL    HW1 1703   3.316   1.161   1.236
  268SOL    HW2 1704   3.243   1.303   1.267
  269SOL     OW 1705   4.122   1.461   0.028
  269SOL    HW1 1706   4.051   1.403   0.069
  269SOL    HW2 1707   4.167   1.411   6.970
  270SOL     OW 1708   6.539   6.835   0.516
  270SOL    HW1 1709   6.530   6.736   0.532
  270SOL    HW2 1710   6.632   6.856   0.487
  271SOL     OW 1711   0.842   2.409   6.148
  271SOL    HW1 1712   0.785   2.488   6.124
  271SOL    HW2 1713   0.937   2.440   6.160
  272SOL     OW 1714   2.465   6.468   3.942
  272SOL    HW1 1715   2.401   6.544   3.931
  272SOL    HW2 1716   2.527   6.465   3.864
  273SOL     OW 1717   1.761   5.020   5.956
  273SOL    HW1 1718   1.828   5.072   5.903
  273SOL    HW2 1719   1.710   5.082   6.016
  274SOL     OW 1720   4.382   1.428   3.621
  274SOL    HW1 1721   4.453   1.492   3.594
  274SOL    HW2 1722   4.292   1.465   3.597
  275SOL     OW 1723   0.008   6.543   2.332
  275SOL    HW1 1724   6.999   6.446   2.339
  275SOL    HW2 1725   6.952   6.599   2.374
  276SOL     OW 1726   0.375   0.766   4.798
  276SOL    HW1 1727   0.444   0.796   4.732
  276SOL    HW2 1728   0.408   0.685   4.846
  277SOL     OW 1729   2.361   3.596   0.681
  277SOL    HW1 1730   2.432   3.642   0.734
  277SOL    HW2 1731   2.271   3.630   0.708
  278SOL     OW 1732   0.170   2.569   2.140
  278SOL    HW1 1733   0.166   2.636   2.214
  278SOL    HW2 1734   0.089   2.580   2.081
  279SOL     OW 1735   5.804   2.338   4.228
  279SOL    HW1 1736   5.765   2.308   4.141
  279SOL    HW2 1737   5.903   2.329   4.224
  280SOL     OW 1738   1.642   4.546   1.878
  280SOL    HW1 1739   1.688   4.521   1.793
  280SOL    HW2 1740   1.701   4.525   1.955
  281SOL     OW 1741   2.205   4.426   0.808
  281SOL    HW1 1742   2.161   4.341   0.835
  281SOL    HW2 1743   2.260   4.411   0.726
  282SOL     OW 1744   3.404   2.254   5.902
  282SOL    HW1 1745   3.331   2.279   5.965
  282SOL    HW2 1746   3.465   2.332   5.889
  283SOL     OW 1747   4.901   2.790   5.704
  283SOL    HW1 1748   4.958   2.748   5.633
  283SOL    HW2 1749   4.958   2.837   5.771
  284SOL     OW 1750   1.224   3.592   4.316
  284SOL    HW1 1751   1.127   3.608   4.330
  284SOL    HW2 1752   1.264   3.670   4.265
  285SOL     OW 1753   5.503   4.704   4.295
  285SOL    HW1 1754   5.518   4.651   4.212
  285SOL    HW2 1755   5.443   4.781   4.275
  286SOL     OW 1756   2.867   3.567   6.572
  286SOL    HW1 1757   2.832   3.661   6.568
  286SOL    HW2 1758   2.912   3.552   6.659
  287SOL     OW 1759   1.870   3.581   6.854
  287SOL    HW1 1760   1.929   3.500   6.849
  287SOL    HW2 1761   1.914   3.657   6.807
  288SOL     OW 1762   4.858   2.473   6.852
  288SOL    HW1 1763   4.917   2.409   6.802
  288SOL    HW2 1764   4.831   2.433   6.939
  289SOL     OW 1765   2.548   4.823   5.881
  289SOL    HW1 1766   2.610   4.899   5.902
  289SOL    HW2 1767   2.588   4.737   5.911
  290SOL     OW 1768   0.123   2.333   5.608
  290SOL    HW1 1769   0.037   2.282   5.611
  290SOL    HW2 1770   0.112   2.419   5.658
  291SOL     OW 1771   0.141   2.132   2.685
  291SOL    HW1 1772   0.041   2.128   2.691
  291SOL    HW2 1773   0.169   2.226   2.663
  292SOL     OW 1774   1.845   0.042   3.797
  292SOL    HW1 1775   1.882   0.029   3.889
  292SOL    HW2 1776   1.750   0.073   3.804
  293SOL     OW 1777   3.701   5.342   3.524
  293SOL    HW1 1778   3.783   5.295   3.558
  293SOL    HW2 1779   3.681   5.311   3.431
  294SOL     OW 1780   4.124   6.802   6.448
  294SOL    HW1 1781   4.209   6.845   6.480
  294SOL    HW2 1782   4.046   6.857   6.476
  295SOL     OW 1783   5.075   0.395   4.341
  295SOL    HW1 1784   5.067   0.301   4.374
  295SOL    HW2 1785   5.160   0.405   4.289
  296SOL     OW 1786   2.481   1.865   3.653
  296SOL    HW1 1787   2.423   1.944   3.670
  296SOL    HW2 1788   2.425   1.782   3.647
  297SOL     OW 1789   1.644   4.550   2.957
  297SOL    HW1 1790   1.644   4.602   2.871
  297SOL    HW2 1791   1.550   4.530   2.984
  298SOL     OW 1792   5.840   5.164   1.134
  298SOL    HW1 1793   5.879   5.078   1.167
  298SOL    HW2 1794   5.814   5.221   1.211
  299SOL     OW 1795   6.489   2.942   4.883
  299SOL    HW1 1796   6.457   2.917   4.792
  299SOL    HW2 1797   6.552   2.872   4.917
  300SOL     OW 1798   6.155   6.985   2.507
  300SOL    HW1 1799   6.145   0.038   2.579
  300SOL    HW2 1800   6.166   0.015   2.418
  301SOL     OW 1801   5.325   4.009   5.785
  301SOL    HW1 1802   5.266   3.941   5.828
  301SOL    HW2 1803   5.408   3.965   5.751
  302SOL     OW 1804   1.046   6.772   3.846
  302SOL    HW1 1805   1.014   6.867   3.852
  302SOL    HW2 1806   1.027   6.736   3.754
  303SOL     OW 1807   5.607   0.125   3.878
  303SOL    HW1 1808   5.650   0.163   3.796
  303SOL    HW2 1809   5.519   0.085   3.854
  304SOL     OW 1810   3.353   0.126   3.105
  304SOL    HW1 1811   3.324   0.218   3.080
  304SOL    HW2 1812   3.316   0.060   3.040
  305SOL     OW 1813   1.182   3.225   1.183
  305SOL    HW1 1814   1.196   3.308   1.237
  305SOL    HW2 1815   1.085   3.217   1.158
  306SOL     OW 1816   2.139   0.569   3.509
  306SOL    HW1 1817   2.155   0.624   3.426
  306SOL    HW2 1818   2.138   0.630   3.589
  307SOL     OW 1819   3.549   0.581   0.954
  307SOL    HW1 1820   3.608   0.649   0.998
  307SOL    HW2 1821   3.467   0.626   0.918
  308SOL     OW 1822   0.604   5.332   4.278
  308SOL    HW1 1823   0.551   5.414   4.302
  308SOL    HW2 1824   0.605   5.269   4.356
  309SOL     OW 1825   3.963   5.593   5.113
  309SOL    HW1 1826   4.029   5.629   5.179
  309SOL    HW2 1827   3.871   5.609   5.146
  310SOL     OW 1828   0.980   6.509   6.310
  310SOL    HW1 1829   0.895   6.457   6.323
  310SOL    HW2 1830   0.976   6.593   6.364
  311SOL     OW 1831   0.554   0.370   1.404
  311SOL    HW1 1832   0.645   0.344   1.437
  311SOL    HW2 1833   0.512   0.293   1.358
  312SOL     OW 1834   3.639   1.564   5.000
  312SOL    HW1 1835   3.547   1.602   5.004
  312SOL    HW2 1836   3.706   1.635   5.023
  313SOL     OW 1837   0.728   4.683   1.429
  313SOL    HW1 1838   0.712   4.635   1.515
  313SOL    HW2 1839   0.826   4.697   1.416
  314SOL     OW 1840   3.563   6.348   1.266
  314SOL    HW1 1841   3.513   6.337   1.179
  314SOL    HW2 1842   3.510   6.307   1.340
  315SOL     OW 1843   1.216   2.912   3.112
  315SOL    HW1 1844   1.279   2.847   3.153
  315SOL    HW2 1845   1.258   2.953   3.032
  316SOL     OW 1846   2.431   2.556   3.930
  316SOL    HW1 1847   2.373   2.603   3.863
  316SOL    HW2 1848   2.523   2.545   3.893
  317SOL     OW 1849   6.611   1.784   6.991
  317SOL    HW1 1850   6.697   1.829   6.966
  317SOL    HW2 1851   6.612   1.689   6.959
  318SOL     OW 1852   2.712   5.177   1.119
  318SOL    HW1 1853   2.746   5.091   1.080
  318SOL    HW2 1854   2.753   5.191   1.209
  319SOL     OW 1855   1.387   6.741   1.063
  319SOL    HW1 1856   1.463   6.677   1.055
  319SOL    HW2 1857   1.306   6.701   1.020
  320SOL     OW 1858   5.294   4.082   0.361
  320SOL    HW1 1859   5.265   4.074   0.265
  320SOL    HW2 1860   5.382   4.129   0.366
  321SOL     OW 1861   2.010   1.199   1.356
  321SOL    HW1 1862   1.992   1.260   1.280
  321SOL    HW2 1863   2.050   1.250   1.432
  322SOL     OW 1864   3.925   2.996   4.746
  322SOL    HW1 1865   3.953   2.907   4.709
  322SOL    HW2 1866   3.991   3.065   4.719
  323SOL     OW 1867   0.427   4.118   1.795
  323SOL    HW1 1868   0.381   4.114   1.884
  323SOL    HW2 1869   0.405   4.036   1.742
  324SOL     OW 1870   0.320   3.059   4.585
  324SOL    HW1 1871   0.417   3.043   4.604
  324SOL    HW2 1872   0.266   3.037   4.667
  325SOL     OW 1873   2.371   2.560   2.693
  325SOL    HW1 1874   2.316   2.583   2.773
  325SOL    HW2 1875   2.468   2.555   2.720
  326SOL     OW 1876   2.305   4.532   6.135
  326SOL    HW1 1877   2.345   4.473   6.205
  326SOL    HW2 1878   2.206   4.519   6.133
  327SOL     OW 1879   6.079   5.599   5.864
  327SOL    HW1 1880   6.044   5.509   5.890
  327SOL    HW2 1881   6.009   5.668   5.880
  328SOL     OW 1882   2.458   5.716   2.087
  328SOL    HW1 1883   2.460   5.810   2.119
  328SOL    HW2 1884   2.512   5.659   2.148
  329SOL     OW 1885   3.303   3.262   2.330
  329SOL    HW1 1886   3.216   3.245   2.375
  329SOL    HW2 1887   3.344   3.175   2.302
  330SOL     OW 1888   3.883   1.175   1.852
  330SOL    HW1 1889   3.978   1.192   1.825
  330SOL    HW2 1890   3.881   1.103   1.922
  331SOL     OW 1891   5.353   4.844   6.336
  331SOL    HW1 1892   5.333   4.808   6.244
  331SOL    HW2 1893   5.304   4.790   6.404
  332SOL     OW 1894   3.808   2.126   3.313
  332SOL    HW1 1895   3.785   2.035   3.277
  332SOL    HW2 1896   3.728   2.185   3.310
  333SOL     OW 1897   3.870   5.925   6.859
  333SOL    HW1 1898   3.771   5.931   6.845
  333SOL    HW2 1899   3.914   5.906   6.772
  334SOL     OW 1900   4.504   6.774   2.478
  334SOL    HW1 1901   4.595   6.758   2.517
  334SOL    HW2 1902   4.513   6.830   2.396
  335SOL     OW 1903   3.567   6.687   3.214
  335SOL    HW1 1904   3.531   6.745   3.287
  335SOL    HW2 1905   3.664   6.705   3.202
  336SOL     OW 1906   3.053   1.228   4.490
  336SOL    HW1 1907   3.110   1.262   4.565
  336SOL    HW2 1908   3.045   1.129   4.496
  337SOL     OW 1909   0.101   3.776   1.350
  337SOL    HW1 1910   0.135   3.760   1.257
  337SOL    HW2 1911   0.148   3.855   1.389
  338SOL     OW 1912   3.380   2.701   1.379
  338SOL    HW1 1913   3.306   2.762   1.408
  338SOL    HW2 1914   3.393   2.710   1.280
  339SOL     OW 1915   4.292   0.087   2.952
  339SOL    HW1 1916   4.332   0.022   2.888
  339SOL    HW2 1917   4.231   0.039   3.014
  340SOL     OW 1918   5.134   3.955   4.294
  340SOL    HW1 1919   5.160   3.970   4.389
  340SOL    HW2 1920   5.060   4.017   4.269
  341SOL     OW 1921   5.501   5.017   4.897
  341SOL    HW1 1922   5.593   4.984   4.878
  341SOL    HW2 1923   5.441   4.940   4.917
  342SOL     OW 1924   5.967   3.779   0.155
  342SOL    HW1 1925   5.967   3.841   0.233
  342SOL    HW2 1926   6.055   3.734   0.147
  343SOL     OW 1927   2.651   0.409   2.836
  343SOL    HW1 1928   2.560   0.371   2.850
  343SOL    HW2 1929   2.684   0.382   2.745
  344SOL     OW 1930   3.444   4.940   0.465
  344SOL    HW1 1931   3.417   4.957   0.559
  344SOL    HW2 1932   3.368   4.962   0.403
  345SOL     OW 1933   0.764   6.555   5.864
  345SOL    HW1 1934   0.856   6.517   5.864
  345SOL    HW2 1935   0.758   6.628   5.796
  346SOL     OW 1936   2.065   0.246   3.972
  346SOL    HW1 1937   2.025   0.279   3.887
  346SOL    HW2 1938   2.029   0.154   3.992
  347SOL     OW 1939   5.352   6.297   6.132
  347SOL    HW1 1940   5.358   6.282   6.231
  347SOL    HW2 1941   5.256   6.304   6.105
  348SOL     OW 1942   3.355   5.865   3.035
  348SOL    HW1 1943   3.360   5.882   2.937
  348SOL    HW2 1944   3.338   5.951   3.083
  349SOL     OW 1945   1.989   4.371   1.821
  349SOL    HW1 1946   1.925   4.330   1.755
  349SOL    HW2 1947   2.082   4.363   1.786
  350SOL     OW 1948   4.509   2.748   1.231
  350SOL    HW1 1949   4.485   2.786   1.142
  350SOL    HW2 1950   4.425   2.722   1.280
  351SOL     OW 1951   3.536   1.764   0.143
  351SOL    HW1 1952   3.526   1.667   0.165
  351SOL    HW2 1953   3.474   1.788   0.068
  352SOL     OW 1954   3.513   1.187   6.645
  352SOL    HW1 1955   3.431   1.134   6.670
  352SOL    HW2 1956   3.533   1.174   6.548
  353SOL     OW 1957   1.947   6.812   0.995
  353SOL    HW1 1958   2.045   6.828   0.991
  353SOL    HW2 1959   1.910   6.846   1.081
  354SOL     OW 1960   4.643   1.434   1.875
  354SOL    HW1 1961   4.565   1.420   1.937
  354SOL    HW2 1962   4.712   1.491   1.920
  355SOL     OW 1963   1.489   1.651   2.155
  355SOL    HW1 1964   1.435   1.642   2.071
  355SOL    HW2 1965   1.452   1.592   2.226
  356SOL     OW 1966   3.936   5.991   3.191
  356SOL    HW1 1967   4.026   6.010   3.231
  356SOL    HW2 1968   3.925   6.044   3.107
  357SOL     OW 1969   1.064   4.610   5.694
  357SOL    HW1 1970   1.111   4.533   5.651
  357SOL    HW2 1971   1.124   4.689   5.697
  358SOL     OW 1972   5.373   1.407   1.891
  358SOL    HW1 1973   5.348   1.429   1.985
  358SOL    HW2 1974   5.336   1.317   1.867
  359SOL     OW 1975   1.618   1.265   2.099
  359SOL    HW1 1976   1.608   1.238   2.194
  359SOL    HW2 1977   1.536   1.314   2.069
  360SOL     OW 1978   4.276   6.403   0.971
  360SOL    HW1 1979   4.354   6.419   1.032
  360SOL    HW2 1980   4.197   6.455   1.005
  361SOL     OW 1981   4.115   0.621   3.506
  361SOL    HW1 1982   4.174   0.702   3.500
  361SOL    HW2 1983   4.166   0.545   3.546
  362SOL     OW 1984   2.769   3.588   0.928
  362SOL    HW1 1985   2.866   3.588   0.905
  362SOL    HW2 1986   2.729   3.500   0.905
  363SOL     OW 1987   4.531   4.750   4.608
  363SOL    HW1 1988   4.533   4.685   4.532
  363SOL    HW2 1989   4.478   4.712   4.684
  364SOL     OW 1990   1.791   5.907   5.835
  364SOL    HW1 1991   1.809   5.810   5.852
  364SOL    HW2 1992   1.700   5.930   5.870
  365SOL     OW 1993   4.816   6.947   2.718
  365SOL    HW1 1994   4.773   6.857   2.707
  365SOL    HW2 1995   4.914   6.941   2.699
  366SOL     OW 1996   5.195   6.348   6.961
  366SOL    HW1 1997   5.192   6.249   6.977
  366SOL    HW2 1998   5.102   6.381   6.945
  367SOL     OW 1999   4.983   2.296   1.563
  367SOL    HW1 2000   4.981   2.233   1.485
  367SOL    HW2 2001   5.076   2.333   1.572
  368SOL     OW 2002   1.464   4.821   5.335
  368SOL    HW1 2003   1.495   4.729   5.314
  368SOL    HW2 2004   1.541   4.875   5.369
  369SOL     OW 2005   0.575   3.571   1.587
  369SOL    HW1 2006   0.528   3.493   1.628
  369SOL    HW2 2007   0.627   3.540   1.507
  370SOL     OW 2008   3.809   1.263   6.436
  370SOL    HW1 2009   3.832   1.276   6.532
  370SOL    HW2 2010   3.888   1.285   6.379
  371SOL     OW 2011   3.785   2.827   6.455
  371SOL    HW1 2012   3.834   2.905   6.416
  371SOL    HW2 2013   3.690   2.829   6.423
  372SOL     OW 2014   1.536   5.073   6.213
  372SOL    HW1 2015   1.618   5.048   6.265
  372SOL    HW2 2016   1.562   5.140   6.143
  373SOL     OW 2017   6.804   6.865   0.461
  373SOL    HW1 2018   6.841   6.855   0.553
  373SOL    HW2 2019   6.868   6.917   0.404
  374SOL     OW 2020   3.707   1.260   0.999
  374SOL    HW1 2021   3.751   1.180   1.041
  374SOL    HW2 2022   3.742   1.343   1.042
  375SOL     OW 2023   6.768   4.447   2.262
  375SOL    HW1 2024   6.691   4.409   2.212
  375SOL    HW2 2025   6.783   4.395   2.346
  376SOL     OW 2026   1.988   2.681   4.443
  376SOL    HW1 2027   1.974   2.750   4.514
  376SOL    HW2 2028   2.002   2.592   4.486
  377SOL     OW 2029   5.106   1.701   4.365
  377SOL    HW1 2030   5.077   1.786   4.410
  377SOL    HW2 2031   5.025   1.654   4.329
  378SOL     OW 2032   4.948   2.501   4.310
  378SOL    HW1 2033   5.015   2.575   4.302
  378SOL    HW2 2034   4.886   2.521   4.387
  379SOL     OW 2035   6.576   3.384   1.573
  379SOL    HW1 2036   6.596   3.323   1.649
  379SOL    HW2 2037   6.504   3.448   1.599
  380SOL     OW 2038   1.004   1.740   0.190
  380SOL    HW1 2039   1.013   1.838   0.208
  380SOL    HW2 2040   1.058   1.716   0.110
  381SOL     OW 2041   3.181   3.759   0.529
  381SOL    HW1 2042   3.092   3.718   0.509
  381SOL    HW2 2043   3.222   3.793   0.444
  382SOL     OW 2044   2.407   5.218   1.220
  382SOL    HW1 2045   2.407   5.318   1.215
  382SOL    HW2 2046   2.488   5.188   1.271
  383SOL     OW 2047   6.401   1.957   6.946
  383SOL    HW1 2048   6.388   1.963   6.847
  383SOL    HW2 2049   6.424   1.863   6.971
  384SOL     OW 2050   1.966   5.772   4.846
  384SOL    HW1 2051   1.905   5.694   4.833
  384SOL    HW2 2052   2.034   5.749   4.916
  385SOL     OW 2053   4.751   4.976   1.354
  385SOL    HW1 2054   4.750   5.033   1.437
  385SOL    HW2 2055   4.772   5.034   1.275
  386SOL     OW 2056   2.843   6.605   5.350
  386SOL    HW1 2057   2.783   6.652   5.286
  386SOL    HW2 2058   2.932   6.651   5.352
  387SOL     OW 2059   0.017   0.412   5.846
  387SOL    HW1 2060   0.046   0.320   5.817
  387SOL    HW2 2061   6.933   0.415   5.852
  388SOL     OW 2062   0.081   2.537   5.167
  388SOL    HW1 2063   0.170   2.576   5.189
  388SOL    HW2 2064   0.058   2.558   5.072
  389SOL     OW 2065   4.675   4.418   1.525
  389SOL    HW1 2066   4.577   4.399   1.515
  389SOL    HW2 2067   4.698   4.422   1.622
  390SOL     OW 2068   3.902   2.286   0.402
  390SOL    HW1 2069   3.900   2.376   0.446
  390SOL    HW2 2070   3.863   2.294   0.310
  391SOL     OW 2071   3.612   4.137   3.650
  391SOL    HW1 2072   3.631   4.045   3.617
  391SOL    HW2 2073   3.575   4.133   3.743
  392SOL     OW 2074   1.352   3.947   1.186
  392SOL    HW1 2075   1.332   3.948   1.089
  392SOL    HW2 2076   1.324   3.859   1.225
  393SOL     OW 2077   1.338   5.022   1.382
  393SOL    HW1 2078   1.393   5.100   1.352
  393SOL    HW2 2079   1.396   4.957   1.430
  394SOL     OW 2080   6.412   1.094   6.351
  394SOL    HW1 2081   6.348   1.088   6.428
  394SOL    HW2 2082   6.434   1.190   6.334
  395SOL     OW 2083   5.868   4.689   0.720
  395SOL    HW1 2084   5.895   4.761   0.783
  395SOL    HW2 2085   5.787   4.717   0.669
  396SOL     OW 2086   1.602   6.663   1.293
  396SOL    HW1 2087   1.699   6.662   1.318
  396SOL    HW2 2088   1.549   6.610   1.360
  397SOL     OW 2089   3.822   1.782   5.028
  397SOL    HW1 2090   3.909   1.755   5.068
  397SOL    HW2 2091   3.805   1.879   5.048
  398SOL     OW 2092   1.118   0.440   3.426
  398SOL    HW1 2093   1.119   0.479   3.335
  398SOL    HW2 2094   1.032   0.391   3.441
  399SOL     OW 2095   5.534   5.729   3.912
  399SOL    HW1 2096   5.441   5.698   3.893
  399SOL    HW2 2097   5.557   5.707   4.007
  400SOL     OW 2098   5.771   6.824   4.099
  400SOL    HW1 2099   5.790   6.791   4.192
  400SOL    HW2 2100   5.776   6.924   4.098
  401SOL     OW 2101   0.662   5.738   5.328
  401SOL    HW1 2102   0.653   5.777   5.237
  401SOL    HW2 2103   0.611   5.653   5.334
  402SOL     OW 2104   5.408   1.711   3.424
  402SOL    HW1 2105   5.324   1.665   3.454
  402SOL    HW2 2106   5.488   1.664   3.463
  403SOL     OW 2107   2.797   1.637   5.347
  403SOL    HW1 2108   2.798   1.728   5.390
  403SOL    HW2 2109   2.794   1.648   5.247
  404SOL     OW 2110   3.431   5.672   3.497
  404SOL    HW1 2111   3.397   5.579   3.510
  404SOL    HW2 2112   3.378   5.717   3.426
  405SOL     OW 2113   2.513   4.941   4.433
  405SOL    HW1 2114   2.583   4.908   4.368
  405SOL    HW2 2115   2.531   5.037   4.454
  406SOL     OW 2116   0.467   7.000   6.348
  406SOL    HW1 2117   0.490   0.080   6.363
  406SOL    HW2 2118   0.544   6.954   6.302
  407SOL     OW 2119   2.293   2.743   4.092
  407SOL    HW1 2120   2.361   2.683   4.049
  407SOL    HW2 2121   2.335   2.790   4.170
  408SOL     OW 2122   2.077   1.941   3.156
  408SOL    HW1 2123   1.990   1.945   3.206
  408SOL    HW2 2124   2.153   1.945   3.221
  409SOL     OW 2125   0.698   3.082   2.288
  409SOL    HW1 2126   0.750   3.001   2.258
  409SOL    HW2 2127   0.675   3.137   2.208
  410SOL     OW 2128   1.708   2.473   1.790
  410SOL    HW1 2129   1.667   2.381   1.785
  410SOL    HW2 2130   1.678   2.526   1.711
  411SOL     OW 2131   6.739   2.135   1.095
  411SOL    HW1 2132   6.659   2.118   1.038
  411SOL    HW2 2133   6.796   2.053   1.098
  412SOL     OW 2134   1.486   5.209   2.852
  412SOL    HW1 2135   1.580   5.183   2.828
  412SOL    HW2 2136   1.477   5.309   2.846
  413SOL     OW 2137   5.996   5.799   2.051
  413SOL    HW1 2138   5.956   5.891   2.050
  413SOL    HW2 2139   6.094   5.806   2.067
  414SOL     OW 2140   1.765   0.050   3.064
  414SOL    HW1 2141   1.762   0.106   3.147
  414SOL    HW2 2142   1.801   6.975   3.086
  415SOL     OW 2143   5.845   1.384   6.554
  415SOL    HW1 2144   5.805   1.317   6.617
  415SOL    HW2 2145   5.927   1.424   6.596
  416SOL     OW 2146   5.717   3.505   5.639
  416SOL    HW1 2147   5.719   3.589   5.585
  416SOL    HW2 2148   5.663   3.435   5.591
  417SOL     OW 2149   1.864   2.087   6.653
  417SOL    HW1 2150   1.800   2.110   6.580
  417SOL    HW2 2151   1.830   2.006   6.702
  418SOL     OW 2152   3.595   0.172   4.865
  418SOL    HW1 2153   3.647   0.208   4.942
  418SOL    HW2 2154   3.657   0.141   4.793
  419SOL     OW 2155   6.413   0.249   0.270
  419SOL    HW1 2156   6.442   0.168   0.219
  419SOL    HW2 2157   6.353   0.222   0.345
  420SOL     OW 2158   4.064   6.815   0.806
  420SOL    HW1 2159   4.042   6.871   0.726
  420SOL    HW2 2160   4.092   6.724   0.776
  421SOL     OW 2161   4.749   4.282   2.528
  421SOL    HW1 2162   4.741   4.346   2.451
  421SOL    HW2 2163   4.714   4.326   2.611
  422SOL     OW 2164   5.159   2.763   1.712
  422SOL    HW1 2165   5.158   2.860   1.687
  422SOL    HW2 2166   5.216   2.751   1.794
  423SOL     OW 2167   2.938   0.938   6.204
  423SOL    HW1 2168   2.984   0.850   6.197
  423SOL    HW2 2169   2.918   0.957   6.301
  424SOL     OW 2170   1.532   3.623   4.143
  424SOL    HW1 2171   1.593   3.618   4.222
  424SOL    HW2 2172   1.454   3.682   4.165
  425SOL     OW 2173   3.717   0.856   0.039
  425SOL    HW1 2174   3.780   0.783   0.010
  425SOL    HW2 2175   3.758   0.945   0.021
  426SOL     OW 2176   3.084   2.013   4.080
  426SOL    HW1 2177   3.155   2.053   4.137
  426SOL    HW2 2178   3.004   2.073   4.077
  427SOL     OW 2179   4.703   2.038   3.268
  427SOL    HW1 2180   4.716   2.084   3.180
  427SOL    HW2 2181   4.637   1.964   3.258
  428SOL     OW 2182   2.936   2.328   6.212
  428SOL    HW1 2183   2.852   2.382   6.207
  428SOL    HW2 2184   2.938   2.262   6.136
  429SOL     OW 2185   6.809   5.919   4.398
  429SOL    HW1 2186   6.714   5.905   4.426
  429SOL    HW2 2187   6.815   5.923   4.299
  430SOL     OW 2188   1.448   7.003   4.419
  430SOL    HW1 2189   1.403   6.962   4.498
  430SOL    HW2 2190   1.537   6.960   4.404
  431SOL     OW 2191   2.814   1.824   1.554
  431SOL    HW1 2192   2.730   1.776   1.529
  431SOL    HW2 2193   2.806   1.920   1.527
  432SOL     OW 2194   4.577   1.832   1.403
  432SOL    HW1 2195   4.574   1.845   1.502
  432SOL    HW2 2196   4.505   1.768   1.376
  433SOL     OW 2197   1.882   4.446   0.748
  433SOL    HW1 2198   1.901   4.365   0.803
  433SOL    HW2 2199   1.926   4.526   0.790
  434SOL     OW 2200   4.609   5.173   3.208
  434SOL    HW1 2201   4.542   5.197   3.278
  434SOL    HW2 2202   4.646   5.256   3.167
  435SOL     OW 2203   3.767   2.887   6.030
  435SOL    HW1 2204   3.845   2.826   6.049
  435SOL    HW2 2205   3.742   2.881   5.933
  436SOL     OW 2206   5.199   6.608   2.209
  436SOL    HW1 2207   5.254   6.614   2.126
  436SOL    HW2 2208   5.182   6.700   2.245
  437SOL     OW 2209   6.249   1.316   4.933
  437SOL    HW1 2210   6.205   1.344   5.018
  437SOL    HW2 2211   6.339   1.278   4.953
  438SOL     OW 2212   0.689   4.649   2.298
  438SOL    HW1 2213   0.764   4.715   2.293
  438SOL    HW2 2214   0.604   4.694   2.268
  439SOL     OW 2215   0.074   1.148   4.895
  439SOL    HW1 2216   0.070   1.148   4.995
  439SOL    HW2 2217   0.040   1.060   4.860
  440SOL     OW 2218   4.101   1.291   0.343
  440SOL    HW1 2219   4.074   1.344   0.422
  440SOL    HW2 2220   4.170   1.341   0.291
  441SOL     OW 2221   0.986   4.654   2.012
  441SOL    HW1 2222   1.082   4.678   2.024
  441SOL    HW2 2223   0.977   4.594   1.932
  442SOL     OW 2224   4.785   3.529   5.407
  442SOL    HW1 2225   4.726   3.557   5.332
  442SOL    HW2 2226   4.778   3.430   5.420
  443SOL     OW 2227   4.680   2.743   2.876
  443SOL    HW1 2228   4.716   2.835   2.864
  443SOL    HW2 2229   4.744   2.676   2.839
  444SOL     OW 2230   4.454   1.668   1.990
  444SOL    HW1 2231   4.406   1.744   2.032
  444SOL    HW2 2232   4.549   1.693   1.974
  445SOL     OW 2233   1.409   4.742   2.884
  445SOL    HW1 2234   1.453   4.755   2.973
  445SOL    HW2 2235   1.419   4.826   2.830
  446SOL     OW 2236   6.311   6.832   1.477
  446SOL    HW1 2237   6.261   6.896   1.535
  446SOL    HW2 2238   6.265   6.825   1.388
  447SOL     OW 2239   5.581   3.930   0.913
  447SOL    HW1 2240   5.484   3.950   0.926
  447SOL    HW2 2241   5.591   3.842   0.866
  448SOL     OW 2242   3.688   6.797   4.009
  448SOL    HW1 2243   3.712   6.799   4.106
  448SOL    HW2 2244   3.770   6.815   3.954
  449SOL     OW 2245   1.652   3.998   4.315
  449SOL    HW1 2246   1.575   4.011   4.377
  449SOL    HW2 2247   1.716   3.932   4.354
  450SOL     OW 2248   6.562   4.662   3.328
  450SOL    HW1 2249   6.564   4.616   3.416
  450SOL    HW2 2250   6.647   4.714   3.316
  451SOL     OW 2251   1.160   2.074   0.633
  451SOL    HW1 2252   1.167   2.064   0.733
  451SOL    HW2 2253   1.169   1.984   0.590
  452SOL     OW 2254   4.571   5.414   2.932
  452SOL    HW1 2255   4.641   5.379   2.994
  452SOL    HW2 2256   4.492   5.354   2.933
  453SOL     OW 2257   3.822   1.126   0.020
  453SOL    HW1 2258   3.891   1.108   0.090
  453SOL    HW2 2259   3.802   1.224   0.016
  454SOL     OW 2260   0.360   3.717   5.047
  454SOL    HW1 2261   0.277   3.663   5.032
  454SOL    HW2 2262   0.433   3.657   5.080
  455SOL     OW 2263   5.094   4.965   6.129
  455SOL    HW1 2264   5.171   4.952   6.066
  455SOL    HW2 2265   5.087   5.062   6.153
  456SOL     OW 2266   2.691   1.087   2.734
  456SOL    HW1 2267   2.591   1.094   2.732
  456SOL    HW2 2268   2.727   1.095   2.642
  457SOL     OW 2269   2.434   6.647   6.902
  457SOL    HW1 2270   2.499   6.633   6.827
  457SOL    HW2 2271   2.345   6.609   6.876
  458SOL     OW 2272   3.647   1.331   2.864
  458SOL    HW1 2273   3.722   1.281   2.820
  458SOL    HW2 2274   3.614   1.403   2.803
  459SOL     OW 2275   3.341   0.756   3.543
  459SOL    HW1 2276   3.262   0.814   3.522
  459SOL    HW2 2277   3.365   0.702   3.462
  460SOL     OW 2278   0.511   1.032   6.110
  460SOL    HW1 2279   0.604   1.045   6.076
  460SOL    HW2 2280   0.496   1.090   6.190
  461SOL     OW 2281   1.173   5.927   5.542
  461SOL    HW1 2282   1.137   5.861   5.476
  461SOL    HW2 2283   1.097   5.978   5.583
  462SOL     OW 2284   3.092   3.961   4.700
  462SOL    HW1 2285   3.089   3.963   4.800
  462SOL    HW2 2286   3.139   3.878   4.670
  463SOL     OW 2287   5.219   6.259   3.736
  463SOL    HW1 2288   5.263   6.270   3.825
  463SOL    HW2 2289   5.283   6.217   3.671
  464SOL     OW 2290   4.508   5.414   5.694
  464SOL    HW1 2291   4.527   5.452   5.785
  464SOL    HW2 2292   4.594   5.403   5.644
  465SOL     OW 2293   0.687   4.580   0.364
  465SOL    HW1 2294   0.749   4.575   0.285
  465SOL    HW2 2295   0.593   4.571   0.333
  466SOL     OW 2296   4.044   4.933   3.893
  466SOL    HW1 2297   4.104   4.978   3.826
  466SOL    HW2 2298   3.975   4.998   3.924
  467SOL     OW 2299   6.433   0.222   2.238
  467SOL    HW1 2300   6.529   0.195   2.244
  467SOL    HW2 2301   6.416   0.299   2.300
  468SOL     OW 2302   2.383   6.299   6.347
  468SOL    HW1 2303   2.383   6.199   6.344
  468SOL    HW2 2304   2.456   6.330   6.407
  469SOL     OW 2305   2.769   4.847   4.977
  469SOL    HW1 2306   2.857   4.891   4.998
  469SOL    HW2 2307   2.767   4.756   5.018
  470SOL     OW 2308   2.004   5.029   2.719
  470SOL    HW1 2309   1.975   4.978   2.638
  470SOL    HW2 2310   2.070   4.974   2.771
  471SOL     OW 2311   1.789   2.283   4.234
  471SOL    HW1 2312   1.760   2.379   4.238
  471SOL    HW2 2313   1.836   2.259   4.318
  472SOL     OW 2314   5.355   3.995   6.446
  472SOL    HW1 2315   5.408   3.922   6.402
  472SOL    HW2 2316   5.386   4.083   6.412
  473SOL     OW 2317   5.396   3.594   2.395
  473SOL    HW1 2318   5.417   3.511   2.344
  473SOL    HW2 2319   5.412   3.578   2.493
  474SOL     OW 2320   4.718   5.395   4.171
  474SOL    HW1 2321   4.635   5.432   4.129
  474SOL    HW2 2322   4.697   5.305   4.211
  475SOL     OW 2323   5.934   1.501   0.757
  475SOL    HW1 2324   6.020   1.470   0.716
  475SOL    HW2 2325   5.880   1.421   0.785
  476SOL     OW 2326   1.597   4.152   6.977
  476SOL    HW1 2327   1.533   4.100   0.017
  476SOL    HW2 2328   1.550   4.191   6.898
  477SOL     OW 2329   1.251   5.162   3.018
  477SOL    HW1 2330   1.308   5.214   2.954
  477SOL    HW2 2331   1.173   5.217   3.045
  478SOL     OW 2332   5.907   6.216   2.933
  478SOL    HW1 2333   5.998   6.257   2.945
  478SOL    HW2 2334   5.866   6.250   2.849
  479SOL     OW 2335   3.029   3.573   2.916
  479SOL    HW1 2336   2.956   3.540   2.855
  479SOL    HW2 2337   3.037   3.672   2.907
  480SOL     OW 2338   0.633   0.613   2.507
  480SOL    HW1 2339   0.588   0.702   2.517
  480SOL    HW2 2340   0.693   0.597   2.585
  481SOL     OW 2341   6.793   0.101   0.901
  481SOL    HW1 2342   6.748   0.155   0.829
  481SOL    HW2 2343   6.803   0.007   0.870
  482SOL     OW 2344   4.243   4.976   2.777
  482SOL    HW1 2345   4.307   5.052   2.767
  482SOL    HW2 2346   4.162   5.007   2.828
  483SOL     OW 2347   5.692   1.970   4.110
  483SOL    HW1 2348   5.680   1.879   4.150
  483SOL    HW2 2349   5.673   1.966   4.012
  484SOL     OW 2350   2.013   5.120   3.504
  484SOL    HW1 2351   1.930   5.066   3.512
  484SOL    HW2 2352   1.998   5.210   3.545
  485SOL     OW 2353   5.468   2.085   1.370
  485SOL    HW1 2354   5.476   2.180   1.401
  485SOL    HW2 2355   5.558   2.050   1.346
  486SOL     OW 2356   5.898   6.548   5.888
  486SOL    HW1 2357   5.959   6.588   5.819
  486SOL    HW2 2358   5.845   6.621   5.931
  487SOL     OW 2359   0.482   0.508   6.876
  487SOL    HW1 2360   0.419   0.567   6.924
  487SOL    HW2 2361   0.435   0.423   6.851
  488SOL     OW 2362   1.885   5.950   3.319
  488SOL    HW1 2363   1.915   6.046   3.317
  488SOL    HW2 2364   1.965   5.890   3.322
  489SOL     OW 2365   2.259   5.976   5.296
  489SOL    HW1 2366   2.352   5.989   5.330
  489SOL    HW2 2367   2.205   5.926   5.365
  490SOL     OW 2368   1.426   3.415   4.361
  490SOL    HW1 2369   1.359   3.488   4.350
  490SOL    HW2 2370   1.379   3.330   4.386
  491SOL     OW 2371   6.433   2.791   0.920
  491SOL    HW1 2372   6.484   2.706   0.929
  491SOL    HW2 2373   6.382   2.790   0.834
  492SOL     OW 2374   1.719   3.039   5.325
  492SOL    HW1 2375   1.662   2.962   5.354
  492SOL    HW2 2376   1.754   3.022   5.233
  493SOL     OW 2377   1.735   5.195   4.488
  493SOL    HW1 2378   1.725   5.230   4.395
  493SOL    HW2 2379   1.828   5.160   4.500
  494SOL     OW 2380   2.160   0.759   4.150
  494SOL    HW1 2381   2.151   0.665   4.181
  494SOL    HW2 2382   2.112   0.820   4.212
  495SOL     OW 2383   3.556   4.144   6.767
  495SOL    HW1 2384   3.522   4.166   6.675
  495SOL    HW2 2385   3.484   4.098   6.818
  496SOL     OW 2386   5.493   1.058   3.259
  496SOL    HW1 2387   5.496   0.974   3.204
  496SOL    HW2 2388   5.400   1.074   3.291
  497SOL     OW 2389   4.765   1.969   0.511
  497SOL    HW1 2390   4.795   2.064   0.507
  497SOL    HW2 2391   4.742   1.946   0.606
  498SOL     OW 2392   0.431   0.562   1.046
  498SOL    HW1 2393   0.415   0.658   1.067
  498SOL    HW2 2394   0.529   0.546   1.036
  499SOL     OW 2395   3.242   6.309   0.416
  499SOL    HW1 2396   3.278   6.285   0.326
  499SOL    HW2 2397   3.287   6.393   0.448
  500SOL     OW 2398   5.242   1.694   6.588
  500SOL    HW1 2399   5.276   1.784   6.560
  500SOL    HW2 2400   5.210   1.644   6.507
  501SOL     OW 2401   1.111   1.340   5.189
  501SOL    HW1 2402   1.146   1.345   5.095
  501SOL    HW2 2403   1.016   1.371   5.190
  502SOL     OW 2404   2.327   4.400   6.796
  502SOL    HW1 2405   2.263   4.335   6.838
  502SOL    HW2 2406   2.419   4.362   6.798
  503SOL     OW 2407   3.746   5.549   1.209
  503SOL    HW1 2408   3.794   5.526   1.124
  503SOL    HW2 2409   3.667   5.606   1.189
  504SOL     OW 2410   6.721   6.253   1.549
  504SOL    HW1 2411   6.676   6.222   1.633
  504SOL    HW2 2412   6.763   6.342   1.565
  505SOL     OW 2413   5.794   5.110   5.276
  505SOL    HW1 2414   5.803   5.195   5.224
  505SOL    HW2 2415   5.697   5.088   5.288
  506SOL     OW 2416   3.247   5.062   3.189
  506SOL    HW1 2417   3.289   4.991   3.134
  506SOL    HW2 2418   3.242   5.147   3.136
  507SOL     OW 2419   3.047   0.727   1.450
  507SOL    HW1 2420   3.089   0.643   1.484
  507SOL    HW2 2421   2.952   0.733   1.482
  508SOL     OW 2422   0.217   4.668   3.237
  508SOL    HW1 2423   0.270   4.615   3.172
  508SOL    HW2 2424   0.277   4.730   3.288
  509SOL     OW 2425   4.169   6.882   6.133
  509SOL    HW1 2426   4.107   6.804   6.123
  509SOL    HW2 2427   4.200   6.913   6.043
  510SOL     OW 2428   6.671   4.101   0.288
  510SOL    HW1 2429   6.583   4.055   0.280
  510SOL    HW2 2430   6.684   4.163   0.210
  511SOL     OW 2431   0.848   1.259   0.197
  511SOL    HW1 2432   0.802   1.226   0.115
  511SOL    HW2 2433   0.928   1.202   0.216
  512SOL     OW 2434   0.164   2.681   4.058
  512SOL    HW1 2435   0.188   2.651   3.965
  512SOL    HW2 2436   0.223   2.757   4.085
  513SOL     OW 2437   5.471   7.002   3.130
  513SOL    HW1 2438   5.457   7.004   3.031
  513SOL    HW2 2439   5.382   7.000   3.176
  514SOL     OW 2440   4.735   1.034   5.280
  514SOL    HW1 2441   4.661   1.020   5.346
  514SOL    HW2 2442   4.695   1.053   5.190
  515SOL     OW 2443   3.568   0.660   0.351
  515SOL    HW1 2444   3.647   0.611   0.387
  515SOL    HW2 2445   3.502   0.676   0.425
  516SOL     OW 2446   1.960   6.278   2.178
  516SOL    HW1 2447   1.987   6.213   2.107
  516SOL    HW2 2448   2.016   6.263   2.259
  517SOL     OW 2449   3.643   5.377   1.840
  517SOL    HW1 2450   3.608   5.289   1.805
  517SOL    HW2 2451   3.621   5.449   1.775
  518SOL     OW 2452   1.768   5.270   4.219
  518SOL    HW1 2453   1.813   5.191   4.177
  518SOL    HW2 2454   1.719   5.322   4.149
  519SOL     OW 2455   6.990   6.729   2.131
  519SOL    HW1 2456   6.998   6.672   2.214
  519SOL    HW2 2457   6.960   6.820   2.157
  520SOL     OW 2458   2.335   4.747   0.346
  520SOL    HW1 2459   2.365   4.719   0.437
  520SOL    HW2 2460   2.382   4.692   0.277
  521SOL     OW 2461   6.226   5.886   5.407
  521SOL    HW1 2462   6.292   5.931   5.467
  521SOL    HW2 2463   6.184   5.810   5.455
  522SOL     OW 2464   3.815   4.453   0.141
  522SOL    HW1 2465   3.826   4.359   0.174
  522SOL    HW2 2466   3.873   4.468   0.061
  523SOL     OW 2467   1.477   6.797   6.796
  523SOL    HW1 2468   1.553   6.776   6.857
  523SOL    HW2 2469   1.512   6.837   6.711
  524SOL     OW 2470   0.123   1.208   0.955
  524SOL    HW1 2471   0.131   1.139   1.027
  524SOL    HW2 2472   0.129   1.164   0.865
  525SOL     OW 2473   0.967   3.123   3.758
  525SOL    HW1 2474   0.960   3.220   3.778
  525SOL    HW2 2475   1.063   3.094   3.767
  526SOL     OW 2476   4.248   0.103   4.135
  526SOL    HW1 2477   4.246   0.107   4.235
  526SOL    HW2 2478   4.335   0.138   4.102
  527SOL     OW 2479   0.499   1.537   1.076
  527SOL    HW1 2480   0.585   1.586   1.091
  527SOL    HW2 2481   0.477   1.483   1.157
  528SOL     OW 2482   0.019   2.819   4.401
  528SOL    HW1 2483   6.952   2.854   4.446
  528SOL    HW2 2484   0.080   2.895   4.380
  529SOL     OW 2485   1.546   0.177   6.731
  529SOL    HW1 2486   1.497   0.142   6.811
  529SOL    HW2 2487   1.576   0.101   6.674
  530SOL     OW 2488   3.756   4.781   1.550
  530SOL    HW1 2489   3.824   4.854   1.537
  530SOL    HW2 2490   3.668   4.823   1.572
  531SOL     OW 2491   1.529   6.868   0.119
  531SOL    HW1 2492   1.594   6.886   0.193
  531SOL    HW2 2493   1.571   6.807   0.052
  532SOL     OW 2494   2.005   1.330   5.973
  532SOL    HW1 2495   2.059   1.400   6.020
  532SOL    HW2 2496   1.908   1.348   5.986
  533SOL     OW 2497   3.878   0.663   3.859
  533SOL    HW1 2498   3.873   0.653   3.759
  533SOL    HW2 2499   3.931   0.745   3.881
  534SOL     OW 2500   1.881   4.061   1.714
  534SOL    HW1 2501   1.963   4.060   1.772
  534SOL    HW2 2502   1.825   4.141   1.736
  535SOL     OW 2503   5.203   3.207   4.389
  535SOL    HW1 2504   5.208   3.228   4.291
  535SOL    HW2 2505   5.141   3.129   4.403
  536SOL     OW 2506   6.461   6.805   1.709
  536SOL    HW1 2507   6.518   6.887   1.722
  536SOL    HW2 2508   6.436   6.796   1.613
  537SOL     OW 2509   3.049   1.796   2.509
  537SOL    HW1 2510   3.104   1.877   2.532
  537SOL    HW2 2511   2.998   1.814   2.425
  538SOL     OW 2512   3.569   5.043   4.703
  538SOL    HW1 2513   3.508   4.993   4.764
  538SOL    HW2 2514   3.517   5.115   4.656
  539SOL     OW 2515   1.817   0.413   6.671
  539SOL    HW1 2516   1.861   0.333   6.630
  539SOL    HW2 2517   1.814   0.488   6.605
  540SOL     OW 2518   1.577   0.591   5.096
  540SOL    HW1 2519   1.556   0.608   4.999
  540SOL    HW2 2520   1.647   0.521   5.103
  541SOL     OW 2521   5.052   6.141   3.985
  541SOL    HW1 2522   5.043   6.042   3.995
  541SOL    HW2 2523   5.122   6.162   3.917
  542SOL     OW 2524   3.687   6.508   6.197
  542SOL    HW1 2525   3.696   6.584   6.262
  542SOL    HW2 2526   3.776   6.464   6.185
  543SOL     OW 2527   6.290   2.632   3.568
  543SOL    HW1 2528   6.279   2.595   3.660
  543SOL    HW2 2529   6.205   2.618   3.516
  544SOL     OW 2530   1.179   2.959   1.260
  544SOL    HW1 2531   1.190   3.058   1.265
  544SOL    HW2 2532   1.084   2.935   1.280
  545SOL     OW 2533   6.565   5.830   0.699
  545SOL    HW1 2534   6.606   5.918   0.722
  545SOL    HW2 2535   6.627   5.779   0.640
  546SOL     OW 2536   0.484   3.820   1.623
  546SOL    HW1 2537   0.549   3.881   1.667
  546SOL    HW2 2538   0.525   3.729   1.612
  547SOL     OW 2539   5.189   0.044   6.518
  547SOL    HW1 2540   5.176   0.057   6.419
  547SOL    HW2 2541   5.105   0.068   6.566
  548SOL     OW 2542   3.778   3.018   0.228
  548SOL    HW1 2543   3.802   3.074   0.307
  548SOL    HW2 2544   3.699   3.060   0.182
  549SOL     OW 2545   5.288   1.440   2.153
  549SOL    HW1 2546   5.304   1.537   2.168
  549SOL    HW2 2547   5.335   1.387   2.223
  550SOL     OW 2548   6.968   6.062   3.003
  550SOL    HW1 2549   6.975   6.075   3.102
  550SOL    HW2 2550   6.888   6.110   2.968
  551SOL     OW 2551   6.067   0.651   0.570
  551SOL    HW1 2552   6.057   0.697   0.658
  551SOL    HW2 2553   6.026   0.708   0.498
  552SOL     OW 2554   0.746   6.685   5.220
  552SOL    HW1 2555   0.834   6.667   5.264
  552SOL    HW2 2556   0.701   6.761   5.266
  553SOL     OW 2557   3.544   2.070   6.653
  553SOL    HW1 2558   3.521   2.156   6.699
  553SOL    HW2 2559   3.559   1.999   6.721
  554SOL     OW 2560   6.334   5.682   0.634
  554SOL    HW1 2561   6.325   5.700   0.536
  554SOL    HW2 2562   6.428   5.699   0.662
  555SOL     OW 2563   2.160   3.785   5.158
  555SOL    HW1 2564   2.126   3.752   5.070
  555SOL    HW2 2565   2.236   3.849   5.142
  556SOL     OW 2566   5.782   0.145   3.661
  556SOL    HW1 2567   5.866   0.185   3.625
  556SOL    HW2 2568   5.743   0.082   3.594
  557SOL     OW 2569   5.670   4.466   6.472
  557SOL    HW1 2570   5.644   4.562   6.474
  557SOL    HW2 2571   5.765   4.458   6.441
  558SOL     OW 2572   3.298   3.451   2.652
  558SOL    HW1 2573   3.230   3.409   2.713
  558SOL    HW2 2574   3.251   3.492   2.574
  559SOL     OW 2575   6.752   0.495   6.057
  559SOL    HW1 2576   6.816   0.419   6.060
  559SOL    HW2 2577   6.676   0.472   5.995
  560SOL     OW 2578   6.936   3.090   4.253
  560SOL    HW1 2579   6.929   3.002   4.299
  560SOL    HW2 2580   6.855   3.145   4.273
  561SOL     OW 2581   0.691   3.254   0.717
  561SOL    HW1 2582   0.719   3.349   0.702
  561SOL    HW2 2583   0.761   3.192   0.682
  562SOL     OW 2584   4.436   6.421   4.056
  562SOL    HW1 2585   4.383   6.486   4.000
  562SOL    HW2 2586   4.459   6.464   4.144
  563SOL     OW 2587   1.374   0.984   4.424
  563SOL    HW1 2588   1.382   1.068   4.478
  563SOL    HW2 2589   1.413   0.999   4.333
  564SOL     OW 2590   6.064   2.113   6.315
  564SOL    HW1 2591   6.100   2.023   6.289
  564SOL    HW2 2592   6.051   2.169   6.233
  565SOL     OW 2593   3.614   3.483   3.359
  565SOL    HW1 2594   3.629   3.503   3.456
  565SOL    HW2 2595   3.539   3.417   3.350
  566SOL     OW 2596   2.857   0.768   3.455
  566SOL    HW1 2597   2.890   0.828   3.528
  566SOL    HW2 2598   2.757   0.763   3.459
  567SOL     OW 2599   3.046   2.790   5.353
  567SOL    HW1 2600   3.071   2.857   5.423
  567SOL    HW2 2601   3.103   2.709   5.363
  568SOL     OW 2602   0.722   6.271   0.040
  568SOL    HW1 2603   0.770   6.348   7.012
  568SOL    HW2 2604   0.720   6.193   6.993
  569SOL     OW 2605   5.752   3.557   0.063
  569SOL    HW1 2606   5.787   3.546   6.986
  569SOL    HW2 2607   5.818   3.610   0.117
  570SOL     OW 2608   3.115   0.578   5.848
  570SOL    HW1 2609   3.085   0.583   5.943
  570SOL    HW2 2610   3.181   0.504   5.838
  571SOL     OW 2611   2.342   4.131   1.584
  571SOL    HW1 2612   2.397   4.062   1.630
  571SOL    HW2 2613   2.351   4.218   1.632
  572SOL     OW 2614   2.503   0.969   4.745
  572SOL    HW1 2615   2.603   0.969   4.747
  572SOL    HW2 2616   2.468   1.012   4.828
  573SOL     OW 2617   0.455   0.539   5.483
  573SOL    HW1 2618   0.450   0.612   5.551
  573SOL    HW2 2619   0.372   0.484   5.488
  574SOL     OW 2620   1.990   1.391   6.316
  574SOL    HW1 2621   2.074   1.445   6.322
  574SOL    HW2 2622   1.949   1.403   6.225
  575SOL     OW 2623   4.023   3.980   0.096
  575SOL    HW1 2624   3.968   3.900   0.118
  575SOL    HW2 2625   4.118   3.964   0.123
  576SOL     OW 2626   2.040   1.460   2.707
  576SOL    HW1 2627   2.061   1.411   2.623
  576SOL    HW2 2628   1.942   1.452   2.726
  577SOL     OW 2629   0.514   1.230   1.663
  577SOL    HW1 2630   0.595   1.253   1.609
  577SOL    HW2 2631   0.436   1.216   1.601
  578SOL     OW 2632   3.655   6.800   6.992
  578SOL    HW1 2633   3.673   6.753   6.906
  578SOL    HW2 2634   3.738   6.802   0.032
  579SOL     OW 2635   1.784   3.776   1.921
  579SOL    HW1 2636   1.799   3.730   2.008
  579SOL    HW2 2637   1.777   3.707   1.848
  580SOL     OW 2638   4.873   5.138   4.847
  580SOL    HW1 2639   4.822   5.067   4.799
  580SOL    HW2 2640   4.851   5.227   4.807
  581SOL     OW 2641   2.033   2.483   4.648
  581SOL    HW1 2642   1.997   2.493   4.741
  581SOL    HW2 2643   2.130   2.457   4.652
  582SOL     OW 2644   5.356   4.816   3.999
  582SOL    HW1 2645   5.276   4.795   4.055
  582SOL    HW2 2646   5.423   4.742   4.008
  583SOL     OW 2647   3.668   6.061   5.636
  583SOL    HW1 2648   3.702   6.146   5.677
  583SOL    HW2 2649   3.703   6.052   5.543
  584SOL     OW 2650   3.707   0.528   5.358
  584SOL    HW1 2651   3.686   0.625   5.360
  584SOL    HW2 2652   3.796   0.512   5.400
  585SOL     OW 2653   3.900   0.098   1.359
  585SOL    HW1 2654   3.869   0.004   1.368
  585SOL    HW2 2655   3.823   0.157   1.333
  586SOL     OW 2656   3.996   6.967   0.570
  586SOL    HW1 2657   4.040   0.001   0.495
  586SOL    HW2 2658   3.898   6.987   0.571
  587SOL     OW 2659   4.950   1.738   2.184
  587SOL    HW1 2660   4.995   1.766   2.099
  587SOL    HW2 2661   5.019   1.708   2.249
  588SOL     OW 2662   1.338   4.454   2.916
  588SOL    HW1 2663   1.334   4.546   2.877
  588SOL    HW2 2664   1.262   4.441   2.979
  589SOL     OW 2665   2.983   5.235   0.669
  589SOL    HW1 2666   2.942   5.297   0.603
  589SOL    HW2 2667   3.054   5.284   0.721
  590SOL     OW 2668   2.964   2.016   0.041
  590SOL    HW1 2669   2.932   1.977   6.970
  590SOL    HW2 2670   2.967   1.945   0.111
  591SOL     OW 2671   3.016   6.023   3.738
  591SOL    HW1 2672   3.061   6.013   3.649
  591SOL    HW2 2673   3.063   5.966   3.805
  592SOL     OW 2674   4.055   1.890   4.692
  592SOL    HW1 2675   3.974   1.851   4.735
  592SOL    HW2 2676   4.040   1.898   4.593
  593SOL     OW 2677   1.781   1.877   6.786
  593SOL    HW1 2678   1.741   1.909   6.872
  593SOL    HW2 2679   1.828   1.790   6.802
  594SOL     OW 2680   4.509   1.177   2.948
  594SOL    HW1 2681   4.447   1.128   3.010
  594SOL    HW2 2682   4.599   1.135   2.952
  595SOL     OW 2683   6.240   5.373   3.074
  595SOL    HW1 2684   6.179   5.375   3.153
  595SOL    HW2 2685   6.186   5.372   2.990
  596SOL     OW 2686   6.444   4.916   4.228
  596SOL    HW1 2687   6.421   5.008   4.196
  596SOL    HW2 2688   6.502   4.870   4.161
  597SOL     OW 2689   3.234   1.178   6.814
  597SOL    HW1 2690   3.241   1.087   6.773
  597SOL    HW2 2691   3.252   1.172   6.912
  598SOL     OW 2692   3.283   4.108   3.713
  598SOL    HW1 2693   3.379   4.136   3.709
  598SOL    HW2 2694   3.240   4.150   3.792
  599SOL     OW 2695   1.726   5.294   1.572
  599SOL    HW1 2696   1.759   5.379   1.532
  599SOL    HW2 2697   1.798   5.253   1.628
  600SOL     OW 2698   6.764   3.517   5.813
  600SOL    HW1 2699   6.705   3.455   5.761
  600SOL    HW2 2700   6.735   3.519   5.909
  601SOL     OW 2701   0.557   6.353   5.792
  601SOL    HW1 2702   0.628   6.410   5.833
  601SOL    HW2 2703   0.583   6.329   5.698
  602SOL     OW 2704   1.537   0.126   3.578
  602SOL    HW1 2705   1.475   0.203   3.589
  602SOL    HW2 2706   1.581   0.130   3.488
  603SOL     OW 2707   1.971   1.685   4.048
  603SOL    HW1 2708   1.896   1.622   4.065
  603SOL    HW2 2709   1.949   1.743   3.970
  604SOL     OW 2710   6.179   3.273   1.109
  604SOL    HW1 2711   6.093   3.279   1.159
  604SOL    HW2 2712   6.195   3.177   1.083
  605SOL     OW 2713   6.690   5.990   1.019
  605SOL    HW1 2714   6.669   5.981   1.117
  605SOL    HW2 2715   6.771   5.936   0.998
  606SOL     OW 2716   3.729   6.419   4.998
  606SOL    HW1 2717   3.686   6.370   5.075
  606SOL    HW2 2718   3.713   6.517   5.008
  607SOL     OW 2719   1.807   3.166   5.771
  607SOL    HW1 2720   1.822   3.170   5.672
  607SOL    HW2 2721   1.840   3.078   5.806
  608SOL     OW 2722   3.290   1.215   6.186
  608SOL    HW1 2723   3.217   1.224   6.254
  608SOL    HW2 2724   3.332   1.125   6.193
  609SOL     OW 2725   3.629   2.863   2.151
  609SOL    HW1 2726   3.570   2.785   2.171
  609SOL    HW2 2727   3.659   2.858   2.056
  610SOL     OW 2728   4.527   3.676   1.664
  610SOL    HW1 2729   4.531   3.593   1.720
  610SOL    HW2 2730   4.600   3.674   1.595
  611SOL     OW 2731   3.816   0.973   3.311
  611SOL    HW1 2732   3.751   0.915   3.262
  611SOL    HW2 2733   3.766   1.046   3.358
  612SOL     OW 2734   4.604   4.956   3.903
  612SOL    HW1 2735   4.557   4.905   3.975
  612SOL    HW2 2736   4.557   5.043   3.887
  613SOL     OW 2737   4.236   4.511   5.460
  613SOL    HW1 2738   4.281   4.546   5.377
  613SOL    HW2 2739   4.270   4.419   5.480
  614SOL     OW 2740   2.802   6.299   6.295
  614SOL    HW1 2741   2.784   6.205   6.267
  614SOL    HW2 2742   2.725   6.333   6.349
  615SOL     OW 2743   0.638   4.885   2.531
  615SOL    HW1 2744   0.678   4.975   2.546
  615SOL    HW2 2745   0.544   4.895   2.497
  616SOL     OW 2746   6.055   2.789   3.686
  616SOL    HW1 2747   6.129   2.846   3.721
  616SOL    HW2 2748   6.067   2.695   3.719
  617SOL     OW 2749   2.913   6.530   5.839
  617SOL    HW1 2750   2.839   6.526   5.907
  617SOL    HW2 2751   2.973   6.450   5.851
  618SOL     OW 2752   1.735   1.163   2.910
  618SOL    HW1 2753   1.708   1.255   2.937
  618SOL    HW2 2754   1.742   1.159   2.810
  619SOL     OW 2755   0.992   1.923   6.917
  619SOL    HW1 2756   0.971   1.967   6.830
  619SOL    HW2 2757   0.944   1.971   6.991
  620SOL     OW 2758   4.149   3.596   1.336
  620SOL    HW1 2759   4.187   3.601   1.428
  620SOL    HW2 2760   4.208   3.647   1.273
  621SOL     OW 2761   0.237   5.623   0.962
  621SOL    HW1 2762   0.156   5.567   0.951
  621SOL    HW2 2763   0.318   5.565   0.970
  622SOL     OW 2764   0.884   0.693   6.627
  622SOL    HW1 2765   0.896   0.782   6.583
  622SOL    HW2 2766   0.972   0.655   6.652
  623SOL     OW 2767   0.342   4.963   5.921
  623SOL    HW1 2768   0.282   4.886   5.943
  623SOL    HW2 2769   0.381   4.949   5.830
  624SOL     OW 2770   1.253   1.825   0.878
  624SOL    HW1 2771   1.281   1.831   0.782
  624SOL    HW2 2772   1.166   1.871   0.890
  625SOL     OW 2773   1.742   1.356   2.663
  625SOL    HW1 2774   1.773   1.381   2.754
  625SOL    HW2 2775   1.720   1.439   2.611
  626SOL     OW 2776   3.387   6.860   4.760
  626SOL    HW1 2777   3.312   6.795   4.742
  626SOL    HW2 2778   3.348   6.948   4.787
  627SOL     OW 2779   5.367   0.673   0.014
  627SOL    HW1 2780   5.399   0.767   0.014
  627SOL    HW2 2781   5.360   0.640   0.108
  628SOL     OW 2782   5.229   3.907   3.292
  628SOL    HW1 2783   5.318   3.948   3.314
  628SOL    HW2 2784   5.241   3.844   3.215
  629SOL     OW 2785   1.729   6.926   0.598
  629SOL    HW1 2786   1.636   6.959   0.618
  629SOL    HW2 2787   1.794   6.975   0.657
  630SOL     OW 2788   3.398   1.938   1.386
  630SOL    HW1 2789   3.304   1.933   1.351
  630SOL    HW2 2790   3.462   1.944   1.308
  631SOL     OW 2791   2.294   6.773   4.868
  631SOL    HW1 2792   2.368   6.795   4.804
  631SOL    HW2 2793   2.242   6.695   4.832
  632SOL     OW 2794   2.529   0.271   0.907
  632SOL    HW1 2795   2.464   0.338   0.943
  632SOL    HW2 2796   2.498   0.239   0.817
  633SOL     OW 2797   2.389   6.638   5.509
  633SOL    HW1 2798   2.431   6.561   5.559
  633SOL    HW2 2799   2.362   6.708   5.575
  634SOL     OW 2800   2.981   5.914   2.001
  634SOL    HW1 2801   3.050   5.901   2.072
  634SOL    HW2 2802   2.895   5.942   2.043
  635SOL     OW 2803   2.805   0.595   2.511
  635SOL    HW1 2804   2.743   0.614   2.587
  635SOL    HW2 2805   2.755   0.602   2.425
  636SOL     OW 2806   5.111   5.792   0.344
  636SOL    HW1 2807   5.035   5.760   0.401
  636SOL    HW2 2808   5.169   5.714   0.320
  637SOL     OW 2809   5.579   4.424   0.190
  637SOL    HW1 2810   5.495   4.405   0.241
  637SOL    HW2 2811   5.579   4.370   0.106
  638SOL     OW 2812   5.336   0.936   2.412
  638SOL    HW1 2813   5.299   0.912   2.502
  638SOL    HW2 2814   5.404   0.869   2.384
  639SOL     OW 2815   4.828   3.984   2.567
  639SOL    HW1 2816   4.742   4.006   2.611
  639SOL    HW2 2817   4.893   3.950   2.635
  640SOL     OW 2818   2.523   4.095   5.630
  640SOL    HW1 2819   2.542   4.111   5.727
  640SOL    HW2 2820   2.570   4.164   5.575
  641SOL     OW 2821   0.202   5.948   5.824
  641SOL    HW1 2822   0.193   5.928   5.922
  641SOL    HW2 2823   0.132   5.899   5.773
  642SOL     OW 2824   0.930   4.706   6.019
  642SOL    HW1 2825   0.981   4.738   5.939
  642SOL    HW2 2826   0.991   4.706   6.099
  643SOL     OW 2827   6.169   5.951   5.142
  643SOL    HW1 2828   6.219   5.893   5.078
  643SOL    HW2 2829   6.202   5.936   5.235
  644SOL     OW 2830   2.615   5.679   2.322
  644SOL    HW1 2831   2.676   5.752   2.354
  644SOL    HW2 2832   2.524   5.693   2.362
  645SOL     OW 2833   6.474   3.147   3.154
  645SOL    HW1 2834   6.465   3.166   3.057
  645SOL    HW2 2835   6.402   3.194   3.205
  646SOL     OW 2836   1.431   2.019   4.399
  646SOL    HW1 2837   1.386   2.062   4.321
  646SOL    HW2 2838   1.400   2.063   4.484
  647SOL     OW 2839   5.487   3.025   0.300
  647SOL    HW1 2840   5.437   3.074   0.228
  647SOL    HW2 2841   5.422   2.975   0.357
  648SOL     OW 2842   4.894   1.989   3.692
  648SOL    HW1 2843   4.942   1.997   3.605
  648SOL    HW2 2844   4.796   2.006   3.677
  649SOL     OW 2845   4.369   4.561   2.070
  649SOL    HW1 2846   4.410   4.470   2.062
  649SOL    HW2 2847   4.416   4.612   2.142
  650SOL     OW 2848   5.082   3.593   0.705
  650SOL    HW1 2849   5.072   3.689   0.734
  650SOL    HW2 2850   5.135   3.543   0.773
  651SOL     OW 2851   0.835   6.165   6.087
  651SOL    HW1 2852   0.889   6.093   6.044
  651SOL    HW2 2853   0.802   6.228   6.017
  652SOL     OW 2854   5.170   1.657   2.418
  652SOL    HW1 2855   5.206   1.579   2.470
  652SOL    HW2 2856   5.231   1.677   2.342
  653SOL     OW 2857   3.457   4.898   3.319
  653SOL    HW1 2858   3.434   4.906   3.222
  653SOL    HW2 2859   3.374   4.879   3.371
  654SOL     OW 2860   6.311   5.127   6.992
  654SOL    HW1 2861   6.244   5.161   0.042
  654SOL    HW2 2862   6.269   5.058   6.934
  655SOL     OW 2863   7.011   1.484   6.636
  655SOL    HW1 2864   6.958   1.505   6.554
  655SOL    HW2 2865   6.969   1.528   6.715
  656SOL     OW 2866   2.797   6.188   1.595
  656SOL    HW1 2867   2.708   6.176   1.551
  656SOL    HW2 2868   2.850   6.103   1.587
  657SOL     OW 2869   3.989   1.368   6.274
  657SOL    HW1 2870   3.974   1.429   6.196
  657SOL    HW2 2871   4.052   1.412   6.339
  658SOL     OW 2872   3.772   4.891   5.709
  658SOL    HW1 2873   3.769   4.875   5.611
  658SOL    HW2 2874   3.863   4.870   5.744
  659SOL     OW 2875   3.107   0.559   6.113
  659SOL    HW1 2876   3.148   0.638   6.159
  659SOL    HW2 2877   3.167   0.479   6.124
  660SOL     OW 2878   3.485   5.983   3.327
  660SOL    HW1 2879   3.438   5.897   3.306
  660SOL    HW2 2880   3.436   6.059   3.285
  661SOL     OW 2881   5.776   5.980   2.933
  661SOL    HW1 2882   5.784   5.941   2.841
  661SOL    HW2 2883   5.834   6.060   2.941
  662SOL     OW 2884   3.601   1.249   0.761
  662SOL    HW1 2885   3.613   1.265   0.859
  662SOL    HW2 2886   3.589   1.151   0.745
  663SOL     OW 2887   1.930   4.655   4.628
  663SOL    HW1 2888   1.935   4.726   4.558
  663SOL    HW2 2889   1.919   4.566   4.584
  664SOL     OW 2890   5.838   0.931   6.648
  664SOL    HW1 2891   5.891   0.965   6.570
  664SOL    HW2 2892   5.891   0.861   6.696
  665SOL     OW 2893   1.752   4.423   2.140
  665SOL    HW1 2894   1.691   4.360   2.093
  665SOL    HW2 2895   1.845   4.387   2.139
  666SOL     OW 2896   4.332   1.353   1.024
  666SOL    HW1 2897   4.265   1.427   1.021
  666SOL    HW2 2898   4.340   1.319   1.118
  667SOL     OW 2899   1.262   6.992   2.371
  667SOL    HW1 2900   1.200   6.946   2.307
  667SOL    HW2 2901   1.216   0.057   2.408
  668SOL     OW 2902   5.343   3.703   0.848
  668SOL    HW1 2903   5.412   3.741   0.787
  668SOL    HW2 2904   5.351   3.603   0.850
  669SOL     OW 2905   5.082   1.846   2.589
  669SOL    HW1 2906   5.001   1.809   2.634
  669SOL    HW2 2907   5.114   1.782   2.519
  670SOL     OW 2908   3.043   2.171   3.236
  670SOL    HW1 2909   3.091   2.184   3.322
  670SOL    HW2 2910   2.961   2.228   3.235
  671SOL     OW 2911   2.668   6.394   1.753
  671SOL    HW1 2912   2.572   6.368   1.763
  671SOL    HW2 2913   2.709   6.346   1.676
  672SOL     OW 2914   1.550   6.591   2.669
  672SOL    HW1 2915   1.630   6.579   2.610
  672SOL    HW2 2916   1.467   6.585   2.614
  673SOL     OW 2917   5.721   6.677   0.632
  673SOL    HW1 2918   5.648   6.719   0.686
  673SOL    HW2 2919   5.808   6.687   0.680
  674SOL     OW 2920   5.915   0.769   3.770
  674SOL    HW1 2921   5.832   0.818   3.746
  674SOL    HW2 2922   5.900   0.670   3.760
  675SOL     OW 2923   0.412   3.745   3.243
  675SOL    HW1 2924   0.337   3.699   3.291
  675SOL    HW2 2925   0.414   3.841   3.269
  676SOL     OW 2926   2.735   6.564   6.023
  676SOL    HW1 2927   2.694   6.473   6.029
  676SOL    HW2 2928   2.679   6.630   6.073
  677SOL     OW 2929   5.473   1.817   0.897
  677SOL    HW1 2930   5.497   1.724   0.922
  677SOL    HW2 2931   5.508   1.881   0.965
  678SOL     OW 2932   0.897   5.242   3.566
  678SOL    HW1 2933   0.958   5.243   3.487
  678SOL    HW2 2934   0.948   5.272   3.647
  679SOL     OW 2935   4.531   2.006   5.219
  679SOL    HW1 2936   4.453   1.972   5.166
  679SOL    HW2 2937   4.610   2.017   5.160
  680SOL     OW 2938   6.074   6.478   4.105
  680SOL    HW1 2939   6.025   6.538   4.041
  680SOL    HW2 2940   6.013   6.404   4.134
  681SOL     OW 2941   4.630   4.412   2.759
  681SOL    HW1 2942   4.678   4.497   2.781
  681SOL    HW2 2943   4.590   4.373   2.842
  682SOL     OW 2944   0.560   1.187   2.945
  682SOL    HW1 2945   0.638   1.127   2.961
  682SOL    HW2 2946   0.575   1.274   2.992
  683SOL     OW 2947   3.512   4.161   1.442
  683SOL    HW1 2948   3.552   4.183   1.532
  683SOL    HW2 2949   3.572   4.196   1.370
  684SOL     OW 2950   6.597   1.103   5.376
  684SOL    HW1 2951   6.516   1.076   5.428
  684SOL    HW2 2952   6.654   1.164   5.431
  685SOL     OW 2953   3.169   0.087   2.609
  685SOL    HW1 2954   3.144   0.038   2.693
  685SOL    HW2 2955   3.268   0.100   2.607
  686SOL     OW 2956   4.019   0.168   5.282
  686SOL    HW1 2957   4.042   0.147   5.187
  686SOL    HW2 2958   4.009   0.267   5.293
  687SOL     OW 2959   0.296   1.766   3.373
  687SOL    HW1 2960   0.197   1.748   3.366
  687SOL    HW2 2961   0.331   1.728   3.459
  688SOL     OW 2962   6.070   1.483   6.685
  688SOL    HW1 2963   6.052   1.580   6.671
  688SOL    HW2 2964   6.142   1.472   6.754
  689SOL     OW 2965   1.489   5.573   6.395
  689SOL    HW1 2966   1.510   5.480   6.366
  689SOL    HW2 2967   1.419   5.612   6.336
  690SOL     OW 2968   5.377   3.650   3.232
  690SOL    HW1 2969   5.313   3.575   3.221
  690SOL    HW2 2970   5.384   3.675   3.328
  691SOL     OW 2971   6.077   1.347   0.983
  691SOL    HW1 2972   5.994   1.309   1.024
  691SOL    HW2 2973   6.098   1.298   0.899
  692SOL     OW 2974   1.644   0.200   4.721
  692SOL    HW1 2975   1.704   0.129   4.682
  692SOL    HW2 2976   1.685   0.290   4.705
  693SOL     OW 2977   5.540   6.138   3.305
  693SOL    HW1 2978   5.553   6.078   3.383
  693SOL    HW2 2979   5.573   6.229   3.326
  694SOL     OW 2980   4.830   6.091   5.382
  694SOL    HW1 2981   4.882   6.143   5.313
  694SOL    HW2 2982   4.813   5.999   5.348
  695SOL     OW 2983   4.451   6.869   4.082
  695SOL    HW1 2984   4.353   6.873   4.104
  695SOL    HW2 2985   4.501   6.929   4.144
  696SOL     OW 2986   5.728   4.087   2.865
  696SOL    HW1 2987   5.735   4.006   2.806
  696SOL    HW2 2988   5.772   4.068   2.953
  697SOL     OW 2989   1.219   6.436   2.262
  697SOL    HW1 2990   1.279   6.455   2.185
  697SOL    HW2 2991   1.226   6.339   2.287
  698SOL     OW 2992   5.452   6.381   6.683
  698SOL    HW1 2993   5.547   6.377   6.713
  698SOL    HW2 2994   5.425   6.477   6.670
  699SOL     OW 2995   3.268   3.179   1.185
  699SOL    HW1 2996   3.249   3.203   1.090
  699SOL    HW2 2997   3.196   3.120   1.220
  700SOL     OW 2998   3.994   0.052   4.259
  700SOL    HW1 2999   4.057   0.088   4.328
  700SOL    HW2 3000   3.940   0.127   4.221
  701SOL     OW 3001   4.987   5.033   1.666
  701SOL    HW1 3002   4.950   5.097   1.598
  701SOL    HW2 3003   4.988   5.077   1.756
  702SOL     OW 3004   3.790   0.912   4.376
  702SOL    HW1 3005   3.887   0.908   4.400
  702SOL    HW2 3006   3.755   1.004   4.393
  703SOL     OW 3007   3.025   1.976   6.776
  703SOL    HW1 3008   2.994   2.027   6.696
  703SOL    HW2 3009   3.111   2.014   6.809
  704SOL     OW 3010   2.835   1.889   5.421
  704SOL    HW1 3011   2.912   1.952   5.406
  704SOL    HW2 3012   2.832   1.863   5.517
  705SOL     OW 3013   0.333   6.749   5.183
  705SOL    HW1 3014   0.404   6.688   5.148
  705SOL    HW2 3015   0.243   6.717   5.153
  706SOL     OW 3016   3.890   1.253   4.789
  706SOL    HW1 3017   3.850   1.161   4.788
  706SOL    HW2 3018   3.989   1.246   4.803
  707SOL     OW 3019   3.185   5.067   4.240
  707SOL    HW1 3020   3.241   5.011   4.301
  707SOL    HW2 3021   3.244   5.115   4.175
  708SOL     OW 3022   4.786   5.961   3.980
  708SOL    HW1 3023   4.803   5.925   3.888
  708SOL    HW2 3024   4.786   6.061   3.977
  709SOL     OW 3025   2.348   0.381   1.082
  709SOL    HW1 3026   2.345   0.391   1.181
  709SOL    HW2 3027   2.288   0.305   1.055
  710SOL     OW 3028   4.889   3.215   1.956
  710SOL    HW1 3029   4.977   3.186   1.918
  710SOL    HW2 3030   4.840   3.135   1.992
  711SOL     OW 3031   6.828   1.983   0.039
  711SOL    HW1 3032   6.755   2.046   0.065
  711SOL    HW2 3033   6.884   1.963   0.119
  712SOL     OW 3034   4.878   3.741   6.844
  712SOL    HW1 3035   4.934   3.683   6.903
  712SOL    HW2 3036   4.789   3.697   6.829
  713SOL     OW 3037   4.290   3.373   5.360
  713SOL    HW1 3038   4.264   3.424   5.441
  713SOL    HW2 3039   4.225   3.299   5.345
  714SOL     OW 3040   5.360   6.022   3.101
  714SOL    HW1 3041   5.412   5.964   3.038
  714SOL    HW2 3042   5.424   6.068   3.164
  715SOL     OW 3043   6.473   4.902   5.329
  715SOL    HW1 3044   6.525   4.913   5.244
  715SOL    HW2 3045   6.531   4.860   5.399
  716SOL     OW 3046   2.386   1.958   3.053
  716SOL    HW1 3047   2.357   1.985   3.144
  716SOL    HW2 3048   2.313   1.979   2.987
  717SOL     OW 3049   4.999   5.401   4.237
  717SOL    HW1 3050   5.029   5.396   4.333
  717SOL    HW2 3051   4.901   5.382   4.233
  718SOL     OW 3052   4.927   2.362   5.458
  718SOL    HW1 3053   4.916   2.456   5.427
  718SOL    HW2 3054   4.912   2.357   5.557
  719SOL     OW 3055   4.762   6.811   3.816
  719SOL    HW1 3056   4.821   6.839   3.740
  719SOL    HW2 3057   4.766   6.711   3.826
  720SOL     OW 3058   2.238   0.754   0.821
  720SOL    HW1 3059   2.212   0.684   0.887
  720SOL    HW2 3060   2.157   0.806   0.793
  721SOL     OW 3061   6.861   2.112   2.439
  721SOL    HW1 3062   6.943   2.167   2.424
  721SOL    HW2 3063   6.779   2.166   2.418
  722SOL     OW 3064   5.010   6.203   0.983
  722SOL    HW1 3065   5.029   6.188   0.886
  722SOL    HW2 3066   4.915   6.178   1.002
  723SOL     OW 3067   2.327   0.111   4.270
  723SOL    HW1 3068   2.351   0.014   4.276
  723SOL    HW2 3069   2.408   0.167   4.287
  724SOL     OW 3070   1.105   2.095   3.850
  724SOL    HW1 3071   1.072   2.129   3.762
  724SOL    HW2 3072   1.131   1.999   3.841
  725SOL     OW 3073   1.455   4.286   2.731
  725SOL    HW1 3074   1.527   4.249   2.788
  725SOL    HW2 3075   1.400   4.350   2.784
  726SOL     OW 3076   1.480   3.626   0.730
  726SOL    HW1 3077   1.431   3.550   0.773
  726SOL    HW2 3078   1.554   3.656   0.790
  727SOL     OW 3079   3.977   5.152   4.942
  727SOL    HW1 3080   3.879   5.143   4.959
  727SOL    HW2 3081   4.001   5.105   4.857
  728SOL     OW 3082   6.544   3.086   3.886
  728SOL    HW1 3083   6.632   3.039   3.882
  728SOL    HW2 3084   6.501   3.071   3.975
  729SOL     OW 3085   0.245   4.032   0.970
  729SOL    HW1 3086   0.261   4.127   0.997
  729SOL    HW2 3087   0.300   3.971   1.027
  730SOL     OW 3088   3.620   0.765   3.208
  730SOL    HW1 3089   3.579   0.788   3.120
  730SOL    HW2 3090   3.555   0.784   3.282
  731SOL     OW 3091   4.593   5.445   5.063
  731SOL    HW1 3092   4.691   5.452   5.047
  731SOL    HW2 3093   4.562   5.522   5.118
  732SOL     OW 3094   3.801   1.302   5.341
  732SOL    HW1 3095   3.721   1.332   5.393
  732SOL    HW2 3096   3.772   1.259   5.256
  733SOL     OW 3097   6.356   5.751   3.122
  733SOL    HW1 3098   6.344   5.826   3.057
  733SOL    HW2 3099   6.398   5.673   3.076
  734SOL     OW 3100   6.266   6.758   2.663
  734SOL    HW1 3101   6.189   6.744   2.725
  734SOL    HW2 3102   6.246   6.836   2.603
  735SOL     OW 3103   4.607   0.196   2.456
  735SOL    HW1 3104   4.644   0.121   2.401
  735SOL    HW2 3105   4.522   0.228   2.415
  736SOL     OW 3106   1.981   1.580   3.773
  736SOL    HW1 3107   2.015   1.488   3.751
  736SOL    HW2 3108   1.932   1.577   3.860
  737SOL     OW 3109   3.421   1.058   5.822
  737SOL    HW1 3110   3.372   0.976   5.850
  737SOL    HW2 3111   3.420   1.065   5.722
  738SOL     OW 3112   2.485   4.616   0.121
  738SOL    HW1 3113   2.521   4.572   0.038
  738SOL    HW2 3114   2.537   4.585   0.200
  739SOL     OW 3115   2.876   0.152   4.004
  739SOL    HW1 3116   2.870   0.071   3.946
  739SOL    HW2 3117   2.931   0.221   3.958
  740SOL     OW 3118   4.974   3.227   2.837
  740SOL    HW1 3119   4.982   3.174   2.921
  740SOL    HW2 3120   5.006   3.171   2.760
  741SOL     OW 3121   2.706   0.690   2.757
  741SOL    HW1 3122   2.689   0.598   2.793
  741SOL    HW2 3123   2.763   0.740   2.822
  742SOL     OW 3124   2.044   6.079   2.004
  742SOL    HW1 3125   2.078   6.120   1.919
  742SOL    HW2 3126   2.045   5.980   1.996
  743SOL     OW 3127   0.407   6.728   3.091
  743SOL    HW1 3128   0.419   6.720   2.992
  743SOL    HW2 3129   0.398   6.825   3.116
  744SOL     OW 3130   4.944   2.017   6.929
  744SOL    HW1 3131   4.881   1.942   6.907
  744SOL    HW2 3132   4.950   2.027   0.013
  745SOL     OW 3133   2.060   6.940   4.682
  745SOL    HW1 3134   2.100   0.015   4.700
  745SOL    HW2 3135   2.128   6.883   4.635
  746SOL     OW 3136   0.342   4.830   5.223
  746SOL    HW1 3137   0.375   4.820   5.129
  746SOL    HW2 3138   0.364   4.921   5.257
  747SOL     OW 3139   4.854   5.849   2.485
  747SOL    HW1 3140   4.831   5.765   2.435
  747SOL    HW2 3141   4.771   5.891   2.521
  748SOL     OW 3142   5.260   5.084   1.719
  748SOL    HW1 3143   5.256   5.139   1.802
  748SOL    HW2 3144   5.170   5.042   1.702
  749SOL     OW 3145   4.831   4.079   4.790
  749SOL    HW1 3146   4.806   4.082   4.693
  749SOL    HW2 3147   4.821   3.986   4.824
  750SOL     OW 3148   2.641   2.063   2.222
  750SOL    HW1 3149   2.734   2.087   2.249
  750SOL    HW2 3150   2.579   2.139   2.243
  751SOL     OW 3151   3.294   0.491   0.528
  751SOL    HW1 3152   3.201   0.471   0.498
  751SOL    HW2 3153   3.355   0.418   0.497
  752SOL     OW 3154   3.718   2.669   5.362
  752SOL    HW1 3155   3.676   2.759   5.348
  752SOL    HW2 3156   3.646   2.602   5.385
  753SOL     OW 3157   3.602   3.806   4.297
  753SOL    HW1 3158   3.562   3.806   4.205
  753SOL    HW2 3159   3.540   3.852   4.360
  754SOL     OW 3160   5.667   0.528   0.192
  754SOL    HW1 3161   5.754   0.532   0.143
  754SOL    HW2 3162   5.620   0.442   0.170
  755SOL     OW 3163   4.303   4.236   5.296
  755SOL    HW1 3164   4.320   4.290   5.214
  755SOL    HW2 3165   4.363   4.157   5.297
  756SOL     OW 3166   2.526   5.297   6.167
  756SOL    HW1 3167   2.568   5.317   6.256
  756SOL    HW2 3168   2.427   5.290   6.178
  757SOL     OW 3169   2.323   6.342   2.402
  757SOL    HW1 3170   2.322   6.387   2.314
  757SOL    HW2 3171   2.244   6.281   2.410
  758SOL     OW 3172   4.579   0.460   4.327
  758SOL    HW1 3173   4.672   0.474   4.292
  758SOL    HW2 3174   4.515   0.513   4.272
  759SOL     OW 3175   0.881   3.487   3.677
  759SOL    HW1 3176   0.906   3.457   3.769
  759SOL    HW2 3177   0.787   3.457   3.657
  760SOL     OW 3178   6.692   5.180   3.228
  760SOL    HW1 3179   6.634   5.258   3.205
  760SOL    HW2 3180   6.773   5.180   3.169
  761SOL     OW 3181   4.102   4.490   6.283
  761SOL    HW1 3182   4.087   4.567   6.221
  761SOL    HW2 3183   4.164   4.517   6.356
  762SOL     OW 3184   3.201   6.032   3.488
  762SOL    HW1 3185   3.223   6.127   3.467
  762SOL    HW2 3186   3.266   5.998   3.557
  763SOL     OW 3187   5.379   0.618   0.332
  763SOL    HW1 3188   5.382   0.717   0.320
  763SOL    HW2 3189   5.465   0.587   0.373
  764SOL     OW 3190   5.292   6.490   5.617
  764SOL    HW1 3191   5.280   6.589   5.608
  764SOL    HW2 3192   5.243   6.444   5.543
  765SOL     OW 3193   6.955   6.925   0.675
  765SOL    HW1 3194   6.964   0.005   0.702
  765SOL    HW2 3195   6.971   6.866   0.755
  766SOL     OW 3196   2.536   2.071   4.424
  766SOL    HW1 3197   2.528   2.055   4.522
  766SOL    HW2 3198   2.627   2.107   4.403
  767SOL     OW 3199   6.490   5.072   4.694
  767SOL    HW1 3200   6.548   5.039   4.620
  767SOL    HW2 3201   6.491   5.172   4.696
  768SOL     OW 3202   1.622   5.490   2.766
  768SOL    HW1 3203   1.654   5.522   2.855
  768SOL    HW2 3204   1.700   5.486   2.703
  769SOL     OW 3205   3.070   2.044   5.407
  769SOL    HW1 3206   3.036   2.131   5.441
  769SOL    HW2 3207   3.089   2.051   5.309
  770SOL     OW 3208   1.117   4.872   5.833
  770SOL    HW1 3209   1.209   4.909   5.848
  770SOL    HW2 3210   1.101   4.861   5.735
  771SOL     OW 3211   1.383   4.961   2.700
  771SOL    HW1 3212   1.431   5.040   2.738
  771SOL    HW2 3213   1.435   4.925   2.622
  772SOL     OW 3214   5.986   4.063   0.282
  772SOL    HW1 3215   5.901   4.110   0.257
  772SOL    HW2 3216   5.981   4.034   0.377
  773SOL     OW 3217   1.591   4.165   3.702
  773SOL    HW1 3218   1.664   4.182   3.769
  773SOL    HW2 3219   1.542   4.082   3.728
  774SOL     OW 3220   2.216   0.778   3.288
  774SOL    HW1 3221   2.313   0.788   3.308
  774SOL    HW2 3222   2.200   0.799   3.191
  775SOL     OW 3223   1.044   4.452   2.840
  775SOL    HW1 3224   0.968   4.412   2.893
  775SOL    HW2 3225   1.050   4.408   2.751
  776SOL     OW 3226   2.460   5.431   5.864
  776SOL    HW1 3227   2.549   5.478   5.864
  776SOL    HW2 3228   2.396   5.481   5.922
  777SOL     OW 3229   2.353   3.797   6.444
  777SOL    HW1 3230   2.310   3.868   6.388
  777SOL    HW2 3231   2.282   3.732   6.475
  778SOL     OW 3232   2.958   6.049   6.884
  778SOL    HW1 3233   3.002   5.961   6.900
  778SOL    HW2 3234   2.923   6.086   6.970
  779SOL     OW 3235   6.661   2.256   3.090
  779SOL    HW1 3236   6.602   2.177   3.074
  779SOL    HW2 3237   6.604   2.335   3.115
  780SOL     OW 3238   6.870   2.174   4.902
  780SOL    HW1 3239   6.915   2.215   4.822
  780SOL    HW2 3240   6.792   2.230   4.929
  781SOL     OW 3241   7.008   4.650   6.727
  781SOL    HW1 3242   6.911   4.676   6.725
  781SOL    HW2 3243   0.005   4.565   6.677
  782SOL     OW 3244   1.852   3.621   4.699
  782SOL    HW1 3245   1.765   3.604   4.746
  782SOL    HW2 3246   1.873   3.719   4.703
  783SOL     OW 3247   6.433   4.859   6.770
  783SOL    HW1 3248   6.344   4.817   6.750
  783SOL    HW2 3249   6.421   4.958   6.779
  784SOL     OW 3250   2.401   5.908   0.571
  784SOL    HW1 3251   2.330   5.841   0.594
  784SOL    HW2 3252   2.357   5.989   0.531
  785SOL     OW 3253   0.645   0.898   4.007
  785SOL    HW1 3254   0.692   0.812   4.024
  785SOL    HW2 3255   0.546   0.883   4.002
  786SOL     OW 3256   6.056   0.839   4.005
  786SOL    HW1 3257   6.002   0.825   3.922
  786SOL    HW2 3258   6.152   0.819   3.987
  787SOL     OW 3259   2.212   6.921   1.031
  787SOL    HW1 3260   2.264   6.943   1.114
  787SOL    HW2 3261   2.275   6.903   0.956
  788SOL     OW 3262   1.854   2.354   1.991
  788SOL    HW1 3263   1.953   2.371   1.985
  788SOL    HW2 3264   1.806   2.413   1.927
  789SOL     OW 3265   4.296   4.610   2.826
  789SOL    HW1 3266   4.348   4.580   2.746
  789SOL    HW2 3267   4.335   4.570   2.909
  790SOL     OW 3268   0.846   2.858   2.209
  790SOL    HW1 3269   0.895   2.812   2.283
  790SOL    HW2 3270   0.882   2.828   2.121
  791SOL     OW 3271   2.821   6.324   4.003
  791SOL    HW1 3272   2.733   6.338   4.047
  791SOL    HW2 3273   2.813   6.256   3.931
  792SOL     OW 3274   1.970   0.116   6.923
  792SOL    HW1 3275   1.958   0.020   6.949
  792SOL    HW2 3276   2.066   0.131   6.899
  793SOL     OW 3277   2.566   6.451   4.185
  793SOL    HW1 3278   2.531   6.452   4.092
  793SOL    HW2 3279   2.523   6.377   4.237
  794SOL     OW 3280   2.872   3.521   2.659
  794SOL    HW1 3281   2.807   3.483   2.593
  794SOL    HW2 3282   2.937   3.450   2.687
  795SOL     OW 3283   4.117   1.046   6.095
  795SOL    HW1 3284   4.191   1.087   6.150
  795SOL    HW2 3285   4.029   1.064   6.140
  796SOL     OW 3286   0.299   2.460   0.533
  796SOL    HW1 3287   0.331   2.499   0.619
  796SOL    HW2 3288   0.359   2.492   0.459
  797SOL     OW 3289   4.104   0.231   1.060
  797SOL    HW1 3290   4.019   0.243   1.009
  797SOL    HW2 3291   4.180   0.271   1.008
  798SOL     OW 3292   5.411   5.742   1.222
  798SOL    HW1 3293   5.406   5.789   1.310
  798SOL    HW2 3294   5.394   5.806   1.148
  799SOL     OW 3295   2.594   2.253   5.417
  799SOL    HW1 3296   2.599   2.195   5.336
  799SOL    HW2 3297   2.659   2.328   5.408
  800SOL     OW 3298   5.552   2.800   3.184
  800SOL    HW1 3299   5.630   2.741   3.207
  800SOL    HW2 3300   5.578   2.896   3.196
  801SOL     OW 3301   1.713   5.883   6.339
  801SOL    HW1 3302   1.718   5.942   6.259
  801SOL    HW2 3303   1.741   5.790   6.314
  802SOL     OW 3304   4.921   1.857   6.464
  802SOL    HW1 3305   4.838   1.906   6.492
  802SOL    HW2 3306   4.929   1.773   6.517
  803SOL     OW 3307   2.369   1.786   4.451
  803SOL    HW1 3308   2.305   1.861   4.467
  803SOL    HW2 3309   2.326   1.700   4.479
  804SOL     OW 3310   5.208   0.561   2.833
  804SOL    HW1 3311   5.269   0.561   2.913
  804SOL    HW2 3312   5.123   0.514   2.857
  805SOL     OW 3313   3.651   0.467   3.994
  805SOL    HW1 3314   3.593   0.499   4.068
  805SOL    HW2 3315   3.606   0.481   3.906
  806SOL     OW 3316   2.706   6.164   5.366
  806SOL    HW1 3317   2.775   6.171   5.439
  806SOL    HW2 3318   2.631   6.227   5.385
  807SOL     OW 3319   1.319   6.258   5.801
  807SOL    HW1 3320   1.330   6.240   5.703
  807SOL    HW2 3321   1.264   6.185   5.842
  808SOL     OW 3322   5.506   2.643   5.878
  808SOL    HW1 3323   5.528   2.660   5.781
  808SOL    HW2 3324   5.413   2.608   5.885
  809SOL     OW 3325   2.746   5.315   0.087
  809SOL    HW1 3326   2.806   5.235   0.098
  809SOL    HW2 3327   2.651   5.286   0.092
  810SOL     OW 3328   3.649   3.659   0.125
  810SOL    HW1 3329   3.639   3.593   0.050
  810SOL    HW2 3330   3.559   3.690   0.154
  811SOL     OW 3331   6.319   5.390   4.878
  811SOL    HW1 3332   6.349   5.447   4.955
  811SOL    HW2 3333   6.238   5.338   4.905
  812SOL     OW 3334   0.758   3.694   1.750
  812SOL    HW1 3335   0.674   3.649   1.720
  812SOL    HW2 3336   0.830   3.677   1.683
  813SOL     OW 3337   1.732   1.814   5.667
  813SOL    HW1 3338   1.792   1.823   5.587
  813SOL    HW2 3339   1.735   1.719   5.700
  814SOL     OW 3340   0.563   4.531   2.528
  814SOL    HW1 3341   0.613   4.564   2.608
  814SOL    HW2 3342   0.588   4.586   2.448
  815SOL     OW 3343   4.211   1.674   4.788
  815SOL    HW1 3344   4.167   1.752   4.744
  815SOL    HW2 3345   4.308   1.671   4.763
  816SOL     OW 3346   5.962   4.110   6.612
  816SOL    HW1 3347   5.867   4.126   6.637
  816SOL    HW2 3348   6.004   4.045   6.675
  817SOL     OW 3349   0.333   5.163   6.966
  817SOL    HW1 3350   0.276   5.221   0.010
  817SOL    HW2 3351   0.386   5.099   0.007
  818SOL     OW 3352   0.252   2.752   4.986
  818SOL    HW1 3353   0.348   2.724   4.980
  818SOL    HW2 3354   0.199   2.706   4.915
  819SOL     OW 3355   4.626   3.220   1.634
  819SOL    HW1 3356   4.695   3.292   1.651
  819SOL    HW2 3357   4.627   3.156   1.710
  820SOL     OW 3358   2.564   1.914   5.378
  820SOL    HW1 3359   2.663   1.921   5.394
  820SOL    HW2 3360   2.515   1.955   5.455
  821SOL     OW 3361   5.140   3.299   6.614
  821SOL    HW1 3362   5.072   3.268   6.547
  821SOL    HW2 3363   5.182   3.220   6.659
  822SOL     OW 3364   0.583   4.773   3.234
  822SOL    HW1 3365   0.542   4.693   3.189
  822SOL    HW2 3366   0.512   4.826   3.280
  823SOL     OW 3367   1.548   3.081   4.947
  823SOL    HW1 3368   1.553   3.003   4.885
  823SOL    HW2 3369   1.452   3.098   4.971
  824SOL     OW 3370   4.982   0.433   6.428
  824SOL    HW1 3371   4.942   0.509   6.376
  824SOL    HW2 3372   5.066   0.402   6.383
  825SOL     OW 3373   5.996   6.001   1.091
  825SOL    HW1 3374   6.002   6.007   1.191
  825SOL    HW2 3375   6.074   5.949   1.056
  826SOL     OW 3376   3.613   2.128   0.213
  826SOL    HW1 3377   3.693   2.190   0.214
  826SOL    HW2 3378   3.628   2.054   0.278
  827SOL     OW 3379   3.803   3.969   5.289
  827SOL    HW1 3380   3.890   3.921   5.298
  827SOL    HW2 3381   3.778   4.010   5.377
  828SOL     OW 3382   0.255   6.511   6.318
  828SOL    HW1 3383   0.158   6.488   6.319
  828SOL    HW2 3384   0.266   6.609   6.302
  829SOL     OW 3385   3.584   3.334   2.358
  829SOL    HW1 3386   3.489   3.305   2.348
  829SOL    HW2 3387   3.587   3.428   2.392
  830SOL     OW 3388   6.634   4.565   0.013
  830SOL    HW1 3389   6.569   4.641   0.007
  830SOL    HW2 3390   6.683   4.570   0.100
  831SOL     OW 3391   5.052   0.682   2.030
  831SOL    HW1 3392   4.982   0.671   2.101
  831SOL    HW2 3393   5.021   0.750   1.964
  832SOL     OW 3394   2.888   1.370   4.789
  832SOL    HW1 3395   2.982   1.352   4.760
  832SOL    HW2 3396   2.888   1.430   4.869
  833SOL     OW 3397   3.840   2.635   0.042
  833SOL    HW1 3398   3.900   2.646   6.978
  833SOL    HW2 3399   3.843   2.718   0.098
  834SOL     OW 3400   5.720   2.450   0.605
  834SOL    HW1 3401   5.674   2.535   0.633
  834SOL    HW2 3402   5.734   2.451   0.506
  835SOL     OW 3403   0.318   6.959   4.993
  835SOL    HW1 3404   0.235   7.014   5.003
  835SOL    HW2 3405   0.326   6.897   5.070
  836SOL     OW 3406   4.828   0.785   4.998
  836SOL    HW1 3407   4.861   0.875   4.968
  836SOL    HW2 3408   4.760   0.752   4.933
  837SOL     OW 3409   1.699   0.394   0.107
  837SOL    HW1 3410   1.708   0.408   0.009
  837SOL    HW2 3411   1.608   0.358   0.128
  838SOL     OW 3412   1.255   5.912   3.402
  838SOL    HW1 3413   1.280   6.009   3.400
  838SOL    HW2 3414   1.191   5.896   3.477
  839SOL     OW 3415   1.620   1.985   0.379
  839SOL    HW1 3416   1.567   1.911   0.337
  839SOL    HW2 3417   1.649   2.049   0.308
  840SOL     OW 3418   4.324   4.947   0.456
  840SOL    HW1 3419   4.349   5.025   0.399
  840SOL    HW2 3420   4.305   4.868   0.399
  841SOL     OW 3421   3.024   5.142   0.141
  841SOL    HW1 3422   3.087   5.179   0.209
  841SOL    HW2 3423   2.958   5.082   0.185
  842SOL     OW 3424   4.486   5.429   0.967
  842SOL    HW1 3425   4.567   5.486   0.980
  842SOL    HW2 3426   4.484   5.357   1.037
  843SOL     OW 3427   1.182   0.555   2.461
  843SOL    HW1 3428   1.127   0.522   2.384
  843SOL    HW2 3429   1.145   0.642   2.494
  844SOL     OW 3430   6.903   0.748   1.541
  844SOL    HW1 3431   6.831   0.695   1.497
  844SOL    HW2 3432   6.992   0.723   1.503
  845SOL     OW 3433   3.120   1.750   2.827
  845SOL    HW1 3434   3.077   1.809   2.759
  845SOL    HW2 3435   3.090   1.656   2.814
  846SOL     OW 3436   2.988   1.879   0.784
  846SOL    HW1 3437   2.977   1.796   0.840
  846SOL    HW2 3438   2.927   1.950   0.818
  847SOL     OW 3439   2.572   3.719   1.458
  847SOL    HW1 3440   2.663   3.711   1.497
  847SOL    HW2 3441   2.504   3.686   1.523
  848SOL     OW 3442   6.723   6.378   0.299
  848SOL    HW1 3443   6.816   6.347   0.280
  848SOL    HW2 3444   6.701   6.358   0.395
  849SOL     OW 3445   5.878   3.133   6.434
  849SOL    HW1 3446   5.869   3.231   6.414
  849SOL    HW2 3447   5.967   3.100   6.403
  850SOL     OW 3448   0.976   1.059   5.040
  850SOL    HW1 3449   1.042   1.134   5.035
  850SOL    HW2 3450   0.956   1.039   5.136
  851SOL     OW 3451   5.211   3.485   5.819
  851SOL    HW1 3452   5.306   3.458   5.802
  851SOL    HW2 3453   5.151   3.406   5.810
  852SOL     OW 3454   0.443   3.816   1.953
  852SOL    HW1 3455   0.533   3.783   1.983
  852SOL    HW2 3456   0.371   3.766   2.002
  853SOL     OW 3457   2.715   2.959   0.603
  853SOL    HW1 3458   2.773   2.899   0.658
  853SOL    HW2 3459   2.725   3.053   0.635
  854SOL     OW 3460   6.016   6.006   5.624
  854SOL    HW1 3461   6.007   6.028   5.527
  854SOL    HW2 3462   6.093   6.056   5.663
  855SOL     OW 3463   5.886   1.707   6.981
  855SOL    HW1 3464   5.868   1.688   0.062
  855SOL    HW2 3465   5.800   1.719   6.932
  856SOL     OW 3466   1.954   4.941   1.726
  856SOL    HW1 3467   1.899   5.018   1.759
  856SOL    HW2 3468   1.944   4.933   1.627
  857SOL     OW 3469   6.896   5.813   5.173
  857SOL    HW1 3470   6.953   5.761   5.109
  857SOL    HW2 3471   6.884   5.759   5.257
  858SOL     OW 3472   4.361   3.421   0.121
  858SOL    HW1 3473   4.460   3.424   0.107
  858SOL    HW2 3474   4.337   3.474   0.202
  859SOL     OW 3475   5.312   6.283   5.042
  859SOL    HW1 3476   5.337   6.194   5.003
  859SOL    HW2 3477   5.223   6.311   5.007
  860SOL     OW 3478   4.895   2.789   6.239
  860SOL    HW1 3479   4.949   2.705   6.247
  860SOL    HW2 3480   4.913   2.847   6.319
  861SOL     OW 3481   1.920   5.606   1.871
  861SOL    HW1 3482   1.826   5.629   1.896
  861SOL    HW2 3483   1.959   5.543   1.938
  862SOL     OW 3484   0.120   4.189   3.881
  862SOL    HW1 3485   0.042   4.206   3.941
  862SOL    HW2 3486   0.191   4.259   3.897
  863SOL     OW 3487   6.018   0.818   1.447
  863SOL    HW1 3488   5.941   0.826   1.510
  863SOL    HW2 3489   6.101   0.793   1.498
  864SOL     OW 3490   5.672   6.578   3.873
  864SOL    HW1 3491   5.692   6.556   3.969
  864SOL    HW2 3492   5.653   6.495   3.822
  865SOL     OW 3493   1.563   6.017   5.545
  865SOL    HW1 3494   1.532   6.072   5.467
  865SOL    HW2 3495   1.649   6.055   5.580
  866SOL     OW 3496   3.752   0.081   1.777
  866SOL    HW1 3497   3.711   0.082   1.868
  866SOL    HW2 3498   3.800   0.166   1.760
  867SOL     OW 3499   6.385   1.546   5.605
  867SOL    HW1 3500   6.308   1.546   5.542
  867SOL    HW2 3501   6.471   1.554   5.554
  868SOL     OW 3502   0.122   2.435   1.815
  868SOL    HW1 3503   0.055   2.498   1.856
  868SOL    HW2 3504   0.214   2.467   1.836
  869SOL     OW 3505   0.005   3.751   3.605
  869SOL    HW1 3506   0.065   3.815   3.653
  869SOL    HW2 3507   0.019   3.659   3.642
  870SOL     OW 3508   3.821   5.160   2.241
  870SOL    HW1 3509   3.762   5.133   2.165
  870SOL    HW2 3510   3.830   5.260   2.242
  871SOL     OW 3511   4.837   1.408   3.397
  871SOL    HW1 3512   4.769   1.476   3.370
  871SOL    HW2 3513   4.917   1.415   3.337
  872SOL     OW 3514   1.141   2.387   4.873
  872SOL    HW1 3515   1.067   2.424   4.818
  872SOL    HW2 3516   1.140   2.430   4.963
  873SOL     OW 3517   4.035   0.159   5.996
  873SOL    HW1 3518   4.047   0.132   6.092
  873SOL    HW2 3519   4.118   0.202   5.962
  874SOL     OW 3520   4.824   3.787   1.590
  874SOL    HW1 3521   4.841   3.831   1.501
  874SOL    HW2 3522   4.847   3.690   1.584
  875SOL     OW 3523   4.674   5.468   1.428
  875SOL    HW1 3524   4.629   5.522   1.356
  875SOL    HW2 3525   4.746   5.522   1.470
  876SOL     OW 3526   6.933   0.205   0.647
  876SOL    HW1 3527   0.016   0.221   0.654
  876SOL    HW2 3528   6.886   0.256   0.718
  877SOL     OW 3529   1.940   3.683   6.480
  877SOL    HW1 3530   1.864   3.618   6.468
  877SOL    HW2 3531   1.931   3.729   6.569
  878SOL     OW 3532   4.000   6.338   4.476
  878SOL    HW1 3533   4.031   6.382   4.392
  878SOL    HW2 3534   4.029   6.392   4.555
  879SOL     OW 3535   5.924   0.131   0.538
  879SOL    HW1 3536   5.930   0.088   0.448
  879SOL    HW2 3537   5.981   0.214   0.539
  880SOL     OW 3538   2.989   3.602   2.345
  880SOL    HW1 3539   3.077   3.566   2.377
  880SOL    HW2 3540   2.945   3.653   2.420
  881SOL     OW 3541   4.409   1.690   0.466
  881SOL    HW1 3542   4.503   1.656   0.460
  881SOL    HW2 3543   4.374   1.674   0.558
  882SOL     OW 3544   1.550   3.231   4.631
  882SOL    HW1 3545   1.554   3.221   4.532
  882SOL    HW2 3546   1.621   3.175   4.673
  883SOL     OW 3547   2.710   0.001   3.006
  883SOL    HW1 3548   2.756   0.087   2.983
  883SOL    HW2 3549   2.775   6.941   2.998
  884SOL     OW 3550   3.989   3.783   5.775
  884SOL    HW1 3551   4.049   3.776   5.855
  884SOL    HW2 3552   3.962   3.692   5.745
  885SOL     OW 3553   4.116   2.736   6.391
  885SOL    HW1 3554   4.203   2.720   6.345
  885SOL    HW2 3555   4.046   2.674   6.354
  886SOL     OW 3556   3.539   0.626   6.803
  886SOL    HW1 3557   3.503   0.695   6.866
  886SOL    HW2 3558   3.638   0.627   6.806
  887SOL     OW 3559   4.775   1.693   4.774
  887SOL    HW1 3560   4.717   1.646   4.708
  887SOL    HW2 3561   4.718   1.736   4.844
  888SOL     OW 3562   6.617   6.568   2.787
  888SOL    HW1 3563   6.714   6.547   2.792
  888SOL    HW2 3564   6.605   6.666   2.768
  889SOL     OW 3565   0.669   4.118   0.150
  889SOL    HW1 3566   0.699   4.094   0.058
  889SOL    HW2 3567   0.736   4.178   0.192
  890SOL     OW 3568   2.410   5.315   4.232
  890SOL    HW1 3569   2.316   5.281   4.234
  890SOL    HW2 3570   2.436   5.338   4.139
  891SOL     OW 3571   4.814   5.837   1.520
  891SOL    HW1 3572   4.865   5.777   1.459
  891SOL    HW2 3573   4.807   5.795   1.610
  892SOL     OW 3574   2.787   4.399   0.751
  892SOL    HW1 3575   2.769   4.476   0.812
  892SOL    HW2 3576   2.814   4.319   0.804
  893SOL     OW 3577   2.008   6.555   2.304
  893SOL    HW1 3578   2.077   6.544   2.232
  893SOL    HW2 3579   1.988   6.466   2.346
  894SOL     OW 3580   0.558   4.194   0.939
  894SOL    HW1 3581   0.538   4.292   0.948
  894SOL    HW2 3582   0.500   4.142   1.002
  895SOL     OW 3583   0.459   5.879   4.103
  895SOL    HW1 3584   0.501   5.871   4.193
  895SOL    HW2 3585   0.510   5.945   4.048
  896SOL     OW 3586   7.004   0.060   6.222
  896SOL    HW1 3587   7.008   6.980   6.193
  896SOL    HW2 3588   0.039   0.071   6.307
  897SOL     OW 3589   5.088   0.750   7.009
  897SOL    HW1 3590   5.173   0.698   7.006
  897SOL    HW2 3591   5.083   0.812   6.931
  898SOL     OW 3592   4.272   6.285   3.281
  898SOL    HW1 3593   4.309   6.317   3.368
  898SOL    HW2 3594   4.201   6.216   3.298
  899SOL     OW 3595   0.280   4.797   0.363
  899SOL    HW1 3596   0.195   4.745   0.360
  899SOL    HW2 3597   0.284   4.851   0.447
  900SOL     OW 3598   5.123   5.378   0.777
  900SOL    HW1 3599   5.054   5.320   0.820
  900SOL    HW2 3600   5.099   5.474   0.788
  901SOL     OW 3601   1.562   0.770   2.464
  901SOL    HW1 3602   1.568   0.807   2.371
  901SOL    HW2 3603   1.486   0.705   2.469
  902SOL     OW 3604   5.958   3.517   1.985
  902SOL    HW1 3605   5.880   3.455   1.976
  902SOL    HW2 3606   5.951   3.567   2.072
  903SOL     OW 3607   0.146   2.051   0.845
  903SOL    HW1 3608   0.234   2.084   0.879
  903SOL    HW2 3609   0.104   2.121   0.786
  904SOL     OW 3610   3.128   1.272   1.643
  904SOL    HW1 3611   3.094   1.366   1.631
  904SOL    HW2 3612   3.173   1.264   1.731
  905SOL     OW 3613   6.076   2.938   6.404
  905SOL    HW1 3614   6.161   2.885   6.411
  905SOL    HW2 3615   6.004   2.880   6.365
  906SOL     OW 3616   5.859   3.309   6.663
  906SOL    HW1 3617   5.775   3.254   6.662
  906SOL    HW2 3618   5.930   3.261   6.612
  907SOL     OW 3619   4.965   3.938   6.681
  907SOL    HW1 3620   4.980   4.014   6.744
  907SOL    HW2 3621   4.926   3.861   6.730
  908SOL     OW 3622   1.136   4.380   2.595
  908SOL    HW1 3623   1.150   4.324   2.513
  908SOL    HW2 3624   1.162   4.474   2.575
  909SOL     OW 3625   5.173   5.239   6.178
  909SOL    HW1 3626   5.127   5.281   6.100
  909SOL    HW2 3627   5.179   5.304   6.253
  910SOL     OW 3628   2.473   4.373   1.007
  910SOL    HW1 3629   2.380   4.352   1.036
  910SOL    HW2 3630   2.469   4.426   0.922
  911SOL     OW 3631   0.994   5.324   6.296
  911SOL    HW1 3632   0.956   5.277   6.376
  911SOL    HW2 3633   0.938   5.303   6.215
  912SOL     OW 3634   5.032   1.760   3.364
  912SOL    HW1 3635   4.955   1.802   3.413
  912SOL    HW2 3636   5.074   1.691   3.423
  913SOL     OW 3637   5.373   6.687   2.821
  913SOL    HW1 3638   5.470   6.662   2.811
  913SOL    HW2 3639   5.366   6.767   2.882
  914SOL     OW 3640   3.155   0.177   6.358
  914SOL    HW1 3641   3.075   0.164   6.417
  914SOL    HW2 3642   3.138   0.134   6.269
  915SOL     OW 3643   5.093   5.647   0.818
  915SOL    HW1 3644   5.126   5.717   0.754
  915SOL    HW2 3645   4.998   5.668   0.844
  916SOL     OW 3646   1.735   2.442   2.555
  916SOL    HW1 3647   1.693   2.527   2.586
  916SOL    HW2 3648   1.785   2.458   2.470
  917SOL     OW 3649   6.647   6.362   0.604
  917SOL    HW1 3650   6.697   6.388   0.686
  917SOL    HW2 3651   6.571   6.303   0.629
  918SOL     OW 3652   2.600   5.657   0.213
  918SOL    HW1 3653   2.546   5.607   0.281
  918SOL    HW2 3654   2.563   5.749   0.202
  919SOL     OW 3655   6.028   2.135   4.779
  919SOL    HW1 3656   6.026   2.172   4.872
  919SOL    HW2 3657   5.952   2.172   4.726
  920SOL     OW 3658   2.637   5.293   2.510
  920SOL    HW1 3659   2.605   5.298   2.416
  920SOL    HW2 3660   2.717   5.352   2.522
  921SOL     OW 3661   4.897   5.226   5.105
  921SOL    HW1 3662   4.884   5.186   5.015
  921SOL    HW2 3663   4.989   5.265   5.112
  922SOL     OW 3664   3.703   2.909   3.770
  922SOL    HW1 3665   3.607   2.885   3.781
  922SOL    HW2 3666   3.722   2.930   3.674
  923SOL     OW 3667   2.270   3.611   5.358
  923SOL    HW1 3668   2.256   3.681   5.288
  923SOL    HW2 3669   2.255   3.520   5.318
  924SOL     OW 3670   0.085   3.544   2.421
  924SOL    HW1 3671   0.173   3.496   2.418
  924SOL    HW2 3672   0.011   3.477   2.418
  925SOL     OW 3673   0.290   1.694   0.134
  925SOL    HW1 3674   0.223   1.622   0.153
  925SOL    HW2 3675   0.312   1.694   0.036
  926SOL     OW 3676   1.702   1.779   2.061
  926SOL    HW1 3677   1.657   1.864   2.088
  926SOL    HW2 3678   1.646   1.701   2.091
  927SOL     OW 3679   6.194   3.750   4.201
  927SOL    HW1 3680   6.197   3.721   4.297
  927SOL    HW2 3681   6.105   3.791   4.181
  928SOL     OW 3682   3.378   4.716   6.097
  928SOL    HW1 3683   3.379   4.712   6.197
  928SOL    HW2 3684   3.445   4.783   6.066
  929SOL     OW 3685   0.337   1.574   4.821
  929SOL    HW1 3686   0.432   1.604   4.811
  929SOL    HW2 3687   0.331   1.475   4.806
  930SOL     OW 3688   5.169   5.040   5.344
  930SOL    HW1 3689   5.102   5.112   5.361
  930SOL    HW2 3690   5.238   5.073   5.279
  931SOL     OW 3691   6.491   1.771   2.989
  931SOL    HW1 3692   6.583   1.773   2.949
  931SOL    HW2 3693   6.442   1.690   2.955
  932SOL     OW 3694   3.858   0.631   3.560
  932SOL    HW1 3695   3.954   0.627   3.532
  932SOL    HW2 3696   3.817   0.540   3.550
  933SOL     OW 3697   1.209   5.442   2.224
  933SOL    HW1 3698   1.142   5.495   2.173
  933SOL    HW2 3699   1.299   5.483   2.213
  934SOL     OW 3700   1.937   3.849   0.020
  934SOL    HW1 3701   1.968   3.856   0.115
  934SOL    HW2 3702   1.840   3.875   0.015
  935SOL     OW 3703   6.039   2.839   4.398
  935SOL    HW1 3704   5.959   2.838   4.338
  935SOL    HW2 3705   6.073   2.932   4.406
  936SOL     OW 3706   1.543   0.001   6.086
  936SOL    HW1 3707   1.576   0.023   5.994
  936SOL    HW2 3708   1.474   6.945   6.081
  937SOL     OW 3709   3.494   1.996   5.969
  937SOL    HW1 3710   3.555   1.952   5.903
  937SOL    HW2 3711   3.466   2.085   5.934
  938SOL     OW 3712   6.243   5.485   4.470
  938SOL    HW1 3713   6.287   5.556   4.525
  938SOL    HW2 3714   6.212   5.524   4.383
  939SOL     OW 3715   0.038   6.551   6.064
  939SOL    HW1 3716   0.093   6.489   6.009
  939SOL    HW2 3717   0.016   6.508   6.151
  940SOL     OW 3718   2.118   5.016   6.859
  940SOL    HW1 3719   2.063   4.991   6.938
  940SOL    HW2 3720   2.058   5.043   6.783
  941SOL     OW 3721   3.728   7.000   0.495
  941SOL    HW1 3722   3.724   6.993   0.395
  941SOL    HW2 3723   3.645   6.962   0.535
  942SOL     OW 3724   0.278   5.245   0.324
  942SOL    HW1 3725   0.291   5.268   0.420
  942SOL    HW2 3726   0.230   5.158   0.316
  943SOL     OW 3727   3.655   5.976   1.930
  943SOL    HW1 3728   3.696   5.892   1.966
  943SOL    HW2 3729   3.722   6.023   1.873
  944SOL     OW 3730   6.427   6.825   4.423
  944SOL    HW1 3731   6.367   6.759   4.377
  944SOL    HW2 3732   6.518   6.784   4.434
  945SOL     OW 3733   0.752   5.321   0.269
  945SOL    HW1 3734   0.664   5.367   0.275
  945SOL    HW2 3735   0.759   5.273   0.181
  946SOL     OW 3736   5.349   2.491   4.212
  946SOL    HW1 3737   5.305   2.434   4.142
  946SOL    HW2 3738   5.426   2.440   4.252
  947SOL     OW 3739   3.767   4.099   4.076
  947SOL    HW1 3740   3.742   4.113   4.172
  947SOL    HW2 3741   3.687   4.117   4.018
  948SOL     OW 3742   3.579   0.592   2.906
  948SOL    HW1 3743   3.596   0.515   2.846
  948SOL    HW2 3744   3.666   0.626   2.942
  949SOL     OW 3745   3.364   6.792   5.891
  949SOL    HW1 3746   3.417   6.876   5.895
  949SOL    HW2 3747   3.397   6.728   5.961
  950SOL     OW 3748   6.842   6.961   2.238
  950SOL    HW1 3749   6.786   0.009   2.291
  950SOL    HW2 3750   6.783   6.905   2.180
  951SOL     OW 3751   1.866   6.832   3.160
  951SOL    HW1 3752   1.901   6.788   3.078
  951SOL    HW2 3753   1.933   6.824   3.234
  952SOL     OW 3754   3.203   0.791   2.877
  952SOL    HW1 3755   3.170   0.885   2.869
  952SOL    HW2 3756   3.148   0.731   2.819
  953SOL     OW 3757   6.836   4.343   5.459
  953SOL    HW1 3758   6.834   4.244   5.448
  953SOL    HW2 3759   6.884   4.384   5.382
  954SOL     OW 3760   4.652   5.986   2.614
  954SOL    HW1 3761   4.626   5.977   2.710
  954SOL    HW2 3762   4.671   6.082   2.594
  955SOL     OW 3763   2.121   4.889   0.478
  955SOL    HW1 3764   2.052   4.817   0.473
  955SOL    HW2 3765   2.209   4.853   0.449
  956SOL     OW 3766   4.720   0.604   1.123
  956SOL    HW1 3767   4.749   0.535   1.056
  956SOL    HW2 3768   4.637   0.573   1.169
  957SOL     OW 3769   5.983   1.185   3.127
  957SOL    HW1 3770   5.910   1.133   3.083
  957SOL    HW2 3771   5.973   1.178   3.227
  958SOL     OW 3772   5.489   0.050   1.555
  958SOL    HW1 3773   5.410   0.012   1.602
  958SOL    HW2 3774   5.501   0.146   1.582
  959SOL     OW 3775   4.449   6.760   3.602
  959SOL    HW1 3776   4.519   6.750   3.531
  959SOL    HW2 3777   4.476   6.833   3.665
  960SOL     OW 3778   1.644   6.623   6.341
  960SOL    HW1 3779   1.613   6.529   6.323
  960SOL    HW2 3780   1.712   6.622   6.414
  961SOL     OW 3781   3.565   0.110   3.288
  961SOL    HW1 3782   3.479   0.111   3.235
  961SOL    HW2 3783   3.619   0.030   3.263
  962SOL     OW 3784   6.654   0.931   4.542
  962SOL    HW1 3785   6.641   1.003   4.610
  962SOL    HW2 3786   6.571   0.923   4.486
  963SOL     OW 3787   5.259   2.951   1.106
  963SOL    HW1 3788   5.174   2.919   1.148
  963SOL    HW2 3789   5.255   2.936   1.007
  964SOL     OW 3790   4.639   5.091   5.154
  964SOL    HW1 3791   4.693   5.011   5.177
  964SOL    HW2 3792   4.700   5.168   5.133
  965SOL     OW 3793   5.979   2.328   3.478
  965SOL    HW1 3794   5.954   2.254   3.540
  965SOL    HW2 3795   6.041   2.294   3.408
  966SOL     OW 3796   4.731   1.167   4.351
  966SOL    HW1 3797   4.779   1.152   4.265
  966SOL    HW2 3798   4.664   1.241   4.339
  967SOL     OW 3799   4.390   3.886   6.617
  967SOL    HW1 3800   4.417   3.914   6.525
  967SOL    HW2 3801   4.374   3.787   6.619
  968SOL     OW 3802   4.175   0.887   1.448
  968SOL    HW1 3803   4.086   0.843   1.453
  968SOL    HW2 3804   4.166   0.984   1.468
  969SOL     OW 3805   3.031   4.288   6.366
  969SOL    HW1 3806   2.958   4.299   6.298
  969SOL    HW2 3807   3.092   4.367   6.363
  970SOL     OW 3808   5.360   0.208   6.048
  970SOL    HW1 3809   5.449   0.171   6.076
  970SOL    HW2 3810   5.310   0.140   5.995
  971SOL     OW 3811   5.578   3.355   3.738
  971SOL    HW1 3812   5.556   3.324   3.646
  971SOL    HW2 3813   5.677   3.359   3.749
  972SOL     OW 3814   0.137   2.748   0.316
  972SOL    HW1 3815   0.053   2.794   0.344
  972SOL    HW2 3816   0.123   2.649   0.316
  973SOL     OW 3817   0.116   3.695   5.931
  973SOL    HW1 3818   0.126   3.743   6.017
  973SOL    HW2 3819   0.068   3.608   5.946
  974SOL     OW 3820   0.212   4.657   2.445
  974SOL    HW1 3821   0.212   4.567   2.400
  974SOL    HW2 3822   0.130   4.666   2.501
  975SOL     OW 3823   3.303   0.673   2.252
  975SOL    HW1 3824   3.332   0.757   2.205
  975SOL    HW2 3825   3.311   0.687   2.351
  976SOL     OW 3826   6.997   3.315   3.159
  976SOL    HW1 3827   6.905   3.279   3.174
  976SOL    HW2 3828   6.992   3.400   3.106
  977SOL     OW 3829   6.334   0.505   2.151
  977SOL    HW1 3830   6.353   0.489   2.248
  977SOL    HW2 3831   6.357   0.600   2.129
  978SOL     OW 3832   5.357   2.927   1.960
  978SOL    HW1 3833   5.364   2.828   1.946
  978SOL    HW2 3834   5.412   2.974   1.892
  979SOL     OW 3835   0.428   4.402   6.848
  979SOL    HW1 3836   0.432   4.340   6.926
  979SOL    HW2 3837   0.359   4.472   6.864
  980SOL     OW 3838   3.769   1.009   4.783
  980SOL    HW1 3839   3.777   0.918   4.743
  980SOL    HW2 3840   3.676   1.023   4.816
  981SOL     OW 3841   7.000   0.168   5.736
  981SOL    HW1 3842   6.919   0.112   5.755
  981SOL    HW2 3843   6.983   0.226   5.657
  982SOL     OW 3844   6.259   1.348   5.922
  982SOL    HW1 3845   6.273   1.252   5.898
  982SOL    HW2 3846   6.207   1.354   6.007
  983SOL     OW 3847   0.294   4.756   3.923
  983SOL    HW1 3848   0.219   4.793   3.978
  983SOL    HW2 3849   0.376   4.751   3.979
  984SOL     OW 3850   0.648   3.415   3.634
  984SOL    HW1 3851   0.562   3.466   3.630
  984SOL    HW2 3852   0.637   3.335   3.693
  985SOL     OW 3853   6.513   5.211   5.123
  985SOL    HW1 3854   6.532   5.208   5.221
  985SOL    HW2 3855   6.505   5.307   5.093
  986SOL     OW 3856   5.025   5.429   1.939
  986SOL    HW1 3857   4.939   5.424   1.989
  986SOL    HW2 3858   5.053   5.524   1.931
  987SOL     OW 3859   4.850   4.069   4.247
  987SOL    HW1 3860   4.828   3.992   4.307
  987SOL    HW2 3861   4.826   4.046   4.153
  988SOL     OW 3862   2.619   4.575   2.264
  988SOL    HW1 3863   2.635   4.648   2.330
  988SOL    HW2 3864   2.694   4.571   2.198
  989SOL     OW 3865   1.994   2.382   0.777
  989SOL    HW1 3866   2.047   2.464   0.798
  989SOL    HW2 3867   1.974   2.379   0.679
  990SOL     OW 3868   3.645   0.161   4.343
  990SOL    HW1 3869   3.695   0.212   4.273
  990SOL    HW2 3870   3.612   0.075   4.304
  991SOL     OW 3871   6.949   5.475   4.234
  991SOL    HW1 3872   6.999   5.561   4.239
  991SOL    HW2 3873   6.865   5.482   4.288
  992SOL     OW 3874   0.054   2.239   0.153
  992SOL    HW1 3875   0.022   2.258   0.060
  992SOL    HW2 3876   0.081   2.143   0.160
  993SOL     OW 3877   1.600   5.040   0.038
  993SOL    HW1 3878   1.636   4.975   0.105
  993SOL    HW2 3879   1.501   5.029   0.030
  994SOL     OW 3880   3.352   5.954   0.533
  994SOL    HW1 3881   3.373   6.036   0.587
  994SOL    HW2 3882   3.437   5.912   0.502
  995SOL     OW 3883   6.568   4.328   6.052
  995SOL    HW1 3884   6.500   4.308   5.982
  995SOL    HW2 3885   6.535   4.401   6.112
  996SOL     OW 3886   3.597   5.730   4.260
  996SOL    HW1 3887   3.649   5.775   4.188
  996SOL    HW2 3888   3.655   5.663   4.307
  997SOL     OW 3889   1.314   6.845   3.912
  997SOL    HW1 3890   1.368   6.778   3.861
  997SOL    HW2 3891   1.217   6.821   3.905
  998SOL     OW 3892   4.645   6.939   6.293
  998SOL    HW1 3893   4.551   6.972   6.290
  998SOL    HW2 3894   4.706   7.009   6.256
  999SOL     OW 3895   4.888   3.411   2.462
  999SOL    HW1 3896   4.827   3.420   2.541
  999SOL    HW2 3897   4.886   3.317   2.429
 1000SOL     OW 3898   5.315   2.396   1.948
 1000SOL    HW1 3899   5.251   2.359   2.015
 1000SOL    HW2 3900   5.395   2.336   1.942
 1001SOL     OW 3901   2.906   0.126   2.512
 1001SOL    HW1 3902   2.901   0.119   2.412
 1001SOL    HW2 3903   2.998   0.154   2.539
 1002SOL     OW 3904   5.306   2.522   1.213
 1002SOL    HW1 3905   5.295   2.578   1.130
 1002SOL    HW2 3906   5.281   2.576   1.293
 1003SOL     OW 3907   0.950   0.333   3.200
 1003SOL    HW1 3908   0.878   0.279   3.244
 1003SOL    HW2 3909   1.030   0.275   3.184
 1004SOL     OW 3910   5.359   1.322   4.215
 1004SOL    HW1 3911   5.310   1.315   4.128
 1004SOL    HW2 3912   5.366   1.418   4.242
 1005SOL     OW 3913   1.371   4.952   2.153
 1005SOL    HW1 3914   1.431   4.972   2.075
 1005SOL    HW2 3915   1.330   5.037   2.185
 1006SOL     OW 3916   2.293   4.030   1.344
 1006SOL    HW1 3917   2.326   4.053   1.435
 1006SOL    HW2 3918   2.369   4.036   1.279
 1007SOL     OW 3919   4.791   0.714   6.448
 1007SOL    HW1 3920   4.736   0.685   6.370
 1007SOL    HW2 3921   4.735   0.769   6.510
 1008SOL     OW 3922   0.724   4.886   5.340
 1008SOL    HW1 3923   0.662   4.930   5.276
 1008SOL    HW2 3924   0.729   4.788   5.319
 1009SOL     OW 3925   6.788   5.669   5.775
 1009SOL    HW1 3926   6.857   5.597   5.783
 1009SOL    HW2 3927   6.698   5.633   5.797
 1010SOL     OW 3928   3.014   3.479   0.669
 1010SOL    HW1 3929   3.091   3.415   0.672
 1010SOL    HW2 3930   2.953   3.453   0.595
 1011SOL     OW 3931   0.097   5.649   2.570
 1011SOL    HW1 3932   0.046   5.720   2.521
 1011SOL    HW2 3933   0.194   5.655   2.546
 1012SOL     OW 3934   5.208   6.743   3.244
 1012SOL    HW1 3935   5.118   6.771   3.211
 1012SOL    HW2 3936   5.251   6.683   3.177
 1013SOL     OW 3937   6.695   6.904   6.611
 1013SOL    HW1 3938   6.775   6.873   6.559
 1013SOL    HW2 3939   6.649   6.977   6.561
 1014SOL     OW 3940   1.069   4.431   5.246
 1014SOL    HW1 3941   1.095   4.526   5.263
 1014SOL    HW2 3942   1.001   4.402   5.314
 1015SOL     OW 3943   2.811   6.605   0.214
 1015SOL    HW1 3944   2.780   6.543   0.286
 1015SOL    HW2 3945   2.736   6.665   0.186
 1016SOL     OW 3946   6.046   3.784   1.577
 1016SOL    HW1 3947   6.109   3.728   1.522
 1016SOL    HW2 3948   6.058   3.762   1.674
 1017SOL     OW 3949   2.217   1.659   1.832
 1017SOL    HW1 3950   2.123   1.689   1.850
 1017SOL    HW2 3951   2.241   1.585   1.895
 1018SOL     OW 3952   6.469   6.348   4.916
 1018SOL    HW1 3953   6.404   6.287   4.962
 1018SOL    HW2 3954   6.552   6.357   4.971
 1019SOL     OW 3955   6.418   4.115   1.135
 1019SOL    HW1 3956   6.452   4.207   1.153
 1019SOL    HW2 3957   6.433   4.058   1.216
 1020SOL     OW 3958   5.226   1.672   0.699
 1020SOL    HW1 3959   5.164   1.726   0.642
 1020SOL    HW2 3960   5.270   1.731   0.766
 1021SOL     OW 3961   0.812   6.762   1.063
 1021SOL    HW1 3962   0.778   6.762   0.969
 1021SOL    HW2 3963   0.824   6.856   1.095
 1022SOL     OW 3964   2.682   5.784   6.499
 1022SOL    HW1 3965   2.596   5.833   6.482
 1022SOL    HW2 3966   2.730   5.827   6.575
 1023SOL     OW 3967   0.471   1.067   3.305
 1023SOL    HW1 3968   0.447   1.047   3.400
 1023SOL    HW2 3969   0.463   0.984   3.250
 1024SOL     OW 3970   1.891   1.862   4.475
 1024SOL    HW1 3971   1.801   1.871   4.433
 1024SOL    HW2 3972   1.912   1.765   4.490
 1025SOL     OW 3973   4.797   4.263   0.363
 1025SOL    HW1 3974   4.872   4.208   0.401
 1025SOL    HW2 3975   4.805   4.357   0.394
 1026SOL     OW 3976   3.060   2.751   1.697
 1026SOL    HW1 3977   3.068   2.652   1.703
 1026SOL    HW2 3978   3.114   2.785   1.620
 1027SOL     OW 3979   0.749   6.796   0.234
 1027SOL    HW1 3980   0.829   6.855   0.244
 1027SOL    HW2 3981   0.732   6.749   0.321
 1028SOL     OW 3982   1.361   5.970   2.714
 1028SOL    HW1 3983   1.286   5.904   2.714
 1028SOL    HW2 3984   1.354   6.028   2.796
 1029SOL     OW 3985   0.859   1.046   5.855
 1029SOL    HW1 3986   0.896   1.126   5.808
 1029SOL    HW2 3987   0.803   1.075   5.932
 1030SOL     OW 3988   3.946   3.246   1.121
 1030SOL    HW1 3989   3.941   3.229   1.219
 1030SOL    HW2 3990   3.968   3.342   1.104
 1031SOL     OW 3991   3.876   3.017   1.023
 1031SOL    HW1 3992   3.865   2.966   1.108
 1031SOL    HW2 3993   3.913   3.108   1.044
 1032SOL     OW 3994   2.150   1.397   0.079
 1032SOL    HW1 3995   2.170   1.480   0.027
 1032SOL    HW2 3996   2.052   1.379   0.077
 1033SOL     OW 3997   0.351   6.657   2.660
 1033SOL    HW1 3998   0.387   6.701   2.577
 1033SOL    HW2 3999   0.314   6.567   2.637
 1034SOL     OW 4000   2.945   0.716   4.586
 1034SOL    HW1 4001   2.847   0.718   4.566
 1034SOL    HW2 4002   2.980   0.809   4.593
 1035SOL     OW 4003   1.554   1.641   6.987
 1035SOL    HW1 4004   1.489   1.685   6.926
 1035SOL    HW2 4005   1.544   1.541   6.981
 1036SOL     OW 4006   4.837   1.220   1.495
 1036SOL    HW1 4007   4.881   1.277   1.425
 1036SOL    HW2 4008   4.893   1.140   1.513
 1037SOL     OW 4009   1.658   3.137   1.770
 1037SOL    HW1 4010   1.708   3.088   1.841
 1037SOL    HW2 4011   1.700   3.118   1.681
 1038SOL     OW 4012   2.597   6.035   7.001
 1038SOL    HW1 4013   2.677   6.083   0.020
 1038SOL    HW2 4014   2.626   5.956   6.947
 1039SOL     OW 4015   3.708   3.358   2.761
 1039SOL    HW1 4016   3.726   3.286   2.828
 1039SOL    HW2 4017   3.632   3.331   2.702
 1040SOL     OW 4018   3.518   2.140   3.450
 1040SOL    HW1 4019   3.501   2.059   3.393
 1040SOL    HW2 4020   3.503   2.115   3.546
 1041SOL     OW 4021   6.143   5.697   6.517
 1041SOL    HW1 4022   6.172   5.614   6.469
 1041SOL    HW2 4023   6.048   5.717   6.494
 1042SOL     OW 4024   5.295   4.317   2.935
 1042SOL    HW1 4025   5.234   4.262   2.879
 1042SOL    HW2 4026   5.382   4.330   2.888
 1043SOL     OW 4027   2.691   2.344   3.489
 1043SOL    HW1 4028   2.788   2.358   3.511
 1043SOL    HW2 4029   2.652   2.277   3.551
 1044SOL     OW 4030   6.115   4.580   1.686
 1044SOL    HW1 4031   6.019   4.605   1.669
 1044SOL    HW2 4032   6.159   4.654   1.737
 1045SOL     OW 4033   2.088   0.457   1.825
 1045SOL    HW1 4034   2.033   0.496   1.899
 1045SOL    HW2 4035   2.030   0.401   1.766
 1046SOL     OW 4036   3.126   1.996   1.310
 1046SOL    HW1 4037   3.089   2.054   1.383
 1046SOL    HW2 4038   3.055   1.932   1.280
 1047SOL     OW 4039   3.600   6.535   3.520
 1047SOL    HW1 4040   3.502   6.539   3.500
 1047SOL    HW2 4041   3.616   6.571   3.612
 1048SOL     OW 4042   1.175   6.273   2.652
 1048SOL    HW1 4043   1.221   6.198   2.700
 1048SOL    HW2 4044   1.110   6.235   2.586
 1049SOL     OW 4045   4.511   6.227   5.147
 1049SOL    HW1 4046   4.415   6.211   5.167
 1049SOL    HW2 4047   4.554   6.142   5.117
 1050SOL     OW 4048   2.789   6.132   3.797
 1050SOL    HW1 4049   2.747   6.191   3.728
 1050SOL    HW2 4050   2.872   6.091   3.760
 1051SOL     OW 4051   0.956   1.070   6.277
 1051SOL    HW1 4052   0.986   1.041   6.367
 1051SOL    HW2 4053   1.033   1.109   6.227
 1052SOL     OW 4054   3.402   1.185   0.111
 1052SOL    HW1 4055   3.460   1.110   0.144
 1052SOL    HW2 4056   3.322   1.195   0.170
 1053SOL     OW 4057   5.202   1.893   4.026
 1053SOL    HW1 4058   5.182   1.795   4.028
 1053SOL    HW2 4059   5.237   1.921   4.115
 1054SOL     OW 4060   3.693   4.925   5.998
 1054SOL    HW1 4061   3.676   4.926   5.899
 1054SOL    HW2 4062   3.785   4.958   6.016
 1055SOL     OW 4063   4.705   5.742   6.276
 1055SOL    HW1 4064   4.648   5.667   6.244
 1055SOL    HW2 4065   4.761   5.776   6.200
 1056SOL     OW 4066   2.987   4.043   0.151
 1056SOL    HW1 4067   3.011   4.107   0.224
 1056SOL    HW2 4068   2.889   4.028   0.150
 1057SOL     OW 4069   2.959   2.830   0.432
 1057SOL    HW1 4070   2.863   2.813   0.409
 1057SOL    HW2 4071   3.007   2.743   0.442
 1058SOL     OW 4072   2.868   2.209   2.301
 1058SOL    HW1 4073   2.947   2.257   2.339
 1058SOL    HW2 4074   2.859   2.231   2.204
 1059SOL     OW 4075   2.389   6.295   1.787
 1059SOL    HW1 4076   2.362   6.227   1.718
 1059SOL    HW2 4077   2.353   6.385   1.762
 1060SOL     OW 4078   6.440   0.293   5.932
 1060SOL    HW1 4079   6.455   0.392   5.939
 1060SOL    HW2 4080   6.384   0.274   5.852
 1061SOL     OW 4081   6.873   3.784   6.265
 1061SOL    HW1 4082   6.950   3.736   6.307
 1061SOL    HW2 4083   6.892   3.801   6.168
 1062SOL     OW 4084   3.578   6.156   4.450
 1062SOL    HW1 4085   3.643   6.226   4.420
 1062SOL    HW2 4086   3.561   6.092   4.376
 1063SOL     OW 4087   3.705   6.388   5.372
 1063SOL    HW1 4088   3.617   6.340   5.370
 1063SOL    HW2 4089   3.689   6.487   5.365
 1064SOL     OW 4090   1.821   3.552   0.274
 1064SOL    HW1 4091   1.784   3.511   0.191
 1064SOL    HW2 4092   1.768   3.633   0.298
 1065SOL     OW 4093   5.335   0.708   4.531
 1065SOL    HW1 4094   5.265   0.771   4.564
 1065SOL    HW2 4095   5.352   0.637   4.599
 1066SOL     OW 4096   5.422   6.625   1.540
 1066SOL    HW1 4097   5.406   6.711   1.587
 1066SOL    HW2 4098   5.357   6.556   1.573
 1067SOL     OW 4099   2.498   1.626   0.248
 1067SOL    HW1 4100   2.459   1.593   0.333
 1067SOL    HW2 4101   2.539   1.550   0.198
 1068SOL     OW 4102   6.706   2.734   1.621
 1068SOL    HW1 4103   6.690   2.708   1.526
 1068SOL    HW2 4104   6.731   2.653   1.673
 1069SOL     OW 4105   6.257   3.311   1.770
 1069SOL    HW1 4106   6.176   3.293   1.713
 1069SOL    HW2 4107   6.292   3.403   1.752
 1070SOL     OW 4108   1.115   0.186   2.482
 1070SOL    HW1 4109   1.137   0.282   2.496
 1070SOL    HW2 4110   1.020   0.177   2.452
 1071SOL     OW 4111   0.426   2.985   5.326
 1071SOL    HW1 4112   0.484   2.937   5.392
 1071SOL    HW2 4113   0.392   3.070   5.368
 1072SOL     OW 4114   1.562   2.007   2.109
 1072SOL    HW1 4115   1.497   2.049   2.045
 1072SOL    HW2 4116   1.515   1.982   2.193
 1073SOL     OW 4117   4.766   2.232   3.056
 1073SOL    HW1 4118   4.745   2.307   3.119
 1073SOL    HW2 4119   4.694   2.224   2.988
 1074SOL     OW 4120   2.838   4.903   1.796
 1074SOL    HW1 4121   2.925   4.935   1.832
 1074SOL    HW2 4122   2.776   4.881   1.872
 1075SOL     OW 4123   6.207   4.443   5.837
 1075SOL    HW1 4124   6.243   4.500   5.763
 1075SOL    HW2 4125   6.268   4.366   5.852
 1076SOL     OW 4126   1.691   4.652   4.947
 1076SOL    HW1 4127   1.777   4.694   4.976
 1076SOL    HW2 4128   1.691   4.555   4.971
 1077SOL     OW 4129   6.984   7.012   0.298
 1077SOL    HW1 4130   0.061   7.000   0.334
 1077SOL    HW2 4131   6.988   0.049   0.213
 1078SOL     OW 4132   6.432   6.954   4.671
 1078SOL    HW1 4133   6.432   6.946   4.571
 1078SOL    HW2 4134   6.488   0.016   4.699
 1079SOL     OW 4135   1.098   6.814   1.613
 1079SOL    HW1 4136   1.067   6.889   1.671
 1079SOL    HW2 4137   1.197   6.802   1.624
 1080SOL     OW 4138   3.641   5.904   6.708
 1080SOL    HW1 4139   3.607   5.978   6.765
 1080SOL    HW2 4140   3.615   5.919   6.613
 1081SOL     OW 4141   6.742   6.302   4.189
 1081SOL    HW1 4142   6.827   6.339   4.226
 1081SOL    HW2 4143   6.676   6.290   4.262
 1082SOL     OW 4144   4.298   6.798   6.824
 1082SOL    HW1 4145   4.351   6.861   6.881
 1082SOL    HW2 4146   4.205   6.790   6.860
 1083SOL     OW 4147   5.247   4.637   1.931
 1083SOL    HW1 4148   5.287   4.654   1.841
 1083SOL    HW2 4149   5.230   4.539   1.942
 1084SOL     OW 4150   6.318   0.656   5.193
 1084SOL    HW1 4151   6.413   0.684   5.210
 1084SOL    HW2 4152   6.305   0.643   5.095
 1085SOL     OW 4153   2.168   3.752   4.483
 1085SOL    HW1 4154   2.222   3.714   4.408
 1085SOL    HW2 4155   2.173   3.852   4.481
 1086SOL     OW 4156   5.880   5.582   0.840
 1086SOL    HW1 4157   5.850   5.487   0.848
 1086SOL    HW2 4158   5.890   5.621   0.932
 1087SOL     OW 4159   3.338   0.018   5.551
 1087SOL    HW1 4160   3.344   6.935   5.566
 1087SOL    HW2 4161   3.278   0.036   5.473
 1088SOL     OW 4162   6.656   4.988   3.440
 1088SOL    HW1 4163   6.683   5.073   3.394
 1088SOL    HW2 4164   6.591   5.008   3.513
 1089SOL     OW 4165   6.345   4.762   4.436
 1089SOL    HW1 4166   6.364   4.671   4.399
 1089SOL    HW2 4167   6.368   4.831   4.367
 1090SOL     OW 4168   5.140   1.880   5.338
 1090SOL    HW1 4169   5.211   1.937   5.298
 1090SOL    HW2 4170   5.098   1.824   5.267
 1091SOL     OW 4171   2.281   2.591   2.950
 1091SOL    HW1 4172   2.215   2.665   2.934
 1091SOL    HW2 4173   2.247   2.530   3.021
 1092SOL     OW 4174   0.014   5.681   0.587
 1092SOL    HW1 4175   6.936   5.698   0.618
 1092SOL    HW2 4176   0.065   5.767   0.589
 1093SOL     OW 4177   1.738   0.802   2.719
 1093SOL    HW1 4178   1.671   0.814   2.645
 1093SOL    HW2 4179   1.788   0.717   2.704
 1094SOL     OW 4180   0.724   0.206   3.290
 1094SOL    HW1 4181   0.727   0.106   3.290
 1094SOL    HW2 4182   0.629   0.237   3.287
 1095SOL     OW 4183   4.950   3.112   0.393
 1095SOL    HW1 4184   4.872   3.076   0.342
 1095SOL    HW2 4185   4.987   3.041   0.453
 1096SOL     OW 4186   2.520   6.004   1.816
 1096SOL    HW1 4187   2.467   5.928   1.853
 1096SOL    HW2 4188   2.460   6.064   1.763
 1097SOL     OW 4189   2.956   6.000   4.608
 1097SOL    HW1 4190   2.929   5.992   4.704
 1097SOL    HW2 4191   2.949   6.095   4.579
 1098SOL     OW 4192   6.041   4.199   0.595
 1098SOL    HW1 4193   6.139   4.219   0.590
 1098SOL    HW2 4194   6.026   4.102   0.580
 1099SOL     OW 4195   4.369   6.763   5.657
 1099SOL    HW1 4196   4.287   6.746   5.711
 1099SOL    HW2 4197   4.343   6.796   5.566
 1100SOL     OW 4198   4.062   1.498   4.543
 1100SOL    HW1 4199   4.040   1.516   4.639
 1100SOL    HW2 4200   3.982   1.520   4.486
 1101SOL     OW 4201   5.184   3.400   6.166
 1101SOL    HW1 4202   5.147   3.307   6.166
 1101SOL    HW2 4203   5.121   3.461   6.118
 1102SOL     OW 4204   2.800   0.603   3.061
 1102SOL    HW1 4205   2.711   0.565   3.088
 1102SOL    HW2 4206   2.850   0.535   3.009
 1103SOL     OW 4207   3.605   6.760   0.356
 1103SOL    HW1 4208   3.654   6.730   0.438
 1103SOL    HW2 4209   3.579   6.681   0.301
 1104SOL     OW 4210   0.783   3.025   3.943
 1104SOL    HW1 4211   0.842   3.064   3.873
 1104SOL    HW2 4212   0.795   3.075   4.029
 1105SOL     OW 4213   5.005   1.085   5.742
 1105SOL    HW1 4214   5.102   1.082   5.766
 1105SOL    HW2 4215   4.996   1.122   5.649
 1106SOL     OW 4216   6.851   1.450   0.469
 1106SOL    HW1 4217   6.930   1.511   0.467
 1106SOL    HW2 4218   6.767   1.504   0.478
 1107SOL     OW 4219   0.736   1.422   6.459
 1107SOL    HW1 4220   0.733   1.324   6.477
 1107SOL    HW2 4221   0.809   1.464   6.513
 1108SOL     OW 4222   2.326   0.363   3.929
 1108SOL    HW1 4223   2.276   0.408   4.004
 1108SOL    HW2 4224   2.285   0.274   3.911
 1109SOL     OW 4225   4.561   2.028   4.911
 1109SOL    HW1 4226   4.488   2.096   4.911
 1109SOL    HW2 4227   4.643   2.066   4.867
 1110SOL     OW 4228   2.626   0.596   2.268
 1110SOL    HW1 4229   2.614   0.526   2.196
 1110SOL    HW2 4230   2.675   0.674   2.230
 1111SOL     OW 4231   5.934   4.480   6.404
 1111SOL    HW1 4232   5.991   4.414   6.452
 1111SOL    HW2 4233   5.987   4.524   6.332
 1112SOL     OW 4234   5.586   0.854   2.081
 1112SOL    HW1 4235   5.668   0.836   2.135
 1112SOL    HW2 4236   5.505   0.821   2.131
 1113SOL     OW 4237   5.646   4.144   2.592
 1113SOL    HW1 4238   5.678   4.155   2.686
 1113SOL    HW2 4239   5.706   4.196   2.530
 1114SOL     OW 4240   3.563   3.870   4.883
 1114SOL    HW1 4241   3.553   3.961   4.845
 1114SOL    HW2 4242   3.483   3.815   4.859
 1115SOL     OW 4243   2.789   4.261   5.526
 1115SOL    HW1 4244   2.857   4.250   5.454
 1115SOL    HW2 4245   2.773   4.359   5.542
 1116SOL     OW 4246   4.468   6.578   6.785
 1116SOL    HW1 4247   4.508   6.605   6.697
 1116SOL    HW2 4248   4.391   6.638   6.806
 1117SOL     OW 4249   2.163   2.556   1.687
 1117SOL    HW1 4250   2.203   2.473   1.649
 1117SOL    HW2 4251   2.214   2.636   1.656
 1118SOL     OW 4252   4.145   5.689   0.043
 1118SOL    HW1 4253   4.106   5.777   0.072
 1118SOL    HW2 4254   4.076   5.636   7.010
 1119SOL     OW 4255   3.054   5.350   3.825
 1119SOL    HW1 4256   2.961   5.327   3.852
 1119SOL    HW2 4257   3.054   5.384   3.731
 1120SOL     OW 4258   6.855   3.841   1.217
 1120SOL    HW1 4259   6.931   3.867   1.158
 1120SOL    HW2 4260   6.771   3.835   1.163
 1121SOL     OW 4261   6.945   4.951   4.426
 1121SOL    HW1 4262   6.982   4.862   4.400
 1121SOL    HW2 4263   6.924   5.003   4.343
 1122SOL     OW 4264   5.564   2.246   2.139
 1122SOL    HW1 4265   5.629   2.227   2.212
 1122SOL    HW2 4266   5.600   2.318   2.080
 1123SOL     OW 4267   3.956   1.000   3.646
 1123SOL    HW1 4268   3.875   0.942   3.635
 1123SOL    HW2 4269   3.982   1.038   3.558
 1124SOL     OW 4270   1.894   2.215   4.481
 1124SOL    HW1 4271   1.992   2.211   4.460
 1124SOL    HW2 4272   1.877   2.174   4.570
 1125SOL     OW 4273   2.133   3.619   3.637
 1125SOL    HW1 4274   2.104   3.531   3.675
 1125SOL    HW2 4275   2.063   3.688   3.654
 1126SOL     OW 4276   4.139   4.802   4.638
 1126SOL    HW1 4277   4.231   4.805   4.678
 1126SOL    HW2 4278   4.102   4.710   4.647
 1127SOL     OW 4279   6.189   6.774   2.243
 1127SOL    HW1 4280   6.103   6.825   2.251
 1127SOL    HW2 4281   6.262   6.824   2.289
 1128SOL     OW 4282   4.875   1.293   4.117
 1128SOL    HW1 4283   4.816   1.362   4.074
 1128SOL    HW2 4284   4.908   1.230   4.047
 1129SOL     OW 4285   1.501   0.614   0.891
 1129SOL    HW1 4286   1.511   0.562   0.976
 1129SOL    HW2 4287   1.418   0.584   0.844
 1130SOL     OW 4288   1.931   4.575   1.972
 1130SOL    HW1 4289   2.010   4.635   1.966
 1130SOL    HW2 4290   1.939   4.502   1.903
 1131SOL     OW 4291   1.354   5.651   4.062
 1131SOL    HW1 4292   1.329   5.688   3.973
 1131SOL    HW2 4293   1.274   5.609   4.105
 1132SOL     OW 4294   2.401   1.294   2.501
 1132SOL    HW1 4295   2.420   1.242   2.584
 1132SOL    HW2 4296   2.470   1.366   2.490
 1133SOL     OW 4297   0.879   6.878   6.006
 1133SOL    HW1 4298   0.929   6.939   6.068
 1133SOL    HW2 4299   0.929   6.792   5.997
 1134SOL     OW 4300   3.441   6.870   1.482
 1134SOL    HW1 4301   3.420   6.795   1.545
 1134SOL    HW2 4302   3.437   6.957   1.531
 1135SOL     OW 4303   2.101   5.791   3.351
 1135SOL    HW1 4304   2.174   5.832   3.405
 1135SOL    HW2 4305   2.120   5.694   3.337
 1136SOL     OW 4306   1.656   5.221   1.974
 1136SOL    HW1 4307   1.585   5.151   1.983
 1136SOL    HW2 4308   1.723   5.210   2.048
 1137SOL     OW 4309   1.060   5.401   4.996
 1137SOL    HW1 4310   1.053   5.317   5.050
 1137SOL    HW2 4311   1.157   5.420   4.977
 1138SOL     OW 4312   2.108   3.472   4.629
 1138SOL    HW1 4313   2.009   3.488   4.635
 1138SOL    HW2 4314   2.154   3.558   4.607
 1139SOL     OW 4315   2.709   5.549   5.368
 1139SOL    HW1 4316   2.617   5.577   5.393
 1139SOL    HW2 4317   2.705   5.463   5.317
 1140SOL     OW 4318   1.904   2.217   1.023
 1140SOL    HW1 4319   1.970   2.210   1.097
 1140SOL    HW2 4320   1.930   2.291   0.961
 1141SOL     OW 4321   0.041   5.110   6.250
 1141SOL    HW1 4322   7.002   5.041   6.202
 1141SOL    HW2 4323   0.137   5.082   6.252
 1142SOL     OW 4324   1.768   5.931   1.963
 1142SOL    HW1 4325   1.817   5.863   2.018
 1142SOL    HW2 4326   1.748   5.893   1.872
 1143SOL     OW 4327   0.669   3.959   1.763
 1143SOL    HW1 4328   0.724   4.039   1.741
 1143SOL    HW2 4329   0.721   3.876   1.745
 1144SOL     OW 4330   5.604   4.417   0.727
 1144SOL    HW1 4331   5.596   4.515   0.706
 1144SOL    HW2 4332   5.513   4.380   0.745
 1145SOL     OW 4333   5.955   6.956   0.775
 1145SOL    HW1 4334   5.901   6.983   0.856
 1145SOL    HW2 4335   5.929   7.014   0.698
 1146SOL     OW 4336   0.739   1.310   1.152
 1146SOL    HW1 4337   0.662   1.344   1.206
 1146SOL    HW2 4338   0.766   1.220   1.186
 1147SOL     OW 4339   2.530   6.235   1.465
 1147SOL    HW1 4340   2.488   6.306   1.409
 1147SOL    HW2 4341   2.462   6.167   1.489
 1148SOL     OW 4342   4.289   5.722   2.999
 1148SOL    HW1 4343   4.251   5.805   3.040
 1148SOL    HW2 4344   4.222   5.648   3.007
 1149SOL     OW 4345   4.438   3.329   1.472
 1149SOL    HW1 4346   4.379   3.392   1.524
 1149SOL    HW2 4347   4.514   3.300   1.530
 1150SOL     OW 4348   1.549   3.729   0.407
 1150SOL    HW1 4349   1.576   3.647   0.457
 1150SOL    HW2 4350   1.480   3.779   0.459
 1151SOL     OW 4351   6.241   5.634   4.155
 1151SOL    HW1 4352   6.326   5.648   4.206
 1151SOL    HW2 4353   6.259   5.574   4.077
 1152SOL     OW 4354   3.663   6.101   6.229
 1152SOL    HW1 4355   3.733   6.055   6.175
 1152SOL    HW2 4356   3.649   6.193   6.194
 1153SOL     OW 4357   5.982   0.146   1.332
 1153SOL    HW1 4358   6.029   0.124   1.247
 1153SOL    HW2 4359   6.042   0.129   1.410
 1154SOL     OW 4360   2.019   2.786   1.040
 1154SOL    HW1 4361   1.948   2.775   1.110
 1154SOL    HW2 4362   2.087   2.852   1.072
 1155SOL     OW 4363   2.727   6.775   4.544
 1155SOL    HW1 4364   2.722   6.714   4.464
 1155SOL    HW2 4365   2.690   6.727   4.624
 1156SOL     OW 4366   2.963   1.966   3.594
 1156SOL    HW1 4367   3.044   1.920   3.631
 1156SOL    HW2 4368   2.987   2.059   3.567
 1157SOL     OW 4369   3.450   0.829   6.962
 1157SOL    HW1 4370   3.540   0.861   6.991
 1157SOL    HW2 4371   3.396   0.802   0.026
 1158SOL     OW 4372   5.586   4.598   3.274
 1158SOL    HW1 4373   5.602   4.645   3.187
 1158SOL    HW2 4374   5.489   4.571   3.280
 1159SOL     OW 4375   6.358   5.219   0.940
 1159SOL    HW1 4376   6.349   5.143   1.004
 1159SOL    HW2 4377   6.338   5.305   0.987
 1160SOL     OW 4378   5.536   1.691   0.089
 1160SOL    HW1 4379   5.439   1.718   0.086
 1160SOL    HW2 4380   5.577   1.702   7.014
 1161SOL     OW 4381   6.907   5.337   0.745
 1161SOL    HW1 4382   6.905   5.382   0.655
 1161SOL    HW2 4383   6.832   5.272   0.750
 1162SOL     OW 4384   2.977   2.193   4.769
 1162SOL    HW1 4385   3.040   2.226   4.840
 1162SOL    HW2 4386   2.996   2.097   4.749
 1163SOL     OW 4387   5.736   3.095   1.708
 1163SOL    HW1 4388   5.653   3.068   1.658
 1163SOL    HW2 4389   5.742   3.043   1.793
 1164SOL     OW 4390   4.219   2.231   5.644
 1164SOL    HW1 4391   4.147   2.202   5.581
 1164SOL    HW2 4392   4.298   2.170   5.635
 1165SOL     OW 4393   3.757   6.231   3.744
 1165SOL    HW1 4394   3.688   6.246   3.815
 1165SOL    HW2 4395   3.732   6.150   3.691
 1166SOL     OW 4396   3.188   4.635   5.936
 1166SOL    HW1 4397   3.256   4.673   5.998
 1166SOL    HW2 4398   3.139   4.709   5.890
 1167SOL     OW 4399   5.038   4.727   2.689
 1167SOL    HW1 4400   4.983   4.804   2.657
 1167SOL    HW2 4401   5.019   4.647   2.632
 1168SOL     OW 4402   6.289   0.509   2.958
 1168SOL    HW1 4403   6.306   0.466   2.869
 1168SOL    HW2 4404   6.343   0.593   2.965
 1169SOL     OW 4405   4.981   1.049   5.463
 1169SOL    HW1 4406   4.882   1.047   5.448
 1169SOL    HW2 4407   5.012   0.958   5.490
 1170SOL     OW 4408   4.951   6.247   3.639
 1170SOL    HW1 4409   5.035   6.219   3.685
 1170SOL    HW2 4410   4.938   6.190   3.557
 1171SOL     OW 4411   0.850   5.995   0.961
 1171SOL    HW1 4412   0.864   6.086   0.922
 1171SOL    HW2 4413   0.852   5.927   0.888
 1172SOL     OW 4414   6.666   3.616   6.542
 1172SOL    HW1 4415   6.717   3.662   6.615
 1172SOL    HW2 4416   6.626   3.684   6.481
 1173SOL     OW 4417   3.688   1.600   0.543
 1173SOL    HW1 4418   3.767   1.556   0.499
 1173SOL    HW2 4419   3.678   1.693   0.508
 1174SOL     OW 4420   2.682   3.647   0.561
 1174SOL    HW1 4421   2.726   3.733   0.588
 1174SOL    HW2 4422   2.588   3.666   0.530
 1175SOL     OW 4423   3.523   2.936   4.413
 1175SOL    HW1 4424   3.438   2.928   4.361
 1175SOL    HW2 4425   3.594   2.978   4.356
 1176SOL     OW 4426   5.511   3.600   5.816
 1176SOL    HW1 4427   5.574   3.565   5.747
 1176SOL    HW2 4428   5.513   3.700   5.815
 1177SOL     OW 4429   0.143   2.021   4.573
 1177SOL    HW1 4430   0.220   2.069   4.617
 1177SOL    HW2 4431   0.176   1.936   4.532
 1178SOL     OW 4432   3.589   5.321   0.512
 1178SOL    HW1 4433   3.585   5.253   0.586
 1178SOL    HW2 4434   3.542   5.285   0.431
 1179SOL     OW 4435   1.887   5.291   0.099
 1179SOL    HW1 4436   1.849   5.334   0.181
 1179SOL    HW2 4437   1.963   5.348   0.064
 1180SOL     OW 4438   3.456   5.891   0.896
 1180SOL    HW1 4439   3.370   5.940   0.896
 1180SOL    HW2 4440   3.511   5.919   0.817
 1181SOL     OW 4441   0.266   6.547   0.508
 1181SOL    HW1 4442   0.235   6.457   0.540
 1181SOL    HW2 4443   0.355   6.568   0.548
 1182SOL     OW 4444   4.476   4.455   3.000
 1182SOL    HW1 4445   4.528   4.373   3.027
 1182SOL    HW2 4446   4.435   4.497   3.081
 1183SOL     OW 4447   2.433   3.281   5.589
 1183SOL    HW1 4448   2.506   3.219   5.617
 1183SOL    HW2 4449   2.421   3.352   5.659
 1184SOL     OW 4450   0.638   6.833   6.213
 1184SOL    HW1 4451   0.643   6.740   6.176
 1184SOL    HW2 4452   0.723   6.881   6.193
 1185SOL     OW 4453   6.697   1.641   6.704
 1185SOL    HW1 4454   6.650   1.554   6.690
 1185SOL    HW2 4455   6.779   1.627   6.759
 1186SOL     OW 4456   5.496   6.287   4.624
 1186SOL    HW1 4457   5.398   6.280   4.646
 1186SOL    HW2 4458   5.549   6.291   4.709
 1187SOL     OW 4459   5.993   0.596   6.316
 1187SOL    HW1 4460   6.039   0.551   6.240
 1187SOL    HW2 4461   6.042   0.576   6.401
 1188SOL     OW 4462   2.493   0.224   6.238
 1188SOL    HW1 4463   2.438   0.228   6.155
 1188SOL    HW2 4464   2.497   0.130   6.271
 1189SOL     OW 4465   5.561   3.314   3.476
 1189SOL    HW1 4466   5.552   3.216   3.494
 1189SOL    HW2 4467   5.527   3.334   3.384
 1190SOL     OW 4468   2.190   6.017   3.031
 1190SOL    HW1 4469   2.187   6.019   2.931
 1190SOL    HW2 4470   2.270   5.965   3.061
 1191SOL     OW 4471   4.188   5.831   2.757
 1191SOL    HW1 4472   4.235   5.801   2.840
 1191SOL    HW2 4473   4.163   5.928   2.765
 1192SOL     OW 4474   5.673   6.377   3.402
 1192SOL    HW1 4475   5.665   6.475   3.384
 1192SOL    HW2 4476   5.754   6.341   3.358
 1193SOL     OW 4477   6.487   5.334   4.314
 1193SOL    HW1 4478   6.506   5.428   4.284
 1193SOL    HW2 4479   6.422   5.291   4.251
 1194SOL     OW 4480   3.743   0.845   0.825
 1194SOL    HW1 4481   3.729   0.808   0.917
 1194SOL    HW2 4482   3.780   0.773   0.766
 1195SOL     OW 4483   5.512   2.457   3.698
 1195SOL    HW1 4484   5.530   2.380   3.760
 1195SOL    HW2 4485   5.589   2.521   3.702
 1196SOL     OW 4486   6.268   6.391   5.284
 1196SOL    HW1 4487   6.232   6.410   5.375
 1196SOL    HW2 4488   6.199   6.342   5.230
 1197SOL     OW 4489   2.601   6.064   0.665
 1197SOL    HW1 4490   2.534   5.994   0.638
 1197SOL    HW2 4491   2.605   6.070   0.765
 1198SOL     OW 4492   1.402   2.786   0.106
 1198SOL    HW1 4493   1.404   2.695   0.065
 1198SOL    HW2 4494   1.332   2.788   0.178
 1199SOL     OW 4495   5.406   4.020   1.607
 1199SOL    HW1 4496   5.367   4.091   1.665
 1199SOL    HW2 4497   5.482   4.058   1.554
 1200SOL     OW 4498   2.984   3.418   1.875
 1200SOL    HW1 4499   2.981   3.483   1.952
 1200SOL    HW2 4500   3.072   3.372   1.874
 1201SOL     OW 4501   1.806   2.007   4.688
 1201SOL    HW1 4502   1.858   1.961   4.616
 1201SOL    HW2 4503   1.796   1.945   4.766
 1202SOL     OW 4504   0.451   5.148   5.653
 1202SOL    HW1 4505   0.415   5.184   5.739
 1202SOL    HW2 4506   0.487   5.056   5.668
 1203SOL     OW 4507   4.563   5.522   5.939
 1203SOL    HW1 4508   4.559   5.610   5.987
 1203SOL    HW2 4509   4.618   5.457   5.992
 1204SOL     OW 4510   2.093   6.753   2.951
 1204SOL    HW1 4511   2.177   6.792   2.990
 1204SOL    HW2 4512   2.114   6.665   2.908
 1205SOL     OW 4513   5.324   4.382   2.307
 1205SOL    HW1 4514   5.367   4.407   2.220
 1205SOL    HW2 4515   5.225   4.378   2.295
 1206SOL     OW 4516   2.961   3.206   4.993
 1206SOL    HW1 4517   2.942   3.112   4.965
 1206SOL    HW2 4518   2.961   3.265   4.912
 1207SOL     OW 4519   1.348   6.450   2.013
 1207SOL    HW1 4520   1.309   6.516   1.949
 1207SOL    HW2 4521   1.342   6.358   1.973
 1208SOL     OW 4522   3.246   4.181   6.016
 1208SOL    HW1 4523   3.169   4.119   6.032
 1208SOL    HW2 4524   3.329   4.128   6.000
 1209SOL     OW 4525   4.204   6.214   5.544
 1209SOL    HW1 4526   4.285   6.258   5.582
 1209SOL    HW2 4527   4.232   6.143   5.480
 1210SOL     OW 4528   3.353   0.660   3.047
 1210SOL    HW1 4529   3.429   0.618   2.997
 1210SOL    HW2 4530   3.310   0.730   2.990
 1211SOL     OW 4531   1.077   3.512   6.973
 1211SOL    HW1 4532   1.160   3.483   6.925
 1211SOL    HW2 4533   1.061   3.451   0.036
 1212SOL     OW 4534   1.635   6.560   0.320
 1212SOL    HW1 4535   1.723   6.600   0.344
 1212SOL    HW2 4536   1.649   6.468   0.283
 1213SOL     OW 4537   5.669   2.890   1.391
 1213SOL    HW1 4538   5.620   2.836   1.458
 1213SOL    HW2 4539   5.767   2.872   1.399
 1214SOL     OW 4540   0.183   2.465   1.522
 1214SOL    HW1 4541   0.211   2.535   1.587
 1214SOL    HW2 4542   0.259   2.403   1.503
 1215SOL     OW 4543   1.542   5.595   4.293
 1215SOL    HW1 4544   1.615   5.642   4.243
 1215SOL    HW2 4545   1.468   5.660   4.313
 1216SOL     OW 4546   4.654   6.380   0.814
 1216SOL    HW1 4547   4.563   6.340   0.829
 1216SOL    HW2 4548   4.646   6.479   0.803
 1217SOL     OW 4549   2.836   4.189   6.745
 1217SOL    HW1 4550   2.748   4.158   6.709
 1217SOL    HW2 4551   2.878   4.115   6.797
 1218SOL     OW 4552   2.028   4.767   3.511
 1218SOL    HW1 4553   2.115   4.718   3.500
 1218SOL    HW2 4554   1.970   4.749   3.431
 1219SOL     OW 4555   4.388   6.291   2.612
 1219SOL    HW1 4556   4.464   6.295   2.676
 1219SOL    HW2 4557   4.371   6.383   2.575
 1220SOL     OW 4558   0.850   4.755   2.631
 1220SOL    HW1 4559   0.809   4.672   2.671
 1220SOL    HW2 4560   0.779   4.807   2.583
 1221SOL     OW 4561   5.366   3.785   6.123
 1221SOL    HW1 4562   5.426   3.863   6.103
 1221SOL    HW2 4563   5.305   3.770   6.045
 1222SOL     OW 4564   6.464   6.973   6.429
 1222SOL    HW1 4565   6.379   6.964   6.377
 1222SOL    HW2 4566   6.531   6.908   6.394
 1223SOL     OW 4567   3.373   6.170   0.704
 1223SOL    HW1 4568   3.343   6.147   0.797
 1223SOL    HW2 4569   3.416   6.260   0.705
 1224SOL     OW 4570   3.659   0.456   1.939
 1224SOL    HW1 4571   3.734   0.452   1.872
 1224SOL    HW2 4572   3.670   0.538   1.995
 1225SOL     OW 4573   2.607   4.167   6.289
 1225SOL    HW1 4574   2.530   4.170   6.226
 1225SOL    HW2 4575   2.679   4.229   6.258
 1226SOL     OW 4576   2.138   4.470   1.233
 1226SOL    HW1 4577   2.069   4.451   1.304
 1226SOL    HW2 4578   2.157   4.386   1.182
 1227SOL     OW 4579   0.305   3.752   6.221
 1227SOL    HW1 4580   0.234   3.786   6.283
 1227SOL    HW2 4581   0.354   3.677   6.265
 1228SOL     OW 4582   3.550   1.603   5.943
 1228SOL    HW1 4583   3.493   1.670   5.991
 1228SOL    HW2 4584   3.578   1.640   5.855
 1229SOL     OW 4585   3.418   4.128   6.505
 1229SOL    HW1 4586   3.421   4.220   6.467
 1229SOL    HW2 4587   3.333   4.117   6.557
 1230SOL     OW 4588   4.652   6.265   3.410
 1230SOL    HW1 4589   4.678   6.353   3.368
 1230SOL    HW2 4590   4.652   6.275   3.509
 1231SOL     OW 4591   1.598   4.868   4.405
 1231SOL    HW1 4592   1.571   4.844   4.312
 1231SOL    HW2 4593   1.569   4.794   4.467
 1232SOL     OW 4594   1.936   2.493   4.904
 1232SOL    HW1 4595   1.942   2.396   4.882
 1232SOL    HW2 4596   1.931   2.505   5.004
 1233SOL     OW 4597   0.840   2.846   4.618
 1233SOL    HW1 4598   0.814   2.886   4.530
 1233SOL    HW2 4599   0.931   2.879   4.644
 1234SOL     OW 4600   6.599   4.258   4.476
 1234SOL    HW1 4601   6.635   4.326   4.412
 1234SOL    HW2 4602   6.524   4.298   4.529
 1235SOL     OW 4603   6.590   5.813   4.055
 1235SOL    HW1 4604   6.590   5.760   3.970
 1235SOL    HW2 4605   6.684   5.837   4.079
 1236SOL     OW 4606   5.029   0.874   6.760
 1236SOL    HW1 4607   5.100   0.943   6.755
 1236SOL    HW2 4608   5.052   0.797   6.700
 1237SOL     OW 4609   2.887   4.432   6.583
 1237SOL    HW1 4610   2.873   4.340   6.618
 1237SOL    HW2 4611   2.924   4.427   6.490
 1238SOL     OW 4612   1.433   1.520   1.495
 1238SOL    HW1 4613   1.480   1.602   1.462
 1238SOL    HW2 4614   1.470   1.439   1.450
 1239SOL     OW 4615   0.354   6.761   6.241
 1239SOL    HW1 4616   0.337   6.841   6.298
 1239SOL    HW2 4617   0.453   6.749   6.228
 1240SOL     OW 4618   4.273   5.827   2.279
 1240SOL    HW1 4619   4.227   5.879   2.351
 1240SOL    HW2 4620   4.302   5.889   2.206
 1241SOL     OW 4621   6.739   3.243   3.227
 1241SOL    HW1 4622   6.642   3.263   3.220
 1241SOL    HW2 4623   6.756   3.187   3.309
 1242SOL     OW 4624   2.499   3.667   6.241
 1242SOL    HW1 4625   2.589   3.700   6.214
 1242SOL    HW2 4626   2.468   3.718   6.321
 1243SOL     OW 4627   2.713   5.236   5.433
 1243SOL    HW1 4628   2.722   5.139   5.454
 1243SOL    HW2 4629   2.671   5.283   5.511
 1244SOL     OW 4630   0.750   0.741   2.925
 1244SOL    HW1 4631   0.831   0.793   2.898
 1244SOL    HW2 4632   0.737   0.664   2.863
 1245SOL     OW 4633   2.622   2.793   5.787
 1245SOL    HW1 4634   2.536   2.835   5.759
 1245SOL    HW2 4635   2.683   2.864   5.823
 1246SOL     OW 4636   1.061   6.755   2.377
 1246SOL    HW1 4637   1.122   6.791   2.306
 1246SOL    HW2 4638   1.031   6.663   2.352
 1247SOL     OW 4639   1.843   6.537   6.879
 1247SOL    HW1 4640   1.837   6.502   6.972
 1247SOL    HW2 4641   1.761   6.509   6.828
 1248SOL     OW 4642   1.898   6.291   3.526
 1248SOL    HW1 4643   1.874   6.363   3.460
 1248SOL    HW2 4644   1.971   6.234   3.489
 1249SOL     OW 4645   6.373   3.423   3.084
 1249SOL    HW1 4646   6.295   3.362   3.103
 1249SOL    HW2 4647   6.390   3.426   2.986
 1250SOL     OW 4648   0.278   4.399   3.951
 1250SOL    HW1 4649   0.333   4.450   4.018
 1250SOL    HW2 4650   0.239   4.463   3.885
 1251SOL     OW 4651   3.306   6.557   5.481
 1251SOL    HW1 4652   3.243   6.607   5.421
 1251SOL    HW2 4653   3.255   6.489   5.534
 1252SOL     OW 4654   3.459   3.431   6.753
 1252SOL    HW1 4655   3.405   3.354   6.787
 1252SOL    HW2 4656   3.443   3.443   6.655
 1253SOL     OW 4657   4.194   6.199   3.667
 1253SOL    HW1 4658   4.273   6.241   3.621
 1253SOL    HW2 4659   4.227   6.136   3.738
 1254SOL     OW 4660   6.513   1.712   2.545
 1254SOL    HW1 4661   6.559   1.797   2.570
 1254SOL    HW2 4662   6.567   1.634   2.577
 1255SOL     OW 4663   6.059   0.005   0.290
 1255SOL    HW1 4664   6.134   6.988   0.346
 1255SOL    HW2 4665   6.047   0.104   0.305
 1256SOL     OW 4666   4.360   1.545   3.889
 1256SOL    HW1 4667   4.390   1.501   3.805
 1256SOL    HW2 4668   4.417   1.625   3.907
 1257SOL     OW 4669   6.466   1.199   4.214
 1257SOL    HW1 4670   6.560   1.205   4.246
 1257SOL    HW2 4671   6.461   1.221   4.117
 1258SOL     OW 4672   7.013   6.662   4.269
 1258SOL    HW1 4673   6.986   6.670   4.173
 1258SOL    HW2 4674   7.005   6.752   4.313
 1259SOL     OW 4675   4.174   2.249   5.350
 1259SOL    HW1 4676   4.131   2.316   5.290
 1259SOL    HW2 4677   4.186   2.163   5.300
 1260SOL     OW 4678   0.614   1.322   5.773
 1260SOL    HW1 4679   0.544   1.251   5.768
 1260SOL    HW2 4680   0.653   1.337   5.682
 1261SOL     OW 4681   6.352   3.763   0.652
 1261SOL    HW1 4682   6.319   3.813   0.731
 1261SOL    HW2 4683   6.285   3.769   0.578
 1262SOL     OW 4684   5.111   6.212   2.478
 1262SOL    HW1 4685   5.073   6.198   2.387
 1262SOL    HW2 4686   5.122   6.123   2.523
 1263SOL     OW 4687   0.039   2.796   3.564
 1263SOL    HW1 4688   7.009   2.734   3.627
 1263SOL    HW2 4689   0.021   2.768   3.470
 1264SOL     OW 4690   0.848   2.910   5.193
 1264SOL    HW1 4691   0.823   2.925   5.288
 1264SOL    HW2 4692   0.766   2.888   5.140
 1265SOL     OW 4693   5.578   6.428   5.360
 1265SOL    HW1 4694   5.568   6.526   5.381
 1265SOL    HW2 4695   5.625   6.382   5.436
 1266SOL     OW 4696   1.793   1.564   5.757
 1266SOL    HW1 4697   1.775   1.467   5.772
 1266SOL    HW2 4698   1.883   1.588   5.793
 1267SOL     OW 4699   3.573   0.328   2.839
 1267SOL    HW1 4700   3.496   0.351   2.898
 1267SOL    HW2 4701   3.646   0.286   2.894
 1268SOL     OW 4702   4.248   2.872   5.593
 1268SOL    HW1 4703   4.263   2.786   5.544
 1268SOL    HW2 4704   4.331   2.896   5.644
 1269SOL     OW 4705   5.961   2.016   4.143
 1269SOL    HW1 4706   6.021   1.938   4.125
 1269SOL    HW2 4707   5.866   1.986   4.139
 1270SOL     OW 4708   6.446   5.523   2.690
 1270SOL    HW1 4709   6.478   5.611   2.655
 1270SOL    HW2 4710   6.487   5.449   2.636
 1271SOL     OW 4711   1.694   1.486   0.963
 1271SOL    HW1 4712   1.630   1.412   0.982
 1271SOL    HW2 4713   1.654   1.549   0.897
 1272SOL     OW 4714   6.504   3.041   6.344
 1272SOL    HW1 4715   6.602   3.024   6.334
 1272SOL    HW2 4716   6.487   3.139   6.345
 1273SOL     OW 4717   1.034   4.701   5.348
 1273SOL    HW1 4718   1.046   4.775   5.282
 1273SOL    HW2 4719   1.080   4.725   5.433
 1274SOL     OW 4720   0.074   5.009   2.741
 1274SOL    HW1 4721   0.062   4.914   2.770
 1274SOL    HW2 4722   0.115   5.011   2.649
 1275SOL     OW 4723   2.181   1.131   3.189
 1275SOL    HW1 4724   2.089   1.124   3.150
 1275SOL    HW2 4725   2.184   1.205   3.256
 1276SOL     OW 4726   5.566   4.927   3.826
 1276SOL    HW1 4727   5.618   4.901   3.908
 1276SOL    HW2 4728   5.470   4.945   3.852
 1277SOL     OW 4729   0.372   6.066   0.694
 1277SOL    HW1 4730   0.315   6.136   0.737
 1277SOL    HW2 4731   0.375   6.082   0.595
 1278SOL     OW 4732   1.083   6.067   3.007
 1278SOL    HW1 4733   1.119   5.982   3.047
 1278SOL    HW2 4734   0.987   6.078   3.034
 1279SOL     OW 4735   2.846   2.895   1.730
 1279SOL    HW1 4736   2.842   2.969   1.797
 1279SOL    HW2 4737   2.939   2.859   1.725
 1280SOL     OW 4738   2.054   2.155   3.891
 1280SOL    HW1 4739   2.002   2.194   3.967
 1280SOL    HW2 4740   2.078   2.227   3.826
 1281SOL     OW 4741   4.978   6.233   5.160
 1281SOL    HW1 4742   5.036   6.175   5.104
 1281SOL    HW2 4743   5.034   6.282   5.227
 1282SOL     OW 4744   0.182   2.653   1.185
 1282SOL    HW1 4745   0.104   2.670   1.245
 1282SOL    HW2 4746   0.189   2.555   1.166
 1283SOL     OW 4747   6.827   2.987   4.484
 1283SOL    HW1 4748   6.872   3.074   4.504
 1283SOL    HW2 4749   6.773   2.959   4.563
 1284SOL     OW 4750   4.122   2.262   1.913
 1284SOL    HW1 4751   4.054   2.189   1.916
 1284SOL    HW2 4752   4.126   2.306   2.003
 1285SOL     OW 4753   4.054   1.193   5.428
 1285SOL    HW1 4754   3.960   1.224   5.421
 1285SOL    HW2 4755   4.067   1.111   5.373
 1286SOL     OW 4756   5.507   1.554   0.938
 1286SOL    HW1 4757   5.565   1.543   0.857
 1286SOL    HW2 4758   5.419   1.509   0.924
 1287SOL     OW 4759   6.949   5.096   4.840
 1287SOL    HW1 4760   6.875   5.029   4.830
 1287SOL    HW2 4761   6.993   5.110   4.751
 1288SOL     OW 4762   4.717   4.388   6.948
 1288SOL    HW1 4763   4.807   4.429   6.935
 1288SOL    HW2 4764   4.675   4.370   6.859
 1289SOL     OW 4765   0.066   6.679   1.224
 1289SOL    HW1 4766   6.983   6.698   1.223
 1289SOL    HW2 4767   0.113   6.739   1.160
 1290SOL     OW 4768   1.222   6.129   5.163
 1290SOL    HW1 4769   1.178   6.039   5.163
 1290SOL    HW2 4770   1.229   6.164   5.070
 1291SOL     OW 4771   6.462   5.081   3.631
 1291SOL    HW1 4772   6.527   5.151   3.660
 1291SOL    HW2 4773   6.369   5.108   3.657
 1292SOL     OW 4774   1.240   0.016   1.938
 1292SOL    HW1 4775   1.323   6.980   1.918
 1292SOL    HW2 4776   1.194   0.039   1.852
 1293SOL     OW 4777   4.857   1.150   0.132
 1293SOL    HW1 4778   4.813   1.061   0.118
 1293SOL    HW2 4779   4.873   1.164   0.230
 1294SOL     OW 4780   2.095   4.465   5.120
 1294SOL    HW1 4781   2.008   4.438   5.080
 1294SOL    HW2 4782   2.170   4.432   5.062
 1295SOL     OW 4783   6.578   4.601   0.937
 1295SOL    HW1 4784   6.662   4.551   0.915
 1295SOL    HW2 4785   6.598   4.699   0.942
 1296SOL     OW 4786   5.182   0.107   5.805
 1296SOL    HW1 4787   5.248   0.090   5.732
 1296SOL    HW2 4788   5.103   0.047   5.794
 1297SOL     OW 4789   0.418   0.508   1.721
 1297SOL    HW1 4790   0.441   0.430   1.779
 1297SOL    HW2 4791   0.426   0.592   1.774
 1298SOL     OW 4792   5.036   0.781   2.395
 1298SOL    HW1 4793   5.034   0.700   2.453
 1298SOL    HW2 4794   5.129   0.817   2.392
 1299SOL     OW 4795   0.757   3.500   4.607
 1299SOL    HW1 4796   0.837   3.535   4.559
 1299SOL    HW2 4797   0.786   3.455   4.691
 1300SOL     OW 4798   0.814   5.541   1.560
 1300SOL    HW1 4799   0.729   5.504   1.523
 1300SOL    HW2 4800   0.832   5.631   1.521
 1301SOL     OW 4801   0.418   0.233   0.399
 1301SOL    HW1 4802   0.459   0.233   0.307
 1301SOL    HW2 4803   0.406   0.327   0.430
 1302SOL     OW 4804   6.230   0.012   5.151
 1302SOL    HW1 4805   6.226   0.111   5.134
 1302SOL    HW2 4806   6.285   6.984   5.080
 1303SOL     OW 4807   3.365   6.646   1.637
 1303SOL    HW1 4808   3.267   6.635   1.650
 1303SOL    HW2 4809   3.405   6.559   1.609
 1304SOL     OW 4810   0.433   0.772   0.635
 1304SOL    HW1 4811   0.512   0.717   0.661
 1304SOL    HW2 4812   0.431   0.855   0.691
 1305SOL     OW 4813   4.590   3.479   6.336
 1305SOL    HW1 4814   4.518   3.445   6.276
 1305SOL    HW2 4815   4.553   3.552   6.394
 1306SOL     OW 4816   2.956   5.574   3.979
 1306SOL    HW1 4817   3.016   5.535   3.909
 1306SOL    HW2 4818   3.010   5.603   4.058
 1307SOL     OW 4819   2.544   2.527   3.372
 1307SOL    HW1 4820   2.615   2.462   3.402
 1307SOL    HW2 4821   2.553   2.542   3.274
 1308SOL     OW 4822   0.192   4.496   6.311
 1308SOL    HW1 4823   0.275   4.459   6.352
 1308SOL    HW2 4824   0.115   4.435   6.328
 1309SOL     OW 4825   5.688   4.731   6.776
 1309SOL    HW1 4826   5.652   4.781   6.697
 1309SOL    HW2 4827   5.783   4.706   6.759
 1310SOL     OW 4828   1.493   4.446   3.250
 1310SOL    HW1 4829   1.589   4.423   3.266
 1310SOL    HW2 4830   1.454   4.384   3.182
 1311SOL     OW 4831   5.905   5.107   0.824
 1311SOL    HW1 4832   5.897   5.174   0.898
 1311SOL    HW2 4833   5.906   5.015   0.863
 1312SOL     OW 4834   2.607   1.318   5.991
 1312SOL    HW1 4835   2.589   1.355   6.082
 1312SOL    HW2 4836   2.618   1.219   5.997
 1313SOL     OW 4837   6.677   5.379   1.887
 1313SOL    HW1 4838   6.675   5.288   1.929
 1313SOL    HW2 4839   6.719   5.372   1.797
 1314SOL     OW 4840   2.155   1.704   4.849
 1314SOL    HW1 4841   2.102   1.745   4.924
 1314SOL    HW2 4842   2.229   1.648   4.888
 1315SOL     OW 4843   6.231   1.080   3.109
 1315SOL    HW1 4844   6.138   1.115   3.110
 1315SOL    HW2 4845   6.295   1.154   3.088
 1316SOL     OW 4846   5.549   0.396   6.658
 1316SOL    HW1 4847   5.583   0.305   6.682
 1316SOL    HW2 4848   5.605   0.434   6.584
 1317SOL     OW 4849   3.629   3.791   5.793
 1317SOL    HW1 4850   3.683   3.728   5.737
 1317SOL    HW2 4851   3.589   3.862   5.734
 1318SOL     OW 4852   1.674   1.916   6.266
 1318SOL    HW1 4853   1.735   1.993   6.249
 1318SOL    HW2 4854   1.707   1.864   6.344
 1319SOL     OW 4855   0.005   6.840   0.911
 1319SOL    HW1 4856   0.098   6.848   0.947
 1319SOL    HW2 4857   6.955   6.841   0.986
 1320SOL     OW 4858   3.557   3.051   5.892
 1320SOL    HW1 4859   3.556   3.124   5.823
 1320SOL    HW2 4860   3.556   3.093   5.983
 1321SOL     OW 4861   6.828   2.575   0.363
 1321SOL    HW1 4862   6.844   2.670   0.338
 1321SOL    HW2 4863   6.893   2.546   0.433
 1322SOL     OW 4864   3.197   2.304   6.712
 1322SOL    HW1 4865   3.241   2.251   6.785
 1322SOL    HW2 4866   3.229   2.399   6.717
 1323SOL     OW 4867   3.824   6.512   0.962
 1323SOL    HW1 4868   3.782   6.586   0.910
 1323SOL    HW2 4869   3.863   6.445   0.899
 1324SOL     OW 4870   2.138   3.997   6.900
 1324SOL    HW1 4871   2.087   3.966   6.980
 1324SOL    HW2 4872   2.121   4.095   6.886
 1325SOL     OW 4873   2.889   5.718   5.250
 1325SOL    HW1 4874   2.933   5.678   5.170
 1325SOL    HW2 4875   2.840   5.646   5.301
 1326SOL     OW 4876   4.764   2.170   4.614
 1326SOL    HW1 4877   4.754   2.119   4.529
 1326SOL    HW2 4878   4.831   2.124   4.672
 1327SOL     OW 4879   5.208   5.415   2.207
 1327SOL    HW1 4880   5.111   5.441   2.206
 1327SOL    HW2 4881   5.215   5.317   2.229
 1328SOL     OW 4882   1.923   2.537   5.540
 1328SOL    HW1 4883   1.973   2.603   5.483
 1328SOL    HW2 4884   1.825   2.557   5.536
 1329SOL     OW 4885   0.966   2.575   4.100
 1329SOL    HW1 4886   0.946   2.625   4.184
 1329SOL    HW2 4887   1.040   2.510   4.116
 1330SOL     OW 4888   6.027   2.780   2.261
 1330SOL    HW1 4889   6.077   2.752   2.343
 1330SOL    HW2 4890   6.078   2.852   2.214
 1331SOL     OW 4891   4.523   1.776   3.892
 1331SOL    HW1 4892   4.517   1.875   3.879
 1331SOL    HW2 4893   4.620   1.749   3.899
 1332SOL     OW 4894   2.083   5.873   6.898
 1332SOL    HW1 4895   2.023   5.946   6.868
 1332SOL    HW2 4896   2.054   5.841   6.989
 1333SOL     OW 4897   3.027   3.831   2.890
 1333SOL    HW1 4898   3.089   3.899   2.851
 1333SOL    HW2 4899   3.006   3.855   2.985
 1334SOL     OW 4900   6.644   3.198   1.767
 1334SOL    HW1 4901   6.626   3.099   1.762
 1334SOL    HW2 4902   6.666   3.222   1.862
 1335SOL     OW 4903   1.025   4.049   2.922
 1335SOL    HW1 4904   1.040   4.024   2.826
 1335SOL    HW2 4905   0.929   4.075   2.935
 1336SOL     OW 4906   2.161   0.280   5.733
 1336SOL    HW1 4907   2.122   0.369   5.709
 1336SOL    HW2 4908   2.261   0.285   5.724
 1337SOL     OW 4909   6.759   0.610   3.053
 1337SOL    HW1 4910   6.741   0.615   3.151
 1337SOL    HW2 4911   6.846   0.655   3.032
 1338SOL     OW 4912   6.680   4.243   4.924
 1338SOL    HW1 4913   6.625   4.189   4.861
 1338SOL    HW2 4914   6.695   4.334   4.885
 1339SOL     OW 4915   6.959   0.176   0.104
 1339SOL    HW1 4916   6.976   0.260   0.156
 1339SOL    HW2 4917   6.962   0.196   0.006
 1340SOL     OW 4918   4.134   2.921   1.286
 1340SOL    HW1 4919   4.158   2.838   1.337
 1340SOL    HW2 4920   4.179   3.000   1.327
 1341SOL     OW 4921   5.031   5.856   0.074
 1341SOL    HW1 4922   5.073   5.774   0.033
 1341SOL    HW2 4923   5.027   5.845   0.173
 1342SOL     OW 4924   2.015   6.274   1.782
 1342SOL    HW1 4925   1.920   6.264   1.811
 1342SOL    HW2 4926   2.046   6.367   1.801
 1343SOL     OW 4927   6.275   6.059   3.372
 1343SOL    HW1 4928   6.204   6.039   3.304
 1343SOL    HW2 4929   6.270   5.992   3.446
 1344SOL     OW 4930   0.606   0.779   4.610
 1344SOL    HW1 4931   0.680   0.846   4.596
 1344SOL    HW2 4932   0.643   0.700   4.660
 1345SOL     OW 4933   0.432   6.459   0.257
 1345SOL    HW1 4934   0.483   6.533   0.214
 1345SOL    HW2 4935   0.356   6.497   0.310
 1346SOL     OW 4936   3.084   4.906   4.900
 1346SOL    HW1 4937   3.061   4.857   4.984
 1346SOL    HW2 4938   3.096   5.003   4.921
 1347SOL     OW 4939   1.255   6.842   6.483
 1347SOL    HW1 4940   1.255   6.936   6.517
 1347SOL    HW2 4941   1.187   6.833   6.410
 1348SOL     OW 4942   0.666   6.333   5.265
 1348SOL    HW1 4943   0.613   6.391   5.328
 1348SOL    HW2 4944   0.658   6.238   5.294
 1349SOL     OW 4945   4.821   2.807   3.813
 1349SOL    HW1 4946   4.892   2.736   3.817
 1349SOL    HW2 4947   4.859   2.893   3.847
 1350SOL     OW 4948   4.288   4.189   6.689
 1350SOL    HW1 4949   4.373   4.243   6.679
 1350SOL    HW2 4950   4.211   4.242   6.653
 1351SOL     OW 4951   0.516   2.817   5.534
 1351SOL    HW1 4952   0.509   2.822   5.633
 1351SOL    HW2 4953   0.474   2.732   5.502
 1352SOL     OW 4954   6.935   0.280   2.172
 1352SOL    HW1 4955   0.006   0.233   2.190
 1352SOL    HW2 4956   6.929   0.363   2.228
 1353SOL     OW 4957   0.982   0.949   0.327
 1353SOL    HW1 4958   0.996   0.980   0.233
 1353SOL    HW2 4959   1.002   0.851   0.333
 1354SOL     OW 4960   4.674   5.109   2.930
 1354SOL    HW1 4961   4.767   5.123   2.897
 1354SOL    HW2 4962   4.674   5.099   3.029
 1355SOL     OW 4963   5.539   2.981   5.816
 1355SOL    HW1 4964   5.450   2.939   5.833
 1355SOL    HW2 4965   5.611   2.924   5.855
 1356SOL     OW 4966   2.623   3.027   0.170
 1356SOL    HW1 4967   2.689   3.081   0.118
 1356SOL    HW2 4968   2.537   3.078   0.177
 1357SOL     OW 4969   1.293   3.352   5.563
 1357SOL    HW1 4970   1.278   3.336   5.465
 1357SOL    HW2 4971   1.376   3.407   5.575
 1358SOL     OW 4972   2.612   6.746   0.465
 1358SOL    HW1 4973   2.628   6.816   0.396
 1358SOL    HW2 4974   2.694   6.737   0.523
 1359SOL     OW 4975   6.424   4.559   1.415
 1359SOL    HW1 4976   6.515   4.564   1.374
 1359SOL    HW2 4977   6.365   4.501   1.359
 1360SOL     OW 4978   1.914   2.618   0.027
 1360SOL    HW1 4979   1.833   2.612   0.085
 1360SOL    HW2 4980   1.980   2.682   0.067
 1361SOL     OW 4981   0.015   4.508   4.940
 1361SOL    HW1 4982   0.028   4.462   4.852
 1361SOL    HW2 4983   0.097   4.560   4.963
 1362SOL     OW 4984   3.390   2.889   2.999
 1362SOL    HW1 4985   3.358   2.924   3.087
 1362SOL    HW2 4986   3.490   2.888   2.998
 1363SOL     OW 4987   1.159   6.173   4.329
 1363SOL    HW1 4988   1.117   6.083   4.344
 1363SOL    HW2 4989   1.250   6.160   4.290
 1364SOL     OW 4990   4.603   4.136   0.905
 1364SOL    HW1 4991   4.669   4.128   0.830
 1364SOL    HW2 4992   4.516   4.095   0.877
 1365SOL     OW 4993   6.571   3.127   6.699
 1365SOL    HW1 4994   6.529   3.141   6.789
 1365SOL    HW2 4995   6.500   3.109   6.631
 1366SOL     OW 4996   2.744   6.788   5.175
 1366SOL    HW1 4997   2.702   6.765   5.088
 1366SOL    HW2 4998   2.783   6.880   5.170
 1367SOL     OW 4999   2.539   1.185   1.839
 1367SOL    HW1 5000   2.480   1.215   1.764
 1367SOL    HW2 5001   2.483   1.162   1.919
 1368SOL     OW 5002   5.646   6.740   3.596
 1368SOL    HW1 5003   5.615   6.699   3.682
 1368SOL    HW2 5004   5.571   6.738   3.529
 1369SOL     OW 5005   0.983   0.910   2.723
 1369SOL    HW1 5006   1.007   0.814   2.705
 1369SOL    HW2 5007   0.950   0.953   2.639
 1370SOL     OW 5008   1.997   0.402   1.481
 1370SOL    HW1 5009   2.021   0.340   1.557
 1370SOL    HW2 5010   1.911   0.448   1.501
 1371SOL     OW 5011   4.204   0.104   6.712
 1371SOL    HW1 5012   4.277   0.139   6.771
 1371SOL    HW2 5013   4.220   0.134   6.618
 1372SOL     OW 5014   3.079   2.107   2.050
 1372SOL    HW1 5015   3.161   2.118   1.994
 1372SOL    HW2 5016   3.038   2.196   2.068
 1373SOL     OW 5017   1.045   5.918   0.605
 1373SOL    HW1 5018   0.998   5.987   0.549
 1373SOL    HW2 5019   1.051   5.832   0.554
 1374SOL     OW 5020   4.995   3.615   0.425
 1374SOL    HW1 5021   5.006   3.597   0.523
 1374SOL    HW2 5022   4.899   3.599   0.399
 1375SOL     OW 5023   0.653   4.302   5.217
 1375SOL    HW1 5024   0.557   4.295   5.244
 1375SOL    HW2 5025   0.660   4.312   5.118
 1376SOL     OW 5026   4.073   1.664   2.642
 1376SOL    HW1 5027   4.133   1.583   2.643
 1376SOL    HW2 5028   3.981   1.637   2.614
 1377SOL     OW 5029   1.045   5.030   4.814
 1377SOL    HW1 5030   1.144   5.013   4.810
 1377SOL    HW2 5031   1.003   4.998   4.729
 1378SOL     OW 5032   1.744   2.788   6.587
 1378SOL    HW1 5033   1.819   2.761   6.648
 1378SOL    HW2 5034   1.767   2.876   6.544
 1379SOL     OW 5035   4.363   5.983   1.421
 1379SOL    HW1 5036   4.432   5.981   1.493
 1379SOL    HW2 5037   4.358   6.074   1.380
 1380SOL     OW 5038   6.403   6.396   2.862
 1380SOL    HW1 5039   6.325   6.455   2.841
 1380SOL    HW2 5040   6.486   6.434   2.821
 1381SOL     OW 5041   6.001   0.381   1.159
 1381SOL    HW1 5042   5.999   0.298   1.214
 1381SOL    HW2 5043   6.030   0.458   1.216
 1382SOL     OW 5044   6.868   5.162   6.444
 1382SOL    HW1 5045   6.851   5.258   6.420
 1382SOL    HW2 5046   6.946   5.128   6.391
 1383SOL     OW 5047   2.919   0.542   0.221
 1383SOL    HW1 5048   2.861   0.621   0.200
 1383SOL    HW2 5049   2.912   0.475   0.147
 1384SOL     OW 5050   2.470   2.260   2.273
 1384SOL    HW1 5051   2.499   2.303   2.188
 1384SOL    HW2 5052   2.474   2.327   2.347
 1385SOL     OW 5053   5.886   2.927   3.834
 1385SOL    HW1 5054   5.922   2.857   3.773
 1385SOL    HW2 5055   5.809   2.890   3.886
 1386SOL     OW 5056   2.115   2.426   3.756
 1386SOL    HW1 5057   2.018   2.449   3.750
 1386SOL    HW2 5058   2.169   2.510   3.745
 1387SOL     OW 5059   2.408   0.801   4.546
 1387SOL    HW1 5060   2.419   0.872   4.615
 1387SOL    HW2 5061   2.436   0.837   4.457
 1388SOL     OW 5062   6.442   1.157   4.703
 1388SOL    HW1 5063   6.422   1.188   4.610
 1388SOL    HW2 5064   6.529   1.194   4.733
 1389SOL     OW 5065   6.503   0.836   4.134
 1389SOL    HW1 5066   6.498   0.753   4.078
 1389SOL    HW2 5067   6.483   0.916   4.078
 1390SOL     OW 5068   4.467   2.366   2.298
 1390SOL    HW1 5069   4.422   2.329   2.380
 1390SOL    HW2 5070   4.546   2.420   2.325
 1391SOL     OW 5071   5.846   1.396   4.818
 1391SOL    HW1 5072   5.801   1.342   4.747
 1391SOL    HW2 5073   5.894   1.474   4.776
 1392SOL     OW 5074   4.574   6.076   5.474
 1392SOL    HW1 5075   4.673   6.079   5.465
 1392SOL    HW2 5076   4.540   6.166   5.502
 1393SOL     OW 5077   5.196   0.262   6.909
 1393SOL    HW1 5078   5.263   0.225   6.845
 1393SOL    HW2 5079   5.182   0.196   6.984
 1394SOL     OW 5080   4.408   0.505   3.750
 1394SOL    HW1 5081   4.390   0.546   3.839
 1394SOL    HW2 5082   4.328   0.451   3.721
 1395SOL     OW 5083   0.959   5.446   2.390
 1395SOL    HW1 5084   1.018   5.458   2.310
 1395SOL    HW2 5085   1.007   5.476   2.472
 1396SOL     OW 5086   1.213   1.289   3.878
 1396SOL    HW1 5087   1.169   1.202   3.856
 1396SOL    HW2 5088   1.146   1.363   3.869
 1397SOL     OW 5089   0.638   5.077   5.027
 1397SOL    HW1 5090   0.610   5.134   4.949
 1397SOL    HW2 5091   0.568   5.081   5.098
 1398SOL     OW 5092   1.757   6.696   6.601
 1398SOL    HW1 5093   1.855   6.710   6.619
 1398SOL    HW2 5094   1.718   6.637   6.672
 1399SOL     OW 5095   3.950   7.000   6.567
 1399SOL    HW1 5096   3.913   0.070   6.533
 1399SOL    HW2 5097   4.022   0.003   6.634
 1400SOL     OW 5098   0.054   1.455   5.206
 1400SOL    HW1 5099   7.003   1.482   5.276
 1400SOL    HW2 5100   0.107   1.535   5.178
 1401SOL     OW 5101   5.276   0.461   2.561
 1401SOL    HW1 5102   5.289   0.471   2.659
 1401SOL    HW2 5103   5.354   0.502   2.513
 1402SOL     OW 5104   6.929   4.798   1.933
 1402SOL    HW1 5105   6.891   4.760   1.849
 1402SOL    HW2 5106   0.013   4.786   1.933
 1403SOL     OW 5107   3.216   3.294   6.202
 1403SOL    HW1 5108   3.315   3.307   6.215
 1403SOL    HW2 5109   3.179   3.372   6.152
 1404SOL     OW 5110   4.420   6.547   1.172
 1404SOL    HW1 5111   4.390   6.619   1.109
 1404SOL    HW2 5112   4.519   6.540   1.170
 1405SOL     OW 5113   0.928   3.825   0.545
 1405SOL    HW1 5114   0.853   3.881   0.582
 1405SOL    HW2 5115   0.904   3.728   0.553
 1406SOL     OW 5116   2.076   2.830   0.108
 1406SOL    HW1 5117   2.058   2.920   0.068
 1406SOL    HW2 5118   2.172   2.807   0.096
 1407SOL     OW 5119   0.709   2.700   1.034
 1407SOL    HW1 5120   0.618   2.733   1.010
 1407SOL    HW2 5121   0.704   2.603   1.059
 1408SOL     OW 5122   5.382   6.515   0.911
 1408SOL    HW1 5123   5.385   6.425   0.867
 1408SOL    HW2 5124   5.464   6.527   0.967
 1409SOL     OW 5125   6.614   1.615   5.467
 1409SOL    HW1 5126   6.601   1.706   5.426
 1409SOL    HW2 5127   6.673   1.561   5.408
 1410SOL     OW 5128   3.294   0.222   0.002
 1410SOL    HW1 5129   3.322   0.240   0.096
 1410SOL    HW2 5130   3.346   0.144   6.982
 1411SOL     OW 5131   3.602   5.010   6.656
 1411SOL    HW1 5132   3.573   5.080   6.592
 1411SOL    HW2 5133   3.538   4.934   6.654
 1412SOL     OW 5134   2.355   1.869   0.348
 1412SOL    HW1 5135   2.315   1.785   0.310
 1412SOL    HW2 5136   2.431   1.844   0.409
 1413SOL     OW 5137   2.166   1.721   5.287
 1413SOL    HW1 5138   2.238   1.789   5.302
 1413SOL    HW2 5139   2.100   1.756   5.220
 1414SOL     OW 5140   0.916   5.062   1.852
 1414SOL    HW1 5141   0.869   4.992   1.799
 1414SOL    HW2 5142   0.992   5.099   1.798
 1415SOL     OW 5143   3.171   1.790   4.996
 1415SOL    HW1 5144   3.145   1.696   5.018
 1415SOL    HW2 5145   3.257   1.790   4.945
 1416SOL     OW 5146   4.074   0.503   4.806
 1416SOL    HW1 5147   4.005   0.568   4.837
 1416SOL    HW2 5148   4.158   0.517   4.858
 1417SOL     OW 5149   3.268   3.530   4.370
 1417SOL    HW1 5150   3.279   3.521   4.271
 1417SOL    HW2 5151   3.171   3.539   4.392
 1418SOL     OW 5152   3.526   3.622   5.971
 1418SOL    HW1 5153   3.430   3.639   5.993
 1418SOL    HW2 5154   3.551   3.672   5.888
 1419SOL     OW 5155   1.245   6.159   2.277
 1419SOL    HW1 5156   1.308   6.122   2.345
 1419SOL    HW2 5157   1.210   6.085   2.220
 1420SOL     OW 5158   2.955   6.023   2.829
 1420SOL    HW1 5159   2.974   6.013   2.926
 1420SOL    HW2 5160   3.024   6.083   2.787
 1421SOL     OW 5161   2.111   5.309   6.512
 1421SOL    HW1 5162   2.178   5.238   6.531
 1421SOL    HW2 5163   2.142   5.395   6.551
 1422SOL     OW 5164   1.702   3.491   6.398
 1422SOL    HW1 5165   1.621   3.550   6.395
 1422SOL    HW2 5166   1.691   3.422   6.469
 1423SOL     OW 5167   3.637   0.540   5.095
 1423SOL    HW1 5168   3.575   0.618   5.086
 1423SOL    HW2 5169   3.674   0.537   5.188
 1424SOL     OW 5170   6.543   2.502   0.936
 1424SOL    HW1 5171   6.635   2.464   0.944
 1424SOL    HW2 5172   6.515   2.502   0.840
 1425SOL     OW 5173   5.362   0.004   3.866
 1425SOL    HW1 5174   5.319   6.940   3.824
 1425SOL    HW2 5175   5.292   0.071   3.892
 1426SOL     OW 5176   4.619   0.243   0.139
 1426SOL    HW1 5177   4.589   0.337   0.151
 1426SOL    HW2 5178   4.700   0.241   0.081
 1427SOL     OW 5179   1.038   0.533   4.144
 1427SOL    HW1 5180   1.034   0.436   4.121
 1427SOL    HW2 5181   1.026   0.544   4.243
 1428SOL     OW 5182   1.960   3.815   3.887
 1428SOL    HW1 5183   1.936   3.728   3.929
 1428SOL    HW2 5184   1.918   3.890   3.938
 1429SOL     OW 5185   6.141   0.542   1.973
 1429SOL    HW1 5186   6.111   0.455   1.933
 1429SOL    HW2 5187   6.214   0.524   2.039
 1430SOL     OW 5188   2.244   4.053   4.109
 1430SOL    HW1 5189   2.289   4.027   4.023
 1430SOL    HW2 5190   2.308   4.104   4.166
 1431SOL     OW 5191   3.521   1.440   0.193
 1431SOL    HW1 5192   3.607   1.428   0.243
 1431SOL    HW2 5193   3.507   1.363   0.131
 1432SOL     OW 5194   4.117   0.054   2.642
 1432SOL    HW1 5195   4.206   0.043   2.685
 1432SOL    HW2 5196   4.047   0.070   2.712
 1433SOL     OW 5197   3.109   1.106   3.604
 1433SOL    HW1 5198   3.198   1.119   3.649
 1433SOL    HW2 5199   3.116   1.031   3.538
 1434SOL     OW 5200   5.503   4.240   0.444
 1434SOL    HW1 5201   5.560   4.202   0.517
 1434SOL    HW2 5202   5.485   4.336   0.463
 1435SOL     OW 5203   0.917   0.087   4.591
 1435SOL    HW1 5204   0.864   0.042   4.519
 1435SOL    HW2 5205   0.932   0.023   4.666
 1436SOL     OW 5206   5.635   1.062   0.280
 1436SOL    HW1 5207   5.669   0.971   0.254
 1436SOL    HW2 5208   5.581   1.055   0.364
 1437SOL     OW 5209   3.961   0.961   0.515
 1437SOL    HW1 5210   3.883   1.018   0.486
 1437SOL    HW2 5211   3.943   0.923   0.605
 1438SOL     OW 5212   2.119   0.065   2.442
 1438SOL    HW1 5213   2.128   0.012   2.527
 1438SOL    HW2 5214   2.031   0.113   2.442
 1439SOL     OW 5215   0.554   5.411   6.586
 1439SOL    HW1 5216   0.579   5.397   6.682
 1439SOL    HW2 5217   0.608   5.487   6.549
 1440SOL     OW 5218   4.067   3.253   2.557
 1440SOL    HW1 5219   3.978   3.216   2.531
 1440SOL    HW2 5220   4.113   3.290   2.476
 1441SOL     OW 5221   6.076   2.078   5.687
 1441SOL    HW1 5222   6.055   2.130   5.604
 1441SOL    HW2 5223   6.061   1.981   5.670
 1442SOL     OW 5224   5.495   6.447   0.333
 1442SOL    HW1 5225   5.511   6.386   0.256
 1442SOL    HW2 5226   5.579   6.455   0.387
 1443SOL     OW 5227   1.384   2.751   3.279
 1443SOL    HW1 5228   1.294   2.737   3.321
 1443SOL    HW2 5229   1.427   2.663   3.261
 1444SOL     OW 5230   5.355   6.777   5.031
 1444SOL    HW1 5231   5.391   6.800   5.122
 1444SOL    HW2 5232   5.400   6.834   4.963
 1445SOL     OW 5233   6.600   1.580   0.495
 1445SOL    HW1 5234   6.546   1.507   0.453
 1445SOL    HW2 5235   6.539   1.644   0.541
 1446SOL     OW 5236   3.820   6.377   1.363
 1446SOL    HW1 5237   3.863   6.461   1.395
 1446SOL    HW2 5238   3.733   6.397   1.319
 1447SOL     OW 5239   6.410   1.593   5.069
 1447SOL    HW1 5240   6.375   1.684   5.090
 1447SOL    HW2 5241   6.445   1.550   5.152
 1448SOL     OW 5242   5.608   0.897   6.816
 1448SOL    HW1 5243   5.702   0.912   6.784
 1448SOL    HW2 5244   5.596   0.799   6.835
 1449SOL     OW 5245   4.748   5.488   1.052
 1449SOL    HW1 5246   4.719   5.564   1.109
 1449SOL    HW2 5247   4.802   5.523   0.975
 1450SOL     OW 5248   6.258   2.106   3.488
 1450SOL    HW1 5249   6.173   2.143   3.526
 1450SOL    HW2 5250   6.307   2.054   3.559
 1451SOL     OW 5251   1.785   6.122   1.635
 1451SOL    HW1 5252   1.781   6.181   1.716
 1451SOL    HW2 5253   1.832   6.037   1.659
 1452SOL     OW 5254   3.372   0.413   5.276
 1452SOL    HW1 5255   3.388   0.374   5.185
 1452SOL    HW2 5256   3.336   0.506   5.267
 1453SOL     OW 5257   4.520   4.470   4.556
 1453SOL    HW1 5258   4.431   4.426   4.567
 1453SOL    HW2 5259   4.536   4.488   4.459
 1454SOL     OW 5260   4.817   4.285   0.707
 1454SOL    HW1 5261   4.760   4.367   0.703
 1454SOL    HW2 5262   4.819   4.241   0.617
 1455SOL     OW 5263   1.996   2.005   1.896
 1455SOL    HW1 5264   2.047   2.018   1.811
 1455SOL    HW2 5265   1.963   1.911   1.901
 1456SOL     OW 5266   5.936   5.358   4.744
 1456SOL    HW1 5267   5.889   5.347   4.656
 1456SOL    HW2 5268   5.951   5.268   4.785
 1457SOL     OW 5269   2.223   0.089   3.694
 1457SOL    HW1 5270   2.146   0.149   3.714
 1457SOL    HW2 5271   2.309   0.136   3.717
 1458SOL     OW 5272   6.905   5.421   0.502
 1458SOL    HW1 5273   6.856   5.427   0.416
 1458SOL    HW2 5274   6.952   5.507   0.521
 1459SOL     OW 5275   2.334   0.000   1.242
 1459SOL    HW1 5276   2.389   6.954   1.299
 1459SOL    HW2 5277   2.281   0.061   1.301
 1460SOL     OW 5278   0.878   6.460   6.916
 1460SOL    HW1 5279   0.853   6.550   6.951
 1460SOL    HW2 5280   0.961   6.467   6.861
 1461SOL     OW 5281   5.121   5.258   2.567
 1461SOL    HW1 5282   5.073   5.319   2.630
 1461SOL    HW2 5283   5.219   5.263   2.583
 1462SOL     OW 5284   5.115   0.363   5.174
 1462SOL    HW1 5285   5.076   0.349   5.265
 1462SOL    HW2 5286   5.061   0.432   5.125
 1463SOL     OW 5287   0.728   2.178   6.242
 1463SOL    HW1 5288   0.643   2.211   6.284
 1463SOL    HW2 5289   0.789   2.256   6.226
 1464SOL     OW 5290   0.699   0.927   1.501
 1464SOL    HW1 5291   0.620   0.882   1.542
 1464SOL    HW2 5292   0.769   0.940   1.572
 1465SOL     OW 5293   0.508   0.639   4.147
 1465SOL    HW1 5294   0.590   0.676   4.189
 1465SOL    HW2 5295   0.460   0.580   4.212
 1466SOL     OW 5296   5.403   5.302   4.519
 1466SOL    HW1 5297   5.338   5.229   4.540
 1466SOL    HW2 5298   5.408   5.314   4.420
 1467SOL     OW 5299   5.882   3.481   3.718
 1467SOL    HW1 5300   5.926   3.556   3.767
 1467SOL    HW2 5301   5.883   3.399   3.776
 1468SOL     OW 5302   5.240   0.090   2.252
 1468SOL    HW1 5303   5.331   0.103   2.213
 1468SOL    HW2 5304   5.173   0.139   2.196
 1469SOL     OW 5305   0.973   1.088   2.139
 1469SOL    HW1 5306   0.959   1.050   2.048
 1469SOL    HW2 5307   1.064   1.130   2.145
 1470SOL     OW 5308   6.686   0.625   3.321
 1470SOL    HW1 5309   6.604   0.568   3.327
 1470SOL    HW2 5310   6.732   0.628   3.410
 1471SOL     OW 5311   6.288   0.606   1.174
 1471SOL    HW1 5312   6.193   0.576   1.175
 1471SOL    HW2 5313   6.342   0.548   1.234
 1472SOL     OW 5314   4.775   5.403   4.749
 1472SOL    HW1 5315   4.816   5.492   4.727
 1472SOL    HW2 5316   4.709   5.378   4.679
 1473SOL     OW 5317   6.044   3.946   3.293
 1473SOL    HW1 5318   6.019   3.851   3.310
 1473SOL    HW2 5319   6.065   3.991   3.380
 1474SOL     OW 5320   4.895   5.495   3.374
 1474SOL    HW1 5321   4.878   5.486   3.276
 1474SOL    HW2 5322   4.824   5.552   3.414
 1475SOL     OW 5323   6.350   0.515   3.720
 1475SOL    HW1 5324   6.331   0.540   3.625
 1475SOL    HW2 5325   6.270   0.469   3.759
 1476SOL     OW 5326   6.794   2.408   1.053
 1476SOL    HW1 5327   6.763   2.314   1.070
 1476SOL    HW2 5328   6.885   2.420   1.094
 1477SOL     OW 5329   2.172   6.398   3.542
 1477SOL    HW1 5330   2.078   6.367   3.532
 1477SOL    HW2 5331   2.225   6.330   3.592
 1478SOL     OW 5332   6.996   4.038   1.699
 1478SOL    HW1 5333   7.006   3.982   1.781
 1478SOL    HW2 5334   0.024   3.992   1.621
 1479SOL     OW 5335   1.267   5.032   0.749
 1479SOL    HW1 5336   1.254   4.943   0.705
 1479SOL    HW2 5337   1.273   5.020   0.848
 1480SOL     OW 5338   2.678   0.905   0.283
 1480SOL    HW1 5339   2.727   0.829   0.324
 1480SOL    HW2 5340   2.739   0.954   0.220
 1481SOL     OW 5341   0.254   2.814   6.177
 1481SOL    HW1 5342   0.167   2.862   6.179
 1481SOL    HW2 5343   0.284   2.795   6.271
 1482SOL     OW 5344   5.409   0.512   6.404
 1482SOL    HW1 5345   5.398   0.470   6.495
 1482SOL    HW2 5346   5.392   0.610   6.411
 1483SOL     OW 5347   6.637   2.172   6.488
 1483SOL    HW1 5348   6.702   2.097   6.502
 1483SOL    HW2 5349   6.570   2.145   6.420
 1484SOL     OW 5350   6.230   6.960   3.615
 1484SOL    HW1 5351   6.201   6.936   3.707
 1484SOL    HW2 5352   6.233   0.044   3.606
 1485SOL     OW 5353   5.953   2.974   4.144
 1485SOL    HW1 5354   5.910   3.039   4.206
 1485SOL    HW2 5355   5.952   3.011   4.051
 1486SOL     OW 5356   5.419   2.076   1.980
 1486SOL    HW1 5357   5.453   2.153   2.034
 1486SOL    HW2 5358   5.332   2.045   2.018
 1487SOL     OW 5359   6.771   1.154   5.830
 1487SOL    HW1 5360   6.704   1.203   5.887
 1487SOL    HW2 5361   6.808   1.077   5.882
 1488SOL     OW 5362   5.241   2.058   3.805
 1488SOL    HW1 5363   5.238   2.001   3.887
 1488SOL    HW2 5364   5.255   2.001   3.724
 1489SOL     OW 5365   3.871   5.511   4.142
 1489SOL    HW1 5366   3.919   5.598   4.146
 1489SOL    HW2 5367   3.928   5.443   4.097
 1490SOL     OW 5368   2.434   2.633   1.463
 1490SOL    HW1 5369   2.375   2.688   1.522
 1490SOL    HW2 5370   2.513   2.601   1.516
 1491SOL     OW 5371   6.938   2.661   5.590
 1491SOL    HW1 5372   6.909   2.623   5.678
 1491SOL    HW2 5373   6.861   2.658   5.526
 1492SOL     OW 5374   5.592   2.637   1.711
 1492SOL    HW1 5375   5.543   2.630   1.624
 1492SOL    HW2 5376   5.690   2.637   1.694
 1493SOL     OW 5377   6.021   1.626   5.298
 1493SOL    HW1 5378   5.980   1.667   5.218
 1493SOL    HW2 5379   5.958   1.632   5.375
 1494SOL     OW 5380   5.564   1.479   4.685
 1494SOL    HW1 5381   5.504   1.399   4.673
 1494SOL    HW2 5382   5.630   1.482   4.610
 1495SOL     OW 5383   1.060   3.782   2.745
 1495SOL    HW1 5384   1.119   3.799   2.824
 1495SOL    HW2 5385   1.085   3.694   2.704
 1496SOL     OW 5386   1.100   1.174   2.505
 1496SOL    HW1 5387   1.198   1.155   2.507
 1496SOL    HW2 5388   1.050   1.092   2.479
 1497SOL     OW 5389   5.243   4.850   5.510
 1497SOL    HW1 5390   5.336   4.882   5.493
 1497SOL    HW2 5391   5.178   4.907   5.460
 1498SOL     OW 5392   2.364   5.288   0.241
 1498SOL    HW1 5393   2.307   5.225   0.295
 1498SOL    HW2 5394   2.349   5.271   0.144
 1499SOL     OW 5395   0.796   4.104   4.435
 1499SOL    HW1 5396   0.871   4.054   4.479
 1499SOL    HW2 5397   0.791   4.079   4.338
 1500SOL     OW 5398   4.510   6.738   5.193
 1500SOL    HW1 5399   4.456   6.814   5.156
 1500SOL    HW2 5400   4.454   6.655   5.194
 1501SOL     OW 5401   4.188   0.215   0.068
 1501SOL    HW1 5402   4.275   0.231   0.022
 1501SOL    HW2 5403   4.195   0.246   0.163
 1502SOL     OW 5404   6.792   6.193   6.837
 1502SOL    HW1 5405   6.863   6.133   6.800
 1502SOL    HW2 5406   6.835   6.265   6.892
 1503SOL     OW 5407   3.278   4.295   5.388
 1503SOL    HW1 5408   3.373   4.264   5.389
 1503SOL    HW2 5409   3.236   4.271   5.301
 1504SOL     OW 5410   2.759   6.612   4.331
 1504SOL    HW1 5411   2.806   6.665   4.261
 1504SOL    HW2 5412   2.705   6.539   4.288
 1505SOL     OW 5413   4.638   6.813   2.197
 1505SOL    HW1 5414   4.546   6.817   2.158
 1505SOL    HW2 5415   4.705   6.803   2.123
 1506SOL     OW 5416   0.692   6.689   3.125
 1506SOL    HW1 5417   0.627   6.673   3.051
 1506SOL    HW2 5418   0.785   6.673   3.091
 1507SOL     OW 5419   2.694   2.159   6.808
 1507SOL    HW1 5420   2.704   2.141   6.710
 1507SOL    HW2 5421   2.756   2.233   6.834
 1508SOL     OW 5422   4.845   6.835   1.128
 1508SOL    HW1 5423   4.899   6.823   1.044
 1508SOL    HW2 5424   4.752   6.863   1.103
 1509SOL     OW 5425   5.472   1.568   6.755
 1509SOL    HW1 5426   5.378   1.601   6.742
 1509SOL    HW2 5427   5.520   1.570   6.667
 1510SOL     OW 5428   0.035   2.095   3.070
 1510SOL    HW1 5429   0.069   2.012   3.025
 1510SOL    HW2 5430   0.006   2.074   3.163
 1511SOL     OW 5431   0.984   2.890   0.461
 1511SOL    HW1 5432   1.018   2.807   0.507
 1511SOL    HW2 5433   1.056   2.928   0.404
 1512SOL     OW 5434   6.365   0.750   2.039
 1512SOL    HW1 5435   6.281   0.796   2.010
 1512SOL    HW2 5436   6.400   0.794   2.122
 1513SOL     OW 5437   3.300   0.714   2.534
 1513SOL    HW1 5438   3.234   0.788   2.549
 1513SOL    HW2 5439   3.390   0.742   2.567
 1514SOL     OW 5440   4.678   0.785   5.970
 1514SOL    HW1 5441   4.752   0.825   5.916
 1514SOL    HW2 5442   4.601   0.849   5.974
 1515SOL     OW 5443   5.788   5.326   5.115
 1515SOL    HW1 5444   5.774   5.415   5.159
 1515SOL    HW2 5445   5.879   5.324   5.074
 1516SOL     OW 5446   0.981   0.955   0.655
 1516SOL    HW1 5447   0.920   1.032   0.670
 1516SOL    HW2 5448   0.952   0.904   0.574
 1517SOL     OW 5449   3.355   5.410   3.530
 1517SOL    HW1 5450   3.377   5.315   3.508
 1517SOL    HW2 5451   3.285   5.413   3.602
 1518SOL     OW 5452   0.690   4.508   1.034
 1518SOL    HW1 5453   0.636   4.511   0.950
 1518SOL    HW2 5454   0.631   4.525   1.112
 1519SOL     OW 5455   0.004   4.007   1.068
 1519SOL    HW1 5456   0.010   4.074   1.141
 1519SOL    HW2 5457   0.094   3.998   1.024
 1520SOL     OW 5458   1.172   2.494   3.102
 1520SOL    HW1 5459   1.143   2.404   3.070
 1520SOL    HW2 5460   1.105   2.563   3.073
 1521SOL     OW 5461   2.295   4.144   5.299
 1521SOL    HW1 5462   2.300   4.086   5.218
 1521SOL    HW2 5463   2.370   4.210   5.299
 1522SOL     OW 5464   1.285   2.616   6.443
 1522SOL    HW1 5465   1.295   2.634   6.345
 1522SOL    HW2 5466   1.281   2.517   6.458
 1523SOL     OW 5467   6.025   1.150   1.216
 1523SOL    HW1 5468   6.027   1.150   1.316
 1523SOL    HW2 5469   5.946   1.203   1.185
 1524SOL     OW 5470   6.114   0.525   2.522
 1524SOL    HW1 5471   6.149   0.588   2.453
 1524SOL    HW2 5472   6.077   0.443   2.478
 1525SOL     OW 5473   4.427   1.112   6.091
 1525SOL    HW1 5474   4.431   1.025   6.141
 1525SOL    HW2 5475   4.447   1.096   5.995
 1526SOL     OW 5476   6.676   1.180   6.949
 1526SOL    HW1 5477   6.657   1.176   6.851
 1526SOL    HW2 5478   6.590   1.178   6.999
 1527SOL     OW 5479   2.744   1.428   5.793
 1527SOL    HW1 5480   2.838   1.435   5.827
 1527SOL    HW2 5481   2.691   1.368   5.852
 1528SOL     OW 5482   5.538   5.676   4.180
 1528SOL    HW1 5483   5.483   5.758   4.192
 1528SOL    HW2 5484   5.479   5.597   4.166
 1529SOL     OW 5485   2.386   0.681   5.268
 1529SOL    HW1 5486   2.423   0.690   5.360
 1529SOL    HW2 5487   2.457   0.647   5.206
 1530SOL     OW 5488   2.905   6.815   1.707
 1530SOL    HW1 5489   2.964   6.805   1.787
 1530SOL    HW2 5490   2.825   6.755   1.717
 1531SOL     OW 5491   5.640   0.451   6.248
 1531SOL    HW1 5492   5.699   0.531   6.261
 1531SOL    HW2 5493   5.554   0.465   6.296
 1532SOL     OW 5494   3.266   2.598   5.410
 1532SOL    HW1 5495   3.265   2.539   5.329
 1532SOL    HW2 5496   3.259   2.542   5.492
 1533SOL     OW 5497   5.157   2.751   6.792
 1533SOL    HW1 5498   5.233   2.781   6.849
 1533SOL    HW2 5499   5.071   2.780   6.833
 1534SOL     OW 5500   6.409   6.958   2.304
 1534SOL    HW1 5501   6.430   0.040   2.293
 1534SOL    HW2 5502   6.436   6.910   2.221
 1535SOL     OW 5503   4.990   4.148   4.518
 1535SOL    HW1 5504   4.894   4.176   4.510
 1535SOL    HW2 5505   5.043   4.191   4.444
 1536SOL     OW 5506   3.074   5.584   3.257
 1536SOL    HW1 5507   3.070   5.490   3.225
 1536SOL    HW2 5508   3.030   5.591   3.347
 1537SOL     OW 5509   2.794   5.558   4.670
 1537SOL    HW1 5510   2.788   5.576   4.572
 1537SOL    HW2 5511   2.796   5.459   4.686
 1538SOL     OW 5512   3.461   5.020   6.205
 1538SOL    HW1 5513   3.554   5.031   6.170
 1538SOL    HW2 5514   3.459   4.946   6.273
 1539SOL     OW 5515   3.893   6.130   2.211
 1539SOL    HW1 5516   3.951   6.197   2.256
 1539SOL    HW2 5517   3.804   6.171   2.190
 1540SOL     OW 5518   5.923   0.402   5.084
 1540SOL    HW1 5519   5.929   0.406   5.184
 1540SOL    HW2 5520   5.865   0.325   5.057
 1541SOL     OW 5521   5.079   1.153   1.236
 1541SOL    HW1 5522   5.030   1.226   1.188
 1541SOL    HW2 5523   5.135   1.192   1.309
 1542SOL     OW 5524   0.894   5.786   0.808
 1542SOL    HW1 5525   0.945   5.837   0.739
 1542SOL    HW2 5526   0.956   5.724   0.856
 1543SOL     OW 5527   3.459   4.125   3.078
 1543SOL    HW1 5528   3.426   4.034   3.053
 1543SOL    HW2 5529   3.509   4.120   3.165
 1544SOL     OW 5530   3.231   3.524   2.387
 1544SOL    HW1 5531   3.281   3.606   2.360
 1544SOL    HW2 5532   3.265   3.445   2.337
 1545SOL     OW 5533   0.213   0.566   4.327
 1545SOL    HW1 5534   0.149   0.641   4.343
 1545SOL    HW2 5535   0.285   0.568   4.396
 1546SOL     OW 5536   6.322   6.601   6.436
 1546SOL    HW1 5537   6.248   6.665   6.458
 1546SOL    HW2 5538   6.285   6.509   6.425
 1547SOL     OW 5539   3.134   5.905   0.168
 1547SOL    HW1 5540   3.124   5.881   0.071
 1547SOL    HW2 5541   3.127   5.822   0.223
 1548SOL     OW 5542   5.575   3.907   3.941
 1548SOL    HW1 5543   5.503   3.949   3.996
 1548SOL    HW2 5544   5.559   3.809   3.934
 1549SOL     OW 5545   0.024   2.519   0.540
 1549SOL    HW1 5546   0.014   2.596   0.604
 1549SOL    HW2 5547   0.121   2.499   0.528
 1550SOL     OW 5548   2.224   5.391   2.871
 1550SOL    HW1 5549   2.257   5.485   2.880
 1550SOL    HW2 5550   2.259   5.336   2.947
 1551SOL     OW 5551   6.948   3.149   1.355
 1551SOL    HW1 5552   6.946   3.136   1.454
 1551SOL    HW2 5553   0.024   3.178   1.327
 1552SOL     OW 5554   0.946   6.785   2.007
 1552SOL    HW1 5555   0.948   6.697   1.959
 1552SOL    HW2 5556   0.862   6.834   1.983
 1553SOL     OW 5557   4.994   1.092   6.406
 1553SOL    HW1 5558   5.019   1.187   6.385
 1553SOL    HW2 5559   5.022   1.070   6.500
 1554SOL     OW 5560   2.902   2.294   1.284
 1554SOL    HW1 5561   2.941   2.267   1.196
 1554SOL    HW2 5562   2.971   2.339   1.339
 1555SOL     OW 5563   4.145   0.602   0.158
 1555SOL    HW1 5564   4.139   0.633   0.063
 1555SOL    HW2 5565   4.102   0.669   0.218
 1556SOL     OW 5566   3.919   2.159   6.986
 1556SOL    HW1 5567   3.861   2.183   6.908
 1556SOL    HW2 5568   3.951   2.065   6.976
 1557SOL     OW 5569   1.629   3.499   0.533
 1557SOL    HW1 5570   1.573   3.524   0.612
 1557SOL    HW2 5571   1.718   3.468   0.564
 1558SOL     OW 5572   5.285   2.733   6.497
 1558SOL    HW1 5573   5.255   2.739   6.592
 1558SOL    HW2 5574   5.334   2.647   6.483
 1559SOL     OW 5575   2.870   6.231   3.230
 1559SOL    HW1 5576   2.778   6.269   3.227
 1559SOL    HW2 5577   2.906   6.239   3.323
 1560SOL     OW 5578   3.921   2.566   1.013
 1560SOL    HW1 5579   3.868   2.598   0.935
 1560SOL    HW2 5580   3.883   2.603   1.098
 1561SOL     OW 5581   5.737   6.260   1.063
 1561SOL    HW1 5582   5.700   6.167   1.071
 1561SOL    HW2 5583   5.725   6.293   0.970
 1562SOL     OW 5584   3.878   0.437   1.773
 1562SOL    HW1 5585   3.915   0.511   1.717
 1562SOL    HW2 5586   3.953   0.388   1.817
 1563SOL     OW 5587   2.109   2.577   4.156
 1563SOL    HW1 5588   2.098   2.616   4.247
 1563SOL    HW2 5589   2.177   2.630   4.105
 1564SOL     OW 5590   0.860   1.242   2.795
 1564SOL    HW1 5591   0.762   1.253   2.782
 1564SOL    HW2 5592   0.879   1.151   2.830
 1565SOL     OW 5593   4.545   1.613   5.126
 1565SOL    HW1 5594   4.562   1.541   5.058
 1565SOL    HW2 5595   4.603   1.692   5.107
 1566SOL     OW 5596   6.698   4.075   3.761
 1566SOL    HW1 5597   6.700   4.062   3.860
 1566SOL    HW2 5598   6.689   3.987   3.715
 1567SOL     OW 5599   5.370   0.386   5.078
 1567SOL    HW1 5600   5.426   0.457   5.120
 1567SOL    HW2 5601   5.280   0.383   5.123
 1568SOL     OW 5602   2.902   5.067   1.551
 1568SOL    HW1 5603   2.871   4.996   1.615
 1568SOL    HW2 5604   2.990   5.040   1.512
 1569SOL     OW 5605   2.834   1.369   2.903
 1569SOL    HW1 5606   2.913   1.416   2.863
 1569SOL    HW2 5607   2.750   1.405   2.863
 1570SOL     OW 5608   3.060   6.270   6.439
 1570SOL    HW1 5609   2.976   6.297   6.391
 1570SOL    HW2 5610   3.054   6.174   6.465
 1571SOL     OW 5611   6.745   3.555   4.286
 1571SOL    HW1 5612   6.672   3.614   4.253
 1571SOL    HW2 5613   6.745   3.552   4.386
 1572SOL     OW 5614   2.174   6.047   2.768
 1572SOL    HW1 5615   2.253   6.025   2.711
 1572SOL    HW2 5616   2.090   6.018   2.721
 1573SOL     OW 5617   5.143   6.028   0.440
 1573SOL    HW1 5618   5.130   5.934   0.409
 1573SOL    HW2 5619   5.099   6.091   0.376
 1574SOL     OW 5620   0.829   4.253   2.493
 1574SOL    HW1 5621   0.923   4.264   2.525
 1574SOL    HW2 5622   0.819   4.296   2.403
 1575SOL     OW 5623   0.176   2.470   0.241
 1575SOL    HW1 5624   0.264   2.486   0.196
 1575SOL    HW2 5625   0.144   2.377   0.220
 1576SOL     OW 5626   2.018   5.891   1.644
 1576SOL    HW1 5627   2.017   5.793   1.621
 1576SOL    HW2 5628   2.003   5.945   1.562
 1577SOL     OW 5629   3.248   5.976   4.200
 1577SOL    HW1 5630   3.162   6.013   4.237
 1577SOL    HW2 5631   3.283   5.906   4.263
 1578SOL     OW 5632   4.997   1.432   1.736
 1578SOL    HW1 5633   5.060   1.510   1.744
 1578SOL    HW2 5634   4.924   1.454   1.671
 1579SOL     OW 5635   1.512   3.186   1.458
 1579SOL    HW1 5636   1.611   3.192   1.470
 1579SOL    HW2 5637   1.489   3.206   1.362
 1580SOL     OW 5638   3.164   3.128   2.622
 1580SOL    HW1 5639   3.095   3.108   2.552
 1580SOL    HW2 5640   3.219   3.046   2.637
 1581SOL     OW 5641   6.326   4.295   5.102
 1581SOL    HW1 5642   6.321   4.195   5.103
 1581SOL    HW2 5643   6.399   4.325   5.040
 1582SOL     OW 5644   5.019   5.790   5.006
 1582SOL    HW1 5645   5.073   5.765   4.926
 1582SOL    HW2 5646   4.963   5.712   5.034
 1583SOL     OW 5647   1.634   5.745   5.500
 1583SOL    HW1 5648   1.732   5.742   5.517
 1583SOL    HW2 5649   1.605   5.839   5.485
 1584SOL     OW 5650   0.024   3.823   0.476
 1584SOL    HW1 5651   0.070   3.855   0.559
 1584SOL    HW2 5652   7.004   3.901   0.425
 1585SOL     OW 5653   4.421   6.514   3.691
 1585SOL    HW1 5654   4.339   6.501   3.746
 1585SOL    HW2 5655   4.421   6.607   3.654
 1586SOL     OW 5656   2.891   6.148   2.525
 1586SOL    HW1 5657   2.842   6.202   2.594
 1586SOL    HW2 5658   2.893   6.052   2.553
 1587SOL     OW 5659   3.244   6.536   6.749
 1587SOL    HW1 5660   3.220   6.443   6.778
 1587SOL    HW2 5661   3.160   6.589   6.733
 1588SOL     OW 5662   6.584   1.796   3.437
 1588SOL    HW1 5663   6.633   1.764   3.518
 1588SOL    HW2 5664   6.640   1.862   3.388
 1589SOL     OW 5665   6.606   3.803   4.266
 1589SOL    HW1 5666   6.520   3.819   4.218
 1589SOL    HW2 5667   6.662   3.886   4.263
 1590SOL     OW 5668   6.434   1.277   3.075
 1590SOL    HW1 5669   6.504   1.217   3.035
 1590SOL    HW2 5670   6.469   1.317   3.159
 1591SOL     OW 5671   1.466   5.664   0.858
 1591SOL    HW1 5672   1.504   5.708   0.939
 1591SOL    HW2 5673   1.408   5.729   0.809
 1592SOL     OW 5674   0.407   3.713   5.812
 1592SOL    HW1 5675   0.313   3.747   5.824
 1592SOL    HW2 5676   0.448   3.758   5.733
 1593SOL     OW 5677   3.685   6.464   0.074
 1593SOL    HW1 5678   3.672   6.384   0.016
 1593SOL    HW2 5679   3.596   6.495   0.108
 1594SOL     OW 5680   5.495   0.655   2.710
 1594SOL    HW1 5681   5.559   0.725   2.742
 1594SOL    HW2 5682   5.434   0.629   2.785
 1595SOL     OW 5683   0.550   3.036   0.187
 1595SOL    HW1 5684   0.640   3.000   0.161
 1595SOL    HW2 5685   0.560   3.095   0.267
 1596SOL     OW 5686   4.758   4.726   3.193
 1596SOL    HW1 5687   4.801   4.792   3.255
 1596SOL    HW2 5688   4.678   4.685   3.238
 1597SOL     OW 5689   3.345   6.027   0.260
 1597SOL    HW1 5690   3.267   5.982   0.217
 1597SOL    HW2 5691   3.345   6.008   0.359
 1598SOL     OW 5692   0.726   4.715   6.441
 1598SOL    HW1 5693   0.648   4.653   6.449
 1598SOL    HW2 5694   0.811   4.662   6.443
 1599SOL     OW 5695   4.279   5.426   3.573
 1599SOL    HW1 5696   4.302   5.462   3.663
 1599SOL    HW2 5697   4.306   5.491   3.503
 1600SOL     OW 5698   4.315   0.807   1.689
 1600SOL    HW1 5699   4.399   0.758   1.668
 1600SOL    HW2 5700   4.273   0.839   1.604
 1601SOL     OW 5701   6.655   1.553   4.710
 1601SOL    HW1 5702   6.563   1.548   4.672
 1601SOL    HW2 5703   6.688   1.460   4.728
 1602SOL     OW 5704   4.541   5.832   3.986
 1602SOL    HW1 5705   4.574   5.776   3.910
 1602SOL    HW2 5706   4.619   5.874   4.033
 1603SOL     OW 5707   2.857   4.814   2.832
 1603SOL    HW1 5708   2.878   4.822   2.735
 1603SOL    HW2 5709   2.768   4.771   2.844
 1604SOL     OW 5710   4.551   4.835   2.842
 1604SOL    HW1 5711   4.611   4.755   2.850
 1604SOL    HW2 5712   4.606   4.919   2.848
 1605SOL     OW 5713   4.749   4.806   0.532
 1605SOL    HW1 5714   4.765   4.904   0.539
 1605SOL    HW2 5715   4.697   4.774   0.611
 1606SOL     OW 5716   3.102   6.221   4.812
 1606SOL    HW1 5717   3.075   6.142   4.866
 1606SOL    HW2 5718   3.187   6.201   4.763
 1607SOL     OW 5719   4.761   4.632   3.947
 1607SOL    HW1 5720   4.770   4.636   3.847
 1607SOL    HW2 5721   4.666   4.611   3.970
 1608SOL     OW 5722   5.786   2.105   3.476
 1608SOL    HW1 5723   5.778   2.021   3.530
 1608SOL    HW2 5724   5.702   2.120   3.424
 1609SOL     OW 5725   2.231   6.572   1.702
 1609SOL    HW1 5726   2.227   6.670   1.681
 1609SOL    HW2 5727   2.170   6.553   1.780
 1610SOL     OW 5728   5.637   6.857   1.019
 1610SOL    HW1 5729   5.596   6.861   0.928
 1610SOL    HW2 5730   5.613   6.770   1.062
 1611SOL     OW 5731   1.413   4.098   0.314
 1611SOL    HW1 5732   1.355   4.115   0.394
 1611SOL    HW2 5733   1.356   4.087   0.233
 1612SOL     OW 5734   4.528   1.303   2.588
 1612SOL    HW1 5735   4.502   1.330   2.495
 1612SOL    HW2 5736   4.562   1.209   2.587
 1613SOL     OW 5737   6.766   5.441   2.470
 1613SOL    HW1 5738   6.837   5.430   2.540
 1613SOL    HW2 5739   6.800   5.407   2.383
 1614SOL     OW 5740   6.414   1.551   5.890
 1614SOL    HW1 5741   6.426   1.575   5.793
 1614SOL    HW2 5742   6.368   1.462   5.897
 1615SOL     OW 5743   0.137   4.066   6.005
 1615SOL    HW1 5744   0.175   4.126   5.935
 1615SOL    HW2 5745   0.212   4.030   6.062
 1616SOL     OW 5746   0.730   0.321   3.927
 1616SOL    HW1 5747   0.729   0.411   3.885
 1616SOL    HW2 5748   0.639   0.280   3.923
 1617SOL     OW 5749   6.821   5.759   3.404
 1617SOL    HW1 5750   6.745   5.701   3.434
 1617SOL    HW2 5751   6.835   5.748   3.306
 1618SOL     OW 5752   3.404   5.452   3.167
 1618SOL    HW1 5753   3.363   5.507   3.094
 1618SOL    HW2 5754   3.335   5.434   3.238
 1619SOL     OW 5755   0.529   4.535   6.485
 1619SOL    HW1 5756   0.458   4.562   6.551
 1619SOL    HW2 5757   0.494   4.465   6.424
 1620SOL     OW 5758   3.373   6.209   4.120
 1620SOL    HW1 5759   3.356   6.283   4.186
 1620SOL    HW2 5760   3.304   6.138   4.132
 1621SOL     OW 5761   4.467   5.470   0.684
 1621SOL    HW1 5762   4.370   5.486   0.665
 1621SOL    HW2 5763   4.479   5.451   0.782
 1622SOL     OW 5764   6.418   4.075   4.298
 1622SOL    HW1 5765   6.475   4.142   4.347
 1622SOL    HW2 5766   6.322   4.095   4.316
 1623SOL     OW 5767   0.048   2.376   2.982
 1623SOL    HW1 5768   0.020   2.339   3.071
 1623SOL    HW2 5769   7.001   2.449   2.956
 1624SOL     OW 5770   3.954   3.033   0.472
 1624SOL    HW1 5771   3.977   3.127   0.446
 1624SOL    HW2 5772   3.948   3.027   0.572
 1625SOL     OW 5773   0.604   6.774   0.810
 1625SOL    HW1 5774   0.687   6.827   0.789
 1625SOL    HW2 5775   0.538   6.784   0.736
 1626SOL     OW 5776   2.941   1.780   1.784
 1626SOL    HW1 5777   2.914   1.686   1.802
 1626SOL    HW2 5778   2.899   1.811   1.698
 1627SOL     OW 5779   4.052   2.201   5.974
 1627SOL    HW1 5780   4.082   2.285   5.929
 1627SOL    HW2 5781   4.093   2.196   6.066
 1628SOL     OW 5782   5.516   6.850   0.729
 1628SOL    HW1 5783   5.500   6.934   0.678
 1628SOL    HW2 5784   5.455   6.778   0.695
 1629SOL     OW 5785   1.112   0.067   3.601
 1629SOL    HW1 5786   1.067   0.152   3.574
 1629SOL    HW2 5787   1.105   0.055   3.700
 1630SOL     OW 5788   0.434   3.510   6.302
 1630SOL    HW1 5789   0.348   3.500   6.352
 1630SOL    HW2 5790   0.510   3.501   6.365
 1631SOL     OW 5791   6.605   3.628   0.721
 1631SOL    HW1 5792   6.510   3.658   0.728
 1631SOL    HW2 5793   6.638   3.601   0.811
 1632SOL     OW 5794   6.527   5.561   2.120
 1632SOL    HW1 5795   6.557   5.484   2.063
 1632SOL    HW2 5796   6.427   5.562   2.122
 1633SOL     OW 5797   5.385   3.278   5.007
 1633SOL    HW1 5798   5.338   3.191   5.022
 1633SOL    HW2 5799   5.484   3.261   4.999
 1634SOL     OW 5800   0.349   2.577   5.519
 1634SOL    HW1 5801   0.383   2.500   5.573
 1634SOL    HW2 5802   0.260   2.605   5.555
 1635SOL     OW 5803   3.319   6.538   3.801
 1635SOL    HW1 5804   3.286   6.444   3.795
 1635SOL    HW2 5805   3.381   6.547   3.879
 1636SOL     OW 5806   6.321   5.798   1.327
 1636SOL    HW1 5807   6.330   5.897   1.328
 1636SOL    HW2 5808   6.390   5.758   1.388
 1637SOL     OW 5809   1.132   1.062   2.897
 1637SOL    HW1 5810   1.071   1.118   2.954
 1637SOL    HW2 5811   1.078   1.004   2.837
 1638SOL     OW 5812   5.438   2.422   2.294
 1638SOL    HW1 5813   5.477   2.373   2.216
 1638SOL    HW2 5814   5.447   2.366   2.376
 1639SOL     OW 5815   5.087   2.075   2.301
 1639SOL    HW1 5816   5.066   2.143   2.371
 1639SOL    HW2 5817   5.165   2.020   2.330
 1640SOL     OW 5818   5.761   0.745   6.265
 1640SOL    HW1 5819   5.727   0.783   6.350
 1640SOL    HW2 5820   5.839   0.686   6.284
 1641SOL     OW 5821   6.491   2.042   3.016
 1641SOL    HW1 5822   6.397   2.075   3.025
 1641SOL    HW2 5823   6.491   1.943   3.008
 1642SOL     OW 5824   0.024   3.544   6.223
 1642SOL    HW1 5825   0.028   3.496   6.135
 1642SOL    HW2 5826   6.986   3.491   6.288
 1643SOL     OW 5827   2.134   5.218   4.226
 1643SOL    HW1 5828   2.085   5.269   4.156
 1643SOL    HW2 5829   2.139   5.122   4.200
 1644SOL     OW 5830   6.248   2.041   1.592
 1644SOL    HW1 5831   6.158   2.052   1.635
 1644SOL    HW2 5832   6.319   2.039   1.663
 1645SOL     OW 5833   2.195   0.900   5.099
 1645SOL    HW1 5834   2.294   0.908   5.090
 1645SOL    HW2 5835   2.170   0.902   5.196
 1646SOL     OW 5836   1.302   4.986   1.026
 1646SOL    HW1 5837   1.229   4.960   1.089
 1646SOL    HW2 5838   1.369   4.912   1.020
 1647SOL     OW 5839   5.650   3.107   4.462
 1647SOL    HW1 5840   5.589   3.065   4.396
 1647SOL    HW2 5841   5.597   3.142   4.539
 1648SOL     OW 5842   5.720   6.265   1.672
 1648SOL    HW1 5843   5.696   6.240   1.578
 1648SOL    HW2 5844   5.698   6.361   1.688
 1649SOL     OW 5845   3.560   1.801   3.520
 1649SOL    HW1 5846   3.585   1.709   3.491
 1649SOL    HW2 5847   3.638   1.862   3.512
 1650SOL     OW 5848   3.095   3.652   5.475
 1650SOL    HW1 5849   3.024   3.721   5.457
 1650SOL    HW2 5850   3.158   3.649   5.397
 1651SOL     OW 5851   0.742   2.245   3.624
 1651SOL    HW1 5852   0.805   2.315   3.590
 1651SOL    HW2 5853   0.697   2.201   3.547
 1652SOL     OW 5854   0.640   3.316   1.787
 1652SOL    HW1 5855   0.607   3.251   1.720
 1652SOL    HW2 5856   0.563   3.352   1.840
 1653SOL     OW 5857   0.500   4.811   2.046
 1653SOL    HW1 5858   0.573   4.756   2.006
 1653SOL    HW2 5859   0.478   4.775   2.137
 1654SOL     OW 5860   0.139   3.389   2.050
 1654SOL    HW1 5861   0.073   3.339   2.107
 1654SOL    HW2 5862   0.230   3.384   2.092
 1655SOL     OW 5863   0.624   0.412   5.950
 1655SOL    HW1 5864   0.546   0.380   5.896
 1655SOL    HW2 5865   0.644   0.507   5.928
 1656SOL     OW 5866   2.221   4.098   3.070
 1656SOL    HW1 5867   2.158   4.101   2.993
 1656SOL    HW2 5868   2.246   4.192   3.096
 1657SOL     OW 5869   0.088   6.892   5.845
 1657SOL    HW1 5870   0.131   6.979   5.872
 1657SOL    HW2 5871   0.121   6.866   5.754
 1658SOL     OW 5872   5.381   6.594   6.175
 1658SOL    HW1 5873   5.365   6.505   6.218
 1658SOL    HW2 5874   5.293   6.634   6.149
 1659SOL     OW 5875   3.931   6.621   5.698
 1659SOL    HW1 5876   3.985   6.581   5.624
 1659SOL    HW2 5877   3.852   6.668   5.659
 1660SOL     OW 5878   2.265   0.476   2.310
 1660SOL    HW1 5879   2.325   0.504   2.385
 1660SOL    HW2 5880   2.309   0.497   2.223
 1661SOL     OW 5881   4.943   3.798   2.745
 1661SOL    HW1 5882   4.974   3.726   2.683
 1661SOL    HW2 5883   4.901   3.758   2.826
 1662SOL     OW 5884   0.283   2.175   3.764
 1662SOL    HW1 5885   0.274   2.100   3.699
 1662SOL    HW2 5886   0.193   2.198   3.801
 1663SOL     OW 5887   5.102   4.404   0.857
 1663SOL    HW1 5888   5.011   4.446   0.859
 1663SOL    HW2 5889   5.164   4.457   0.914
 1664SOL     OW 5890   1.305   0.512   6.373
 1664SOL    HW1 5891   1.229   0.577   6.378
 1664SOL    HW2 5892   1.293   0.443   6.444
 1665SOL     OW 5893   2.818   4.595   6.788
 1665SOL    HW1 5894   2.839   4.686   6.752
 1665SOL    HW2 5895   2.834   4.527   6.717
 1666SOL     OW 5896   4.846   6.379   6.407
 1666SOL    HW1 5897   4.863   6.344   6.314
 1666SOL    HW2 5898   4.884   6.316   6.474
 1667SOL     OW 5899   6.717   5.704   0.504
 1667SOL    HW1 5900   6.700   5.611   0.537
 1667SOL    HW2 5901   6.727   5.702   0.405
 1668SOL     OW 5902   5.679   3.872   2.505
 1668SOL    HW1 5903   5.677   3.972   2.509
 1668SOL    HW2 5904   5.772   3.841   2.485
 1669SOL     OW 5905   6.849   3.304   5.391
 1669SOL    HW1 5906   6.813   3.353   5.312
 1669SOL    HW2 5907   6.929   3.353   5.427
 1670SOL     OW 5908   2.624   4.513   5.453
 1670SOL    HW1 5909   2.586   4.537   5.543
 1670SOL    HW2 5910   2.551   4.479   5.394
 1671SOL     OW 5911   5.799   2.433   0.345
 1671SOL    HW1 5912   5.854   2.514   0.325
 1671SOL    HW2 5913   5.714   2.435   0.292
 1672SOL     OW 5914   0.665   2.433   1.102
 1672SOL    HW1 5915   0.599   2.392   1.164
 1672SOL    HW2 5916   0.755   2.391   1.117
 1673SOL     OW 5917   1.288   0.488   4.645
 1673SOL    HW1 5918   1.311   0.578   4.608
 1673SOL    HW2 5919   1.371   0.434   4.657
 1674SOL     OW 5920   4.865   1.915   2.967
 1674SOL    HW1 5921   4.767   1.901   2.959
 1674SOL    HW2 5922   4.893   1.989   2.905
 1675SOL     OW 5923   5.022   0.398   1.736
 1675SOL    HW1 5924   5.087   0.442   1.797
 1675SOL    HW2 5925   5.003   0.305   1.768
 1676SOL     OW 5926   0.939   2.489   3.613
 1676SOL    HW1 5927   0.950   2.548   3.534
 1676SOL    HW2 5928   0.892   2.539   3.686
 1677SOL     OW 5929   3.425   3.216   3.232
 1677SOL    HW1 5930   3.382   3.260   3.310
 1677SOL    HW2 5931   3.382   3.249   3.147
 1678SOL     OW 5932   1.305   0.260   0.768
 1678SOL    HW1 5933   1.398   0.241   0.800
 1678SOL    HW2 5934   1.289   0.211   0.682
 1679SOL     OW 5935   6.566   1.394   6.677
 1679SOL    HW1 5936   6.479   1.382   6.724
 1679SOL    HW2 5937   6.581   1.318   6.613
 1680SOL     OW 5938   5.756   2.417   3.351
 1680SOL    HW1 5939   5.826   2.374   3.408
 1680SOL    HW2 5940   5.669   2.369   3.364
 1681SOL     OW 5941   3.349   6.147   4.991
 1681SOL    HW1 5942   3.345   6.124   4.894
 1681SOL    HW2 5943   3.296   6.081   5.044
 1682SOL     OW 5944   3.494   0.563   4.178
 1682SOL    HW1 5945   3.535   0.645   4.220
 1682SOL    HW2 5946   3.475   0.496   4.249
 1683SOL     OW 5947   6.191   3.244   3.110
 1683SOL    HW1 5948   6.142   3.169   3.065
 1683SOL    HW2 5949   6.170   3.243   3.208
 1684SOL     OW 5950   2.623   4.798   1.957
 1684SOL    HW1 5951   2.698   4.735   1.977
 1684SOL    HW2 5952   2.602   4.851   2.039
 1685SOL     OW 5953   6.955   1.445   5.566
 1685SOL    HW1 5954   6.935   1.475   5.660
 1685SOL    HW2 5955   0.017   1.496   5.531
 1686SOL     OW 5956   4.495   5.392   2.668
 1686SOL    HW1 5957   4.460   5.474   2.623
 1686SOL    HW2 5958   4.533   5.417   2.758
 1687SOL     OW 5959   4.888   4.564   0.857
 1687SOL    HW1 5960   4.898   4.641   0.793
 1687SOL    HW2 5961   4.811   4.582   0.918
 1688SOL     OW 5962   1.182   0.169   3.168
 1688SOL    HW1 5963   1.168   0.099   3.098
 1688SOL    HW2 5964   1.278   0.171   3.195
 1689SOL     OW 5965   4.741   0.595   1.484
 1689SOL    HW1 5966   4.688   0.596   1.399
 1689SOL    HW2 5967   4.738   0.503   1.525
 1690SOL     OW 5968   6.785   5.080   3.676
 1690SOL    HW1 5969   6.699   5.049   3.635
 1690SOL    HW2 5970   6.837   5.000   3.709
 1691SOL     OW 5971   4.460   2.574   5.047
 1691SOL    HW1 5972   4.506   2.566   4.958
 1691SOL    HW2 5973   4.382   2.512   5.051
 1692SOL     OW 5974   5.089   4.950   1.358
 1692SOL    HW1 5975   5.151   5.022   1.389
 1692SOL    HW2 5976   4.997   4.967   1.395
 1693SOL     OW 5977   5.604   6.748   6.242
 1693SOL    HW1 5978   5.643   6.804   6.170
 1693SOL    HW2 5979   5.527   6.694   6.206
 1694SOL     OW 5980   4.851   1.803   5.991
 1694SOL    HW1 5981   4.864   1.704   5.992
 1694SOL    HW2 5982   4.933   1.847   5.955
 1695SOL     OW 5983   3.428   0.550   5.805
 1695SOL    HW1 5984   3.446   0.604   5.723
 1695SOL    HW2 5985   3.382   0.607   5.873
 1696SOL     OW 5986   4.159   6.349   0.419
 1696SOL    HW1 5987   4.095   6.311   0.485
 1696SOL    HW2 5988   4.251   6.315   0.439
 1697SOL     OW 5989   4.799   2.742   2.001
 1697SOL    HW1 5990   4.728   2.682   2.036
 1697SOL    HW2 5991   4.764   2.836   1.995
 1698SOL     OW 5992   4.064   1.376   1.240
 1698SOL    HW1 5993   4.110   1.293   1.209
 1698SOL    HW2 5994   4.096   1.400   1.332
 1699SOL     OW 5995   2.361   0.128   0.289
 1699SOL    HW1 5996   2.283   0.142   0.350
 1699SOL    HW2 5997   2.339   0.164   0.198
 1700SOL     OW 5998   5.692   2.864   2.929
 1700SOL    HW1 5999   5.627   2.892   2.859
 1700SOL    HW2 6000   5.670   2.772   2.960
 1701SOL     OW 6001   0.171   6.319   5.064
 1701SOL    HW1 6002   0.194   6.231   5.021
 1701SOL    HW2 6003   0.071   6.327   5.071
 1702SOL     OW 6004   2.067   2.390   0.028
 1702SOL    HW1 6005   2.006   2.317   0.059
 1702SOL    HW2 6006   2.012   2.469   7.015
 1703SOL     OW 6007   1.319   1.690   1.912
 1703SOL    HW1 6008   1.277   1.772   1.874
 1703SOL    HW2 6009   1.307   1.614   1.848
 1704SOL     OW 6010   3.035   2.566   0.441
 1704SOL    HW1 6011   3.020   2.489   0.502
 1704SOL    HW2 6012   3.042   2.534   0.347
 1705SOL     OW 6013   4.781   2.688   0.619
 1705SOL    HW1 6014   4.728   2.701   0.703
 1705SOL    HW2 6015   4.836   2.605   0.627
 1706SOL     OW 6016   6.302   2.196   6.488
 1706SOL    HW1 6017   6.204   2.182   6.494
 1706SOL    HW2 6018   6.323   2.293   6.503
 1707SOL     OW 6019   4.062   1.365   2.107
 1707SOL    HW1 6020   3.997   1.365   2.182
 1707SOL    HW2 6021   4.022   1.320   2.027
 1708SOL     OW 6022   2.818   4.805   2.241
 1708SOL    HW1 6023   2.811   4.727   2.179
 1708SOL    HW2 6024   2.805   4.890   2.188
 1709SOL     OW 6025   4.982   4.884   0.792
 1709SOL    HW1 6026   4.909   4.952   0.784
 1709SOL    HW2 6027   5.000   4.865   0.889
 1710SOL     OW 6028   4.862   3.958   2.297
 1710SOL    HW1 6029   4.798   4.013   2.244
 1710SOL    HW2 6030   4.846   3.973   2.395
 1711SOL     OW 6031   3.769   5.401   0.061
 1711SOL    HW1 6032   3.797   5.307   0.042
 1711SOL    HW2 6033   3.790   5.423   0.156
 1712SOL     OW 6034   0.773   1.565   2.107
 1712SOL    HW1 6035   0.723   1.587   2.191
 1712SOL    HW2 6036   0.789   1.467   2.102
 1713SOL     OW 6037   3.069   1.406   2.765
 1713SOL    HW1 6038   3.113   1.466   2.699
 1713SOL    HW2 6039   3.132   1.334   2.792
 1714SOL     OW 6040   2.799   3.884   0.952
 1714SOL    HW1 6041   2.788   3.785   0.955
 1714SOL    HW2 6042   2.852   3.914   1.031
 1715SOL     OW 6043   1.501   6.193   1.654
 1715SOL    HW1 6044   1.450   6.144   1.584
 1715SOL    HW2 6045   1.598   6.169   1.647
 1716SOL     OW 6046   3.696   1.389   3.143
 1716SOL    HW1 6047   3.629   1.460   3.168
 1716SOL    HW2 6048   3.703   1.385   3.043
 1717SOL     OW 6049   3.081   5.630   4.215
 1717SOL    HW1 6050   3.043   5.715   4.252
 1717SOL    HW2 6051   3.142   5.589   4.283
 1718SOL     OW 6052   1.947   2.762   1.543
 1718SOL    HW1 6053   2.010   2.839   1.552
 1718SOL    HW2 6054   1.853   2.795   1.551
 1719SOL     OW 6055   1.128   5.453   2.668
 1719SOL    HW1 6056   1.211   5.504   2.644
 1719SOL    HW2 6057   1.146   5.355   2.660
 1720SOL     OW 6058   0.912   3.416   5.312
 1720SOL    HW1 6059   0.920   3.328   5.265
 1720SOL    HW2 6060   0.935   3.404   5.408
 1721SOL     OW 6061   1.946   2.883   0.350
 1721SOL    HW1 6062   1.853   2.847   0.358
 1721SOL    HW2 6063   1.990   2.845   0.269
 1722SOL     OW 6064   2.160   2.205   4.420
 1722SOL    HW1 6065   2.213   2.211   4.335
 1722SOL    HW2 6066   2.222   2.219   4.498
 1723SOL     OW 6067   5.680   4.372   1.310
 1723SOL    HW1 6068   5.643   4.451   1.357
 1723SOL    HW2 6069   5.780   4.374   1.313
 1724SOL     OW 6070   5.098   2.547   0.907
 1724SOL    HW1 6071   5.197   2.543   0.891
 1724SOL    HW2 6072   5.078   2.618   0.974
 1725SOL     OW 6073   1.878   6.298   5.975
 1725SOL    HW1 6074   1.905   6.391   5.999
 1725SOL    HW2 6075   1.796   6.301   5.918
 1726SOL     OW 6076   5.155   4.135   2.784
 1726SOL    HW1 6077   5.217   4.067   2.747
 1726SOL    HW2 6078   5.108   4.182   2.709
 1727SOL     OW 6079   2.988   3.883   3.159
 1727SOL    HW1 6080   3.049   3.959   3.139
 1727SOL    HW2 6081   2.969   3.880   3.257
 1728SOL     OW 6082   5.778   2.362   3.924
 1728SOL    HW1 6083   5.764   2.461   3.930
 1728SOL    HW2 6084   5.690   2.317   3.909
 1729SOL     OW 6085   1.353   2.738   2.636
 1729SOL    HW1 6086   1.265   2.778   2.658
 1729SOL    HW2 6087   1.339   2.649   2.592
 1730SOL     OW 6088   2.062   6.387   4.333
 1730SOL    HW1 6089   1.981   6.391   4.392
 1730SOL    HW2 6090   2.122   6.313   4.364
 1731SOL     OW 6091   5.184   5.011   3.598
 1731SOL    HW1 6092   5.210   5.065   3.678
 1731SOL    HW2 6093   5.172   4.915   3.625
 1732SOL     OW 6094   2.868   3.709   5.244
 1732SOL    HW1 6095   2.784   3.699   5.298
 1732SOL    HW2 6096   2.892   3.620   5.204
 1733SOL     OW 6097   1.911   2.825   6.152
 1733SOL    HW1 6098   1.954   2.835   6.242
 1733SOL    HW2 6099   1.820   2.864   6.153
 1734SOL     OW 6100   6.732   2.955   0.924
 1734SOL    HW1 6101   6.647   3.008   0.915
 1734SOL    HW2 6102   6.759   2.952   1.020
 1735SOL     OW 6103   3.672   5.380   6.254
 1735SOL    HW1 6104   3.747   5.316   6.270
 1735SOL    HW2 6105   3.708   5.470   6.230
 1736SOL     OW 6106   5.227   2.443   6.443
 1736SOL    HW1 6107   5.161   2.459   6.369
 1736SOL    HW2 6108   5.179   2.408   6.523
 1737SOL     OW 6109   3.192   0.878   5.844
 1737SOL    HW1 6110   3.152   0.787   5.850
 1737SOL    HW2 6111   3.137   0.942   5.898
 1738SOL     OW 6112   2.098   3.477   2.441
 1738SOL    HW1 6113   2.075   3.465   2.345
 1738SOL    HW2 6114   2.064   3.565   2.473
 1739SOL     OW 6115   5.375   6.559   3.100
 1739SOL    HW1 6116   5.474   6.568   3.092
 1739SOL    HW2 6117   5.346   6.472   3.059
 1740SOL     OW 6118   6.065   2.814   4.947
 1740SOL    HW1 6119   6.008   2.880   4.898
 1740SOL    HW2 6120   6.092   2.851   5.036
 1741SOL     OW 6121   0.751   2.046   4.756
 1741SOL    HW1 6122   0.838   2.092   4.769
 1741SOL    HW2 6123   0.757   1.983   4.679
 1742SOL     OW 6124   6.173   6.508   6.812
 1742SOL    HW1 6125   6.098   6.561   6.772
 1742SOL    HW2 6126   6.259   6.532   6.767
 1743SOL     OW 6127   1.748   2.227   2.205
 1743SOL    HW1 6128   1.801   2.256   2.125
 1743SOL    HW2 6129   1.710   2.136   2.188
 1744SOL     OW 6130   3.563   2.502   5.540
 1744SOL    HW1 6131   3.507   2.435   5.493
 1744SOL    HW2 6132   3.505   2.560   5.598
 1745SOL     OW 6133   6.360   6.091   1.363
 1745SOL    HW1 6134   6.454   6.114   1.388
 1745SOL    HW2 6135   6.302   6.172   1.374
 1746SOL     OW 6136   2.798   4.725   3.225
 1746SOL    HW1 6137   2.882   4.774   3.250
 1746SOL    HW2 6138   2.778   4.657   3.295
 1747SOL     OW 6139   3.788   6.983   2.470
 1747SOL    HW1 6140   3.851   6.920   2.516
 1747SOL    HW2 6141   3.822   0.061   2.480
 1748SOL     OW 6142   6.918   2.340   4.678
 1748SOL    HW1 6143   6.822   2.348   4.653
 1748SOL    HW2 6144   6.975   2.353   4.596
 1749SOL     OW 6145   6.714   5.371   1.614
 1749SOL    HW1 6146   6.742   5.445   1.553
 1749SOL    HW2 6147   6.795   5.321   1.645
 1750SOL     OW 6148   3.100   0.804   0.177
 1750SOL    HW1 6149   3.172   0.735   0.182
 1750SOL    HW2 6150   3.015   0.765   0.212
 1751SOL     OW 6151   5.533   3.385   4.693
 1751SOL    HW1 6152   5.487   3.459   4.644
 1751SOL    HW2 6153   5.502   3.297   4.656
 1752SOL     OW 6154   0.257   0.759   2.389
 1752SOL    HW1 6155   0.219   0.670   2.414
 1752SOL    HW2 6156   0.331   0.783   2.451
 1753SOL     OW 6157   0.118   1.279   1.281
 1753SOL    HW1 6158   0.160   1.362   1.244
 1753SOL    HW2 6159   0.023   1.299   1.305
 1754SOL     OW 6160   3.081   5.222   3.384
 1754SOL    HW1 6161   3.147   5.155   3.351
 1754SOL    HW2 6162   3.005   5.230   3.320
 1755SOL     OW 6163   6.739   0.341   5.776
 1755SOL    HW1 6164   6.739   0.261   5.835
 1755SOL    HW2 6165   6.665   0.333   5.709
 1756SOL     OW 6166   4.615   5.787   0.910
 1756SOL    HW1 6167   4.562   5.769   0.827
 1756SOL    HW2 6168   4.552   5.795   0.988
 1757SOL     OW 6169   2.791   4.708   5.322
 1757SOL    HW1 6170   2.738   4.644   5.377
 1757SOL    HW2 6171   2.841   4.659   5.251
 1758SOL     OW 6172   1.265   6.210   3.878
 1758SOL    HW1 6173   1.330   6.233   3.951
 1758SOL    HW2 6174   1.178   6.257   3.896
 1759SOL     OW 6175   1.202   5.721   0.151
 1759SOL    HW1 6176   1.105   5.712   0.129
 1759SOL    HW2 6177   1.238   5.806   0.113
 1760SOL     OW 6178   7.003   1.574   4.622
 1760SOL    HW1 6179   6.916   1.613   4.592
 1760SOL    HW2 6180   0.026   1.630   4.695
 1761SOL     OW 6181   5.345   1.187   2.803
 1761SOL    HW1 6182   5.360   1.281   2.834
 1761SOL    HW2 6183   5.293   1.189   2.718
 1762SOL     OW 6184   0.417   1.894   5.808
 1762SOL    HW1 6185   0.435   1.834   5.886
 1762SOL    HW2 6186   0.319   1.914   5.803
 1763SOL     OW 6187   1.361   5.190   3.678
 1763SOL    HW1 6188   1.441   5.246   3.655
 1763SOL    HW2 6189   1.385   5.127   3.752
 1764SOL     OW 6190   0.730   6.221   3.601
 1764SOL    HW1 6191   0.760   6.268   3.519
 1764SOL    HW2 6192   0.776   6.132   3.608
 1765SOL     OW 6193   5.662   4.074   1.862
 1765SOL    HW1 6194   5.593   4.063   1.933
 1765SOL    HW2 6195   5.719   3.992   1.857
 1766SOL     OW 6196   4.531   4.436   3.967
 1766SOL    HW1 6197   4.441   4.399   3.944
 1766SOL    HW2 6198   4.593   4.423   3.889
 1767SOL     OW 6199   0.336   4.931   1.541
 1767SOL    HW1 6200   0.293   4.941   1.630
 1767SOL    HW2 6201   0.282   4.978   1.471
 1768SOL     OW 6202   5.080   4.487   2.508
 1768SOL    HW1 6203   4.997   4.519   2.461
 1768SOL    HW2 6204   5.077   4.388   2.516
 1769SOL     OW 6205   5.489   0.253   0.861
 1769SOL    HW1 6206   5.587   0.233   0.860
 1769SOL    HW2 6207   5.466   0.300   0.947
 1770SOL     OW 6208   1.799   5.023   0.375
 1770SOL    HW1 6209   1.840   5.105   0.414
 1770SOL    HW2 6210   1.850   4.942   0.403
 1771SOL     OW 6211   1.998   3.256   6.139
 1771SOL    HW1 6212   1.971   3.351   6.153
 1771SOL    HW2 6213   2.042   3.247   6.050
 1772SOL     OW 6214   2.103   3.865   2.704
 1772SOL    HW1 6215   2.114   3.833   2.610
 1772SOL    HW2 6216   2.018   3.917   2.712
 1773SOL     OW 6217   2.380   6.357   6.071
 1773SOL    HW1 6218   2.377   6.355   6.171
 1773SOL    HW2 6219   2.294   6.395   6.036
 1774SOL     OW 6220   5.800   5.648   1.385
 1774SOL    HW1 6221   5.755   5.718   1.440
 1774SOL    HW2 6222   5.730   5.596   1.335
 1775SOL     OW 6223   2.114   5.209   0.854
 1775SOL    HW1 6224   2.122   5.147   0.932
 1775SOL    HW2 6225   2.205   5.235   0.822
 1776SOL     OW 6226   4.518   2.982   6.047
 1776SOL    HW1 6227   4.462   2.908   6.085
 1776SOL    HW2 6228   4.500   3.066   6.097
 1777SOL     OW 6229   4.280   6.308   6.825
 1777SOL    HW1 6230   4.232   6.343   6.905
 1777SOL    HW2 6231   4.365   6.359   6.812
 1778SOL     OW 6232   5.935   0.154   4.295
 1778SOL    HW1 6233   5.969   0.074   4.346
 1778SOL    HW2 6234   5.923   0.129   4.199
 1779SOL     OW 6235   5.230   0.894   4.898
 1779SOL    HW1 6236   5.212   0.955   4.821
 1779SOL    HW2 6237   5.191   0.803   4.878
 1780SOL     OW 6238   2.348   5.819   5.790
 1780SOL    HW1 6239   2.377   5.775   5.705
 1780SOL    HW2 6240   2.317   5.750   5.854
 1781SOL     OW 6241   3.842   1.154   5.687
 1781SOL    HW1 6242   3.941   1.140   5.689
 1781SOL    HW2 6243   3.820   1.243   5.728
 1782SOL     OW 6244   5.125   1.259   2.632
 1782SOL    HW1 6245   5.070   1.277   2.713
 1782SOL    HW2 6246   5.156   1.346   2.593
 1783SOL     OW 6247   1.669   4.517   0.049
 1783SOL    HW1 6248   1.696   4.522   0.145
 1783SOL    HW2 6249   1.650   4.422   0.025
 1784SOL     OW 6250   2.694   6.643   1.662
 1784SOL    HW1 6251   2.695   6.558   1.716
 1784SOL    HW2 6252   2.691   6.620   1.565
 1785SOL     OW 6253   1.697   6.884   4.373
 1785SOL    HW1 6254   1.685   6.933   4.286
 1785SOL    HW2 6255   1.785   6.836   4.372
 1786SOL     OW 6256   0.995   5.979   1.398
 1786SOL    HW1 6257   1.057   5.927   1.339
 1786SOL    HW2 6258   0.901   5.948   1.383
 1787SOL     OW 6259   1.826   3.478   5.624
 1787SOL    HW1 6260   1.744   3.494   5.678
 1787SOL    HW2 6261   1.905   3.468   5.685
 1788SOL     OW 6262   3.982   3.378   0.770
 1788SOL    HW1 6263   3.995   3.312   0.844
 1788SOL    HW2 6264   4.066   3.431   0.757
 1789SOL     OW 6265   5.944   3.190   2.378
 1789SOL    HW1 6266   5.878   3.144   2.319
 1789SOL    HW2 6267   6.025   3.216   2.324
 1790SOL     OW 6268   1.523   2.555   5.016
 1790SOL    HW1 6269   1.437   2.506   5.005
 1790SOL    HW2 6270   1.598   2.499   4.981
 1791SOL     OW 6271   5.109   0.484   3.531
 1791SOL    HW1 6272   5.150   0.453   3.616
 1791SOL    HW2 6273   5.163   0.559   3.493
 1792SOL     OW 6274   6.727   2.655   6.770
 1792SOL    HW1 6275   6.675   2.570   6.768
 1792SOL    HW2 6276   6.815   2.642   6.725
 1793SOL     OW 6277   6.773   1.756   5.070
 1793SOL    HW1 6278   6.740   1.697   5.144
 1793SOL    HW2 6279   6.793   1.701   4.989
 1794SOL     OW 6280   0.197   1.291   6.330
 1794SOL    HW1 6281   0.217   1.261   6.237
 1794SOL    HW2 6282   0.270   1.351   6.362
 1795SOL     OW 6283   5.383   4.969   1.099
 1795SOL    HW1 6284   5.473   4.991   1.063
 1795SOL    HW2 6285   5.378   4.872   1.121
 1796SOL     OW 6286   6.590   0.109   0.562
 1796SOL    HW1 6287   6.557   0.015   0.561
 1796SOL    HW2 6288   6.646   0.126   0.482
 1797SOL     OW 6289   2.776   5.698   5.583
 1797SOL    HW1 6290   2.854   5.759   5.570
 1797SOL    HW2 6291   2.780   5.624   5.516
 1798SOL     OW 6292   2.251   4.044   5.546
 1798SOL    HW1 6293   2.276   4.075   5.454
 1798SOL    HW2 6294   2.333   4.036   5.602
 1799SOL     OW 6295   2.890   1.092   1.638
 1799SOL    HW1 6296   2.850   1.072   1.727
 1799SOL    HW2 6297   2.967   1.155   1.651
 1800SOL     OW 6298   6.335   3.318   5.570
 1800SOL    HW1 6299   6.339   3.233   5.622
 1800SOL    HW2 6300   6.289   3.388   5.625
 1801SOL     OW 6301   0.454   0.266   3.245
 1801SOL    HW1 6302   0.465   0.216   3.159
 1801SOL    HW2 6303   0.379   0.225   3.297
 1802SOL     OW 6304   6.214   4.814   4.056
 1802SOL    HW1 6305   6.285   4.839   3.990
 1802SOL    HW2 6306   6.222   4.873   4.137
 1803SOL     OW 6307   6.682   6.895   4.253
 1803SOL    HW1 6308   6.653   6.826   4.187
 1803SOL    HW2 6309   6.664   6.986   4.216
 1804SOL     OW 6310   1.884   2.311   5.818
 1804SOL    HW1 6311   1.941   2.367   5.878
 1804SOL    HW2 6312   1.796   2.358   5.803
 1805SOL     OW 6313   6.489   4.897   0.908
 1805SOL    HW1 6314   6.422   4.867   0.976
 1805SOL    HW2 6315   6.455   4.876   0.817
 1806SOL     OW 6316   0.458   1.615   0.730
 1806SOL    HW1 6317   0.387   1.680   0.757
 1806SOL    HW2 6318   0.537   1.625   0.791
 1807SOL     OW 6319   6.541   2.531   2.899
 1807SOL    HW1 6320   6.448   2.500   2.920
 1807SOL    HW2 6321   6.558   2.618   2.945
 1808SOL     OW 6322   5.473   1.080   6.305
 1808SOL    HW1 6323   5.560   1.093   6.353
 1808SOL    HW2 6324   5.433   0.993   6.331
 1809SOL     OW 6325   5.957   0.391   5.386
 1809SOL    HW1 6326   6.047   0.427   5.363
 1809SOL    HW2 6327   5.897   0.466   5.414
 1810SOL     OW 6328   1.104   0.763   4.401
 1810SOL    HW1 6329   1.182   0.792   4.457
 1810SOL    HW2 6330   1.082   0.667   4.421
 1811SOL     OW 6331   3.340   6.111   2.225
 1811SOL    HW1 6332   3.385   6.143   2.142
 1811SOL    HW2 6333   3.246   6.143   2.227
 1812SOL     OW 6334   3.710   6.626   6.788
 1812SOL    HW1 6335   3.796   6.598   6.831
 1812SOL    HW2 6336   3.664   6.545   6.751
 1813SOL     OW 6337   4.810   4.058   1.958
 1813SOL    HW1 6338   4.764   4.074   1.871
 1813SOL    HW2 6339   4.793   4.136   2.019
 1814SOL     OW 6340   6.374   6.200   0.336
 1814SOL    HW1 6341   6.385   6.185   0.434
 1814SOL    HW2 6342   6.285   6.166   0.306
 1815SOL     OW 6343   5.416   5.900   1.525
 1815SOL    HW1 6344   5.476   5.951   1.464
 1815SOL    HW2 6345   5.321   5.908   1.493
 1816SOL     OW 6346   4.404   4.921   5.271
 1816SOL    HW1 6347   4.442   4.960   5.187
 1816SOL    HW2 6348   4.341   4.847   5.248
 1817SOL     OW 6349   0.313   2.768   3.532
 1817SOL    HW1 6350   0.309   2.745   3.435
 1817SOL    HW2 6351   0.236   2.828   3.555
 1818SOL     OW 6352   2.459   0.891   0.413
 1818SOL    HW1 6353   2.548   0.923   0.382
 1818SOL    HW2 6354   2.468   0.847   0.502
 1819SOL     OW 6355   1.275   4.330   1.797
 1819SOL    HW1 6356   1.196   4.286   1.839
 1819SOL    HW2 6357   1.333   4.369   1.868
 1820SOL     OW 6358   3.529   0.391   4.412
 1820SOL    HW1 6359   3.565   0.449   4.485
 1820SOL    HW2 6360   3.578   0.304   4.412
 1821SOL     OW 6361   3.527   1.377   2.534
 1821SOL    HW1 6362   3.621   1.380   2.500
 1821SOL    HW2 6363   3.486   1.468   2.528
 1822SOL     OW 6364   1.080   3.736   3.968
 1822SOL    HW1 6365   1.111   3.781   3.885
 1822SOL    HW2 6366   0.980   3.737   3.971
 1823SOL     OW 6367   3.881   6.682   3.258
 1823SOL    HW1 6368   3.890   6.763   3.316
 1823SOL    HW2 6369   3.822   6.615   3.303
 1824SOL     OW 6370   4.347   3.055   1.715
 1824SOL    HW1 6371   4.396   3.117   1.653
 1824SOL    HW2 6372   4.409   3.026   1.788
 1825SOL     OW 6373   1.082   3.406   6.234
 1825SOL    HW1 6374   1.136   3.482   6.196
 1825SOL    HW2 6375   1.013   3.442   6.297
 1826SOL     OW 6376   3.829   2.316   1.103
 1826SOL    HW1 6377   3.842   2.412   1.128
 1826SOL    HW2 6378   3.870   2.299   1.013
 1827SOL     OW 6379   5.449   4.516   0.471
 1827SOL    HW1 6380   5.463   4.601   0.419
 1827SOL    HW2 6381   5.398   4.536   0.554
 1828SOL     OW 6382   1.678   4.374   4.696
 1828SOL    HW1 6383   1.619   4.453   4.682
 1828SOL    HW2 6384   1.628   4.303   4.747
 1829SOL     OW 6385   2.701   6.164   1.902
 1829SOL    HW1 6386   2.684   6.255   1.864
 1829SOL    HW2 6387   2.633   6.100   1.866
 1830SOL     OW 6388   4.309   1.376   6.157
 1830SOL    HW1 6389   4.352   1.296   6.115
 1830SOL    HW2 6390   4.249   1.420   6.092
 1831SOL     OW 6391   3.355   4.530   0.787
 1831SOL    HW1 6392   3.395   4.493   0.703
 1831SOL    HW2 6393   3.269   4.484   0.806
 1832SOL     OW 6394   2.075   3.232   5.852
 1832SOL    HW1 6395   2.140   3.158   5.867
 1832SOL    HW2 6396   1.986   3.193   5.825
 1833SOL     OW 6397   6.198   0.910   6.877
 1833SOL    HW1 6398   6.269   0.844   6.900
 1833SOL    HW2 6399   6.183   0.970   6.955
 1834SOL     OW 6400   0.809   3.575   6.110
 1834SOL    HW1 6401   0.845   3.588   6.202
 1834SOL    HW2 6402   0.884   3.552   6.048
 1835SOL     OW 6403   0.009   6.005   1.206
 1835SOL    HW1 6404   0.003   5.982   1.109
 1835SOL    HW2 6405   0.024   6.104   1.216
 1836SOL     OW 6406   5.379   1.491   2.792
 1836SOL    HW1 6407   5.478   1.478   2.791
 1836SOL    HW2 6408   5.349   1.513   2.885
 1837SOL     OW 6409   2.450   2.090   6.948
 1837SOL    HW1 6410   2.540   2.119   6.917
 1837SOL    HW2 6411   2.390   2.170   6.956
 1838SOL     OW 6412   5.013   0.880   0.433
 1838SOL    HW1 6413   5.018   0.905   0.336
 1838SOL    HW2 6414   4.963   0.951   0.483
 1839SOL     OW 6415   6.128   0.782   0.186
 1839SOL    HW1 6416   6.213   0.794   0.238
 1839SOL    HW2 6417   6.059   0.845   0.220
 1840SOL     OW 6418   4.131   6.889   4.019
 1840SOL    HW1 6419   4.123   6.983   4.052
 1840SOL    HW2 6420   4.119   6.825   4.095
 1841SOL     OW 6421   1.772   0.584   1.442
 1841SOL    HW1 6422   1.821   0.656   1.491
 1841SOL    HW2 6423   1.786   0.595   1.344
 1842SOL     OW 6424   0.079   4.999   1.168
 1842SOL    HW1 6425   0.142   5.066   1.206
 1842SOL    HW2 6426   7.005   5.009   1.212
 1843SOL     OW 6427   2.604   1.354   0.196
 1843SOL    HW1 6428   2.679   1.291   0.215
 1843SOL    HW2 6429   2.525   1.303   0.161
 1844SOL     OW 6430   5.774   2.503   6.415
 1844SOL    HW1 6431   5.756   2.409   6.385
 1844SOL    HW2 6432   5.818   2.554   6.341
 1845SOL     OW 6433   1.169   2.375   3.910
 1845SOL    HW1 6434   1.150   2.292   3.858
 1845SOL    HW2 6435   1.196   2.448   3.847
 1846SOL     OW 6436   2.798   0.865   1.544
 1846SOL    HW1 6437   2.843   0.949   1.576
 1846SOL    HW2 6438   2.713   0.852   1.595
 1847SOL     OW 6439   2.350   5.569   6.247
 1847SOL    HW1 6440   2.430   5.520   6.280
 1847SOL    HW2 6441   2.317   5.633   6.317
 1848SOL     OW 6442   4.123   6.528   3.485
 1848SOL    HW1 6443   4.164   6.616   3.510
 1848SOL    HW2 6444   4.050   6.505   3.549
 1849SOL     OW 6445   4.900   2.628   2.738
 1849SOL    HW1 6446   4.930   2.534   2.752
 1849SOL    HW2 6447   4.830   2.631   2.667
 1850SOL     OW 6448   4.103   1.840   1.078
 1850SOL    HW1 6449   4.131   1.860   0.985
 1850SOL    HW2 6450   4.128   1.916   1.138
 1851SOL     OW 6451   0.318   4.638   4.429
 1851SOL    HW1 6452   0.305   4.593   4.518
 1851SOL    HW2 6453   0.413   4.669   4.421
 1852SOL     OW 6454   0.501   0.019   3.453
 1852SOL    HW1 6455   0.509   6.973   3.374
 1852SOL    HW2 6456   0.412   0.004   3.497
 1853SOL     OW 6457   0.655   2.386   5.557
 1853SOL    HW1 6458   0.716   2.311   5.584
 1853SOL    HW2 6459   0.573   2.384   5.615
 1854SOL     OW 6460   6.840   0.300   4.013
 1854SOL    HW1 6461   6.830   0.398   3.997
 1854SOL    HW2 6462   6.836   0.281   4.111
 1855SOL     OW 6463   5.562   2.176   5.249
 1855SOL    HW1 6464   5.504   2.141   5.323
 1855SOL    HW2 6465   5.546   2.274   5.237
 1856SOL     OW 6466   4.710   3.446   0.536
 1856SOL    HW1 6467   4.795   3.395   0.543
 1856SOL    HW2 6468   4.704   3.510   0.612
 1857SOL     OW 6469   3.693   0.795   6.496
 1857SOL    HW1 6470   3.718   0.868   6.560
 1857SOL    HW2 6471   3.615   0.744   6.533
 1858SOL     OW 6472   5.481   1.732   4.745
 1858SOL    HW1 6473   5.497   1.634   4.739
 1858SOL    HW2 6474   5.500   1.764   4.838
 1859SOL     OW 6475   6.696   0.679   3.610
 1859SOL    HW1 6476   6.685   0.633   3.698
 1859SOL    HW2 6477   6.613   0.730   3.588
 1860SOL     OW 6478   2.631   1.168   6.445
 1860SOL    HW1 6479   2.597   1.222   6.521
 1860SOL    HW2 6480   2.687   1.226   6.385
 1861SOL     OW 6481   6.091   6.431   4.937
 1861SOL    HW1 6482   6.037   6.393   5.012
 1861SOL    HW2 6483   6.182   6.390   4.938
 1862SOL     OW 6484   3.316   5.808   5.689
 1862SOL    HW1 6485   3.246   5.867   5.648
 1862SOL    HW2 6486   3.340   5.844   5.779
 1863SOL     OW 6487   0.125   1.674   1.174
 1863SOL    HW1 6488   0.147   1.578   1.158
 1863SOL    HW2 6489   0.205   1.730   1.153
 1864SOL     OW 6490   2.631   6.451   2.148
 1864SOL    HW1 6491   2.731   6.450   2.142
 1864SOL    HW2 6492   2.603   6.420   2.239
 1865SOL     OW 6493   6.235   2.323   5.761
 1865SOL    HW1 6494   6.152   2.267   5.751
 1865SOL    HW2 6495   6.220   2.392   5.831
 1866SOL     OW 6496   0.569   5.574   3.436
 1866SOL    HW1 6497   0.605   5.498   3.492
 1866SOL    HW2 6498   0.475   5.554   3.410
 1867SOL     OW 6499   1.127   1.410   1.405
 1867SOL    HW1 6500   1.053   1.455   1.356
 1867SOL    HW2 6501   1.202   1.476   1.419
 1868SOL     OW 6502   5.456   3.398   6.235
 1868SOL    HW1 6503   5.359   3.419   6.232
 1868SOL    HW2 6504   5.495   3.403   6.143
 1869SOL     OW 6505   5.170   0.699   5.265
 1869SOL    HW1 6506   5.152   0.639   5.187
 1869SOL    HW2 6507   5.256   0.747   5.252
 1870SOL     OW 6508   6.075   0.401   6.129
 1870SOL    HW1 6509   6.085   0.365   6.037
 1870SOL    HW2 6510   6.145   0.360   6.188
 1871SOL     OW 6511   0.958   6.077   0.104
 1871SOL    HW1 6512   1.000   6.167   0.103
 1871SOL    HW2 6513   0.881   6.074   0.040
 1872SOL     OW 6514   2.296   2.788   1.614
 1872SOL    HW1 6515   2.374   2.825   1.665
 1872SOL    HW2 6516   2.231   2.861   1.595
 1873SOL     OW 6517   5.907   1.149   1.677
 1873SOL    HW1 6518   5.947   1.075   1.730
 1873SOL    HW2 6519   5.978   1.217   1.658
 1874SOL     OW 6520   1.467   5.721   6.602
 1874SOL    HW1 6521   1.454   5.657   6.678
 1874SOL    HW2 6522   1.471   5.670   6.516
 1875SOL     OW 6523   0.243   6.347   2.079
 1875SOL    HW1 6524   0.269   6.381   2.169
 1875SOL    HW2 6525   0.321   6.300   2.037
 1876SOL     OW 6526   0.316   4.618   0.774
 1876SOL    HW1 6527   0.390   4.678   0.742
 1876SOL    HW2 6528   0.268   4.579   0.696
 1877SOL     OW 6529   1.450   1.888   2.330
 1877SOL    HW1 6530   1.473   1.791   2.340
 1877SOL    HW2 6531   1.360   1.897   2.287
 1878SOL     OW 6532   4.878   3.675   4.148
 1878SOL    HW1 6533   4.837   3.735   4.217
 1878SOL    HW2 6534   4.977   3.676   4.157
 1879SOL     OW 6535   4.383   6.263   4.817
 1879SOL    HW1 6536   4.345   6.314   4.893
 1879SOL    HW2 6537   4.482   6.277   4.814
 1880SOL     OW 6538   0.985   2.138   4.086
 1880SOL    HW1 6539   0.955   2.043   4.085
 1880SOL    HW2 6540   1.039   2.157   4.004
 1881SOL     OW 6541   2.095   1.304   3.659
 1881SOL    HW1 6542   2.175   1.316   3.718
 1881SOL    HW2 6543   2.040   1.228   3.694
 1882SOL     OW 6544   2.877   5.399   0.438
 1882SOL    HW1 6545   2.786   5.362   0.416
 1882SOL    HW2 6546   2.874   5.499   0.433
 1883SOL     OW 6547   2.532   2.517   2.433
 1883SOL    HW1 6548   2.609   2.456   2.452
 1883SOL    HW2 6549   2.491   2.547   2.520
 1884SOL     OW 6550   4.986   0.593   0.418
 1884SOL    HW1 6551   4.929   0.531   0.473
 1884SOL    HW2 6552   5.024   0.664   0.477
 1885SOL     OW 6553   0.058   1.585   0.512
 1885SOL    HW1 6554   0.082   1.682   0.524
 1885SOL    HW2 6555   0.120   1.528   0.565
 1886SOL     OW 6556   3.782   2.753   5.719
 1886SOL    HW1 6557   3.805   2.683   5.787
 1886SOL    HW2 6558   3.688   2.782   5.732
 1887SOL     OW 6559   0.923   6.083   5.037
 1887SOL    HW1 6560   0.910   6.136   4.952
 1887SOL    HW2 6561   0.913   5.986   5.017
 1888SOL     OW 6562   1.602   2.221   6.195
 1888SOL    HW1 6563   1.651   2.189   6.114
 1888SOL    HW2 6564   1.644   2.305   6.228
 1889SOL     OW 6565   2.867   3.540   0.112
 1889SOL    HW1 6566   2.865   3.482   0.031
 1889SOL    HW2 6567   2.774   3.551   0.147
 1890SOL     OW 6568   5.980   6.014   6.644
 1890SOL    HW1 6569   5.893   6.061   6.630
 1890SOL    HW2 6570   6.041   6.072   6.698
 1891SOL     OW 6571   5.244   3.512   6.927
 1891SOL    HW1 6572   5.287   3.525   6.837
 1891SOL    HW2 6573   5.311   3.473   6.990
 1892SOL     OW 6574   3.980   0.161   2.873
 1892SOL    HW1 6575   3.961   0.097   2.948
 1892SOL    HW2 6576   4.056   0.221   2.898
 1893SOL     OW 6577   2.676   1.062   6.032
 1893SOL    HW1 6578   2.707   0.982   5.980
 1893SOL    HW2 6579   2.750   1.093   6.092
 1894SOL     OW 6580   4.959   3.566   1.342
 1894SOL    HW1 6581   5.022   3.644   1.342
 1894SOL    HW2 6582   4.996   3.493   1.286
 1895SOL     OW 6583   4.444   6.007   3.527
 1895SOL    HW1 6584   4.465   6.083   3.589
 1895SOL    HW2 6585   4.435   5.923   3.579
 1896SOL     OW 6586   6.236   2.310   5.184
 1896SOL    HW1 6587   6.311   2.364   5.145
 1896SOL    HW2 6588   6.266   2.271   5.271
 1897SOL     OW 6589   5.669   4.913   2.886
 1897SOL    HW1 6590   5.592   4.861   2.849
 1897SOL    HW2 6591   5.675   4.897   2.985
 1898SOL     OW 6592   5.655   6.870   6.936
 1898SOL    HW1 6593   5.720   6.942   6.911
 1898SOL    HW2 6594   5.704   6.795   6.981
 1899SOL     OW 6595   1.724   2.806   3.846
 1899SOL    HW1 6596   1.778   2.883   3.812
 1899SOL    HW2 6597   1.756   2.781   3.938
 1900SOL     OW 6598   2.429   5.845   1.536
 1900SOL    HW1 6599   2.524   5.822   1.514
 1900SOL    HW2 6600   2.368   5.779   1.493
 1901SOL     OW 6601   1.050   0.708   6.095
 1901SOL    HW1 6602   1.065   0.611   6.109
 1901SOL    HW2 6603   1.028   0.726   5.999
 1902SOL     OW 6604   1.508   2.837   5.192
 1902SOL    HW1 6605   1.456   2.922   5.181
 1902SOL    HW2 6606   1.456   2.761   5.154
 1903SOL     OW 6607   6.623   4.850   4.011
 1903SOL    HW1 6608   6.540   4.879   3.962
 1903SOL    HW2 6609   6.647   4.758   3.983
 1904SOL     OW 6610   0.157   0.303   4.219
 1904SOL    HW1 6611   0.162   0.393   4.263
 1904SOL    HW2 6612   0.062   0.274   4.212
 1905SOL     OW 6613   6.634   2.909   4.318
 1905SOL    HW1 6614   6.594   2.838   4.376
 1905SOL    HW2 6615   6.711   2.951   4.365
 1906SOL     OW 6616   2.891   6.166   5.569
 1906SOL    HW1 6617   2.913   6.262   5.590
 1906SOL    HW2 6618   2.838   6.127   5.645
 1907SOL     OW 6619   4.263   6.213   4.028
 1907SOL    HW1 6620   4.317   6.297   4.031
 1907SOL    HW2 6621   4.316   6.140   3.986
 1908SOL     OW 6622   5.077   6.171   0.728
 1908SOL    HW1 6623   5.065   6.086   0.676
 1908SOL    HW2 6624   5.061   6.249   0.669
 1909SOL     OW 6625   4.448   5.776   3.676
 1909SOL    HW1 6626   4.356   5.749   3.705
 1909SOL    HW2 6627   4.516   5.725   3.730
 1910SOL     OW 6628   4.895   3.299   5.080
 1910SOL    HW1 6629   4.846   3.385   5.068
 1910SOL    HW2 6630   4.873   3.237   5.005
 1911SOL     OW 6631   0.220   3.495   5.674
 1911SOL    HW1 6632   0.235   3.584   5.630
 1911SOL    HW2 6633   0.193   3.510   5.769
 1912SOL     OW 6634   2.785   5.893   3.226
 1912SOL    HW1 6635   2.755   5.984   3.200
 1912SOL    HW2 6636   2.854   5.900   3.299
 1913SOL     OW 6637   1.566   4.566   5.276
 1913SOL    HW1 6638   1.663   4.574   5.297
 1913SOL    HW2 6639   1.551   4.488   5.216
 1914SOL     OW 6640   4.309   1.248   5.510
 1914SOL    HW1 6641   4.221   1.205   5.493
 1914SOL    HW2 6642   4.300   1.347   5.502
 1915SOL     OW 6643   2.782   0.328   5.222
 1915SOL    HW1 6644   2.713   0.284   5.279
 1915SOL    HW2 6645   2.786   0.426   5.243
 1916SOL     OW 6646   3.880   6.159   2.962
 1916SOL    HW1 6647   3.967   6.202   2.985
 1916SOL    HW2 6648   3.825   6.220   2.906
 1917SOL     OW 6649   3.008   3.582   4.434
 1917SOL    HW1 6650   2.980   3.631   4.517
 1917SOL    HW2 6651   2.958   3.617   4.355
 1918SOL     OW 6652   6.482   6.723   5.669
 1918SOL    HW1 6653   6.537   6.687   5.594
 1918SOL    HW2 6654   6.386   6.727   5.642
 1919SOL     OW 6655   6.572   6.956   3.009
 1919SOL    HW1 6656   6.537   6.896   3.081
 1919SOL    HW2 6657   6.649   7.010   3.045
 1920SOL     OW 6658   6.455   5.980   5.034
 1920SOL    HW1 6659   6.400   6.055   4.998
 1920SOL    HW2 6660   6.451   5.902   4.971
 1921SOL     OW 6661   1.714   6.762   6.950
 1921SOL    HW1 6662   1.742   6.669   6.925
 1921SOL    HW2 6663   1.793   6.811   6.988
 1922SOL     OW 6664   4.144   3.987   0.710
 1922SOL    HW1 6665   4.227   3.972   0.764
 1922SOL    HW2 6666   4.065   3.951   0.760
 1923SOL     OW 6667   1.629   2.933   0.230
 1923SOL    HW1 6668   1.556   2.876   0.193
 1923SOL    HW2 6669   1.589   3.008   0.283
 1924SOL     OW 6670   0.304   4.285   1.043
 1924SOL    HW1 6671   0.298   4.383   1.029
 1924SOL    HW2 6672   0.355   4.266   1.127
 1925SOL     OW 6673   3.585   4.212   0.220
 1925SOL    HW1 6674   3.626   4.303   0.227
 1925SOL    HW2 6675   3.658   4.144   0.211
 1926SOL     OW 6676   0.438   0.519   3.685
 1926SOL    HW1 6677   0.339   0.512   3.696
 1926SOL    HW2 6678   0.476   0.429   3.666
 1927SOL     OW 6679   4.517   3.385   1.191
 1927SOL    HW1 6680   4.576   3.307   1.173
 1927SOL    HW2 6681   4.462   3.368   1.273
 1928SOL     OW 6682   0.071   5.648   5.035
 1928SOL    HW1 6683   0.126   5.566   5.051
 1928SOL    HW2 6684   0.080   5.677   4.940
 1929SOL     OW 6685   1.558   6.128   3.352
 1929SOL    HW1 6686   1.629   6.082   3.405
 1929SOL    HW2 6687   1.568   6.106   3.255
 1930SOL     OW 6688   6.815   5.023   6.678
 1930SOL    HW1 6689   6.719   5.035   6.706
 1930SOL    HW2 6690   6.834   5.081   6.600
 1931SOL     OW 6691   0.379   2.109   5.154
 1931SOL    HW1 6692   0.347   2.028   5.106
 1931SOL    HW2 6693   0.307   2.179   5.152
 1932SOL     OW 6694   6.131   2.876   2.658
 1932SOL    HW1 6695   6.213   2.913   2.614
 1932SOL    HW2 6696   6.084   2.950   2.708
 1933SOL     OW 6697   2.661   5.002   0.789
 1933SOL    HW1 6698   2.612   5.026   0.873
 1933SOL    HW2 6699   2.700   4.910   0.798
 1934SOL     OW 6700   6.893   6.436   3.777
 1934SOL    HW1 6701   6.856   6.347   3.801
 1934SOL    HW2 6702   6.819   6.503   3.770
 1935SOL     OW 6703   1.924   0.828   2.970
 1935SOL    HW1 6704   1.876   0.840   3.057
 1935SOL    HW2 6705   1.857   0.814   2.897
 1936SOL     OW 6706   6.885   6.120   5.285
 1936SOL    HW1 6707   6.886   6.193   5.217
 1936SOL    HW2 6708   6.880   6.032   5.238
 1937SOL     OW 6709   3.923   1.159   3.144
 1937SOL    HW1 6710   3.888   1.141   3.052
 1937SOL    HW2 6711   3.879   1.098   3.209
 1938SOL     OW 6712   5.098   1.194   4.455
 1938SOL    HW1 6713   5.059   1.155   4.372
 1938SOL    HW2 6714   5.105   1.293   4.446
 1939SOL     OW 6715   2.621   0.822   3.893
 1939SOL    HW1 6716   2.666   0.802   3.980
 1939SOL    HW2 6717   2.571   0.741   3.861
 1940SOL     OW 6718   6.097   5.176   6.422
 1940SOL    HW1 6719   6.143   5.097   6.463
 1940SOL    HW2 6720   6.016   5.145   6.373
 1941SOL     OW 6721   5.387   5.022   2.845
 1941SOL    HW1 6722   5.473   4.995   2.887
 1941SOL    HW2 6723   5.345   4.943   2.800
 1942SOL     OW 6724   6.928   4.505   3.377
 1942SOL    HW1 6725   6.914   4.602   3.398
 1942SOL    HW2 6726   6.949   4.456   3.461
 1943SOL     OW 6727   3.009   5.433   3.042
 1943SOL    HW1 6728   3.040   5.351   2.993
 1943SOL    HW2 6729   3.044   5.515   2.995
 1944SOL     OW 6730   0.164   0.166   2.148
 1944SOL    HW1 6731   0.187   0.259   2.119
 1944SOL    HW2 6732   0.110   0.121   2.078
 1945SOL     OW 6733   3.391   4.951   3.687
 1945SOL    HW1 6734   3.336   4.907   3.759
 1945SOL    HW2 6735   3.482   4.973   3.723
 1946SOL     OW 6736   1.798   6.380   0.102
 1946SOL    HW1 6737   1.709   6.347   0.132
 1946SOL    HW2 6738   1.870   6.320   0.138
 1947SOL     OW 6739   4.959   0.126   3.730
 1947SOL    HW1 6740   4.946   0.093   3.823
 1947SOL    HW2 6741   4.891   0.195   3.708
 1948SOL     OW 6742   6.760   3.657   5.431
 1948SOL    HW1 6743   6.821   3.623   5.503
 1948SOL    HW2 6744   6.808   3.727   5.377
 1949SOL     OW 6745   5.095   4.059   6.467
 1949SOL    HW1 6746   5.063   4.016   6.551
 1949SOL    HW2 6747   5.192   4.041   6.454
 1950SOL     OW 6748   3.183   5.124   1.167
 1950SOL    HW1 6749   3.189   5.095   1.262
 1950SOL    HW2 6750   3.273   5.114   1.124
 1951SOL     OW 6751   6.633   2.906   0.410
 1951SOL    HW1 6752   6.612   2.932   0.315
 1951SOL    HW2 6753   6.604   2.812   0.426
 1952SOL     OW 6754   3.552   3.105   5.186
 1952SOL    HW1 6755   3.629   3.160   5.219
 1952SOL    HW2 6756   3.566   3.009   5.210
 1953SOL     OW 6757   0.196   2.726   4.608
 1953SOL    HW1 6758   0.197   2.716   4.508
 1953SOL    HW2 6759   0.119   2.785   4.634
 1954SOL     OW 6760   2.320   1.951   3.311
 1954SOL    HW1 6761   2.403   1.895   3.319
 1954SOL    HW2 6762   2.312   2.010   3.391
 1955SOL     OW 6763   5.974   5.193   1.943
 1955SOL    HW1 6764   6.034   5.141   1.883
 1955SOL    HW2 6765   5.924   5.131   2.003
 1956SOL     OW 6766   5.360   6.228   2.192
 1956SOL    HW1 6767   5.268   6.250   2.223
 1956SOL    HW2 6768   5.355   6.165   2.114
 1957SOL     OW 6769   0.801   6.640   5.591
 1957SOL    HW1 6770   0.708   6.663   5.565
 1957SOL    HW2 6771   0.865   6.681   5.526
 1958SOL     OW 6772   4.660   3.156   5.764
 1958SOL    HW1 6773   4.637   3.177   5.858
 1958SOL    HW2 6774   4.620   3.068   5.739
 1959SOL     OW 6775   2.323   1.574   0.478
 1959SOL    HW1 6776   2.321   1.482   0.439
 1959SOL    HW2 6777   2.342   1.568   0.576
 1960SOL     OW 6778   5.406   6.297   2.701
 1960SOL    HW1 6779   5.327   6.328   2.648
 1960SOL    HW2 6780   5.474   6.259   2.639
 1961SOL     OW 6781   6.180   4.915   5.423
 1961SOL    HW1 6782   6.265   4.926   5.370
 1961SOL    HW2 6783   6.107   4.885   5.362
 1962SOL     OW 6784   6.687   6.630   3.733
 1962SOL    HW1 6785   6.637   6.642   3.819
 1962SOL    HW2 6786   6.660   6.702   3.668
 1963SOL     OW 6787   2.833   0.267   3.009
 1963SOL    HW1 6788   2.773   0.339   2.976
 1963SOL    HW2 6789   2.800   0.234   3.098
 1964SOL     OW 6790   5.955   4.130   1.855
 1964SOL    HW1 6791   6.015   4.115   1.934
 1964SOL    HW2 6792   5.861   4.141   1.887
 1965SOL     OW 6793   2.550   5.938   3.590
 1965SOL    HW1 6794   2.461   5.982   3.605
 1965SOL    HW2 6795   2.585   5.903   3.677
 1966SOL     OW 6796   6.030   6.327   6.554
 1966SOL    HW1 6797   5.943   6.281   6.572
 1966SOL    HW2 6798   6.025   6.422   6.585
 1967SOL     OW 6799   4.994   3.197   4.625
 1967SOL    HW1 6800   5.017   3.293   4.646
 1967SOL    HW2 6801   5.018   3.140   4.704
 1968SOL     OW 6802   3.697   5.442   4.919
 1968SOL    HW1 6803   3.790   5.467   4.891
 1968SOL    HW2 6804   3.700   5.354   4.967
 1969SOL     OW 6805   7.014   1.882   1.593
 1969SOL    HW1 6806   0.019   1.844   1.683
 1969SOL    HW2 6807   6.946   1.825   1.547
 1970SOL     OW 6808   1.596   0.112   3.839
 1970SOL    HW1 6809   1.568   0.098   3.744
 1970SOL    HW2 6810   1.520   0.093   3.900
 1971SOL     OW 6811   0.196   1.077   5.823
 1971SOL    HW1 6812   0.185   1.138   5.744
 1971SOL    HW2 6813   0.196   0.982   5.792
 1972SOL     OW 6814   1.592   6.163   3.691
 1972SOL    HW1 6815   1.626   6.111   3.613
 1972SOL    HW2 6816   1.503   6.128   3.719
 1973SOL     OW 6817   2.594   2.803   6.854
 1973SOL    HW1 6818   2.687   2.838   6.863
 1973SOL    HW2 6819   2.595   2.704   6.868
 1974SOL     OW 6820   5.529   6.804   4.305
 1974SOL    HW1 6821   5.592   6.772   4.376
 1974SOL    HW2 6822   5.535   6.903   4.297
 1975SOL     OW 6823   2.804   0.217   3.530
 1975SOL    HW1 6824   2.879   0.282   3.538
 1975SOL    HW2 6825   2.795   0.188   3.434
 1976SOL     OW 6826   6.849   4.263   6.780
 1976SOL    HW1 6827   6.946   4.282   6.765
 1976SOL    HW2 6828   6.826   4.173   6.740
 1977SOL     OW 6829   2.814   2.041   5.119
 1977SOL    HW1 6830   2.909   2.053   5.149
 1977SOL    HW2 6831   2.776   2.129   5.092
 1978SOL     OW 6832   6.753   2.034   5.137
 1978SOL    HW1 6833   6.791   2.066   5.050
 1978SOL    HW2 6834   6.762   1.935   5.143
 1979SOL     OW 6835   5.860   4.338   3.128
 1979SOL    HW1 6836   5.878   4.416   3.067
 1979SOL    HW2 6837   5.771   4.351   3.172
 1980SOL     OW 6838   3.321   1.002   1.306
 1980SOL    HW1 6839   3.255   0.962   1.371
 1980SOL    HW2 6840   3.413   0.995   1.344
 1981SOL     OW 6841   4.819   3.354   1.754
 1981SOL    HW1 6842   4.842   3.308   1.840
 1981SOL    HW2 6843   4.786   3.446   1.773
 1982SOL     OW 6844   6.210   0.012   5.454
 1982SOL    HW1 6845   6.171   0.008   5.362
 1982SOL    HW2 6846   6.238   6.936   5.483
 1983SOL     OW 6847   0.516   4.414   2.101
 1983SOL    HW1 6848   0.574   4.350   2.050
 1983SOL    HW2 6849   0.501   4.379   2.193
 1984SOL     OW 6850   4.262   0.803   5.436
 1984SOL    HW1 6851   4.182   0.743   5.434
 1984SOL    HW2 6852   4.324   0.773   5.509
 1985SOL     OW 6853   1.900   6.315   1.232
 1985SOL    HW1 6854   1.876   6.404   1.271
 1985SOL    HW2 6855   1.981   6.324   1.173
 1986SOL     OW 6856   0.268   1.883   6.758
 1986SOL    HW1 6857   0.312   1.972   6.750
 1986SOL    HW2 6858   0.256   1.843   6.667
 1987SOL     OW 6859   3.043   4.011   0.609
 1987SOL    HW1 6860   3.135   3.972   0.616
 1987SOL    HW2 6861   3.038   4.072   0.530
 1988SOL     OW 6862   4.734   3.123   0.730
 1988SOL    HW1 6863   4.707   3.124   0.827
 1988SOL    HW2 6864   4.798   3.198   0.713
 1989SOL     OW 6865   2.424   1.134   4.153
 1989SOL    HW1 6866   2.517   1.154   4.123
 1989SOL    HW2 6867   2.390   1.208   4.211
 1990SOL     OW 6868   2.111   1.329   2.499
 1990SOL    HW1 6869   2.211   1.321   2.498
 1990SOL    HW2 6870   2.084   1.410   2.447
 1991SOL     OW 6871   4.925   5.892   3.228
 1991SOL    HW1 6872   4.911   5.838   3.145
 1991SOL    HW2 6873   5.022   5.894   3.251
 1992SOL     OW 6874   2.125   6.524   5.430
 1992SOL    HW1 6875   2.140   6.591   5.502
 1992SOL    HW2 6876   2.052   6.461   5.457
 1993SOL     OW 6877   3.291   3.085   4.333
 1993SOL    HW1 6878   3.359   3.114   4.266
 1993SOL    HW2 6879   3.200   3.085   4.291
 1994SOL     OW 6880   5.800   2.425   2.030
 1994SOL    HW1 6881   5.788   2.496   2.100
 1994SOL    HW2 6882   5.890   2.384   2.040
 1995SOL     OW 6883   4.297   2.329   1.505
 1995SOL    HW1 6884   4.221   2.351   1.567
 1995SOL    HW2 6885   4.382   2.366   1.543
 1996SOL     OW 6886   2.835   3.984   5.230
 1996SOL    HW1 6887   2.868   3.892   5.252
 1996SOL    HW2 6888   2.735   3.983   5.226
 1997SOL     OW 6889   5.548   0.232   4.112
 1997SOL    HW1 6890   5.542   0.191   4.021
 1997SOL    HW2 6891   5.616   0.305   4.111
 1998SOL     OW 6892   3.037   4.808   5.153
 1998SOL    HW1 6893   3.112   4.793   5.217
 1998SOL    HW2 6894   2.973   4.732   5.158
 1999SOL     OW 6895   2.286   0.574   2.042
 1999SOL    HW1 6896   2.233   0.537   1.966
 1999SOL    HW2 6897   2.381   0.542   2.035
 2000SOL     OW 6898   3.571   1.578   4.575
 2000SOL    HW1 6899   3.602   1.531   4.658
 2000SOL    HW2 6900   3.474   1.561   4.561
 2001SOL     OW 6901   2.461   3.404   6.857
 2001SOL    HW1 6902   2.420   3.403   6.949
 2001SOL    HW2 6903   2.390   3.423   6.790
 2002SOL     OW 6904   1.545   5.507   5.100
 2002SOL    HW1 6905   1.487   5.513   5.181
 2002SOL    HW2 6906   1.504   5.559   5.025
 2003SOL     OW 6907   6.288   4.806   3.307
 2003SOL    HW1 6908   6.269   4.903   3.300
 2003SOL    HW2 6909   6.380   4.787   3.273
 2004SOL     OW 6910   3.272   0.504   6.735
 2004SOL    HW1 6911   3.365   0.540   6.723
 2004SOL    HW2 6912   3.272   0.406   6.718
 2005SOL     OW 6913   2.864   6.353   5.183
 2005SOL    HW1 6914   2.936   6.415   5.214
 2005SOL    HW2 6915   2.836   6.294   5.259
 2006SOL     OW 6916   4.568   5.883   3.294
 2006SOL    HW1 6917   4.538   5.957   3.354
 2006SOL    HW2 6918   4.590   5.803   3.349
 2007SOL     OW 6919   6.140   5.234   0.153
 2007SOL    HW1 6920   6.187   5.176   0.220
 2007SOL    HW2 6921   6.167   5.329   0.167
 2008SOL     OW 6922   6.975   6.384   4.275
 2008SOL    HW1 6923   0.050   6.354   4.306
 2008SOL    HW2 6924   6.976   6.484   4.263
 2009SOL     OW 6925   0.901   0.383   0.331
 2009SOL    HW1 6926   0.974   0.412   0.393
 2009SOL    HW2 6927   0.893   0.448   0.256
 2010SOL     OW 6928   1.187   6.969   1.199
 2010SOL    HW1 6929   1.242   7.013   1.270
 2010SOL    HW2 6930   1.244   6.907   1.146
 2011SOL     OW 6931   6.983   2.545   4.861
 2011SOL    HW1 6932   6.907   2.582   4.916
 2011SOL    HW2 6933   6.947   2.480   4.795
 2012SOL     OW 6934   6.903   3.610   0.927
 2012SOL    HW1 6935   6.892   3.665   1.009
 2012SOL    HW2 6936   6.854   3.523   0.938
 2013SOL     OW 6937   4.318   1.502   2.657
 2013SOL    HW1 6938   4.385   1.446   2.609
 2013SOL    HW2 6939   4.365   1.567   2.716
 2014SOL     OW 6940   2.343   5.571   3.436
 2014SOL    HW1 6941   2.373   5.522   3.354
 2014SOL    HW2 6942   2.385   5.662   3.437
 2015SOL     OW 6943   3.439   6.558   0.185
 2015SOL    HW1 6944   3.427   6.602   0.096
 2015SOL    HW2 6945   3.415   6.461   0.177
 2016SOL     OW 6946   6.210   5.183   3.662
 2016SOL    HW1 6947   6.112   5.203   3.666
 2016SOL    HW2 6948   6.245   5.208   3.572
 2017SOL     OW 6949   1.928   4.863   2.054
 2017SOL    HW1 6950   1.848   4.845   1.996
 2017SOL    HW2 6951   2.007   4.815   2.017
 2018SOL     OW 6952   0.396   4.328   6.372
 2018SOL    HW1 6953   0.368   4.248   6.426
 2018SOL    HW2 6954   0.425   4.298   6.281
 2019SOL     OW 6955   5.686   1.682   2.943
 2019SOL    HW1 6956   5.757   1.682   2.873
 2019SOL    HW2 6957   5.602   1.721   2.905
 2020SOL     OW 6958   1.573   5.363   3.628
 2020SOL    HW1 6959   1.566   5.453   3.670
 2020SOL    HW2 6960   1.604   5.372   3.533
 2021SOL     OW 6961   1.532   6.654   2.007
 2021SOL    HW1 6962   1.511   6.567   2.052
 2021SOL    HW2 6963   1.528   6.728   2.074
 2022SOL     OW 6964   2.577   4.638   1.376
 2022SOL    HW1 6965   2.630   4.687   1.446
 2022SOL    HW2 6966   2.565   4.698   1.296
 2023SOL     OW 6967   6.357   1.596   6.227
 2023SOL    HW1 6968   6.351   1.650   6.311
 2023SOL    HW2 6969   6.347   1.656   6.148
 2024SOL     OW 6970   6.382   0.360   2.735
 2024SOL    HW1 6971   6.467   0.325   2.774
 2024SOL    HW2 6972   6.312   0.289   2.739
 2025SOL     OW 6973   6.503   0.859   0.720
 2025SOL    HW1 6974   6.601   0.841   0.735
 2025SOL    HW2 6975   6.449   0.802   0.783
 2026SOL     OW 6976   1.452   2.121   5.434
 2026SOL    HW1 6977   1.525   2.115   5.365
 2026SOL    HW2 6978   1.482   2.183   5.507
 2027SOL     OW 6979   0.821   1.294   2.219
 2027SOL    HW1 6980   0.877   1.213   2.201
 2027SOL    HW2 6981   0.852   1.337   2.303
 2028SOL     OW 6982   3.472   4.029   6.013
 2028SOL    HW1 6983   3.570   4.048   6.012
 2028SOL    HW2 6984   3.455   3.946   6.067
 2029SOL     OW 6985   1.977   0.354   0.388
 2029SOL    HW1 6986   1.884   0.375   0.420
 2029SOL    HW2 6987   1.974   0.326   0.292
 2030SOL     OW 6988   1.614   1.696   2.732
 2030SOL    HW1 6989   1.641   1.695   2.828
 2030SOL    HW2 6990   1.695   1.713   2.675
 2031SOL     OW 6991   4.621   0.163   2.724
 2031SOL    HW1 6992   4.609   0.219   2.642
 2031SOL    HW2 6993   4.702   0.106   2.714
 2032SOL     OW 6994   5.715   6.358   1.388
 2032SOL    HW1 6995   5.806   6.399   1.384
 2032SOL    HW2 6996   5.688   6.328   1.296
 2033SOL     OW 6997   6.761   5.891   6.613
 2033SOL    HW1 6998   6.797   5.897   6.706
 2033SOL    HW2 6999   6.690   5.822   6.608
 2034SOL     OW 7000   2.686   6.887   3.425
 2034SOL    HW1 7001   2.617   6.946   3.383
 2034SOL    HW2 7002   2.709   6.922   3.516
 2035SOL     OW 7003   0.745   2.991   1.134
 2035SOL    HW1 7004   0.730   3.059   1.062
 2035SOL    HW2 7005   0.663   2.934   1.142
 2036SOL     OW 7006   1.173   4.449   0.597
 2036SOL    HW1 7007   1.102   4.397   0.645
 2036SOL    HW2 7008   1.178   4.541   0.637
 2037SOL     OW 7009   0.047   1.624   6.175
 2037SOL    HW1 7010   0.124   1.589   6.121
 2037SOL    HW2 7011   6.977   1.592   6.136
 2038SOL     OW 7012   0.918   6.988   5.531
 2038SOL    HW1 7013   0.992   0.025   5.488
 2038SOL    HW2 7014   0.865   6.943   5.460
 2039SOL     OW 7015   1.310   5.227   2.090
 2039SOL    HW1 7016   1.343   5.244   1.997
 2039SOL    HW2 7017   1.274   5.312   2.129
 2040SOL     OW 7018   3.091   3.890   4.349
 2040SOL    HW1 7019   3.039   3.972   4.376
 2040SOL    HW2 7020   3.137   3.852   4.429
 2041SOL     OW 7021   6.193   3.491   0.165
 2041SOL    HW1 7022   6.166   3.410   0.113
 2041SOL    HW2 7023   6.275   3.531   0.124
 2042SOL     OW 7024   3.289   5.396   0.478
 2042SOL    HW1 7025   3.284   5.413   0.576
 2042SOL    HW2 7026   3.355   5.458   0.436
 2043SOL     OW 7027   4.441   4.489   2.561
 2043SOL    HW1 7028   4.410   4.416   2.501
 2043SOL    HW2 7029   4.521   4.457   2.613
 2044SOL     OW 7030   6.406   0.352   1.912
 2044SOL    HW1 7031   6.421   0.253   1.917
 2044SOL    HW2 7032   6.375   0.385   2.000
 2045SOL     OW 7033   2.671   5.654   6.200
 2045SOL    HW1 7034   2.625   5.581   6.149
 2045SOL    HW2 7035   2.768   5.655   6.176
 2046SOL     OW 7036   5.985   0.053   4.942
 2046SOL    HW1 7037   6.082   0.072   4.957
 2046SOL    HW2 7038   5.959   6.986   4.993
 2047SOL     OW 7039   5.614   2.239   6.822
 2047SOL    HW1 7040   5.525   2.276   6.792
 2047SOL    HW2 7041   5.609   2.216   6.919
 2048SOL     OW 7042   4.137   6.654   5.388
 2048SOL    HW1 7043   4.177   6.563   5.379
 2048SOL    HW2 7044   4.062   6.664   5.322
 2049SOL     OW 7045   4.836   5.895   0.670
 2049SOL    HW1 7046   4.847   5.828   0.743
 2049SOL    HW2 7047   4.769   5.964   0.698
 2050SOL     OW 7048   5.365   1.055   4.157
 2050SOL    HW1 7049   5.416   1.073   4.073
 2050SOL    HW2 7050   5.340   1.143   4.199
 2051SOL     OW 7051   2.465   5.061   0.595
 2051SOL    HW1 7052   2.549   5.011   0.613
 2051SOL    HW2 7053   2.462   5.143   0.652
 2052SOL     OW 7054   1.356   2.497   0.788
 2052SOL    HW1 7055   1.387   2.434   0.717
 2052SOL    HW2 7056   1.261   2.521   0.772
 2053SOL     OW 7057   5.385   1.279   0.671
 2053SOL    HW1 7058   5.448   1.357   0.664
 2053SOL    HW2 7059   5.380   1.248   0.765
 2054SOL     OW 7060   6.955   3.649   1.754
 2054SOL    HW1 7061   0.033   3.666   1.723
 2054SOL    HW2 7062   6.943   3.685   1.846
 2055SOL     OW 7063   6.332   1.929   4.110
 2055SOL    HW1 7064   6.407   1.866   4.085
 2055SOL    HW2 7065   6.252   1.875   4.137
 2056SOL     OW 7066   1.292   0.389   2.230
 2056SOL    HW1 7067   1.326   0.354   2.317
 2056SOL    HW2 7068   1.197   0.417   2.240
 2057SOL     OW 7069   6.896   2.484   3.821
 2057SOL    HW1 7070   6.817   2.463   3.763
 2057SOL    HW2 7071   6.866   2.491   3.916
 2058SOL     OW 7072   0.295   1.785   1.801
 2058SOL    HW1 7073   0.344   1.715   1.853
 2058SOL    HW2 7074   0.337   1.874   1.817
 2059SOL     OW 7075   1.275   1.247   6.601
 2059SOL    HW1 7076   1.356   1.243   6.542
 2059SOL    HW2 7077   1.194   1.255   6.544
 2060SOL     OW 7078   0.401   5.657   1.895
 2060SOL    HW1 7079   0.476   5.600   1.929
 2060SOL    HW2 7080   0.370   5.622   1.806
 2061SOL     OW 7081   0.901   1.506   1.302
 2061SOL    HW1 7082   0.848   1.433   1.260
 2061SOL    HW2 7083   0.859   1.594   1.280
 2062SOL     OW 7084   4.211   0.365   3.206
 2062SOL    HW1 7085   4.212   0.352   3.106
 2062SOL    HW2 7086   4.148   0.439   3.229
 2063SOL     OW 7087   2.884   1.846   0.548
 2063SOL    HW1 7088   2.788   1.825   0.566
 2063SOL    HW2 7089   2.932   1.854   0.636
 2064SOL     OW 7090   0.914   2.134   0.058
 2064SOL    HW1 7091   0.932   2.189   6.992
 2064SOL    HW2 7092   0.853   2.183   0.119
 2065SOL     OW 7093   6.025   3.005   1.730
 2065SOL    HW1 7094   6.038   3.020   1.828
 2065SOL    HW2 7095   5.931   3.030   1.705
 2066SOL     OW 7096   1.970   6.770   3.423
 2066SOL    HW1 7097   2.059   6.812   3.439
 2066SOL    HW2 7098   1.903   6.810   3.485
 2067SOL     OW 7099   0.224   6.883   1.099
 2067SOL    HW1 7100   0.300   6.820   1.086
 2067SOL    HW2 7101   0.254   6.977   1.082
 2068SOL     OW 7102   1.936   1.059   5.117
 2068SOL    HW1 7103   2.023   1.034   5.073
 2068SOL    HW2 7104   1.953   1.126   5.188
 2069SOL     OW 7105   0.847   1.944   1.720
 2069SOL    HW1 7106   0.790   1.900   1.790
 2069SOL    HW2 7107   0.917   1.880   1.688
 2070SOL     OW 7108   0.875   1.484   3.025
 2070SOL    HW1 7109   0.918   1.423   2.959
 2070SOL    HW2 7110   0.921   1.476   3.113
 2071SOL     OW 7111   1.669   6.638   4.904
 2071SOL    HW1 7112   1.691   6.552   4.950
 2071SOL    HW2 7113   1.681   6.714   4.968
 2072SOL     OW 7114   4.765   4.809   2.430
 2072SOL    HW1 7115   4.789   4.782   2.337
 2072SOL    HW2 7116   4.845   4.847   2.476
 2073SOL     OW 7117   3.418   6.166   5.674
 2073SOL    HW1 7118   3.512   6.133   5.671
 2073SOL    HW2 7119   3.369   6.122   5.749
 2074SOL     OW 7120   6.411   1.896   1.862
 2074SOL    HW1 7121   6.456   1.927   1.778
 2074SOL    HW2 7122   6.401   1.973   1.925
 2075SOL     OW 7123   3.814   3.547   6.003
 2075SOL    HW1 7124   3.720   3.577   6.021
 2075SOL    HW2 7125   3.836   3.470   6.063
 2076SOL     OW 7126   4.862   0.822   1.046
 2076SOL    HW1 7127   4.792   0.752   1.052
 2076SOL    HW2 7128   4.952   0.781   1.057
 2077SOL     OW 7129   5.265   1.890   3.247
 2077SOL    HW1 7130   5.342   1.845   3.293
 2077SOL    HW2 7131   5.180   1.868   3.296
 2078SOL     OW 7132   4.651   5.771   5.501
 2078SOL    HW1 7133   4.647   5.866   5.469
 2078SOL    HW2 7134   4.641   5.770   5.601
 2079SOL     OW 7135   5.624   1.529   3.426
 2079SOL    HW1 7136   5.631   1.539   3.326
 2079SOL    HW2 7137   5.702   1.478   3.460
 2080SOL     OW 7138   3.189   2.054   4.563
 2080SOL    HW1 7139   3.220   2.058   4.658
 2080SOL    HW2 7140   3.193   1.960   4.530
 2081SOL     OW 7141   0.708   6.226   4.773
 2081SOL    HW1 7142   0.704   6.131   4.804
 2081SOL    HW2 7143   0.617   6.256   4.746
 2082SOL     OW 7144   4.855   0.646   2.225
 2082SOL    HW1 7145   4.913   0.717   2.265
 2082SOL    HW2 7146   4.770   0.640   2.278
 2083SOL     OW 7147   3.511   4.931   5.439
 2083SOL    HW1 7148   3.458   5.009   5.407
 2083SOL    HW2 7149   3.481   4.848   5.393
 2084SOL     OW 7150   0.057   3.018   2.948
 2084SOL    HW1 7151   0.099   2.937   2.989
 2084SOL    HW2 7152   6.982   3.032   2.988
 2085SOL     OW 7153   5.215   6.418   6.470
 2085SOL    HW1 7154   5.139   6.360   6.499
 2085SOL    HW2 7155   5.301   6.377   6.498
 2086SOL     OW 7156   3.025   4.782   0.701
 2086SOL    HW1 7157   3.052   4.856   0.638
 2086SOL    HW2 7158   3.058   4.695   0.665
 2087SOL     OW 7159   5.630   6.009   3.529
 2087SOL    HW1 7160   5.631   5.989   3.627
 2087SOL    HW2 7161   5.708   6.066   3.506
 2088SOL     OW 7162   2.627   7.008   0.613
 2088SOL    HW1 7163   2.566   6.944   0.660
 2088SOL    HW2 7164   2.623   6.990   0.514
 2089SOL     OW 7165   2.814   0.489   6.350
 2089SOL    HW1 7166   2.735   0.436   6.383
 2089SOL    HW2 7167   2.818   0.485   6.251
 2090SOL     OW 7168   3.390   2.936   3.862
 2090SOL    HW1 7169   3.348   3.027   3.864
 2090SOL    HW2 7170   3.405   2.904   3.956
 2091SOL     OW 7171   2.325   4.972   0.170
 2091SOL    HW1 7172   2.326   4.884   0.218
 2091SOL    HW2 7173   2.231   5.004   0.162
 2092SOL     OW 7174   6.371   6.221   0.622
 2092SOL    HW1 7175   6.307   6.297   0.609
 2092SOL    HW2 7176   6.342   6.167   0.702
 2093SOL     OW 7177   1.440   2.754   1.355
 2093SOL    HW1 7178   1.473   2.661   1.338
 2093SOL    HW2 7179   1.403   2.792   1.270
 2094SOL     OW 7180   5.976   0.483   2.226
 2094SOL    HW1 7181   6.044   0.474   2.153
 2094SOL    HW2 7182   5.899   0.422   2.207
 2095SOL     OW 7183   0.149   5.052   4.999
 2095SOL    HW1 7184   0.076   5.065   4.931
 2095SOL    HW2 7185   0.237   5.045   4.952
 2096SOL     OW 7186   4.944   3.891   3.213
 2096SOL    HW1 7187   4.989   3.974   3.183
 2096SOL    HW2 7188   4.923   3.834   3.134
 2097SOL     OW 7189   6.650   3.305   0.035
 2097SOL    HW1 7190   6.655   3.208   0.012
 2097SOL    HW2 7191   6.706   3.324   0.115
 2098SOL     OW 7192   4.848   0.462   4.217
 2098SOL    HW1 7193   4.831   0.451   4.119
 2098SOL    HW2 7194   4.935   0.420   4.241
 2099SOL     OW 7195   2.962   1.290   3.763
 2099SOL    HW1 7196   2.931   1.383   3.784
 2099SOL    HW2 7197   3.033   1.294   3.693
 2100SOL     OW 7198   3.746   3.983   6.589
 2100SOL    HW1 7199   3.676   4.009   6.523
 2100SOL    HW2 7200   3.707   3.919   6.655
 2101SOL     OW 7201   6.450   0.462   3.273
 2101SOL    HW1 7202   6.427   0.478   3.177
 2101SOL    HW2 7203   6.482   0.368   3.284
 2102SOL     OW 7204   0.379   5.254   1.869
 2102SOL    HW1 7205   0.311   5.189   1.835
 2102SOL    HW2 7206   0.462   5.205   1.895
 2103SOL     OW 7207   2.454   3.949   6.695
 2103SOL    HW1 7208   2.398   3.910   6.623
 2103SOL    HW2 7209   2.445   3.894   6.779
 2104SOL     OW 7210   1.381   3.692   5.203
 2104SOL    HW1 7211   1.351   3.785   5.184
 2104SOL    HW2 7212   1.330   3.655   5.281
 2105SOL     OW 7213   6.242   5.724   1.726
 2105SOL    HW1 7214   6.156   5.674   1.716
 2105SOL    HW2 7215   6.282   5.740   1.636
 2106SOL     OW 7216   5.082   5.836   6.724
 2106SOL    HW1 7217   5.039   5.924   6.741
 2106SOL    HW2 7218   5.025   5.782   6.662
 2107SOL     OW 7219   3.466   4.033   0.052
 2107SOL    HW1 7220   3.396   4.025   6.997
 2107SOL    HW2 7221   3.472   4.128   0.083
 2108SOL     OW 7222   5.482   4.933   5.412
 2108SOL    HW1 7223   5.565   4.963   5.460
 2108SOL    HW2 7224   5.507   4.869   5.339
 2109SOL     OW 7225   5.458   6.867   2.571
 2109SOL    HW1 7226   5.474   6.778   2.613
 2109SOL    HW2 7227   5.445   6.936   2.643
 2110SOL     OW 7228   2.347   4.713   5.159
 2110SOL    HW1 7229   2.260   4.689   5.118
 2110SOL    HW2 7230   2.412   4.739   5.087
 2111SOL     OW 7231   1.488   2.492   6.735
 2111SOL    HW1 7232   1.396   2.494   6.774
 2111SOL    HW2 7233   1.482   2.470   6.637
 2112SOL     OW 7234   5.057   3.241   0.994
 2112SOL    HW1 7235   4.960   3.215   0.996
 2112SOL    HW2 7236   5.095   3.220   0.904
 2113SOL     OW 7237   0.032   1.262   2.948
 2113SOL    HW1 7238   0.089   1.311   2.883
 2113SOL    HW2 7239   6.956   1.304   2.951
 2114SOL     OW 7240   1.484   4.003   6.601
 2114SOL    HW1 7241   1.539   4.019   6.519
 2114SOL    HW2 7242   1.489   4.084   6.660
 2115SOL     OW 7243   2.758   5.031   2.086
 2115SOL    HW1 7244   2.851   5.066   2.082
 2115SOL    HW2 7245   2.693   5.108   2.078
 2116SOL     OW 7246   0.053   4.079   3.163
 2116SOL    HW1 7247   0.092   3.993   3.132
 2116SOL    HW2 7248   0.071   4.150   3.096
 2117SOL     OW 7249   6.664   4.856   0.354
 2117SOL    HW1 7250   6.629   4.936   0.401
 2117SOL    HW2 7251   6.682   4.879   0.258
 2118SOL     OW 7252   6.900   4.123   2.101
 2118SOL    HW1 7253   6.939   4.044   2.055
 2118SOL    HW2 7254   6.928   4.207   2.055
 2119SOL     OW 7255   3.403   5.387   1.193
 2119SOL    HW1 7256   3.351   5.314   1.148
 2119SOL    HW2 7257   3.342   5.442   1.249
 2120SOL     OW 7258   0.026   5.587   2.134
 2120SOL    HW1 7259   6.963   5.583   2.073
 2120SOL    HW2 7260   0.031   5.504   2.189
 2121SOL     OW 7261   0.645   4.307   4.928
 2121SOL    HW1 7262   0.642   4.405   4.909
 2121SOL    HW2 7263   0.570   4.262   4.879
 2122SOL     OW 7264   4.494   4.512   5.334
 2122SOL    HW1 7265   4.581   4.466   5.354
 2122SOL    HW2 7266   4.439   4.454   5.275
 2123SOL     OW 7267   4.724   4.622   3.639
 2123SOL    HW1 7268   4.646   4.566   3.614
 2123SOL    HW2 7269   4.697   4.718   3.645
 2124SOL     OW 7270   2.691   1.438   1.319
 2124SOL    HW1 7271   2.715   1.349   1.280
 2124SOL    HW2 7272   2.687   1.431   1.419
 2125SOL     OW 7273   2.876   0.219   1.393
 2125SOL    HW1 7274   2.801   0.283   1.374
 2125SOL    HW2 7275   2.906   0.231   1.488
 2126SOL     OW 7276   2.792   0.793   2.175
 2126SOL    HW1 7277   2.758   0.884   2.199
 2126SOL    HW2 7278   2.891   0.796   2.162
 2127SOL     OW 7279   5.612   2.984   4.822
 2127SOL    HW1 7280   5.520   2.988   4.783
 2127SOL    HW2 7281   5.644   2.889   4.820
 2128SOL     OW 7282   0.752   4.457   4.293
 2128SOL    HW1 7283   0.849   4.458   4.270
 2128SOL    HW2 7284   0.709   4.377   4.252
 2129SOL     OW 7285   3.774   2.406   5.715
 2129SOL    HW1 7286   3.733   2.450   5.635
 2129SOL    HW2 7287   3.730   2.438   5.798
 2130SOL     OW 7288   4.200   6.796   3.506
 2130SOL    HW1 7289   4.148   6.854   3.569
 2130SOL    HW2 7290   4.292   6.783   3.542
 2131SOL     OW 7291   5.381   1.991   6.731
 2131SOL    HW1 7292   5.330   1.961   6.812
 2131SOL    HW2 7293   5.384   2.091   6.730
 2132SOL     OW 7294   2.150   3.310   0.465
 2132SOL    HW1 7295   2.164   3.233   0.402
 2132SOL    HW2 7296   2.238   3.339   0.501
 2133SOL     OW 7297   3.124   3.465   5.961
 2133SOL    HW1 7298   3.175   3.551   5.970
 2133SOL    HW2 7299   3.138   3.428   5.869
 2134SOL     OW 7300   0.902   0.016   1.175
 2134SOL    HW1 7301   0.897   0.087   1.104
 2134SOL    HW2 7302   0.998   7.008   1.192
 2135SOL     OW 7303   6.747   4.449   4.734
 2135SOL    HW1 7304   6.804   4.526   4.705
 2135SOL    HW2 7305   6.773   4.367   4.682
 2136SOL     OW 7306   1.132   4.929   1.236
 2136SOL    HW1 7307   1.089   5.019   1.225
 2136SOL    HW2 7308   1.217   4.939   1.288
 2137SOL     OW 7309   1.784   6.186   4.302
 2137SOL    HW1 7310   1.747   6.277   4.285
 2137SOL    HW2 7311   1.749   6.152   4.390
 2138SOL     OW 7312   5.171   1.238   1.502
 2138SOL    HW1 7313   5.224   1.278   1.577
 2138SOL    HW2 7314   5.110   1.308   1.464
 2139SOL     OW 7315   2.728   0.094   5.628
 2139SOL    HW1 7316   2.744   0.164   5.697
 2139SOL    HW2 7317   2.801   0.025   5.632
 2140SOL     OW 7318   2.529   1.843   4.793
 2140SOL    HW1 7319   2.540   1.799   4.883
 2140SOL    HW2 7320   2.532   1.773   4.721
 2141SOL     OW 7321   6.559   3.622   3.105
 2141SOL    HW1 7322   6.625   3.557   3.067
 2141SOL    HW2 7323   6.467   3.584   3.100
 2142SOL     OW 7324   1.690   2.472   2.942
 2142SOL    HW1 7325   1.781   2.505   2.913
 2142SOL    HW2 7326   1.622   2.499   2.873
 2143SOL     OW 7327   0.631   4.493   6.169
 2143SOL    HW1 7328   0.645   4.591   6.183
 2143SOL    HW2 7329   0.660   4.443   6.251
 2144SOL     OW 7330   6.240   4.557   3.611
 2144SOL    HW1 7331   6.252   4.651   3.642
 2144SOL    HW2 7332   6.193   4.557   3.523
 2145SOL     OW 7333   4.453   1.138   3.772
 2145SOL    HW1 7334   4.444   1.210   3.841
 2145SOL    HW2 7335   4.363   1.102   3.748
 2146SOL     OW 7336   2.162   3.079   0.312
 2146SOL    HW1 7337   2.208   3.006   0.363
 2146SOL    HW2 7338   2.076   3.044   0.275
 2147SOL     OW 7339   5.980   6.910   4.401
 2147SOL    HW1 7340   5.936   6.828   4.365
 2147SOL    HW2 7341   5.983   6.905   4.501
 2148SOL     OW 7342   0.498   3.461   5.861
 2148SOL    HW1 7343   0.524   3.443   5.956
 2148SOL    HW2 7344   0.433   3.537   5.858
 2149SOL     OW 7345   1.207   0.210   0.256
 2149SOL    HW1 7346   1.190   0.296   0.304
 2149SOL    HW2 7347   1.297   0.213   0.212
 2150SOL     OW 7348   1.965   2.517   1.436
 2150SOL    HW1 7349   1.991   2.443   1.498
 2150SOL    HW2 7350   1.947   2.600   1.489
 2151SOL     OW 7351   0.987   5.505   0.294
 2151SOL    HW1 7352   0.912   5.440   0.302
 2151SOL    HW2 7353   0.951   5.594   0.266
 2152SOL     OW 7354   5.388   5.802   4.373
 2152SOL    HW1 7355   5.303   5.826   4.326
 2152SOL    HW2 7356   5.375   5.716   4.423
 2153SOL     OW 7357   4.920   1.389   3.665
 2153SOL    HW1 7358   4.893   1.390   3.569
 2153SOL    HW2 7359   4.962   1.301   3.687
 2154SOL     OW 7360   3.324   0.392   2.997
 2154SOL    HW1 7361   3.244   0.366   2.942
 2154SOL    HW2 7362   3.313   0.486   3.029
 2155SOL     OW 7363   3.993   0.637   0.894
 2155SOL    HW1 7364   3.957   0.545   0.904
 2155SOL    HW2 7365   4.090   0.633   0.868
 2156SOL     OW 7366   5.135   1.710   4.891
 2156SOL    HW1 7367   5.155   1.808   4.880
 2156SOL    HW2 7368   5.098   1.675   4.805
 2157SOL     OW 7369   3.564   6.033   4.212
 2157SOL    HW1 7370   3.578   5.956   4.150
 2157SOL    HW2 7371   3.493   6.093   4.175
 2158SOL     OW 7372   3.854   6.680   0.568
 2158SOL    HW1 7373   3.866   6.775   0.541
 2158SOL    HW2 7374   3.925   6.655   0.635
 2159SOL     OW 7375   0.520   0.730   5.647
 2159SOL    HW1 7376   0.572   0.801   5.599
 2159SOL    HW2 7377   0.573   0.698   5.726
 2160SOL     OW 7378   5.720   0.547   0.788
 2160SOL    HW1 7379   5.767   0.465   0.821
 2160SOL    HW2 7380   5.712   0.543   0.688
 2161SOL     OW 7381   1.438   2.883   1.600
 2161SOL    HW1 7382   1.430   2.839   1.511
 2161SOL    HW2 7383   1.400   2.976   1.595
 2162SOL     OW 7384   1.504   6.524   1.524
 2162SOL    HW1 7385   1.572   6.529   1.596
 2162SOL    HW2 7386   1.512   6.436   1.477
 2163SOL     OW 7387   2.079   2.768   2.964
 2163SOL    HW1 7388   2.098   2.856   2.921
 2163SOL    HW2 7389   2.028   2.782   3.048
 2164SOL     OW 7390   2.162   2.829   2.601
 2164SOL    HW1 7391   2.241   2.804   2.545
 2164SOL    HW2 7392   2.193   2.878   2.682
 2165SOL     OW 7393   6.519   1.594   3.740
 2165SOL    HW1 7394   6.512   1.572   3.837
 2165SOL    HW2 7395   6.596   1.656   3.725
 2166SOL     OW 7396   7.002   3.972   2.545
 2166SOL    HW1 7397   6.945   3.923   2.611
 2166SOL    HW2 7398   0.012   3.910   2.470
 2167SOL     OW 7399   2.392   1.692   3.133
 2167SOL    HW1 7400   2.309   1.651   3.095
 2167SOL    HW2 7401   2.398   1.788   3.107
 2168SOL     OW 7402   1.561   1.959   3.027
 2168SOL    HW1 7403   1.595   2.053   3.027
 2168SOL    HW2 7404   1.551   1.927   3.121
 2169SOL     OW 7405   0.543   7.001   1.423
 2169SOL    HW1 7406   0.462   0.044   1.426
 2169SOL    HW2 7407   0.548   6.956   1.334
 2170SOL     OW 7408   1.399   4.019   5.711
 2170SOL    HW1 7409   1.367   4.104   5.669
 2170SOL    HW2 7410   1.325   3.979   5.764
 2171SOL     OW 7411   6.674   5.800   1.285
 2171SOL    HW1 7412   6.692   5.893   1.317
 2171SOL    HW2 7413   6.752   5.741   1.306
 2172SOL     OW 7414   1.602   1.783   5.367
 2172SOL    HW1 7415   1.655   1.704   5.398
 2172SOL    HW2 7416   1.548   1.819   5.443
 2173SOL     OW 7417   5.815   0.642   5.415
 2173SOL    HW1 7418   5.817   0.681   5.508
 2173SOL    HW2 7419   5.768   0.705   5.354
 2174SOL     OW 7420   5.749   0.456   5.815
 2174SOL    HW1 7421   5.682   0.489   5.882
 2174SOL    HW2 7422   5.703   0.438   5.728
 2175SOL     OW 7423   2.572   3.939   5.285
 2175SOL    HW1 7424   2.605   3.851   5.319
 2175SOL    HW2 7425   2.480   3.928   5.247
 2176SOL     OW 7426   5.382   2.319   2.571
 2176SOL    HW1 7427   5.401   2.346   2.666
 2176SOL    HW2 7428   5.288   2.345   2.547
 2177SOL     OW 7429   0.591   0.427   4.960
 2177SOL    HW1 7430   0.517   0.472   5.011
 2177SOL    HW2 7431   0.558   0.339   4.926
 2178SOL     OW 7432   0.827   2.134   2.971
 2178SOL    HW1 7433   0.776   2.049   2.985
 2178SOL    HW2 7434   0.802   2.200   3.041
 2179SOL     OW 7435   1.744   4.381   6.186
 2179SOL    HW1 7436   1.812   4.325   6.140
 2179SOL    HW2 7437   1.751   4.369   6.285
 2180SOL     OW 7438   0.489   6.211   2.695
 2180SOL    HW1 7439   0.585   6.204   2.668
 2180SOL    HW2 7440   0.465   6.132   2.752
 2181SOL     OW 7441   3.101   4.848   4.613
 2181SOL    HW1 7442   3.097   4.855   4.713
 2181SOL    HW2 7443   3.024   4.792   4.581
 2182SOL     OW 7444   6.905   6.572   2.719
 2182SOL    HW1 7445   6.995   6.613   2.730
 2182SOL    HW2 7446   6.913   6.472   2.727
 2183SOL     OW 7447   3.491   3.322   6.226
 2183SOL    HW1 7448   3.503   3.316   6.127
 2183SOL    HW2 7449   3.576   3.296   6.271
 2184SOL     OW 7450   6.745   1.438   0.070
 2184SOL    HW1 7451   6.811   1.412   0.140
 2184SOL    HW2 7452   6.736   1.364   0.003
 2185SOL     OW 7453   1.254   0.098   6.535
 2185SOL    HW1 7454   1.323   0.129   6.469
 2185SOL    HW2 7455   1.190   0.172   6.553
 2186SOL     OW 7456   0.144   5.500   5.459
 2186SOL    HW1 7457   0.162   5.598   5.460
 2186SOL    HW2 7458   0.066   5.481   5.399
 2187SOL     OW 7459   0.298   5.694   2.137
 2187SOL    HW1 7460   0.322   5.718   2.043
 2187SOL    HW2 7461   0.204   5.659   2.139
 2188SOL     OW 7462   2.846   0.800   1.130
 2188SOL    HW1 7463   2.832   0.797   1.031
 2188SOL    HW2 7464   2.941   0.826   1.150
 2189SOL     OW 7465   1.955   1.453   1.756
 2189SOL    HW1 7466   1.913   1.521   1.696
 2189SOL    HW2 7467   1.885   1.416   1.818
 2190SOL     OW 7468   6.438   4.123   1.870
 2190SOL    HW1 7469   6.346   4.118   1.831
 2190SOL    HW2 7470   6.488   4.200   1.829
 2191SOL     OW 7471   2.978   0.340   6.671
 2191SOL    HW1 7472   3.064   0.301   6.640
 2191SOL    HW2 7473   2.975   0.343   6.770
 2192SOL     OW 7474   5.095   2.016   1.849
 2192SOL    HW1 7475   5.176   2.049   1.800
 2192SOL    HW2 7476   5.022   2.084   1.844
 2193SOL     OW 7477   1.658   6.766   5.707
 2193SOL    HW1 7478   1.659   6.858   5.746
 2193SOL    HW2 7479   1.573   6.720   5.733
 2194SOL     OW 7480   0.932   4.152   6.478
 2194SOL    HW1 7481   0.902   4.066   6.518
 2194SOL    HW2 7482   1.022   4.140   6.437
 2195SOL     OW 7483   0.659   3.710   4.766
 2195SOL    HW1 7484   0.669   3.633   4.704
 2195SOL    HW2 7485   0.561   3.730   4.778
 2196SOL     OW 7486   2.650   0.412   6.880
 2196SOL    HW1 7487   2.556   0.430   6.911
 2196SOL    HW2 7488   2.694   0.349   6.944
 2197SOL     OW 7489   3.663   5.380   5.961
 2197SOL    HW1 7490   3.763   5.380   5.956
 2197SOL    HW2 7491   3.634   5.330   6.042
 2198SOL     OW 7492   0.805   0.567   0.131
 2198SOL    HW1 7493   0.884   0.622   0.157
 2198SOL    HW2 7494   0.793   0.571   0.032
 2199SOL     OW 7495   3.965   6.331   4.882
 2199SOL    HW1 7496   3.967   6.231   4.872
 2199SOL    HW2 7497   3.884   6.357   4.936
 2200SOL     OW 7498   2.646   2.147   3.935
 2200SOL    HW1 7499   2.640   2.102   3.845
 2200SOL    HW2 7500   2.564   2.125   3.988
 2201SOL     OW 7501   6.021   3.848   4.871
 2201SOL    HW1 7502   6.045   3.925   4.812
 2201SOL    HW2 7503   5.960   3.879   4.944
 2202SOL     OW 7504   3.375   0.389   1.963
 2202SOL    HW1 7505   3.471   0.418   1.962
 2202SOL    HW2 7506   3.342   0.385   2.057
 2203SOL     OW 7507   2.365   4.624   1.124
 2203SOL    HW1 7508   2.306   4.572   1.185
 2203SOL    HW2 7509   2.399   4.705   1.172
 2204SOL     OW 7510   6.062   3.397   0.496
 2204SOL    HW1 7511   6.008   3.426   0.417
 2204SOL    HW2 7512   6.091   3.302   0.483
 2205SOL     OW 7513   0.318   5.329   0.567
 2205SOL    HW1 7514   0.303   5.427   0.580
 2205SOL    HW2 7515   0.289   5.280   0.649
 2206SOL     OW 7516   4.009   2.548   5.807
 2206SOL    HW1 7517   3.951   2.476   5.770
 2206SOL    HW2 7518   4.103   2.536   5.774
 2207SOL     OW 7519   4.824   5.640   0.857
 2207SOL    HW1 7520   4.793   5.576   0.787
 2207SOL    HW2 7521   4.749   5.701   0.882
 2208SOL     OW 7522   6.549   6.223   3.800
 2208SOL    HW1 7523   6.575   6.209   3.704
 2208SOL    HW2 7524   6.623   6.190   3.860
 2209SOL     OW 7525   2.529   5.896   4.045
 2209SOL    HW1 7526   2.496   5.807   4.077
 2209SOL    HW2 7527   2.472   5.969   4.085
 2210SOL     OW 7528   4.450   0.375   1.428
 2210SOL    HW1 7529   4.497   0.318   1.361
 2210SOL    HW2 7530   4.481   0.350   1.520
 2211SOL     OW 7531   0.742   1.665   1.076
 2211SOL    HW1 7532   0.814   1.710   1.129
 2211SOL    HW2 7533   0.763   1.671   0.978
 2212SOL     OW 7534   2.972   5.782   6.957
 2212SOL    HW1 7535   3.029   5.734   6.891
 2212SOL    HW2 7536   2.909   5.716   7.001
 2213SOL     OW 7537   3.309   2.144   4.791
 2213SOL    HW1 7538   3.249   2.193   4.855
 2213SOL    HW2 7539   3.382   2.205   4.760
 2214SOL     OW 7540   4.218   3.859   6.877
 2214SOL    HW1 7541   4.145   3.791   6.881
 2214SOL    HW2 7542   4.248   3.882   6.970
 2215SOL     OW 7543   3.882   0.041   6.871
 2215SOL    HW1 7544   3.878   7.009   6.959
 2215SOL    HW2 7545   3.971   0.025   6.829
 2216SOL     OW 7546   0.845   6.680   6.537
 2216SOL    HW1 7547   0.827   6.778   6.533
 2216SOL    HW2 7548   0.764   6.633   6.573
 2217SOL     OW 7549   4.407   0.948   4.015
 2217SOL    HW1 7550   4.383   0.863   3.968
 2217SOL    HW2 7551   4.323   0.999   4.035
 2218SOL     OW 7552   0.551   6.173   5.554
 2218SOL    HW1 7553   0.462   6.129   5.540
 2218SOL    HW2 7554   0.624   6.105   5.542
 2219SOL     OW 7555   5.757   0.921   1.210
 2219SOL    HW1 7556   5.796   0.957   1.294
 2219SOL    HW2 7557   5.663   0.954   1.200
 2220SOL     OW 7558   0.463   6.123   4.928
 2220SOL    HW1 7559   0.378   6.081   4.960
 2220SOL    HW2 7560   0.444   6.178   4.846
 2221SOL     OW 7561   6.245   1.361   3.922
 2221SOL    HW1 7562   6.183   1.306   3.977
 2221SOL    HW2 7563   6.339   1.328   3.932
 2222SOL     OW 7564   4.992   0.361   2.285
 2222SOL    HW1 7565   4.898   0.365   2.252
 2222SOL    HW2 7566   5.054   0.346   2.208
 2223SOL     OW 7567   0.484   6.427   5.486
 2223SOL    HW1 7568   0.403   6.437   5.545
 2223SOL    HW2 7569   0.529   6.340   5.506
 2224SOL     OW 7570   6.036   3.943   0.542
 2224SOL    HW1 7571   6.092   3.880   0.488
 2224SOL    HW2 7572   5.988   3.893   0.613
 2225SOL     OW 7573   6.594   6.269   2.138
 2225SOL    HW1 7574   6.690   6.241   2.135
 2225SOL    HW2 7575   6.556   6.247   2.228
 2226SOL     OW 7576   2.571   4.997   0.329
 2226SOL    HW1 7577   2.479   4.975   0.361
 2226SOL    HW2 7578   2.566   5.034   0.237
 2227SOL     OW 7579   3.919   2.086   1.921
 2227SOL    HW1 7580   3.898   2.042   1.834
 2227SOL    HW2 7581   3.837   2.133   1.955
 2228SOL     OW 7582   5.495   5.476   6.902
 2228SOL    HW1 7583   5.481   5.574   6.916
 2228SOL    HW2 7584   5.446   5.425   6.972
 2229SOL     OW 7585   3.363   3.377   3.475
 2229SOL    HW1 7586   3.398   3.380   3.568
 2229SOL    HW2 7587   3.281   3.319   3.473
 2230SOL     OW 7588   5.810   0.272   0.054
 2230SOL    HW1 7589   5.798   0.349   7.007
 2230SOL    HW2 7590   5.725   0.219   0.059
 2231SOL     OW 7591   1.600   6.938   6.581
 2231SOL    HW1 7592   1.572   6.947   6.485
 2231SOL    HW2 7593   1.679   6.877   6.587
 2232SOL     OW 7594   1.314   0.813   5.123
 2232SOL    HW1 7595   1.231   0.820   5.180
 2232SOL    HW2 7596   1.345   0.718   5.121
 2233SOL     OW 7597   3.023   4.553   1.080
 2233SOL    HW1 7598   3.022   4.648   1.108
 2233SOL    HW2 7599   3.064   4.497   1.152
 2234SOL     OW 7600   4.754   1.510   1.611
 2234SOL    HW1 7601   4.702   1.490   1.528
 2234SOL    HW2 7602   4.702   1.480   1.691
 2235SOL     OW 7603   1.371   2.196   2.965
 2235SOL    HW1 7604   1.276   2.223   2.980
 2235SOL    HW2 7605   1.374   2.115   2.907
 2236SOL     OW 7606   1.994   4.999   5.312
 2236SOL    HW1 7607   2.093   4.992   5.327
 2236SOL    HW2 7608   1.964   5.092   5.332
 2237SOL     OW 7609   6.291   5.135   5.796
 2237SOL    HW1 7610   6.237   5.212   5.762
 2237SOL    HW2 7611   6.341   5.163   5.878
 2238SOL     OW 7612   5.858   3.856   1.793
 2238SOL    HW1 7613   5.884   3.827   1.885
 2238SOL    HW2 7614   5.931   3.913   1.755
 2239SOL     OW 7615   4.631   6.797   3.014
 2239SOL    HW1 7616   4.556   6.844   3.060
 2239SOL    HW2 7617   4.707   6.862   3.000
 2240SOL     OW 7618   4.945   5.168   2.818
 2240SOL    HW1 7619   5.032   5.170   2.867
 2240SOL    HW2 7620   4.910   5.261   2.806
 2241SOL     OW 7621   0.614   1.318   1.917
 2241SOL    HW1 7622   0.693   1.377   1.901
 2241SOL    HW2 7623   0.569   1.298   1.830
 2242SOL     OW 7624   5.395   2.625   3.384
 2242SOL    HW1 7625   5.310   2.609   3.334
 2242SOL    HW2 7626   5.460   2.674   3.325
 2243SOL     OW 7627   2.149   6.724   0.690
 2243SOL    HW1 7628   2.056   6.700   0.718
 2243SOL    HW2 7629   2.186   6.653   0.631
 2244SOL     OW 7630   2.474   0.763   0.652
 2244SOL    HW1 7631   2.522   0.676   0.664
 2244SOL    HW2 7632   2.386   0.759   0.698
 2245SOL     OW 7633   0.075   0.489   6.900
 2245SOL    HW1 7634   0.005   0.421   6.880
 2245SOL    HW2 7635   0.065   0.520   6.994
 2246SOL     OW 7636   2.887   1.371   5.146
 2246SOL    HW1 7637   2.903   1.450   5.087
 2246SOL    HW2 7638   2.792   1.372   5.179
 2247SOL     OW 7639   3.047   3.353   2.737
 2247SOL    HW1 7640   3.017   3.316   2.825
 2247SOL    HW2 7641   3.089   3.280   2.683
 2248SOL     OW 7642   4.754   4.077   5.269
 2248SOL    HW1 7643   4.752   4.132   5.185
 2248SOL    HW2 7644   4.802   3.991   5.252
 2249SOL     OW 7645   1.210   6.455   3.512
 2249SOL    HW1 7646   1.306   6.484   3.515
 2249SOL    HW2 7647   1.163   6.505   3.439
 2250SOL     OW 7648   4.546   5.527   6.241
 2250SOL    HW1 7649   4.477   5.492   6.304
 2250SOL    HW2 7650   4.621   5.461   6.232
 2251SOL     OW 7651   5.701   6.297   5.564
 2251SOL    HW1 7652   5.712   6.321   5.661
 2251SOL    HW2 7653   5.640   6.217   5.557
 2252SOL     OW 7654   4.070   1.892   2.448
 2252SOL    HW1 7655   4.057   1.820   2.516
 2252SOL    HW2 7656   4.168   1.903   2.429
 2253SOL     OW 7657   0.403   3.478   1.323
 2253SOL    HW1 7658   0.450   3.390   1.332
 2253SOL    HW2 7659   0.315   3.473   1.369
 2254SOL     OW 7660   3.855   3.726   2.513
 2254SOL    HW1 7661   3.838   3.791   2.587
 2254SOL    HW2 7662   3.850   3.633   2.549
 2255SOL     OW 7663   2.911   3.403   6.359
 2255SOL    HW1 7664   2.889   3.479   6.421
 2255SOL    HW2 7665   2.997   3.423   6.312
 2256SOL     OW 7666   5.332   0.143   1.303
 2256SOL    HW1 7667   5.249   0.145   1.358
 2256SOL    HW2 7668   5.400   0.085   1.348
 2257SOL     OW 7669   0.309   1.625   5.124
 2257SOL    HW1 7670   0.291   1.622   5.026
 2257SOL    HW2 7671   0.407   1.615   5.141
 2258SOL     OW 7672   2.413   5.617   4.093
 2258SOL    HW1 7673   2.318   5.617   4.062
 2258SOL    HW2 7674   2.452   5.525   4.083
 2259SOL     OW 7675   5.888   2.433   4.887
 2259SOL    HW1 7676   5.866   2.370   4.961
 2259SOL    HW2 7677   5.808   2.445   4.828
 2260SOL     OW 7678   0.895   4.156   1.002
 2260SOL    HW1 7679   0.827   4.181   0.933
 2260SOL    HW2 7680   0.848   4.122   1.084
 2261SOL     OW 7681   5.323   3.946   6.743
 2261SOL    HW1 7682   5.233   3.903   6.743
 2261SOL    HW2 7683   5.350   3.967   6.649
 2262SOL     OW 7684   6.534   0.261   4.803
 2262SOL    HW1 7685   6.602   0.253   4.730
 2262SOL    HW2 7686   6.554   0.342   4.858
 2263SOL     OW 7687   2.264   4.304   6.502
 2263SOL    HW1 7688   2.298   4.379   6.446
 2263SOL    HW2 7689   2.280   4.324   6.599
 2264SOL     OW 7690   2.503   6.978   5.705
 2264SOL    HW1 7691   2.544   6.891   5.732
 2264SOL    HW2 7692   2.573   0.021   5.664
 2265SOL     OW 7693   0.498   6.484   4.516
 2265SOL    HW1 7694   0.480   6.582   4.515
 2265SOL    HW2 7695   0.593   6.466   4.542
 2266SOL     OW 7696   3.866   2.925   6.911
 2266SOL    HW1 7697   3.904   2.919   7.003
 2266SOL    HW2 7698   3.940   2.946   6.846
 2267SOL     OW 7699   4.841   2.421   4.048
 2267SOL    HW1 7700   4.865   2.327   4.024
 2267SOL    HW2 7701   4.893   2.449   4.129
 2268SOL     OW 7702   1.015   5.565   4.781
 2268SOL    HW1 7703   1.081   5.556   4.706
 2268SOL    HW2 7704   1.017   5.483   4.838
 2269SOL     OW 7705   1.795   2.258   5.249
 2269SOL    HW1 7706   1.845   2.179   5.213
 2269SOL    HW2 7707   1.852   2.339   5.243
 2270SOL     OW 7708   5.118   1.822   5.803
 2270SOL    HW1 7709   5.043   1.802   5.740
 2270SOL    HW2 7710   5.184   1.881   5.756
 2271SOL     OW 7711   5.012   5.313   5.900
 2271SOL    HW1 7712   4.927   5.269   5.928
 2271SOL    HW2 7713   5.002   5.347   5.806
 2272SOL     OW 7714   5.427   1.225   6.045
 2272SOL    HW1 7715   5.447   1.179   6.131
 2272SOL    HW2 7716   5.335   1.264   6.049
 2273SOL     OW 7717   0.863   2.495   2.930
 2273SOL    HW1 7718   0.873   2.421   2.997
 2273SOL    HW2 7719   0.945   2.500   2.873
 2274SOL     OW 7720   0.273   1.627   6.876
 2274SOL    HW1 7721   0.250   1.718   6.840
 2274SOL    HW2 7722   0.336   1.582   6.813
 2275SOL     OW 7723   5.670   4.885   3.159
 2275SOL    HW1 7724   5.723   4.901   3.243
 2275SOL    HW2 7725   5.573   4.881   3.181
 2276SOL     OW 7726   1.428   2.558   1.051
 2276SOL    HW1 7727   1.431   2.523   0.957
 2276SOL    HW2 7728   1.345   2.611   1.064
 2277SOL     OW 7729   3.678   3.494   3.625
 2277SOL    HW1 7730   3.718   3.408   3.656
 2277SOL    HW2 7731   3.731   3.571   3.662
 2278SOL     OW 7732   0.604   2.714   4.215
 2278SOL    HW1 7733   0.652   2.801   4.209
 2278SOL    HW2 7734   0.646   2.657   4.286
 2279SOL     OW 7735   0.718   5.970   5.476
 2279SOL    HW1 7736   0.698   5.916   5.394
 2279SOL    HW2 7737   0.804   6.020   5.463
 2280SOL     OW 7738   5.107   1.556   5.535
 2280SOL    HW1 7739   5.174   1.560   5.609
 2280SOL    HW2 7740   5.053   1.640   5.534
 2281SOL     OW 7741   5.894   6.852   2.507
 2281SOL    HW1 7742   5.985   6.892   2.515
 2281SOL    HW2 7743   5.833   6.916   2.461
 2282SOL     OW 7744   4.122   6.378   5.338
 2282SOL    HW1 7745   4.033   6.337   5.317
 2282SOL    HW2 7746   4.168   6.324   5.409
 2283SOL     OW 7747   0.061   0.253   3.877
 2283SOL    HW1 7748   0.109   0.330   3.835
 2283SOL    HW2 7749   7.007   0.288   3.941
 2284SOL     OW 7750   1.207   2.552   6.811
 2284SOL    HW1 7751   1.149   2.504   6.744
 2284SOL    HW2 7752   1.150   2.613   6.866
 2285SOL     OW 7753   1.762   4.322   6.446
 2285SOL    HW1 7754   1.710   4.246   6.408
 2285SOL    HW2 7755   1.860   4.305   6.435
 2286SOL     OW 7756   4.692   5.696   3.810
 2286SOL    HW1 7757   4.753   5.768   3.776
 2286SOL    HW2 7758   4.733   5.654   3.891
 2287SOL     OW 7759   1.941   1.189   3.084
 2287SOL    HW1 7760   1.895   1.205   3.172
 2287SOL    HW2 7761   1.874   1.189   3.011
 2288SOL     OW 7762   0.087   6.468   2.989
 2288SOL    HW1 7763   0.124   6.513   2.907
 2288SOL    HW2 7764   0.163   6.437   3.047
 2289SOL     OW 7765   0.589   5.395   1.440
 2289SOL    HW1 7766   0.581   5.296   1.434
 2289SOL    HW2 7767   0.534   5.428   1.517
 2290SOL     OW 7768   0.381   6.058   0.366
 2290SOL    HW1 7769   0.450   6.121   0.331
 2290SOL    HW2 7770   0.419   5.966   0.371
 2291SOL     OW 7771   2.281   1.872   6.493
 2291SOL    HW1 7772   2.221   1.792   6.500
 2291SOL    HW2 7773   2.275   1.926   6.577
 2292SOL     OW 7774   1.145   1.293   4.916
 2292SOL    HW1 7775   1.070   1.301   4.850
 2292SOL    HW2 7776   1.218   1.357   4.891
 2293SOL     OW 7777   5.497   4.424   2.525
 2293SOL    HW1 7778   5.419   4.409   2.465
 2293SOL    HW2 7779   5.517   4.522   2.530
 2294SOL     OW 7780   3.555   6.424   6.690
 2294SOL    HW1 7781   3.577   6.383   6.602
 2294SOL    HW2 7782   3.465   6.467   6.686
 2295SOL     OW 7783   0.556   2.372   1.700
 2295SOL    HW1 7784   0.489   2.375   1.626
 2295SOL    HW2 7785   0.644   2.339   1.665
 2296SOL     OW 7786   3.049   6.319   0.178
 2296SOL    HW1 7787   3.061   6.295   0.274
 2296SOL    HW2 7788   3.061   6.418   0.168
 2297SOL     OW 7789   4.588   5.950   5.741
 2297SOL    HW1 7790   4.577   5.981   5.647
 2297SOL    HW2 7791   4.572   6.027   5.803
 2298SOL     OW 7792   3.920   3.248   0.096
 2298SOL    HW1 7793   3.845   3.191   0.128
 2298SOL    HW2 7794   4.006   3.198   0.105
 2299SOL     OW 7795   4.514   5.954   0.504
 2299SOL    HW1 7796   4.486   5.875   0.559
 2299SOL    HW2 7797   4.614   5.955   0.496
 2300SOL     OW 7798   1.501   4.766   1.496
 2300SOL    HW1 7799   1.565   4.832   1.535
 2300SOL    HW2 7800   1.423   4.753   1.557
 2301SOL     OW 7801   4.020   3.444   2.332
 2301SOL    HW1 7802   3.973   3.462   2.418
 2301SOL    HW2 7803   4.048   3.530   2.290
 2302SOL     OW 7804   2.646   5.705   2.639
 2302SOL    HW1 7805   2.618   5.620   2.596
 2302SOL    HW2 7806   2.640   5.695   2.739
 2303SOL     OW 7807   1.305   3.147   4.394
 2303SOL    HW1 7808   1.392   3.133   4.346
 2303SOL    HW2 7809   1.307   3.097   4.481
 2304SOL     OW 7810   2.358   1.076   3.594
 2304SOL    HW1 7811   2.369   1.056   3.691
 2304SOL    HW2 7812   2.394   1.167   3.575
 2305SOL     OW 7813   3.933   5.400   1.909
 2305SOL    HW1 7814   3.840   5.434   1.920
 2305SOL    HW2 7815   3.992   5.441   1.979
 2306SOL     OW 7816   0.937   3.221   1.083
 2306SOL    HW1 7817   0.950   3.147   1.017
 2306SOL    HW2 7818   0.840   3.245   1.086
 2307SOL     OW 7819   0.681   2.522   2.740
 2307SOL    HW1 7820   0.743   2.525   2.818
 2307SOL    HW2 7821   0.662   2.426   2.717
 2308SOL     OW 7822   0.424   0.049   0.597
 2308SOL    HW1 7823   0.382   0.095   0.676
 2308SOL    HW2 7824   0.441   0.116   0.525
 2309SOL     OW 7825   3.287   5.160   5.887
 2309SOL    HW1 7826   3.326   5.105   5.813
 2309SOL    HW2 7827   3.355   5.172   5.959
 2310SOL     OW 7828   5.562   1.115   2.113
 2310SOL    HW1 7829   5.562   1.139   2.210
 2310SOL    HW2 7830   5.567   1.016   2.102
 2311SOL     OW 7831   3.089   0.301   2.898
 2311SOL    HW1 7832   3.081   0.253   2.811
 2311SOL    HW2 7833   3.016   0.272   2.959
 2312SOL     OW 7834   3.360   1.273   2.866
 2312SOL    HW1 7835   3.328   1.349   2.922
 2312SOL    HW2 7836   3.459   1.263   2.875
 2313SOL     OW 7837   5.159   3.839   1.652
 2313SOL    HW1 7838   5.259   3.844   1.659
 2313SOL    HW2 7839   5.119   3.887   1.730
 2314SOL     OW 7840   6.244   0.142   3.214
 2314SOL    HW1 7841   6.198   0.127   3.126
 2314SOL    HW2 7842   6.231   0.061   3.272
 2315SOL     OW 7843   4.306   5.482   5.381
 2315SOL    HW1 7844   4.245   5.423   5.327
 2315SOL    HW2 7845   4.324   5.439   5.469
 2316SOL     OW 7846   3.179   1.667   6.197
 2316SOL    HW1 7847   3.216   1.581   6.233
 2316SOL    HW2 7848   3.254   1.730   6.178
 2317SOL     OW 7849   6.560   5.683   3.820
 2317SOL    HW1 7850   6.649   5.675   3.775
 2317SOL    HW2 7851   6.492   5.718   3.755
 2318SOL     OW 7852   1.875   4.815   5.143
 2318SOL    HW1 7853   1.922   4.860   5.219
 2318SOL    HW2 7854   1.937   4.807   5.065
 2319SOL     OW 7855   2.470   5.023   3.957
 2319SOL    HW1 7856   2.486   5.059   3.865
 2319SOL    HW2 7857   2.548   5.045   4.016
 2320SOL     OW 7858   1.690   3.316   5.026
 2320SOL    HW1 7859   1.772   3.323   4.969
 2320SOL    HW2 7860   1.627   3.250   4.984
 2321SOL     OW 7861   2.741   5.275   5.730
 2321SOL    HW1 7862   2.731   5.290   5.828
 2321SOL    HW2 7863   2.664   5.220   5.697
 2322SOL     OW 7864   0.819   3.797   2.059
 2322SOL    HW1 7865   0.897   3.755   2.106
 2322SOL    HW2 7866   0.827   3.782   1.960
 2323SOL     OW 7867   2.154   4.745   1.881
 2323SOL    HW1 7868   2.147   4.765   1.784
 2323SOL    HW2 7869   2.250   4.732   1.906
 2324SOL     OW 7870   0.019   5.719   1.810
 2324SOL    HW1 7871   7.008   5.756   1.721
 2324SOL    HW2 7872   0.084   5.781   1.854
 2325SOL     OW 7873   6.900   5.192   1.685
 2325SOL    HW1 7874   6.915   5.104   1.639
 2325SOL    HW2 7875   6.952   5.195   1.770
 2326SOL     OW 7876   1.135   0.980   6.483
 2326SOL    HW1 7877   1.228   0.951   6.460
 2326SOL    HW2 7878   1.132   1.010   6.578
 2327SOL     OW 7879   6.612   0.552   2.825
 2327SOL    HW1 7880   6.583   0.456   2.829
 2327SOL    HW2 7881   6.684   0.568   2.894
 2328SOL     OW 7882   1.982   2.277   2.430
 2328SOL    HW1 7883   1.928   2.333   2.367
 2328SOL    HW2 7884   2.054   2.334   2.471
 2329SOL     OW 7885   0.744   5.832   3.919
 2329SOL    HW1 7886   0.673   5.881   3.970
 2329SOL    HW2 7887   0.756   5.875   3.830
 2330SOL     OW 7888   6.309   2.562   0.109
 2330SOL    HW1 7889   6.366   2.644   0.112
 2330SOL    HW2 7890   6.298   2.526   0.201
 2331SOL     OW 7891   4.031   6.102   0.267
 2331SOL    HW1 7892   4.064   6.041   0.195
 2331SOL    HW2 7893   4.035   6.055   0.355
 2332SOL     OW 7894   5.437   6.251   6.398
 2332SOL    HW1 7895   5.451   6.152   6.388
 2332SOL    HW2 7896   5.508   6.289   6.457
 2333SOL     OW 7897   0.170   5.069   2.502
 2333SOL    HW1 7898   0.239   5.044   2.434
 2333SOL    HW2 7899   0.205   5.144   2.558
 2334SOL     OW 7900   2.466   0.950   5.764
 2334SOL    HW1 7901   2.502   1.021   5.825
 2334SOL    HW2 7902   2.513   0.864   5.782
 2335SOL     OW 7903   6.021   1.558   3.398
 2335SOL    HW1 7904   5.941   1.514   3.439
 2335SOL    HW2 7905   6.079   1.597   3.469
 2336SOL     OW 7906   2.111   1.608   2.432
 2336SOL    HW1 7907   2.205   1.611   2.464
 2336SOL    HW2 7908   2.108   1.631   2.335
 2337SOL     OW 7909   4.163   1.754   1.398
 2337SOL    HW1 7910   4.146   1.816   1.322
 2337SOL    HW2 7911   4.124   1.792   1.482
 2338SOL     OW 7912   0.243   4.109   4.277
 2338SOL    HW1 7913   0.338   4.111   4.248
 2338SOL    HW2 7914   0.183   4.103   4.197
 2339SOL     OW 7915   3.658   2.923   2.946
 2339SOL    HW1 7916   3.639   3.021   2.937
 2339SOL    HW2 7917   3.697   2.889   2.861
 2340SOL     OW 7918   1.260   5.380   6.355
 2340SOL    HW1 7919   1.174   5.369   6.305
 2340SOL    HW2 7920   1.242   5.417   6.446
 2341SOL     OW 7921   2.616   4.621   3.479
 2341SOL    HW1 7922   2.518   4.639   3.489
 2341SOL    HW2 7923   2.655   4.601   3.569
 2342SOL     OW 7924   3.143   6.955   4.053
 2342SOL    HW1 7925   3.080   7.009   3.997
 2342SOL    HW2 7926   3.226   6.937   4.002
 2343SOL     OW 7927   1.789   6.560   2.476
 2343SOL    HW1 7928   1.700   6.560   2.429
 2343SOL    HW2 7929   1.855   6.614   2.423
 2344SOL     OW 7930   5.800   4.561   0.967
 2344SOL    HW1 7931   5.830   4.565   0.871
 2344SOL    HW2 7932   5.726   4.494   0.976
 2345SOL     OW 7933   3.017   5.972   4.899
 2345SOL    HW1 7934   3.026   5.875   4.879
 2345SOL    HW2 7935   2.982   5.985   4.992
 2346SOL     OW 7936   3.781   3.832   6.324
 2346SOL    HW1 7937   3.706   3.897   6.327
 2346SOL    HW2 7938   3.842   3.854   6.248
 2347SOL     OW 7939   0.809   2.541   1.857
 2347SOL    HW1 7940   0.866   2.566   1.779
 2347SOL    HW2 7941   0.818   2.443   1.876
 2348SOL     OW 7942   1.046   5.387   3.148
 2348SOL    HW1 7943   1.109   5.431   3.212
 2348SOL    HW2 7944   1.000   5.457   3.094
 2349SOL     OW 7945   0.299   4.624   6.652
 2349SOL    HW1 7946   0.250   4.690   6.595
 2349SOL    HW2 7947   0.241   4.545   6.670
 2350SOL     OW 7948   6.464   4.301   6.360
 2350SOL    HW1 7949   6.507   4.332   6.444
 2350SOL    HW2 7950   6.454   4.202   6.362
 2351SOL     OW 7951   2.561   4.778   3.100
 2351SOL    HW1 7952   2.550   4.740   3.008
 2351SOL    HW2 7953   2.657   4.775   3.126
 2352SOL     OW 7954   0.376   3.251   3.449
 2352SOL    HW1 7955   0.381   3.342   3.492
 2352SOL    HW2 7956   0.280   3.224   3.439
 2353SOL     OW 7957   3.680   5.676   5.346
 2353SOL    HW1 7958   3.613   5.727   5.401
 2353SOL    HW2 7959   3.674   5.705   5.251
 2354SOL     OW 7960   2.758   1.752   4.065
 2354SOL    HW1 7961   2.729   1.782   4.156
 2354SOL    HW2 7962   2.694   1.788   3.997
 2355SOL     OW 7963   2.064   6.070   4.673
 2355SOL    HW1 7964   2.145   6.015   4.655
 2355SOL    HW2 7965   1.982   6.013   4.661
 2356SOL     OW 7966   0.199   3.037   6.784
 2356SOL    HW1 7967   0.215   3.025   6.882
 2356SOL    HW2 7968   0.102   3.053   6.767
 2357SOL     OW 7969   3.075   0.556   2.590
 2357SOL    HW1 7970   3.134   0.626   2.550
 2357SOL    HW2 7971   2.981   0.567   2.556
 2358SOL     OW 7972   3.644   4.487   6.526
 2358SOL    HW1 7973   3.566   4.446   6.478
 2358SOL    HW2 7974   3.679   4.424   6.595
 2359SOL     OW 7975   0.777   0.735   5.448
 2359SOL    HW1 7976   0.776   0.635   5.443
 2359SOL    HW2 7977   0.842   0.764   5.519
 2360SOL     OW 7978   6.563   3.314   0.334
 2360SOL    HW1 7979   6.476   3.362   0.330
 2360SOL    HW2 7980   6.592   3.304   0.430
 2361SOL     OW 7981   3.933   1.738   5.833
 2361SOL    HW1 7982   3.902   1.644   5.816
 2361SOL    HW2 7983   4.012   1.759   5.776
 2362SOL     OW 7984   3.398   5.146   3.485
 2362SOL    HW1 7985   3.387   5.075   3.554
 2362SOL    HW2 7986   3.428   5.105   3.399
 2363SOL     OW 7987   3.963   1.483   4.088
 2363SOL    HW1 7988   4.061   1.483   4.068
 2363SOL    HW2 7989   3.924   1.572   4.063
 2364SOL     OW 7990   1.084   2.170   1.320
 2364SOL    HW1 7991   1.011   2.103   1.330
 2364SOL    HW2 7992   1.044   2.262   1.313
 2365SOL     OW 7993   5.670   2.204   6.556
 2365SOL    HW1 7994   5.769   2.203   6.545
 2365SOL    HW2 7995   5.647   2.231   6.650
 2366SOL     OW 7996   3.803   5.053   1.237
 2366SOL    HW1 7997   3.765   4.966   1.206
 2366SOL    HW2 7998   3.737   5.126   1.222
 2367SOL     OW 7999   2.025   3.372   6.781
 2367SOL    HW1 8000   1.959   3.302   6.756
 2367SOL    HW2 8001   2.116   3.345   6.749
 2368SOL     OW 8002   5.927   6.699   3.897
 2368SOL    HW1 8003   5.883   6.785   3.924
 2368SOL    HW2 8004   5.857   6.629   3.884
 2369SOL     OW 8005   2.012   0.243   3.705
 2369SOL    HW1 8006   1.951   0.165   3.716
 2369SOL    HW2 8007   1.974   0.305   3.636
 2370SOL     OW 8008   5.561   2.698   6.738
 2370SOL    HW1 8009   5.658   2.678   6.731
 2370SOL    HW2 8010   5.510   2.638   6.675
 2371SOL     OW 8011   3.062   0.197   1.681
 2371SOL    HW1 8012   2.971   0.158   1.698
 2371SOL    HW2 8013   3.095   0.166   1.591
 2372SOL     OW 8014   6.576   2.959   2.111
 2372SOL    HW1 8015   6.487   2.969   2.066
 2372SOL    HW2 8016   6.647   2.947   2.042
 2373SOL     OW 8017   1.877   3.488   6.199
 2373SOL    HW1 8018   1.814   3.496   6.122
 2373SOL    HW2 8019   1.826   3.500   6.285
 2374SOL     OW 8020   6.212   2.436   4.902
 2374SOL    HW1 8021   6.244   2.347   4.873
 2374SOL    HW2 8022   6.114   2.432   4.922
 2375SOL     OW 8023   3.226   5.751   5.146
 2375SOL    HW1 8024   3.271   5.664   5.167
 2375SOL    HW2 8025   3.138   5.733   5.102
 2376SOL     OW 8026   6.229   2.877   4.070
 2376SOL    HW1 8027   6.149   2.926   4.105
 2376SOL    HW2 8028   6.311   2.933   4.084
 2377SOL     OW 8029   3.047   3.089   4.224
 2377SOL    HW1 8030   3.016   3.125   4.136
 2377SOL    HW2 8031   2.970   3.083   4.287
 2378SOL     OW 8032   5.513   2.524   6.497
 2378SOL    HW1 8033   5.455   2.468   6.438
 2378SOL    HW2 8034   5.609   2.507   6.474
 2379SOL     OW 8035   6.418   0.280   0.700
 2379SOL    HW1 8036   6.426   0.378   0.682
 2379SOL    HW2 8037   6.490   0.231   0.652
 2380SOL     OW 8038   5.894   2.523   1.305
 2380SOL    HW1 8039   5.906   2.443   1.247
 2380SOL    HW2 8040   5.823   2.582   1.267
 2381SOL     OW 8041   1.948   6.152   3.040
 2381SOL    HW1 8042   1.910   6.131   2.950
 2381SOL    HW2 8043   2.035   6.104   3.052
 2382SOL     OW 8044   2.154   3.175   5.131
 2382SOL    HW1 8045   2.172   3.190   5.228
 2382SOL    HW2 8046   2.211   3.101   5.097
 2383SOL     OW 8047   6.798   6.010   1.410
 2383SOL    HW1 8048   6.802   6.104   1.443
 2383SOL    HW2 8049   6.842   6.004   1.320
 2384SOL     OW 8050   4.821   1.953   2.041
 2384SOL    HW1 8051   4.840   2.043   2.080
 2384SOL    HW2 8052   4.849   1.882   2.105
 2385SOL     OW 8053   0.536   1.385   6.708
 2385SOL    HW1 8054   0.490   1.304   6.671
 2385SOL    HW2 8055   0.633   1.366   6.720
 2386SOL     OW 8056   5.475   5.705   4.733
 2386SOL    HW1 8057   5.488   5.606   4.737
 2386SOL    HW2 8058   5.377   5.726   4.731
 2387SOL     OW 8059   2.256   1.368   3.900
 2387SOL    HW1 8060   2.356   1.365   3.895
 2387SOL    HW2 8061   2.229   1.429   3.975
 2388SOL     OW 8062   6.571   2.559   3.816
 2388SOL    HW1 8063   6.489   2.596   3.862
 2388SOL    HW2 8064   6.605   2.481   3.868
 2389SOL     OW 8065   4.102   4.718   3.270
 2389SOL    HW1 8066   4.093   4.816   3.287
 2389SOL    HW2 8067   4.017   4.684   3.228
 2390SOL     OW 8068   3.370   3.975   2.578
 2390SOL    HW1 8069   3.330   4.026   2.502
 2390SOL    HW2 8070   3.461   4.011   2.598
 2391SOL     OW 8071   4.289   5.291   5.789
 2391SOL    HW1 8072   4.357   5.357   5.758
 2391SOL    HW2 8073   4.263   5.312   5.883
 2392SOL     OW 8074   3.036   0.325   6.940
 2392SOL    HW1 8075   3.042   0.422   6.961
 2392SOL    HW2 8076   3.121   0.279   6.968
 2393SOL     OW 8077   4.343   4.827   5.976
 2393SOL    HW1 8078   4.427   4.793   6.018
 2393SOL    HW2 8079   4.300   4.754   5.924
 2394SOL     OW 8080   0.409   4.011   4.854
 2394SOL    HW1 8081   0.326   3.988   4.804
 2394SOL    HW2 8082   0.429   4.109   4.844
 2395SOL     OW 8083   4.065   6.627   6.179
 2395SOL    HW1 8084   4.139   6.622   6.246
 2395SOL    HW2 8085   4.084   6.563   6.104
 2396SOL     OW 8086   4.279   4.784   0.238
 2396SOL    HW1 8087   4.286   4.715   0.311
 2396SOL    HW2 8088   4.198   4.765   0.183
 2397SOL     OW 8089   0.504   3.932   4.510
 2397SOL    HW1 8090   0.413   3.967   4.487
 2397SOL    HW2 8091   0.495   3.855   4.573
 2398SOL     OW 8092   4.468   4.476   5.720
 2398SOL    HW1 8093   4.536   4.432   5.779
 2398SOL    HW2 8094   4.457   4.423   5.636
 2399SOL     OW 8095   4.693   1.902   1.810
 2399SOL    HW1 8096   4.765   1.895   1.741
 2399SOL    HW2 8097   4.735   1.903   1.901
 2400SOL     OW 8098   2.502   5.023   1.024
 2400SOL    HW1 8099   2.478   5.110   1.067
 2400SOL    HW2 8100   2.432   4.997   0.958
 2401SOL     OW 8101   6.326   5.869   6.337
 2401SOL    HW1 8102   6.356   5.957   6.300
 2401SOL    HW2 8103   6.319   5.876   6.437
 2402SOL     OW 8104   0.321   0.004   4.442
 2402SOL    HW1 8105   0.368   0.061   4.374
 2402SOL    HW2 8106   0.296   6.932   4.400
 2403SOL     OW 8107   0.751   2.576   4.996
 2403SOL    HW1 8108   0.779   2.499   4.939
 2403SOL    HW2 8109   0.826   2.600   5.058
 2404SOL     OW 8110   1.754   0.514   0.469
 2404SOL    HW1 8111   1.775   0.552   0.559
 2404SOL    HW2 8112   1.787   0.577   0.398
 2405SOL     OW 8113   3.053   3.889   2.072
 2405SOL    HW1 8114   2.972   3.888   2.131
 2405SOL    HW2 8115   3.117   3.960   2.103
 2406SOL     OW 8116   4.681   1.691   0.457
 2406SOL    HW1 8117   4.699   1.786   0.480
 2406SOL    HW2 8118   4.738   1.631   0.514
 2407SOL     OW 8119   5.837   1.385   3.512
 2407SOL    HW1 8120   5.890   1.381   3.597
 2407SOL    HW2 8121   5.865   1.311   3.451
 2408SOL     OW 8122   4.680   4.548   2.002
 2408SOL    HW1 8123   4.640   4.635   1.974
 2408SOL    HW2 8124   4.610   4.477   1.999
 2409SOL     OW 8125   1.968   4.006   0.386
 2409SOL    HW1 8126   1.910   3.936   0.428
 2409SOL    HW2 8127   1.961   4.091   0.439
 2410SOL     OW 8128   3.459   2.959   3.267
 2410SOL    HW1 8129   3.469   3.058   3.257
 2410SOL    HW2 8130   3.515   2.927   3.344
 2411SOL     OW 8131   5.703   6.943   5.112
 2411SOL    HW1 8132   5.678   6.923   5.017
 2411SOL    HW2 8133   5.687   0.024   5.130
 2412SOL     OW 8134   4.814   3.468   0.954
 2412SOL    HW1 8135   4.830   3.404   1.029
 2412SOL    HW2 8136   4.716   3.469   0.932
 2413SOL     OW 8137   5.479   0.814   1.840
 2413SOL    HW1 8138   5.475   0.912   1.819
 2413SOL    HW2 8139   5.537   0.800   1.920
 2414SOL     OW 8140   5.180   3.381   3.813
 2414SOL    HW1 8141   5.109   3.312   3.825
 2414SOL    HW2 8142   5.248   3.349   3.748
 2415SOL     OW 8143   4.748   1.105   3.546
 2415SOL    HW1 8144   4.673   1.108   3.480
 2415SOL    HW2 8145   4.835   1.118   3.499
 2416SOL     OW 8146   4.894   1.389   5.657
 2416SOL    HW1 8147   4.927   1.360   5.747
 2416SOL    HW2 8148   4.955   1.458   5.619
 2417SOL     OW 8149   3.330   2.978   4.610
 2417SOL    HW1 8150   3.402   2.915   4.640
 2417SOL    HW2 8151   3.350   3.010   4.517
 2418SOL     OW 8152   3.999   3.169   3.040
 2418SOL    HW1 8153   3.940   3.091   3.060
 2418SOL    HW2 8154   4.033   3.162   2.946
 2419SOL     OW 8155   0.440   0.102   2.454
 2419SOL    HW1 8156   0.516   0.104   2.389
 2419SOL    HW2 8157   0.443   0.015   2.504
 2420SOL     OW 8158   2.259   6.902   1.648
 2420SOL    HW1 8159   2.349   6.872   1.679
 2420SOL    HW2 8160   2.250   7.001   1.662
 2421SOL     OW 8161   2.326   2.185   4.647
 2421SOL    HW1 8162   2.286   2.094   4.656
 2421SOL    HW2 8163   2.423   2.180   4.670
 2422SOL     OW 8164   4.965   1.631   1.039
 2422SOL    HW1 8165   4.963   1.679   0.951
 2422SOL    HW2 8166   4.877   1.644   1.086
 2423SOL     OW 8167   2.052   5.720   2.621
 2423SOL    HW1 8168   2.083   5.709   2.716
 2423SOL    HW2 8169   2.092   5.648   2.564
 2424SOL     OW 8170   5.649   0.532   0.469
 2424SOL    HW1 8171   5.698   0.538   0.382
 2424SOL    HW2 8172   5.626   0.436   0.488
 2425SOL     OW 8173   6.521   0.176   4.406
 2425SOL    HW1 8174   6.585   0.192   4.330
 2425SOL    HW2 8175   6.448   0.115   4.375
 2426SOL     OW 8176   2.470   4.780   4.097
 2426SOL    HW1 8177   2.539   4.784   4.169
 2426SOL    HW2 8178   2.457   4.871   4.058
 2427SOL     OW 8179   6.139   6.909   5.997
 2427SOL    HW1 8180   6.067   6.971   5.967
 2427SOL    HW2 8181   6.098   6.823   6.029
 2428SOL     OW 8182   0.204   0.743   0.383
 2428SOL    HW1 8183   0.126   0.711   0.437
 2428SOL    HW2 8184   0.284   0.687   0.404
 2429SOL     OW 8185   5.039   5.792   1.921
 2429SOL    HW1 8186   5.090   5.833   1.997
 2429SOL    HW2 8187   5.095   5.794   1.838
 2430SOL     OW 8188   5.894   0.774   2.607
 2430SOL    HW1 8189   5.976   0.776   2.550
 2430SOL    HW2 8190   5.891   0.688   2.658
 2431SOL     OW 8191   4.043   0.557   2.117
 2431SOL    HW1 8192   4.054   0.464   2.154
 2431SOL    HW2 8193   3.966   0.602   2.163
 2432SOL     OW 8194   2.661   6.273   2.385
 2432SOL    HW1 8195   2.600   6.283   2.464
 2432SOL    HW2 8196   2.750   6.314   2.407
 2433SOL     OW 8197   4.171   6.966   0.153
 2433SOL    HW1 8198   4.174   7.012   0.241
 2433SOL    HW2 8199   4.209   0.010   0.082
 2434SOL     OW 8200   4.260   2.784   6.120
 2434SOL    HW1 8201   4.188   2.757   6.055
 2434SOL    HW2 8202   4.295   2.703   6.166
 2435SOL     OW 8203   5.898   5.695   4.993
 2435SOL    HW1 8204   5.983   5.668   4.949
 2435SOL    HW2 8205   5.823   5.638   4.959
 2436SOL     OW 8206   2.937   5.987   0.306
 2436SOL    HW1 8207   3.015   5.956   0.251
 2436SOL    HW2 8208   2.969   6.010   0.398
 2437SOL     OW 8209   0.226   0.333   6.102
 2437SOL    HW1 8210   0.253   0.309   6.196
 2437SOL    HW2 8211   0.214   0.250   6.049
 2438SOL     OW 8212   2.835   2.797   1.312
 2438SOL    HW1 8213   2.788   2.731   1.372
 2438SOL    HW2 8214   2.770   2.867   1.284
 2439SOL     OW 8215   6.053   4.623   4.979
 2439SOL    HW1 8216   6.090   4.574   5.058
 2439SOL    HW2 8217   6.107   4.707   4.965
 2440SOL     OW 8218   5.867   5.044   6.320
 2440SOL    HW1 8219   5.866   5.012   6.415
 2440SOL    HW2 8220   5.884   4.967   6.259
 2441SOL     OW 8221   5.821   2.263   0.910
 2441SOL    HW1 8222   5.816   2.163   0.905
 2441SOL    HW2 8223   5.843   2.291   1.004
 2442SOL     OW 8224   6.784   3.567   4.550
 2442SOL    HW1 8225   6.882   3.550   4.562
 2442SOL    HW2 8226   6.735   3.545   4.634
 2443SOL     OW 8227   2.860   4.970   5.663
 2443SOL    HW1 8228   2.762   4.989   5.674
 2443SOL    HW2 8229   2.912   5.055   5.673
 2444SOL     OW 8230   2.919   3.418   5.166
 2444SOL    HW1 8231   2.861   3.406   5.247
 2444SOL    HW2 8232   2.914   3.337   5.109
 2445SOL     OW 8233   0.455   0.276   0.823
 2445SOL    HW1 8234   0.425   0.367   0.851
 2445SOL    HW2 8235   0.528   0.283   0.755
 2446SOL     OW 8236   5.642   3.468   6.018
 2446SOL    HW1 8237   5.685   3.525   6.088
 2446SOL    HW2 8238   5.601   3.527   5.949
 2447SOL     OW 8239   0.397   2.148   6.685
 2447SOL    HW1 8240   0.420   2.201   6.767
 2447SOL    HW2 8241   0.328   2.197   6.632
 2448SOL     OW 8242   0.528   0.310   4.507
 2448SOL    HW1 8243   0.554   0.235   4.568
 2448SOL    HW2 8244   0.484   0.274   4.425
 2449SOL     OW 8245   0.463   2.571   4.939
 2449SOL    HW1 8246   0.438   2.475   4.950
 2449SOL    HW2 8247   0.554   2.587   4.978
 2450SOL     OW 8248   2.113   3.317   2.195
 2450SOL    HW1 8249   2.172   3.256   2.248
 2450SOL    HW2 8250   2.169   3.373   2.134
 2451SOL     OW 8251   2.471   6.615   4.411
 2451SOL    HW1 8252   2.405   6.545   4.438
 2451SOL    HW2 8253   2.506   6.593   4.320
 2452SOL     OW 8254   1.761   2.458   4.571
 2452SOL    HW1 8255   1.859   2.437   4.573
 2452SOL    HW2 8256   1.713   2.386   4.520
 2453SOL     OW 8257   6.947   3.428   1.554
 2453SOL    HW1 8258   6.932   3.450   1.650
 2453SOL    HW2 8259   6.860   3.409   1.510
 2454SOL     OW 8260   2.188   0.734   2.748
 2454SOL    HW1 8261   2.125   0.657   2.739
 2454SOL    HW2 8262   2.252   0.716   2.823
 2455SOL     OW 8263   4.991   4.107   0.487
 2455SOL    HW1 8264   4.942   4.022   0.466
 2455SOL    HW2 8265   5.073   4.112   0.431
 2456SOL     OW 8266   2.959   6.555   1.225
 2456SOL    HW1 8267   2.961   6.476   1.163
 2456SOL    HW2 8268   3.039   6.613   1.209
 2457SOL     OW 8269   6.109   6.227   1.340
 2457SOL    HW1 8270   6.061   6.300   1.389
 2457SOL    HW2 8271   6.059   6.141   1.351
 2458SOL     OW 8272   0.430   5.949   2.853
 2458SOL    HW1 8273   0.444   5.862   2.902
 2458SOL    HW2 8274   0.332   5.968   2.848
 2459SOL     OW 8275   1.165   0.756   0.580
 2459SOL    HW1 8276   1.118   0.833   0.624
 2459SOL    HW2 8277   1.208   0.698   0.650
 2460SOL     OW 8278   3.816   5.295   1.483
 2460SOL    HW1 8279   3.765   5.245   1.413
 2460SOL    HW2 8280   3.800   5.254   1.572
 2461SOL     OW 8281   5.274   1.056   3.422
 2461SOL    HW1 8282   5.247   1.125   3.490
 2461SOL    HW2 8283   5.245   0.966   3.454
 2462SOL     OW 8284   2.635   4.578   6.214
 2462SOL    HW1 8285   2.665   4.657   6.268
 2462SOL    HW2 8286   2.651   4.596   6.117
 2463SOL     OW 8287   6.955   2.098   4.360
 2463SOL    HW1 8288   0.008   2.065   4.424
 2463SOL    HW2 8289   6.877   2.035   4.358
 2464SOL     OW 8290   1.240   3.466   1.322
 2464SOL    HW1 8291   1.228   3.501   1.415
 2464SOL    HW2 8292   1.337   3.450   1.304
 2465SOL     OW 8293   6.071   5.015   2.806
 2465SOL    HW1 8294   6.059   5.059   2.895
 2465SOL    HW2 8295   6.160   4.969   2.804
 2466SOL     OW 8296   3.787   1.743   1.991
 2466SOL    HW1 8297   3.824   1.812   1.929
 2466SOL    HW2 8298   3.773   1.783   2.082
 2467SOL     OW 8299   6.914   1.639   5.345
 2467SOL    HW1 8300   6.882   1.731   5.366
 2467SOL    HW2 8301   6.928   1.588   5.430
 2468SOL     OW 8302   6.933   4.074   0.355
 2468SOL    HW1 8303   6.834   4.076   0.337
 2468SOL    HW2 8304   6.982   4.055   0.270
 2469SOL     OW 8305   3.181   3.058   5.843
 2469SOL    HW1 8306   3.191   3.152   5.810
 2469SOL    HW2 8307   3.242   3.044   5.920
 2470SOL     OW 8308   5.665   2.928   0.774
 2470SOL    HW1 8309   5.716   2.928   0.860
 2470SOL    HW2 8310   5.580   2.979   0.787
 2471SOL     OW 8311   0.284   0.751   3.373
 2471SOL    HW1 8312   0.343   0.756   3.454
 2471SOL    HW2 8313   0.263   0.655   3.354
 2472SOL     OW 8314   5.644   1.740   3.840
 2472SOL    HW1 8315   5.717   1.687   3.796
 2472SOL    HW2 8316   5.641   1.718   3.937
 2473SOL     OW 8317   0.356   6.748   5.698
 2473SOL    HW1 8318   0.306   6.821   5.650
 2473SOL    HW2 8319   0.342   6.758   5.796
 2474SOL     OW 8320   6.139   5.740   4.634
 2474SOL    HW1 8321   6.150   5.797   4.552
 2474SOL    HW2 8322   6.067   5.779   4.692
 2475SOL     OW 8323   4.643   2.370   6.179
 2475SOL    HW1 8324   4.641   2.468   6.202
 2475SOL    HW2 8325   4.699   2.321   6.245
 2476SOL     OW 8326   0.874   1.596   3.459
 2476SOL    HW1 8327   0.898   1.529   3.389
 2476SOL    HW2 8328   0.837   1.678   3.415
 2477SOL     OW 8329   4.439   5.147   2.761
 2477SOL    HW1 8330   4.466   5.223   2.701
 2477SOL    HW2 8331   4.508   5.134   2.832
 2478SOL     OW 8332   6.565   6.827   3.587
 2478SOL    HW1 8333   6.640   6.815   3.522
 2478SOL    HW2 8334   6.534   6.922   3.586
 2479SOL     OW 8335   0.449   2.301   6.948
 2479SOL    HW1 8336   0.413   2.259   0.015
 2479SOL    HW2 8337   0.389   2.377   6.920
 2480SOL     OW 8338   0.605   5.122   2.096
 2480SOL    HW1 8339   0.692   5.093   2.136
 2480SOL    HW2 8340   0.561   5.044   2.051
 2481SOL     OW 8341   3.647   4.898   2.574
 2481SOL    HW1 8342   3.599   4.897   2.486
 2481SOL    HW2 8343   3.745   4.904   2.558
 2482SOL     OW 8344   4.649   2.417   3.836
 2482SOL    HW1 8345   4.574   2.356   3.858
 2482SOL    HW2 8346   4.703   2.435   3.919
 2483SOL     OW 8347   0.529   2.900   6.967
 2483SOL    HW1 8348   0.506   2.984   0.001
 2483SOL    HW2 8349   0.466   2.827   6.995
 2484SOL     OW 8350   3.762   3.253   6.299
 2484SOL    HW1 8351   3.860   3.257   6.283
 2484SOL    HW2 8352   3.745   3.247   6.398
 2485SOL     OW 8353   1.034   5.550   0.881
 2485SOL    HW1 8354   1.049   5.452   0.891
 2485SOL    HW2 8355   1.104   5.600   0.931
 2486SOL     OW 8356   0.581   5.254   3.357
 2486SOL    HW1 8357   0.614   5.269   3.450
 2486SOL    HW2 8358   0.627   5.175   3.317
 2487SOL     OW 8359   3.090   1.358   1.274
 2487SOL    HW1 8360   3.041   1.271   1.264
 2487SOL    HW2 8361   3.049   1.411   1.348
 2488SOL     OW 8362   3.360   6.572   6.465
 2488SOL    HW1 8363   3.275   6.587   6.414
 2488SOL    HW2 8364   3.342   6.579   6.563
 2489SOL     OW 8365   6.663   5.940   4.749
 2489SOL    HW1 8366   6.574   5.915   4.712
 2489SOL    HW2 8367   6.716   5.989   4.679
 2490SOL     OW 8368   5.449   3.100   1.736
 2490SOL    HW1 8369   5.371   3.102   1.673
 2490SOL    HW2 8370   5.496   3.189   1.734
 2491SOL     OW 8371   0.081   4.218   2.515
 2491SOL    HW1 8372   7.005   4.248   2.489
 2491SOL    HW2 8373   0.080   4.120   2.534
 2492SOL     OW 8374   4.440   1.595   5.938
 2492SOL    HW1 8375   4.499   1.664   5.896
 2492SOL    HW2 8376   4.494   1.513   5.959
 2493SOL     OW 8377   6.653   1.269   4.839
 2493SOL    HW1 8378   6.744   1.275   4.881
 2493SOL    HW2 8379   6.587   1.236   4.907
 2494SOL     OW 8380   4.501   4.164   1.361
 2494SOL    HW1 8381   4.478   4.220   1.441
 2494SOL    HW2 8382   4.600   4.169   1.345
 2495SOL     OW 8383   6.376   0.947   3.320
 2495SOL    HW1 8384   6.462   0.903   3.295
 2495SOL    HW2 8385   6.343   1.002   3.243
 2496SOL     OW 8386   1.718   5.540   6.632
 2496SOL    HW1 8387   1.808   5.578   6.652
 2496SOL    HW2 8388   1.677   5.590   6.556
 2497SOL     OW 8389   5.603   0.615   6.860
 2497SOL    HW1 8390   5.606   0.523   6.821
 2497SOL    HW2 8391   5.518   0.627   6.911
 2498SOL     OW 8392   0.560   3.128   4.886
 2498SOL    HW1 8393   0.559   3.065   4.808
 2498SOL    HW2 8394   0.572   3.075   4.970
 2499SOL     OW 8395   5.119   0.484   0.224
 2499SOL    HW1 8396   5.179   0.554   0.185
 2499SOL    HW2 8397   5.083   0.517   0.311
 2500SOL     OW 8398   4.270   3.532   6.686
 2500SOL    HW1 8399   4.369   3.534   6.698
 2500SOL    HW2 8400   4.235   3.625   6.677
 2501SOL     OW 8401   6.010   4.859   0.857
 2501SOL    HW1 8402   6.078   4.889   0.790
 2501SOL    HW2 8403   6.055   4.805   0.928
 2502SOL     OW 8404   0.778   6.798   2.813
 2502SOL    HW1 8405   0.810   6.807   2.719
 2502SOL    HW2 8406   0.853   6.764   2.870
 2503SOL     OW 8407   5.077   0.135   4.372
 2503SOL    HW1 8408   5.014   0.058   4.368
 2503SOL    HW2 8409   5.133   0.127   4.455
 2504SOL     OW 8410   2.032   4.183   2.854
 2504SOL    HW1 8411   2.017   4.280   2.833
 2504SOL    HW2 8412   2.116   4.152   2.810
 2505SOL     OW 8413   5.237   4.157   4.626
 2505SOL    HW1 8414   5.142   4.155   4.596
 2505SOL    HW2 8415   5.242   4.189   4.720
 2506SOL     OW 8416   1.069   2.060   0.916
 2506SOL    HW1 8417   0.982   2.065   0.965
 2506SOL    HW2 8418   1.145   2.060   0.982
 2507SOL     OW 8419   6.707   6.004   0.431
 2507SOL    HW1 8420   6.673   5.921   0.474
 2507SOL    HW2 8421   6.652   6.025   0.351
 2508SOL     OW 8422   2.396   2.405   1.869
 2508SOL    HW1 8423   2.444   2.459   1.800
 2508SOL    HW2 8424   2.461   2.377   1.940
 2509SOL     OW 8425   5.360   1.161   3.663
 2509SOL    HW1 8426   5.433   1.150   3.597
 2509SOL    HW2 8427   5.372   1.248   3.712
 2510SOL     OW 8428   4.074   6.311   2.294
 2510SOL    HW1 8429   4.085   6.386   2.359
 2510SOL    HW2 8430   4.113   6.338   2.205
 2511SOL     OW 8431   0.700   6.677   3.627
 2511SOL    HW1 8432   0.691   6.587   3.671
 2511SOL    HW2 8433   0.632   6.740   3.665
 2512SOL     OW 8434   6.082   2.669   4.003
 2512SOL    HW1 8435   6.134   2.610   3.941
 2512SOL    HW2 8436   6.128   2.758   4.011
 2513SOL     OW 8437   0.304   4.766   1.197
 2513SOL    HW1 8438   0.291   4.849   1.142
 2513SOL    HW2 8439   0.224   4.751   1.255
 2514SOL     OW 8440   0.442   2.712   3.232
 2514SOL    HW1 8441   0.489   2.632   3.194
 2514SOL    HW2 8442   0.477   2.795   3.188
 2515SOL     OW 8443   1.267   4.747   0.299
 2515SOL    HW1 8444   1.220   4.660   0.286
 2515SOL    HW2 8445   1.324   4.766   0.219
 2516SOL     OW 8446   5.197   6.468   4.301
 2516SOL    HW1 8447   5.209   6.566   4.282
 2516SOL    HW2 8448   5.122   6.455   4.364
 2517SOL     OW 8449   2.788   5.671   0.984
 2517SOL    HW1 8450   2.705   5.619   0.964
 2517SOL    HW2 8451   2.776   5.766   0.956
 2518SOL     OW 8452   1.921   3.100   6.733
 2518SOL    HW1 8453   1.881   3.016   6.769
 2518SOL    HW2 8454   2.021   3.090   6.727
 2519SOL     OW 8455   5.984   4.275   5.461
 2519SOL    HW1 8456   6.041   4.306   5.385
 2519SOL    HW2 8457   6.041   4.232   5.530
 2520SOL     OW 8458   3.377   5.850   1.872
 2520SOL    HW1 8459   3.327   5.885   1.951
 2520SOL    HW2 8460   3.472   5.879   1.877
 2521SOL     OW 8461   5.717   6.918   6.059
 2521SOL    HW1 8462   5.774   6.967   6.126
 2521SOL    HW2 8463   5.657   6.983   6.013
 2522SOL     OW 8464   2.294   4.574   4.219
 2522SOL    HW1 8465   2.343   4.647   4.171
 2522SOL    HW2 8466   2.298   4.490   4.165
 2523SOL     OW 8467   0.806   2.646   5.649
 2523SOL    HW1 8468   0.776   2.554   5.624
 2523SOL    HW2 8469   0.885   2.641   5.710
 2524SOL     OW 8470   1.323   0.038   4.680
 2524SOL    HW1 8471   1.273   0.119   4.651
 2524SOL    HW2 8472   1.379   0.060   4.760
 2525SOL     OW 8473   2.025   4.270   2.398
 2525SOL    HW1 8474   2.020   4.336   2.324
 2525SOL    HW2 8475   2.121   4.251   2.419
 2526SOL     OW 8476   1.344   2.733   4.959
 2526SOL    HW1 8477   1.428   2.678   4.964
 2526SOL    HW2 8478   1.338   2.775   4.868
 2527SOL     OW 8479   6.551   6.954   3.899
 2527SOL    HW1 8480   6.507   6.865   3.885
 2527SOL    HW2 8481   6.482   0.011   3.890
 2528SOL     OW 8482   5.922   5.102   0.062
 2528SOL    HW1 8483   5.941   5.009   0.096
 2528SOL    HW2 8484   5.989   5.165   0.101
 2529SOL     OW 8485   5.345   3.899   4.713
 2529SOL    HW1 8486   5.267   3.934   4.765
 2529SOL    HW2 8487   5.409   3.974   4.696
 2530SOL     OW 8488   0.788   6.383   3.957
 2530SOL    HW1 8489   0.738   6.382   3.871
 2530SOL    HW2 8490   0.826   6.292   3.974
 2531SOL     OW 8491   5.093   1.234   0.004
 2531SOL    HW1 8492   5.178   1.206   0.048
 2531SOL    HW2 8493   5.017   1.180   0.040
 2532SOL     OW 8494   0.411   4.746   6.221
 2532SOL    HW1 8495   0.405   4.651   6.252
 2532SOL    HW2 8496   0.505   4.767   6.195
 2533SOL     OW 8497   6.014   6.778   5.738
 2533SOL    HW1 8498   6.093   6.819   5.784
 2533SOL    HW2 8499   6.046   6.723   5.660
 2534SOL     OW 8500   0.156   1.547   2.888
 2534SOL    HW1 8501   0.216   1.567   2.966
 2534SOL    HW2 8502   0.068   1.593   2.901
 2535SOL     OW 8503   1.993   1.495   3.063
 2535SOL    HW1 8504   2.050   1.458   3.135
 2535SOL    HW2 8505   2.027   1.585   3.036
 2536SOL     OW 8506   0.698   0.569   3.818
 2536SOL    HW1 8507   0.599   0.573   3.803
 2536SOL    HW2 8508   0.720   0.612   3.905
 2537SOL     OW 8509   3.857   5.741   1.944
 2537SOL    HW1 8510   3.924   5.764   2.014
 2537SOL    HW2 8511   3.904   5.722   1.858
 2538SOL     OW 8512   0.861   4.659   5.092
 2538SOL    HW1 8513   0.834   4.750   5.124
 2538SOL    HW2 8514   0.909   4.611   5.165
 2539SOL     OW 8515   2.441   1.009   5.394
 2539SOL    HW1 8516   2.509   1.062   5.446
 2539SOL    HW2 8517   2.400   1.068   5.324
 2540SOL     OW 8518   5.378   1.995   2.304
 2540SOL    HW1 8519   5.471   1.969   2.329
 2540SOL    HW2 8520   5.325   2.014   2.387
 2541SOL     OW 8521   0.276   0.827   5.774
 2541SOL    HW1 8522   0.352   0.807   5.713
 2541SOL    HW2 8523   0.213   0.749   5.776
 2542SOL     OW 8524   3.781   1.982   3.583
 2542SOL    HW1 8525   3.786   2.027   3.672
 2542SOL    HW2 8526   3.778   2.052   3.511
 2543SOL     OW 8527   6.783   1.510   4.327
 2543SOL    HW1 8528   6.859   1.450   4.353
 2543SOL    HW2 8529   6.773   1.583   4.394
 2544SOL     OW 8530   6.931   6.169   1.780
 2544SOL    HW1 8531   6.849   6.111   1.784
 2544SOL    HW2 8532   6.937   6.223   1.864
 2545SOL     OW 8533   6.299   1.851   0.401
 2545SOL    HW1 8534   6.291   1.949   0.417
 2545SOL    HW2 8535   6.278   1.832   0.305
 2546SOL     OW 8536   6.292   3.051   1.694
 2546SOL    HW1 8537   6.196   3.024   1.680
 2546SOL    HW2 8538   6.295   3.142   1.737
 2547SOL     OW 8539   5.371   4.215   1.080
 2547SOL    HW1 8540   5.442   4.146   1.070
 2547SOL    HW2 8541   5.285   4.181   1.040
 2548SOL     OW 8542   6.336   0.582   5.613
 2548SOL    HW1 8543   6.313   0.505   5.672
 2548SOL    HW2 8544   6.422   0.623   5.643
 2549SOL     OW 8545   2.478   4.708   0.608
 2549SOL    HW1 8546   2.503   4.612   0.598
 2549SOL    HW2 8547   2.465   4.730   0.704
 2550SOL     OW 8548   3.735   6.144   0.631
 2550SOL    HW1 8549   3.667   6.181   0.568
 2550SOL    HW2 8550   3.699   6.063   0.675
 2551SOL     OW 8551   3.842   4.645   1.347
 2551SOL    HW1 8552   3.761   4.612   1.300
 2551SOL    HW2 8553   3.816   4.692   1.431
 2552SOL     OW 8554   2.380   4.141   1.909
 2552SOL    HW1 8555   2.432   4.225   1.898
 2552SOL    HW2 8556   2.437   4.063   1.886
 2553SOL     OW 8557   4.707   1.374   0.022
 2553SOL    HW1 8558   4.741   1.299   0.079
 2553SOL    HW2 8559   4.763   1.381   6.955
 2554SOL     OW 8560   1.672   5.323   0.794
 2554SOL    HW1 8561   1.730   5.341   0.874
 2554SOL    HW2 8562   1.577   5.339   0.818
 2555SOL     OW 8563   6.606   6.961   5.200
 2555SOL    HW1 8564   6.566   6.961   5.108
 2555SOL    HW2 8565   6.671   6.885   5.208
 2556SOL     OW 8566   4.597   6.922   1.022
 2556SOL    HW1 8567   4.608   6.936   0.924
 2556SOL    HW2 8568   4.506   6.884   1.040
 2557SOL     OW 8569   3.017   0.800   6.756
 2557SOL    HW1 8570   3.042   0.724   6.816
 2557SOL    HW2 8571   2.976   0.764   6.672
 2558SOL     OW 8572   5.519   1.665   1.529
 2558SOL    HW1 8573   5.479   1.575   1.547
 2558SOL    HW2 8574   5.465   1.735   1.576
 2559SOL     OW 8575   0.136   5.203   2.925
 2559SOL    HW1 8576   0.118   5.137   2.852
 2559SOL    HW2 8577   0.175   5.286   2.886
 2560SOL     OW 8578   5.089   2.278   2.476
 2560SOL    HW1 8579   5.100   2.338   2.396
 2560SOL    HW2 8580   4.998   2.293   2.516
 2561SOL     OW 8581   2.979   0.295   4.488
 2561SOL    HW1 8582   2.926   0.287   4.404
 2561SOL    HW2 8583   3.071   0.258   4.473
 2562SOL     OW 8584   1.422   6.799   5.402
 2562SOL    HW1 8585   1.483   6.788   5.324
 2562SOL    HW2 8586   1.410   6.711   5.448
 2563SOL     OW 8587   3.446   2.841   6.691
 2563SOL    HW1 8588   3.426   2.892   6.607
 2563SOL    HW2 8589   3.545   2.836   6.703
 2564SOL     OW 8590   1.298   2.297   0.289
 2564SOL    HW1 8591   1.351   2.247   0.358
 2564SOL    HW2 8592   1.345   2.291   0.201
 2565SOL     OW 8593   0.686   0.636   0.677
 2565SOL    HW1 8594   0.761   0.571   0.690
 2565SOL    HW2 8595   0.702   0.690   0.595
 2566SOL     OW 8596   3.125   1.044   0.968
 2566SOL    HW1 8597   3.153   0.994   1.050
 2566SOL    HW2 8598   3.040   1.094   0.987
 2567SOL     OW 8599   1.393   0.850   6.392
 2567SOL    HW1 8600   1.369   0.874   6.298
 2567SOL    HW2 8601   1.488   0.819   6.395
 2568SOL     OW 8602   2.273   5.631   1.399
 2568SOL    HW1 8603   2.191   5.577   1.382
 2568SOL    HW2 8604   2.300   5.622   1.495
 2569SOL     OW 8605   1.931   6.906   0.101
 2569SOL    HW1 8606   1.856   6.957   0.143
 2569SOL    HW2 8607   2.006   6.897   0.166
 2570SOL     OW 8608   0.688   6.094   4.465
 2570SOL    HW1 8609   0.729   6.148   4.391
 2570SOL    HW2 8610   0.751   6.091   4.542
 2571SOL     OW 8611   3.266   4.060   3.397
 2571SOL    HW1 8612   3.257   4.076   3.496
 2571SOL    HW2 8613   3.178   4.030   3.360
 2572SOL     OW 8614   2.387   4.807   2.371
 2572SOL    HW1 8615   2.467   4.761   2.409
 2572SOL    HW2 8616   2.309   4.796   2.433
 2573SOL     OW 8617   6.670   1.319   3.270
 2573SOL    HW1 8618   6.642   1.373   3.349
 2573SOL    HW2 8619   6.733   1.247   3.299
 2574SOL     OW 8620   0.886   3.419   1.842
 2574SOL    HW1 8621   0.806   3.360   1.856
 2574SOL    HW2 8622   0.856   3.509   1.810
 2575SOL     OW 8623   4.635   3.457   5.799
 2575SOL    HW1 8624   4.648   3.460   5.899
 2575SOL    HW2 8625   4.678   3.375   5.762
 2576SOL     OW 8626   1.258   6.971   3.400
 2576SOL    HW1 8627   1.231   7.007   3.311
 2576SOL    HW2 8628   1.202   7.013   3.472
 2577SOL     OW 8629   1.651   4.990   1.538
 2577SOL    HW1 8630   1.657   5.089   1.550
 2577SOL    HW2 8631   1.735   4.956   1.497
 2578SOL     OW 8632   4.496   2.077   4.519
 2578SOL    HW1 8633   4.464   2.081   4.424
 2578SOL    HW2 8634   4.595   2.063   4.520
 2579SOL     OW 8635   6.952   1.271   6.364
 2579SOL    HW1 8636   6.906   1.344   6.314
 2579SOL    HW2 8637   0.036   1.285   6.358
 2580SOL     OW 8638   1.394   1.410   5.539
 2580SOL    HW1 8639   1.366   1.499   5.504
 2580SOL    HW2 8640   1.485   1.387   5.504
 2581SOL     OW 8641   6.339   6.589   5.024
 2581SOL    HW1 8642   6.407   6.520   4.999
 2581SOL    HW2 8643   6.321   6.648   4.945
 2582SOL     OW 8644   0.376   5.196   2.692
 2582SOL    HW1 8645   0.364   5.133   2.769
 2582SOL    HW2 8646   0.320   5.278   2.708
 2583SOL     OW 8647   2.241   1.004   6.496
 2583SOL    HW1 8648   2.209   1.075   6.434
 2583SOL    HW2 8649   2.165   0.946   6.524
 2584SOL     OW 8650   5.016   0.530   2.532
 2584SOL    HW1 8651   5.105   0.511   2.573
 2584SOL    HW2 8652   4.999   0.466   2.457
 2585SOL     OW 8653   4.143   1.640   2.010
 2585SOL    HW1 8654   4.135   1.541   2.024
 2585SOL    HW2 8655   4.113   1.662   1.917
 2586SOL     OW 8656   7.010   1.351   4.413
 2586SOL    HW1 8657   7.012   1.336   4.512
 2586SOL    HW2 8658   0.052   1.429   4.390
 2587SOL     OW 8659   6.488   5.762   2.578
 2587SOL    HW1 8660   6.392   5.776   2.551
 2587SOL    HW2 8661   6.530   5.695   2.517
 2588SOL     OW 8662   4.763   0.165   2.079
 2588SOL    HW1 8663   4.747   0.262   2.097
 2588SOL    HW2 8664   4.798   0.121   2.161
 2589SOL     OW 8665   5.374   5.932   1.027
 2589SOL    HW1 8666   5.387   5.947   0.929
 2589SOL    HW2 8667   5.333   6.014   1.067
 2590SOL     OW 8668   3.136   6.626   2.988
 2590SOL    HW1 8669   3.079   6.659   3.063
 2590SOL    HW2 8670   3.113   6.531   2.967
 2591SOL     OW 8671   6.700   0.323   1.070
 2591SOL    HW1 8672   6.741   0.336   0.980
 2591SOL    HW2 8673   6.647   0.238   1.071
 2592SOL     OW 8674   3.173   4.923   1.659
 2592SOL    HW1 8675   3.182   4.908   1.561
 2592SOL    HW2 8676   3.142   4.838   1.703
 2593SOL     OW 8677   3.584   6.944   2.660
 2593SOL    HW1 8678   3.502   6.905   2.618
 2593SOL    HW2 8679   3.643   6.982   2.589
 2594SOL     OW 8680   1.302   5.923   6.779
 2594SOL    HW1 8681   1.231   5.967   6.725
 2594SOL    HW2 8682   1.369   5.880   6.717
 2595SOL     OW 8683   6.646   2.321   3.928
 2595SOL    HW1 8684   6.574   2.253   3.916
 2595SOL    HW2 8685   6.702   2.296   4.007
 2596SOL     OW 8686   4.024   2.255   1.321
 2596SOL    HW1 8687   3.971   2.284   1.241
 2596SOL    HW2 8688   4.037   2.333   1.383
 2597SOL     OW 8689   2.155   2.374   6.444
 2597SOL    HW1 8690   2.231   2.404   6.388
 2597SOL    HW2 8691   2.110   2.454   6.485
 2598SOL     OW 8692   6.217   1.178   2.577
 2598SOL    HW1 8693   6.146   1.242   2.604
 2598SOL    HW2 8694   6.214   1.097   2.637
 2599SOL     OW 8695   4.270   4.898   6.424
 2599SOL    HW1 8696   4.326   4.981   6.423
 2599SOL    HW2 8697   4.303   4.836   6.495
 2600SOL     OW 8698   6.812   2.506   4.083
 2600SOL    HW1 8699   6.902   2.511   4.127
 2600SOL    HW2 8700   6.767   2.595   4.089
 2601SOL     OW 8701   3.708   3.661   4.978
 2601SOL    HW1 8702   3.666   3.741   4.934
 2601SOL    HW2 8703   3.710   3.585   4.913
 2602SOL     OW 8704   6.329   5.687   5.840
 2602SOL    HW1 8705   6.333   5.744   5.922
 2602SOL    HW2 8706   6.234   5.661   5.823
 2603SOL     OW 8707   1.861   2.436   6.741
 2603SOL    HW1 8708   1.791   2.501   6.768
 2603SOL    HW2 8709   1.946   2.485   6.722
 2604SOL     OW 8710   5.966   1.156   0.503
 2604SOL    HW1 8711   6.005   1.166   0.594
 2604SOL    HW2 8712   6.038   1.135   0.437
 2605SOL     OW 8713   5.150   3.681   4.175
 2605SOL    HW1 8714   5.184   3.772   4.200
 2605SOL    HW2 8715   5.220   3.613   4.196
 2606SOL     OW 8716   6.792   4.301   1.206
 2606SOL    HW1 8717   6.871   4.339   1.158
 2606SOL    HW2 8718   6.814   4.210   1.239
 2607SOL     OW 8719   1.129   1.577   4.195
 2607SOL    HW1 8720   1.160   1.665   4.231
 2607SOL    HW2 8721   1.086   1.524   4.268
 2608SOL     OW 8722   5.239   0.120   0.468
 2608SOL    HW1 8723   5.280   0.204   0.503
 2608SOL    HW2 8724   5.144   0.137   0.443
 2609SOL     OW 8725   0.597   3.160   3.781
 2609SOL    HW1 8726   0.561   3.094   3.715
 2609SOL    HW2 8727   0.659   3.113   3.845
 2610SOL     OW 8728   5.829   5.682   4.543
 2610SOL    HW1 8729   5.864   5.761   4.592
 2610SOL    HW2 8730   5.742   5.653   4.584
 2611SOL     OW 8731   2.977   5.675   2.400
 2611SOL    HW1 8732   3.070   5.668   2.364
 2611SOL    HW2 8733   2.929   5.750   2.354
 2612SOL     OW 8734   0.054   0.033   5.376
 2612SOL    HW1 8735   0.004   7.015   5.456
 2612SOL    HW2 8736   0.145   7.009   5.374
 2613SOL     OW 8737   3.265   0.910   0.381
 2613SOL    HW1 8738   3.269   0.998   0.429
 2613SOL    HW2 8739   3.192   0.913   0.313
 2614SOL     OW 8740   6.118   6.137   6.838
 2614SOL    HW1 8741   6.098   6.064   6.903
 2614SOL    HW2 8742   6.143   6.220   6.888
 2615SOL     OW 8743   5.560   4.566   2.065
 2615SOL    HW1 8744   5.624   4.573   1.987
 2615SOL    HW2 8745   5.594   4.620   2.141
 2616SOL     OW 8746   4.135   3.657   2.201
 2616SOL    HW1 8747   4.230   3.688   2.202
 2616SOL    HW2 8748   4.105   3.643   2.107
 2617SOL     OW 8749   3.100   0.480   1.241
 2617SOL    HW1 8750   3.194   0.484   1.205
 2617SOL    HW2 8751   3.102   0.451   1.336
 2618SOL     OW 8752   1.241   6.790   0.168
 2618SOL    HW1 8753   1.246   6.701   0.122
 2618SOL    HW2 8754   1.333   6.828   0.177
 2619SOL     OW 8755   5.992   1.945   1.217
 2619SOL    HW1 8756   6.076   1.974   1.262
 2619SOL    HW2 8757   6.014   1.887   1.138
 2620SOL     OW 8758   1.579   5.612   3.733
 2620SOL    HW1 8759   1.514   5.681   3.701
 2620SOL    HW2 8760   1.555   5.583   3.825
 2621SOL     OW 8761   0.644   5.374   3.599
 2621SOL    HW1 8762   0.594   5.338   3.678
 2621SOL    HW2 8763   0.731   5.326   3.590
 2622SOL     OW 8764   2.229   2.695   5.973
 2622SOL    HW1 8765   2.221   2.724   5.878
 2622SOL    HW2 8766   2.211   2.773   6.033
 2623SOL     OW 8767   3.260   0.689   6.510
 2623SOL    HW1 8768   3.169   0.667   6.476
 2623SOL    HW2 8769   3.277   0.638   6.595
 2624SOL     OW 8770   6.492   1.917   3.851
 2624SOL    HW1 8771   6.582   1.940   3.886
 2624SOL    HW2 8772   6.425   1.983   3.886
 2625SOL     OW 8773   4.133   0.054   5.507
 2625SOL    HW1 8774   4.100   0.099   5.425
 2625SOL    HW2 8775   4.194   6.994   5.482
 2626SOL     OW 8776   2.358   6.972   2.780
 2626SOL    HW1 8777   2.290   6.968   2.707
 2626SOL    HW2 8778   2.440   6.920   2.752
 2627SOL     OW 8779   0.498   1.263   4.593
 2627SOL    HW1 8780   0.574   1.210   4.632
 2627SOL    HW2 8781   0.533   1.329   4.528
 2628SOL     OW 8782   3.846   5.820   6.414
 2628SOL    HW1 8783   3.800   5.902   6.446
 2628SOL    HW2 8784   3.889   5.774   6.492
 2629SOL     OW 8785   3.096   3.757   1.172
 2629SOL    HW1 8786   3.088   3.840   1.228
 2629SOL    HW2 8787   3.080   3.781   1.076
 2630SOL     OW 8788   2.630   2.329   2.043
 2630SOL    HW1 8789   2.730   2.341   2.043
 2630SOL    HW2 8790   2.607   2.237   2.012
 2631SOL     OW 8791   4.309   6.415   4.556
 2631SOL    HW1 8792   4.343   6.359   4.632
 2631SOL    HW2 8793   4.318   6.512   4.580
 2632SOL     OW 8794   5.373   1.175   0.934
 2632SOL    HW1 8795   5.299   1.131   0.986
 2632SOL    HW2 8796   5.396   1.262   0.976
 2633SOL     OW 8797   6.970   3.103   6.733
 2633SOL    HW1 8798   6.924   3.189   6.714
 2633SOL    HW2 8799   6.902   3.030   6.744
 2634SOL     OW 8800   3.229   5.216   1.711
 2634SOL    HW1 8801   3.217   5.120   1.687
 2634SOL    HW2 8802   3.147   5.267   1.685
 2635SOL     OW 8803   6.116   4.555   3.365
 2635SOL    HW1 8804   6.178   4.628   3.338
 2635SOL    HW2 8805   6.026   4.572   3.325
 2636SOL     OW 8806   5.965   6.854   4.691
 2636SOL    HW1 8807   5.985   6.951   4.707
 2636SOL    HW2 8808   6.023   6.798   4.751
 2637SOL     OW 8809   4.975   6.768   2.470
 2637SOL    HW1 8810   5.006   6.782   2.564
 2637SOL    HW2 8811   5.045   6.801   2.407
 2638SOL     OW 8812   5.225   5.834   0.658
 2638SOL    HW1 8813   5.200   5.882   0.574
 2638SOL    HW2 8814   5.294   5.888   0.707
 2639SOL     OW 8815   6.390   6.594   6.692
 2639SOL    HW1 8816   6.462   6.529   6.718
 2639SOL    HW2 8817   6.397   6.615   6.595
 2640SOL     OW 8818   5.883   0.008   6.245
 2640SOL    HW1 8819   5.869   0.105   6.267
 2640SOL    HW2 8820   5.857   6.968   6.324
 2641SOL     OW 8821   5.890   5.003   0.441
 2641SOL    HW1 8822   5.803   5.034   0.403
 2641SOL    HW2 8823   5.890   4.904   0.450
 2642SOL     OW 8824   6.656   0.149   4.170
 2642SOL    HW1 8825   6.617   0.232   4.131
 2642SOL    HW2 8826   6.756   0.153   4.165
 2643SOL     OW 8827   1.326   0.829   2.136
 2643SOL    HW1 8828   1.363   0.763   2.202
 2643SOL    HW2 8829   1.226   0.833   2.146
 2644SOL     OW 8830   0.011   5.501   5.793
 2644SOL    HW1 8831   0.092   5.506   5.852
 2644SOL    HW2 8832   0.030   5.438   5.718
 2645SOL     OW 8833   5.994   5.774   6.236
 2645SOL    HW1 8834   6.091   5.795   6.232
 2645SOL    HW2 8835   5.956   5.807   6.323
 2646SOL     OW 8836   6.264   6.401   0.002
 2646SOL    HW1 8837   6.232   6.437   6.930
 2646SOL    HW2 8838   6.353   6.357   7.005
 2647SOL     OW 8839   3.441   3.208   0.420
 2647SOL    HW1 8840   3.415   3.299   0.388
 2647SOL    HW2 8841   3.506   3.216   0.496
 2648SOL     OW 8842   3.988   0.899   3.918
 2648SOL    HW1 8843   3.921   0.973   3.926
 2648SOL    HW2 8844   4.045   0.914   3.837
 2649SOL     OW 8845   3.397   2.817   5.331
 2649SOL    HW1 8846   3.383   2.791   5.235
 2649SOL    HW2 8847   3.349   2.752   5.390
 2650SOL     OW 8848   6.804   6.666   2.441
 2650SOL    HW1 8849   6.719   6.719   2.439
 2650SOL    HW2 8850   6.834   6.655   2.536
 2651SOL     OW 8851   0.551   0.284   3.605
 2651SOL    HW1 8852   0.634   0.334   3.580
 2651SOL    HW2 8853   0.520   0.229   3.528
 2652SOL     OW 8854   3.338   2.920   2.713
 2652SOL    HW1 8855   3.381   2.887   2.629
 2652SOL    HW2 8856   3.375   2.871   2.791
 2653SOL     OW 8857   6.160   5.500   0.254
 2653SOL    HW1 8858   6.256   5.501   0.228
 2653SOL    HW2 8859   6.150   5.529   0.349
 2654SOL     OW 8860   6.024   1.512   5.832
 2654SOL    HW1 8861   6.050   1.435   5.890
 2654SOL    HW2 8862   6.107   1.560   5.803
 2655SOL     OW 8863   4.520   5.642   5.268
 2655SOL    HW1 8864   4.559   5.698   5.342
 2655SOL    HW2 8865   4.449   5.583   5.305
 2656SOL     OW 8866   5.172   3.482   4.449
 2656SOL    HW1 8867   5.102   3.498   4.520
 2656SOL    HW2 8868   5.183   3.384   4.435
 2657SOL     OW 8869   2.952   2.134   6.013
 2657SOL    HW1 8870   2.922   2.066   6.080
 2657SOL    HW2 8871   2.966   2.089   5.925
 2658SOL     OW 8872   6.172   4.571   5.397
 2658SOL    HW1 8873   6.131   4.644   5.343
 2658SOL    HW2 8874   6.125   4.564   5.485
 2659SOL     OW 8875   6.751   1.864   2.920
 2659SOL    HW1 8876   6.801   1.875   2.834
 2659SOL    HW2 8877   6.767   1.943   2.978
 2660SOL     OW 8878   6.549   1.961   2.693
 2660SOL    HW1 8879   6.608   2.035   2.723
 2660SOL    HW2 8880   6.464   1.963   2.745
 2661SOL     OW 8881   3.815   6.428   1.937
 2661SOL    HW1 8882   3.799   6.387   1.847
 2661SOL    HW2 8883   3.840   6.524   1.925
 2662SOL     OW 8884   3.771   0.373   3.513
 2662SOL    HW1 8885   3.713   0.348   3.591
 2662SOL    HW2 8886   3.714   0.387   3.432
 2663SOL     OW 8887   1.015   4.549   3.298
 2663SOL    HW1 8888   0.985   4.454   3.288
 2663SOL    HW2 8889   1.076   4.556   3.377
 2664SOL     OW 8890   4.159   3.829   1.803
 2664SOL    HW1 8891   4.232   3.883   1.760
 2664SOL    HW2 8892   4.109   3.886   1.868
 2665SOL     OW 8893   4.533   0.827   4.518
 2665SOL    HW1 8894   4.529   0.825   4.418
 2665SOL    HW2 8895   4.471   0.897   4.552
 2666SOL     OW 8896   4.599   5.970   1.882
 2666SOL    HW1 8897   4.534   6.046   1.879
 2666SOL    HW2 8898   4.572   5.906   1.955
 2667SOL     OW 8899   1.595   4.903   3.622
 2667SOL    HW1 8900   1.548   4.954   3.695
 2667SOL    HW2 8901   1.644   4.967   3.564
 2668SOL     OW 8902   6.264   2.511   6.068
 2668SOL    HW1 8903   6.361   2.516   6.091
 2668SOL    HW2 8904   6.225   2.604   6.064
 2669SOL     OW 8905   4.262   5.734   5.499
 2669SOL    HW1 8906   4.301   5.650   5.461
 2669SOL    HW2 8907   4.230   5.717   5.592
 2670SOL     OW 8908   2.012   6.837   5.734
 2670SOL    HW1 8909   1.987   6.931   5.713
 2670SOL    HW2 8910   1.949   6.774   5.688
 2671SOL     OW 8911   3.430   4.360   6.090
 2671SOL    HW1 8912   3.351   4.300   6.077
 2671SOL    HW2 8913   3.461   4.395   6.002
 2672SOL     OW 8914   1.290   4.187   0.530
 2672SOL    HW1 8915   1.288   4.121   0.605
 2672SOL    HW2 8916   1.269   4.278   0.566
 2673SOL     OW 8917   4.365   2.268   3.941
 2673SOL    HW1 8918   4.289   2.309   3.991
 2673SOL    HW2 8919   4.362   2.298   3.845
 2674SOL     OW 8920   6.026   5.453   5.412
 2674SOL    HW1 8921   6.102   5.416   5.360
 2674SOL    HW2 8922   5.961   5.498   5.350
 2675SOL     OW 8923   0.584   4.012   5.063
 2675SOL    HW1 8924   0.523   3.987   4.988
 2675SOL    HW2 8925   0.552   4.097   5.105
 2676SOL     OW 8926   4.643   0.807   2.392
 2676SOL    HW1 8927   4.545   0.796   2.413
 2676SOL    HW2 8928   4.690   0.846   2.471
 2677SOL     OW 8929   2.851   4.767   2.538
 2677SOL    HW1 8930   2.754   4.762   2.565
 2677SOL    HW2 8931   2.858   4.770   2.439
 2678SOL     OW 8932   7.001   6.469   6.335
 2678SOL    HW1 8933   6.995   6.369   6.328
 2678SOL    HW2 8934   6.970   6.498   6.425
 2679SOL     OW 8935   3.118   4.957   1.386
 2679SOL    HW1 8936   3.217   4.940   1.385
 2679SOL    HW2 8937   3.074   4.898   1.318
 2680SOL     OW 8938   1.534   2.266   1.882
 2680SOL    HW1 8939   1.610   2.214   1.841
 2680SOL    HW2 8940   1.455   2.206   1.892
 2681SOL     OW 8941   1.773   1.428   2.930
 2681SOL    HW1 8942   1.708   1.495   2.965
 2681SOL    HW2 8943   1.863   1.444   2.972
 2682SOL     OW 8944   6.553   2.536   3.528
 2682SOL    HW1 8945   6.584   2.539   3.624
 2682SOL    HW2 8946   6.457   2.564   3.523
 2683SOL     OW 8947   1.708   0.269   1.923
 2683SOL    HW1 8948   1.673   0.282   2.016
 2683SOL    HW2 8949   1.734   0.173   1.911
 2684SOL     OW 8950   2.688   5.768   3.001
 2684SOL    HW1 8951   2.742   5.804   3.076
 2684SOL    HW2 8952   2.677   5.669   3.011
 2685SOL     OW 8953   5.710   6.131   5.089
 2685SOL    HW1 8954   5.653   6.106   5.166
 2685SOL    HW2 8955   5.774   6.057   5.069
 2686SOL     OW 8956   1.084   2.938   4.641
 2686SOL    HW1 8957   1.164   2.976   4.596
 2686SOL    HW2 8958   1.107   2.850   4.681
 2687SOL     OW 8959   4.752   4.999   3.346
 2687SOL    HW1 8960   4.690   4.990   3.424
 2687SOL    HW2 8961   4.707   5.051   3.274
 2688SOL     OW 8962   3.847   5.158   5.595
 2688SOL    HW1 8963   3.909   5.236   5.606
 2688SOL    HW2 8964   3.872   5.087   5.661
 2689SOL     OW 8965   0.345   3.276   3.839
 2689SOL    HW1 8966   0.275   3.269   3.768
 2689SOL    HW2 8967   0.421   3.215   3.818
 2690SOL     OW 8968   3.195   3.095   2.937
 2690SOL    HW1 8969   3.174   3.122   2.843
 2690SOL    HW2 8970   3.275   3.035   2.938
 2691SOL     OW 8971   1.708   5.681   1.312
 2691SOL    HW1 8972   1.660   5.762   1.344
 2691SOL    HW2 8973   1.734   5.624   1.391
 2692SOL     OW 8974   0.036   5.492   3.177
 2692SOL    HW1 8975   0.090   5.518   3.097
 2692SOL    HW2 8976   0.090   5.429   3.233
 2693SOL     OW 8977   1.713   3.694   3.070
 2693SOL    HW1 8978   1.789   3.756   3.091
 2693SOL    HW2 8979   1.651   3.690   3.149
 2694SOL     OW 8980   2.181   0.998   2.852
 2694SOL    HW1 8981   2.164   1.066   2.923
 2694SOL    HW2 8982   2.129   0.915   2.872
 2695SOL     OW 8983   4.025   2.147   3.084
 2695SOL    HW1 8984   4.014   2.048   3.098
 2695SOL    HW2 8985   3.958   2.196   3.139
 2696SOL     OW 8986   4.198   3.581   5.195
 2696SOL    HW1 8987   4.258   3.660   5.183
 2696SOL    HW2 8988   4.248   3.507   5.240
 2697SOL     OW 8989   2.470   2.035   4.125
 2697SOL    HW1 8990   2.392   1.973   4.118
 2697SOL    HW2 8991   2.510   2.027   4.217
 2698SOL     OW 8992   2.285   3.312   6.640
 2698SOL    HW1 8993   2.314   3.241   6.576
 2698SOL    HW2 8994   2.302   3.402   6.600
 2699SOL     OW 8995   2.852   5.886   2.591
 2699SOL    HW1 8996   2.881   5.915   2.683
 2699SOL    HW2 8997   2.787   5.810   2.600
 2700SOL     OW 8998   1.250   4.125   2.760
 2700SOL    HW1 8999   1.272   4.145   2.855
 2700SOL    HW2 9000   1.269   4.205   2.703
 2701SOL     OW 9001   3.212   0.120   5.782
 2701SOL    HW1 9002   3.266   0.086   5.705
 2701SOL    HW2 9003   3.269   0.181   5.837
 2702SOL     OW 9004   6.921   6.832   2.889
 2702SOL    HW1 9005   6.845   6.892   2.863
 2702SOL    HW2 9006   6.990   6.834   2.817
 2703SOL     OW 9007   1.560   1.813   3.277
 2703SOL    HW1 9008   1.575   1.769   3.366
 2703SOL    HW2 9009   1.464   1.841   3.269
 2704SOL     OW 9010   1.860   6.043   0.226
 2704SOL    HW1 9011   1.935   6.108   0.215
 2704SOL    HW2 9012   1.878   5.962   0.170
 2705SOL     OW 9013   0.425   4.797   2.316
 2705SOL    HW1 9014   0.405   4.894   2.303
 2705SOL    HW2 9015   0.346   4.752   2.359
 2706SOL     OW 9016   6.747   2.197   2.040
 2706SOL    HW1 9017   6.692   2.136   2.097
 2706SOL    HW2 9018   6.833   2.152   2.016
 2707SOL     OW 9019   2.129   1.530   6.101
 2707SOL    HW1 9020   2.096   1.617   6.137
 2707SOL    HW2 9021   2.226   1.538   6.077
 2708SOL     OW 9022   2.116   3.833   0.252
 2708SOL    HW1 9023   2.122   3.757   0.316
 2708SOL    HW2 9024   2.070   3.911   0.296
 2709SOL     OW 9025   4.285   6.992   1.683
 2709SOL    HW1 9026   4.226   6.935   1.741
 2709SOL    HW2 9027   4.230   0.025   1.616
 2710SOL     OW 9028   6.031   4.248   2.311
 2710SOL    HW1 9029   6.119   4.294   2.326
 2710SOL    HW2 9030   5.966   4.276   2.381
 2711SOL     OW 9031   1.177   6.578   1.821
 2711SOL    HW1 9032   1.092   6.610   1.778
 2711SOL    HW2 9033   1.219   6.507   1.764
 2712SOL     OW 9034   3.042   5.420   2.195
 2712SOL    HW1 9035   3.128   5.368   2.195
 2712SOL    HW2 9036   3.063   5.518   2.200
 2713SOL     OW 9037   1.949   2.206   4.845
 2713SOL    HW1 9038   2.023   2.162   4.896
 2713SOL    HW2 9039   1.876   2.139   4.831
 2714SOL     OW 9040   5.496   6.856   5.705
 2714SOL    HW1 9041   5.409   6.830   5.746
 2714SOL    HW2 9042   5.570   6.800   5.745
 2715SOL     OW 9043   6.644   0.413   0.227
 2715SOL    HW1 9044   6.560   0.359   0.225
 2715SOL    HW2 9045   6.707   0.375   0.295
 2716SOL     OW 9046   0.113   6.730   2.738
 2716SOL    HW1 9047   0.118   6.800   2.667
 2716SOL    HW2 9048   0.203   6.689   2.751
 2717SOL     OW 9049   0.987   0.628   2.714
 2717SOL    HW1 9050   1.033   0.621   2.802
 2717SOL    HW2 9051   0.979   0.536   2.674
 2718SOL     OW 9052   1.157   4.587   3.065
 2718SOL    HW1 9053   1.112   4.570   3.153
 2718SOL    HW2 9054   1.108   4.539   2.993
 2719SOL     OW 9055   4.066   4.801   2.913
 2719SOL    HW1 9056   3.980   4.843   2.941
 2719SOL    HW2 9057   4.049   4.739   2.835
 2720SOL     OW 9058   0.568   6.076   3.948
 2720SOL    HW1 9059   0.561   6.150   4.015
 2720SOL    HW2 9060   0.515   6.100   3.867
 2721SOL     OW 9061   4.893   0.073   4.880
 2721SOL    HW1 9062   4.936   0.081   4.970
 2721SOL    HW2 9063   4.928   0.146   4.820
 2722SOL     OW 9064   1.438   5.617   1.207
 2722SOL    HW1 9065   1.388   5.584   1.288
 2722SOL    HW2 9066   1.535   5.593   1.217
 2723SOL     OW 9067   1.732   1.297   4.996
 2723SOL    HW1 9068   1.758   1.215   5.047
 2723SOL    HW2 9069   1.649   1.278   4.943
 2724SOL     OW 9070   3.262   5.773   6.342
 2724SOL    HW1 9071   3.305   5.688   6.372
 2724SOL    HW2 9072   3.223   5.760   6.251
 2725SOL     OW 9073   3.097   4.818   3.212
 2725SOL    HW1 9074   3.156   4.742   3.239
 2725SOL    HW2 9075   3.133   4.903   3.252
 2726SOL     OW 9076   4.705   6.296   2.453
 2726SOL    HW1 9077   4.752   6.383   2.437
 2726SOL    HW2 9078   4.691   6.249   2.367
 2727SOL     OW 9079   1.975   5.477   3.000
 2727SOL    HW1 9080   2.039   5.430   2.939
 2727SOL    HW2 9081   1.905   5.412   3.031
 2728SOL     OW 9082   3.433   6.776   5.185
 2728SOL    HW1 9083   3.337   6.769   5.156
 2728SOL    HW2 9084   3.448   6.865   5.229
 2729SOL     OW 9085   6.632   5.042   2.542
 2729SOL    HW1 9086   6.697   4.969   2.522
 2729SOL    HW2 9087   6.550   5.004   2.583
 2730SOL     OW 9088   1.111   4.375   1.313
 2730SOL    HW1 9089   1.058   4.426   1.245
 2730SOL    HW2 9090   1.208   4.400   1.306
 2731SOL     OW 9091   2.828   3.711   1.527
 2731SOL    HW1 9092   2.884   3.650   1.470
 2731SOL    HW2 9093   2.816   3.670   1.618
 2732SOL     OW 9094   5.505   2.646   4.037
 2732SOL    HW1 9095   5.437   2.619   3.969
 2732SOL    HW2 9096   5.487   2.600   4.124
 2733SOL     OW 9097   1.871   0.880   5.904
 2733SOL    HW1 9098   1.945   0.926   5.953
 2733SOL    HW2 9099   1.901   0.790   5.873
 2734SOL     OW 9100   2.132   6.672   3.676
 2734SOL    HW1 9101   2.038   6.683   3.708
 2734SOL    HW2 9102   2.141   6.585   3.627
 2735SOL     OW 9103   2.370   4.854   1.359
 2735SOL    HW1 9104   2.296   4.910   1.396
 2735SOL    HW2 9105   2.444   4.914   1.327
 2736SOL     OW 9106   3.714   6.856   6.586
 2736SOL    HW1 9107   3.765   6.940   6.602
 2736SOL    HW2 9108   3.755   6.781   6.638
 2737SOL     OW 9109   4.233   3.519   5.676
 2737SOL    HW1 9110   4.316   3.542   5.625
 2737SOL    HW2 9111   4.158   3.576   5.643
 2738SOL     OW 9112   5.815   4.462   4.429
 2738SOL    HW1 9113   5.816   4.467   4.329
 2738SOL    HW2 9114   5.909   4.456   4.463
 2739SOL     OW 9115   5.625   3.545   0.557
 2739SOL    HW1 9116   5.535   3.563   0.518
 2739SOL    HW2 9117   5.649   3.449   0.540
 2740SOL     OW 9118   6.696   2.716   3.152
 2740SOL    HW1 9119   6.660   2.791   3.097
 2740SOL    HW2 9120   6.759   2.661   3.098
 2741SOL     OW 9121   1.298   2.585   5.654
 2741SOL    HW1 9122   1.224   2.520   5.638
 2741SOL    HW2 9123   1.382   2.551   5.611
 2742SOL     OW 9124   2.595   6.476   5.378
 2742SOL    HW1 9125   2.575   6.448   5.472
 2742SOL    HW2 9126   2.678   6.532   5.377
 2743SOL     OW 9127   5.969   4.459   0.473
 2743SOL    HW1 9128   5.921   4.385   0.518
 2743SOL    HW2 9129   6.060   4.428   0.444
 2744SOL     OW 9130   4.430   0.197   6.909
 2744SOL    HW1 9131   4.488   0.278   6.915
 2744SOL    HW2 9132   4.472   0.123   6.962
 2745SOL     OW 9133   2.264   5.901   1.302
 2745SOL    HW1 9134   2.265   5.804   1.328
 2745SOL    HW2 9135   2.174   5.925   1.267
 2746SOL     OW 9136   1.298   2.348   6.459
 2746SOL    HW1 9137   1.221   2.316   6.514
 2746SOL    HW2 9138   1.364   2.274   6.448
 2747SOL     OW 9139   5.280   5.680   3.803
 2747SOL    HW1 9140   5.337   5.628   3.738
 2747SOL    HW2 9141   5.225   5.616   3.857
 2748SOL     OW 9142   4.130   1.145   4.821
 2748SOL    HW1 9143   4.164   1.066   4.872
 2748SOL    HW2 9144   4.176   1.228   4.852
 2749SOL     OW 9145   5.036   4.328   3.665
 2749SOL    HW1 9146   5.088   4.247   3.690
 2749SOL    HW2 9147   4.996   4.315   3.574
 2750SOL     OW 9148   0.166   6.233   1.289
 2750SOL    HW1 9149   0.261   6.202   1.286
 2750SOL    HW2 9150   0.159   6.311   1.351
 2751SOL     OW 9151   1.541   0.127   0.411
 2751SOL    HW1 9152   1.508   0.142   0.317
 2751SOL    HW2 9153   1.571   0.213   0.450
 2752SOL     OW 9154   6.595   6.392   5.844
 2752SOL    HW1 9155   6.615   6.332   5.767
 2752SOL    HW2 9156   6.660   6.468   5.845
 2753SOL     OW 9157   2.749   5.205   5.071
 2753SOL    HW1 9158   2.797   5.251   5.145
 2753SOL    HW2 9159   2.680   5.144   5.109
 2754SOL     OW 9160   0.965   5.879   4.247
 2754SOL    HW1 9161   0.987   5.812   4.176
 2754SOL    HW2 9162   0.987   5.842   4.336
 2755SOL     OW 9163   4.151   5.372   2.427
 2755SOL    HW1 9164   4.076   5.424   2.387
 2755SOL    HW2 9165   4.165   5.288   2.375
 2756SOL     OW 9166   0.021   3.456   5.494
 2756SOL    HW1 9167   0.099   3.476   5.552
 2756SOL    HW2 9168   0.017   3.522   5.419
 2757SOL     OW 9169   4.713   3.471   6.764
 2757SOL    HW1 9170   4.691   3.375   6.777
 2757SOL    HW2 9171   4.811   3.481   6.748
 2758SOL     OW 9172   0.270   6.767   1.762
 2758SOL    HW1 9173   0.339   6.696   1.778
 2758SOL    HW2 9174   0.182   6.735   1.797
 2759SOL     OW 9175   3.632   3.701   5.444
 2759SOL    HW1 9176   3.577   3.769   5.494
 2759SOL    HW2 9177   3.729   3.721   5.457
 2760SOL     OW 9178   5.875   5.893   2.411
 2760SOL    HW1 9179   5.830   5.818   2.364
 2760SOL    HW2 9180   5.973   5.890   2.393
 2761SOL     OW 9181   1.529   2.950   3.442
 2761SOL    HW1 9182   1.561   3.045   3.441
 2761SOL    HW2 9183   1.482   2.931   3.356
 2762SOL     OW 9184   3.453   1.891   0.835
 2762SOL    HW1 9185   3.379   1.888   0.903
 2762SOL    HW2 9186   3.513   1.969   0.855
 2763SOL     OW 9187   6.103   1.778   4.154
 2763SOL    HW1 9188   6.090   1.701   4.217
 2763SOL    HW2 9189   6.059   1.757   4.067
 2764SOL     OW 9190   0.366   2.900   2.884
 2764SOL    HW1 9191   0.355   2.999   2.875
 2764SOL    HW2 9192   0.399   2.878   2.976
 2765SOL     OW 9193   5.633   6.299   6.133
 2765SOL    HW1 9194   5.536   6.319   6.138
 2765SOL    HW2 9195   5.668   6.325   6.043
 2766SOL     OW 9196   4.500   6.937   6.993
 2766SOL    HW1 9197   4.509   6.905   0.072
 2766SOL    HW2 9198   4.583   6.913   6.943
 2767SOL     OW 9199   0.916   5.462   6.794
 2767SOL    HW1 9200   0.922   5.539   6.731
 2767SOL    HW2 9201   0.918   5.376   6.743
 2768SOL     OW 9202   4.230   0.085   1.307
 2768SOL    HW1 9203   4.204   0.156   1.241
 2768SOL    HW2 9204   4.192   0.108   1.397
 2769SOL     OW 9205   1.156   4.843   5.566
 2769SOL    HW1 9206   1.123   4.932   5.534
 2769SOL    HW2 9207   1.255   4.838   5.554
 2770SOL     OW 9208   2.344   6.885   0.771
 2770SOL    HW1 9209   2.307   6.976   0.752
 2770SOL    HW2 9210   2.280   6.815   0.739
 2771SOL     OW 9211   4.282   0.171   5.257
 2771SOL    HW1 9212   4.320   0.263   5.269
 2771SOL    HW2 9213   4.183   0.175   5.260
 2772SOL     OW 9214   4.653   1.427   3.993
 2772SOL    HW1 9215   4.602   1.342   3.985
 2772SOL    HW2 9216   4.662   1.470   3.903
 2773SOL     OW 9217   6.237   2.676   4.777
 2773SOL    HW1 9218   6.221   2.587   4.821
 2773SOL    HW2 9219   6.184   2.746   4.824
 2774SOL     OW 9220   5.987   1.723   3.932
 2774SOL    HW1 9221   6.078   1.706   3.894
 2774SOL    HW2 9222   5.927   1.760   3.861
 2775SOL     OW 9223   6.969   3.712   4.202
 2775SOL    HW1 9224   0.028   3.673   4.148
 2775SOL    HW2 9225   6.896   3.644   4.212
 2776SOL     OW 9226   4.571   4.768   6.091
 2776SOL    HW1 9227   4.566   4.771   6.191
 2776SOL    HW2 9228   4.646   4.827   6.060
 2777SOL     OW 9229   2.103   2.210   6.700
 2777SOL    HW1 9230   2.110   2.290   6.641
 2777SOL    HW2 9231   2.013   2.166   6.686
 2778SOL     OW 9232   2.849   0.595   6.030
 2778SOL    HW1 9233   2.807   0.505   6.018
 2778SOL    HW2 9234   2.939   0.584   6.074
 2779SOL     OW 9235   4.954   0.865   1.854
 2779SOL    HW1 9236   4.978   0.881   1.758
 2779SOL    HW2 9237   4.936   0.953   1.899
 2780SOL     OW 9238   6.843   1.321   5.020
 2780SOL    HW1 9239   6.906   1.267   5.076
 2780SOL    HW2 9240   6.874   1.416   5.017
 2781SOL     OW 9241   6.258   1.109   3.494
 2781SOL    HW1 9242   6.312   1.041   3.444
 2781SOL    HW2 9243   6.240   1.076   3.586
 2782SOL     OW 9244   5.313   0.828   5.891
 2782SOL    HW1 9245   5.386   0.840   5.958
 2782SOL    HW2 9246   5.227   0.810   5.938
 2783SOL     OW 9247   5.849   3.459   1.650
 2783SOL    HW1 9248   5.940   3.447   1.611
 2783SOL    HW2 9249   5.780   3.440   1.581
 2784SOL     OW 9250   0.226   3.216   1.339
 2784SOL    HW1 9251   0.198   3.312   1.327
 2784SOL    HW2 9252   0.317   3.203   1.299
 2785SOL     OW 9253   5.903   3.395   2.543
 2785SOL    HW1 9254   5.844   3.467   2.508
 2785SOL    HW2 9255   5.914   3.324   2.473
 2786SOL     OW 9256   1.571   6.268   0.282
 2786SOL    HW1 9257   1.596   6.267   0.379
 2786SOL    HW2 9258   1.492   6.209   0.266
 2787SOL     OW 9259   0.338   5.871   6.885
 2787SOL    HW1 9260   0.376   5.779   6.892
 2787SOL    HW2 9261   0.243   5.870   6.918
 2788SOL     OW 9262   2.361   6.915   6.765
 2788SOL    HW1 9263   2.391   6.952   6.853
 2788SOL    HW2 9264   2.401   6.825   6.752
 2789SOL     OW 9265   1.339   2.432   4.716
 2789SOL    HW1 9266   1.269   2.426   4.787
 2789SOL    HW2 9267   1.297   2.418   4.626
 2790SOL     OW 9268   0.759   5.828   1.484
 2790SOL    HW1 9269   0.805   5.868   1.564
 2790SOL    HW2 9270   0.665   5.859   1.481
 2791SOL     OW 9271   1.579   3.075   4.378
 2791SOL    HW1 9272   1.619   3.111   4.294
 2791SOL    HW2 9273   1.630   2.993   4.406
 2792SOL     OW 9274   3.247   1.276   5.934
 2792SOL    HW1 9275   3.262   1.211   5.860
 2792SOL    HW2 9276   3.275   1.234   6.021
 2793SOL     OW 9277   3.357   3.564   0.610
 2793SOL    HW1 9278   3.332   3.504   0.687
 2793SOL    HW2 9279   3.303   3.648   0.615
 2794SOL     OW 9280   1.708   2.195   0.239
 2794SOL    HW1 9281   1.726   2.274   0.297
 2794SOL    HW2 9282   1.794   2.151   0.214
 2795SOL     OW 9283   1.778   5.977   0.992
 2795SOL    HW1 9284   1.720   5.912   1.041
 2795SOL    HW2 9285   1.726   6.021   0.920
 2796SOL     OW 9286   1.732   5.830   6.625
 2796SOL    HW1 9287   1.654   5.793   6.676
 2796SOL    HW2 9288   1.704   5.850   6.531
 2797SOL     OW 9289   4.963   4.614   3.461
 2797SOL    HW1 9290   4.973   4.579   3.368
 2797SOL    HW2 9291   4.868   4.600   3.491
 2798SOL     OW 9292   5.399   1.451   1.614
 2798SOL    HW1 9293   5.426   1.360   1.581
 2798SOL    HW2 9294   5.428   1.461   1.710
 2799SOL     OW 9295   3.644   6.350   4.660
 2799SOL    HW1 9296   3.673   6.421   4.724
 2799SOL    HW2 9297   3.548   6.329   4.674
 2800SOL     OW 9298   4.759   0.412   6.095
 2800SOL    HW1 9299   4.847   0.431   6.138
 2800SOL    HW2 9300   4.698   0.366   6.160
 2801SOL     OW 9301   0.047   4.931   3.891
 2801SOL    HW1 9302   6.998   4.987   3.943
 2801SOL    HW2 9303   0.120   4.989   3.854
 2802SOL     OW 9304   1.523   5.083   4.615
 2802SOL    HW1 9305   1.605   5.125   4.576
 2802SOL    HW2 9306   1.549   5.016   4.683
 2803SOL     OW 9307   3.344   2.598   6.747
 2803SOL    HW1 9308   3.357   2.697   6.746
 2803SOL    HW2 9309   3.353   2.562   6.655
 2804SOL     OW 9310   6.775   3.110   3.443
 2804SOL    HW1 9311   6.718   3.035   3.411
 2804SOL    HW2 9312   6.852   3.073   3.496
 2805SOL     OW 9313   3.845   4.543   0.641
 2805SOL    HW1 9314   3.898   4.549   0.557
 2805SOL    HW2 9315   3.906   4.542   0.720
 2806SOL     OW 9316   0.044   3.052   5.449
 2806SOL    HW1 9317   0.071   2.978   5.387
 2806SOL    HW2 9318   0.063   3.140   5.406
 2807SOL     OW 9319   4.224   1.122   4.158
 2807SOL    HW1 9320   4.266   1.115   4.248
 2807SOL    HW2 9321   4.125   1.126   4.167
 2808SOL     OW 9322   0.725   5.541   5.694
 2808SOL    HW1 9323   0.666   5.479   5.642
 2808SOL    HW2 9324   0.695   5.544   5.789
 2809SOL     OW 9325   0.460   6.188   1.935
 2809SOL    HW1 9326   0.483   6.151   1.845
 2809SOL    HW2 9327   0.450   6.113   2.001
 2810SOL     OW 9328   1.616   6.300   2.885
 2810SOL    HW1 9329   1.624   6.220   2.944
 2810SOL    HW2 9330   1.689   6.365   2.906
 2811SOL     OW 9331   1.059   1.132   1.063
 2811SOL    HW1 9332   0.996   1.096   1.132
 2811SOL    HW2 9333   1.074   1.063   0.993
 2812SOL     OW 9334   1.202   1.842   0.483
 2812SOL    HW1 9335   1.210   1.847   0.384
 2812SOL    HW2 9336   1.294   1.841   0.524
 2813SOL     OW 9337   0.749   3.425   1.419
 2813SOL    HW1 9338   0.792   3.482   1.349
 2813SOL    HW2 9339   0.815   3.355   1.449
 2814SOL     OW 9340   2.583   4.496   6.912
 2814SOL    HW1 9341   2.652   4.561   6.881
 2814SOL    HW2 9342   2.601   4.407   6.870
 2815SOL     OW 9343   6.718   5.552   4.429
 2815SOL    HW1 9344   6.787   5.581   4.495
 2815SOL    HW2 9345   6.711   5.453   4.429
 2816SOL     OW 9346   1.035   5.263   4.651
 2816SOL    HW1 9347   1.088   5.204   4.711
 2816SOL    HW2 9348   0.937   5.249   4.669
 2817SOL     OW 9349   3.093   1.180   2.542
 2817SOL    HW1 9350   3.190   1.183   2.563
 2817SOL    HW2 9351   3.041   1.218   2.619
 2818SOL     OW 9352   1.312   0.477   0.094
 2818SOL    HW1 9353   1.287   0.476   0.191
 2818SOL    HW2 9354   1.355   0.565   0.072
 2819SOL     OW 9355   0.750   0.222   6.780
 2819SOL    HW1 9356   0.670   0.174   6.743
 2819SOL    HW2 9357   0.729   0.254   6.873
 2820SOL     OW 9358   1.566   1.949   6.978
 2820SOL    HW1 9359   1.601   1.866   0.005
 2820SOL    HW2 9360   1.520   2.005   0.032
 2821SOL     OW 9361   3.135   3.032   6.186
 2821SOL    HW1 9362   3.176   3.121   6.205
 2821SOL    HW2 9363   3.035   3.041   6.183
 2822SOL     OW 9364   4.728   2.909   0.468
 2822SOL    HW1 9365   4.695   2.961   0.547
 2822SOL    HW2 9366   4.748   2.816   0.496
 2823SOL     OW 9367   4.812   3.624   1.840
 2823SOL    HW1 9368   4.831   3.683   1.761
 2823SOL    HW2 9369   4.809   3.680   1.923
 2824SOL     OW 9370   0.688   4.610   5.396
 2824SOL    HW1 9371   0.758   4.541   5.380
 2824SOL    HW2 9372   0.598   4.572   5.377
 2825SOL     OW 9373   5.263   1.537   5.767
 2825SOL    HW1 9374   5.227   1.622   5.805
 2825SOL    HW2 9375   5.363   1.539   5.772
 2826SOL     OW 9376   2.823   2.922   6.905
 2826SOL    HW1 9377   2.902   2.953   6.853
 2826SOL    HW2 9378   2.771   3.001   6.937
 2827SOL     OW 9379   5.713   1.716   6.341
 2827SOL    HW1 9380   5.637   1.781   6.335
 2827SOL    HW2 9381   5.773   1.741   6.417
 2828SOL     OW 9382   1.627   3.773   0.929
 2828SOL    HW1 9383   1.639   3.764   1.028
 2828SOL    HW2 9384   1.617   3.870   0.906
 2829SOL     OW 9385   3.597   3.462   1.846
 2829SOL    HW1 9386   3.561   3.373   1.876
 2829SOL    HW2 9387   3.667   3.447   1.777
 2830SOL     OW 9388   3.293   5.723   4.760
 2830SOL    HW1 9389   3.313   5.809   4.713
 2830SOL    HW2 9390   3.203   5.730   4.803
 2831SOL     OW 9391   0.268   1.506   1.746
 2831SOL    HW1 9392   0.262   1.606   1.753
 2831SOL    HW2 9393   0.305   1.470   1.832
 2832SOL     OW 9394   0.702   3.706   2.539
 2832SOL    HW1 9395   0.647   3.746   2.466
 2832SOL    HW2 9396   0.668   3.614   2.560
 2833SOL     OW 9397   0.044   2.312   2.381
 2833SOL    HW1 9398   0.097   2.268   2.308
 2833SOL    HW2 9399   0.105   2.369   2.436
 2834SOL     OW 9400   3.520   0.121   4.069
 2834SOL    HW1 9401   3.512   0.056   4.145
 2834SOL    HW2 9402   3.549   0.072   3.986
 2835SOL     OW 9403   6.866   0.836   6.945
 2835SOL    HW1 9404   6.843   0.915   7.002
 2835SOL    HW2 9405   6.785   0.778   6.934
 2836SOL     OW 9406   3.287   5.587   2.947
 2836SOL    HW1 9407   3.287   5.680   2.983
 2836SOL    HW2 9408   3.273   5.589   2.848
 2837SOL     OW 9409   5.174   4.347   1.920
 2837SOL    HW1 9410   5.252   4.285   1.912
 2837SOL    HW2 9411   5.102   4.318   1.857
 2838SOL     OW 9412   6.774   4.140   6.129
 2838SOL    HW1 9413   6.686   4.177   6.102
 2838SOL    HW2 9414   6.779   4.043   6.102
 2839SOL     OW 9415   5.705   2.965   5.476
 2839SOL    HW1 9416   5.618   2.961   5.427
 2839SOL    HW2 9417   5.718   3.056   5.516
 2840SOL     OW 9418   6.220   6.528   4.567
 2840SOL    HW1 9419   6.221   6.592   4.490
 2840SOL    HW2 9420   6.136   6.473   4.564
 2841SOL     OW 9421   5.737   4.109   2.197
 2841SOL    HW1 9422   5.717   4.199   2.236
 2841SOL    HW2 9423   5.835   4.090   2.208
 2842SOL     OW 9424   0.524   6.915   3.717
 2842SOL    HW1 9425   0.534   6.958   3.628
 2842SOL    HW2 9426   0.589   6.956   3.781
 2843SOL     OW 9427   2.274   2.649   3.720
 2843SOL    HW1 9428   2.197   2.694   3.673
 2843SOL    HW2 9429   2.346   2.630   3.654
 2844SOL     OW 9430   5.203   3.304   0.760
 2844SOL    HW1 9431   5.239   3.307   0.666
 2844SOL    HW2 9432   5.279   3.319   0.824
 2845SOL     OW 9433   3.021   1.525   1.511
 2845SOL    HW1 9434   3.064   1.584   1.580
 2845SOL    HW2 9435   2.983   1.581   1.438
 2846SOL     OW 9436   5.862   0.044   6.908
 2846SOL    HW1 9437   5.927   0.051   6.832
 2846SOL    HW2 9438   5.854   0.133   6.952
 2847SOL     OW 9439   4.736   5.011   0.834
 2847SOL    HW1 9440   4.694   5.011   0.924
 2847SOL    HW2 9441   4.669   4.982   0.766
 2848SOL     OW 9442   0.748   4.342   5.934
 2848SOL    HW1 9443   0.810   4.394   5.993
 2848SOL    HW2 9444   0.667   4.397   5.914
 2849SOL     OW 9445   5.252   0.978   1.542
 2849SOL    HW1 9446   5.352   0.984   1.547
 2849SOL    HW2 9447   5.215   1.066   1.514
 2850SOL     OW 9448   0.972   0.550   1.945
 2850SOL    HW1 9449   0.885   0.511   1.975
 2850SOL    HW2 9450   0.987   0.528   1.849
 2851SOL     OW 9451   3.172   2.862   1.463
 2851SOL    HW1 9452   3.165   2.961   1.477
 2851SOL    HW2 9453   3.095   2.831   1.407
 2852SOL     OW 9454   0.442   5.539   5.378
 2852SOL    HW1 9455   0.361   5.564   5.431
 2852SOL    HW2 9456   0.414   5.513   5.286
 2853SOL     OW 9457   0.428   4.525   5.349
 2853SOL    HW1 9458   0.352   4.505   5.411
 2853SOL    HW2 9459   0.393   4.545   5.258
 2854SOL     OW 9460   2.628   0.601   5.741
 2854SOL    HW1 9461   2.607   0.639   5.831
 2854SOL    HW2 9462   2.728   0.595   5.730
 2855SOL     OW 9463   2.476   1.457   4.373
 2855SOL    HW1 9464   2.452   1.501   4.286
 2855SOL    HW2 9465   2.431   1.503   4.448
 2856SOL     OW 9466   0.296   5.508   4.374
 2856SOL    HW1 9467   0.391   5.532   4.398
 2856SOL    HW2 9468   0.235   5.536   4.448
 2857SOL     OW 9469   6.546   4.415   1.169
 2857SOL    HW1 9470   6.640   4.383   1.177
 2857SOL    HW2 9471   6.541   4.489   1.102
 2858SOL     OW 9472   5.020   4.226   2.544
 2858SOL    HW1 9473   5.057   4.194   2.457
 2858SOL    HW2 9474   4.920   4.228   2.539
 2859SOL     OW 9475   6.170   4.824   1.834
 2859SOL    HW1 9476   6.074   4.817   1.807
 2859SOL    HW2 9477   6.194   4.920   1.846
 2860SOL     OW 9478   1.081   0.466   2.955
 2860SOL    HW1 9479   1.088   0.408   3.037
 2860SOL    HW2 9480   1.111   0.414   2.875
 2861SOL     OW 9481   5.190   4.312   6.024
 2861SOL    HW1 9482   5.150   4.403   6.016
 2861SOL    HW2 9483   5.152   4.266   6.104
 2862SOL     OW 9484   4.687   1.427   0.823
 2862SOL    HW1 9485   4.644   1.512   0.852
 2862SOL    HW2 9486   4.651   1.400   0.734
 2863SOL     OW 9487   5.733   2.068   5.544
 2863SOL    HW1 9488   5.824   2.106   5.557
 2863SOL    HW2 9489   5.668   2.142   5.528
 2864SOL     OW 9490   3.619   4.190   0.910
 2864SOL    HW1 9491   3.648   4.094   0.907
 2864SOL    HW2 9492   3.696   4.249   0.888
 2865SOL     OW 9493   5.627   5.358   5.455
 2865SOL    HW1 9494   5.721   5.330   5.478
 2865SOL    HW2 9495   5.564   5.285   5.483
 2866SOL     OW 9496   3.685   4.967   0.617
 2866SOL    HW1 9497   3.645   4.996   0.530
 2866SOL    HW2 9498   3.648   4.877   0.642
 2867SOL     OW 9499   6.258   6.561   3.092
 2867SOL    HW1 9500   6.229   6.566   3.187
 2867SOL    HW2 9501   6.357   6.576   3.087
 2868SOL     OW 9502   0.204   0.107   5.917
 2868SOL    HW1 9503   0.294   0.088   5.878
 2868SOL    HW2 9504   0.140   0.127   5.843
 2869SOL     OW 9505   6.149   4.493   4.075
 2869SOL    HW1 9506   6.233   4.452   4.112
 2869SOL    HW2 9507   6.161   4.592   4.067
 2870SOL     OW 9508   0.035   1.779   1.845
 2870SOL    HW1 9509   0.014   1.703   1.907
 2870SOL    HW2 9510   0.134   1.781   1.829
 2871SOL     OW 9511   5.036   1.040   3.162
 2871SOL    HW1 9512   5.054   0.980   3.240
 2871SOL    HW2 9513   5.012   0.984   3.082
 2872SOL     OW 9514   2.530   2.097   2.589
 2872SOL    HW1 9515   2.476   2.125   2.668
 2872SOL    HW2 9516   2.469   2.057   2.520
 2873SOL     OW 9517   1.607   6.928   1.427
 2873SOL    HW1 9518   1.598   6.932   1.526
 2873SOL    HW2 9519   1.563   6.845   1.393
 2874SOL     OW 9520   2.071   1.379   3.403
 2874SOL    HW1 9521   2.077   1.340   3.494
 2874SOL    HW2 9522   1.987   1.347   3.359
 2875SOL     OW 9523   2.498   0.070   3.311
 2875SOL    HW1 9524   2.500   0.098   3.215
 2875SOL    HW2 9525   2.404   0.067   3.343
 2876SOL     OW 9526   1.258   6.195   0.869
 2876SOL    HW1 9527   1.240   6.254   0.948
 2876SOL    HW2 9528   1.308   6.247   0.799
 2877SOL     OW 9529   1.924   2.502   5.175
 2877SOL    HW1 9530   1.905   2.599   5.191
 2877SOL    HW2 9531   2.003   2.474   5.231
 2878SOL     OW 9532   4.068   3.210   4.627
 2878SOL    HW1 9533   4.090   3.291   4.573
 2878SOL    HW2 9534   4.080   3.231   4.725
 2879SOL     OW 9535   5.304   4.854   7.007
 2879SOL    HW1 9536   5.335   4.801   0.070
 2879SOL    HW2 9537   5.356   4.939   7.001
 2880SOL     OW 9538   1.670   1.540   3.512
 2880SOL    HW1 9539   1.732   1.592   3.454
 2880SOL    HW2 9540   1.634   1.599   3.584
 2881SOL     OW 9541   5.170   4.819   0.605
 2881SOL    HW1 9542   5.102   4.854   0.670
 2881SOL    HW2 9543   5.199   4.728   0.633
 2882SOL     OW 9544   4.684   6.344   0.135
 2882SOL    HW1 9545   4.781   6.346   0.109
 2882SOL    HW2 9546   4.633   6.294   0.065
 2883SOL     OW 9547   5.380   6.511   4.020
 2883SOL    HW1 9548   5.389   6.604   3.984
 2883SOL    HW2 9549   5.470   6.467   4.023
 2884SOL     OW 9550   6.350   5.704   3.647
 2884SOL    HW1 9551   6.389   5.744   3.564
 2884SOL    HW2 9552   6.329   5.607   3.631
 2885SOL     OW 9553   1.357   2.911   4.125
 2885SOL    HW1 9554   1.330   3.001   4.157
 2885SOL    HW2 9555   1.285   2.872   4.068
 2886SOL     OW 9556   2.204   4.876   5.535
 2886SOL    HW1 9557   2.209   4.819   5.617
 2886SOL    HW2 9558   2.291   4.870   5.485
 2887SOL     OW 9559   6.710   5.781   2.763
 2887SOL    HW1 9560   6.698   5.873   2.800
 2887SOL    HW2 9561   6.651   5.768   2.684
 2888SOL     OW 9562   4.810   6.692   6.401
 2888SOL    HW1 9563   4.847   6.784   6.411
 2888SOL    HW2 9564   4.884   6.626   6.399
 2889SOL     OW 9565   4.542   6.119   4.207
 2889SOL    HW1 9566   4.492   6.175   4.272
 2889SOL    HW2 9567   4.631   6.095   4.245
 2890SOL     OW 9568   1.146   2.434   0.492
 2890SOL    HW1 9569   1.210   2.366   0.527
 2890SOL    HW2 9570   1.155   2.439   0.392
 2891SOL     OW 9571   0.713   1.961   5.385
 2891SOL    HW1 9572   0.726   2.024   5.309
 2891SOL    HW2 9573   0.629   1.984   5.434
 2892SOL     OW 9574   5.440   4.561   1.731
 2892SOL    HW1 9575   5.487   4.480   1.768
 2892SOL    HW2 9576   5.357   4.532   1.685
 2893SOL     OW 9577   6.856   5.621   5.351
 2893SOL    HW1 9578   6.898   5.661   5.433
 2893SOL    HW2 9579   6.888   5.527   5.339
 2894SOL     OW 9580   2.431   5.502   1.223
 2894SOL    HW1 9581   2.377   5.565   1.278
 2894SOL    HW2 9582   2.493   5.553   1.164
 2895SOL     OW 9583   4.077   6.920   5.729
 2895SOL    HW1 9584   4.035   6.830   5.714
 2895SOL    HW2 9585   4.094   6.963   5.640
 2896SOL     OW 9586   5.957   0.520   4.832
 2896SOL    HW1 9587   5.944   0.495   4.927
 2896SOL    HW2 9588   6.022   0.457   4.789
 2897SOL     OW 9589   3.382   4.889   3.036
 2897SOL    HW1 9590   3.462   4.910   2.979
 2897SOL    HW2 9591   3.320   4.830   2.985
 2898SOL     OW 9592   5.068   2.403   2.792
 2898SOL    HW1 9593   5.104   2.347   2.867
 2898SOL    HW2 9594   5.142   2.456   2.752
 2899SOL     OW 9595   6.635   3.364   0.598
 2899SOL    HW1 9596   6.626   3.459   0.625
 2899SOL    HW2 9597   6.717   3.325   0.639
 2900SOL     OW 9598   2.519   2.443   6.325
 2900SOL    HW1 9599   2.459   2.518   6.296
 2900SOL    HW2 9600   2.499   2.361   6.272
 2901SOL     OW 9601   0.957   3.813   2.462
 2901SOL    HW1 9602   0.872   3.772   2.495
 2901SOL    HW2 9603   1.000   3.865   2.535
 2902SOL     OW 9604   5.926   5.261   3.686
 2902SOL    HW1 9605   5.849   5.223   3.737
 2902SOL    HW2 9606   5.955   5.346   3.729
 2903SOL     OW 9607   6.490   4.416   0.542
 2903SOL    HW1 9608   6.419   4.480   0.572
 2903SOL    HW2 9609   6.542   4.458   0.467
 2904SOL     OW 9610   2.498   4.508   4.682
 2904SOL    HW1 9611   2.483   4.418   4.642
 2904SOL    HW2 9612   2.501   4.577   4.610
 2905SOL     OW 9613   1.900   5.191   1.267
 2905SOL    HW1 9614   1.896   5.099   1.305
 2905SOL    HW2 9615   1.973   5.196   1.198
 2906SOL     OW 9616   6.511   6.320   5.408
 2906SOL    HW1 9617   6.430   6.356   5.361
 2906SOL    HW2 9618   6.488   6.234   5.453
 2907SOL     OW 9619   0.814   1.305   5.075
 2907SOL    HW1 9620   0.850   1.387   5.029
 2907SOL    HW2 9621   0.864   1.225   5.042
 2908SOL     OW 9622   3.922   0.147   3.456
 2908SOL    HW1 9623   4.018   0.161   3.435
 2908SOL    HW2 9624   3.879   0.236   3.474
 2909SOL     OW 9625   6.985   6.755   1.541
 2909SOL    HW1 9626   6.991   6.672   1.596
 2909SOL    HW2 9627   0.058   6.773   1.498
 2910SOL     OW 9628   0.583   1.425   4.337
 2910SOL    HW1 9629   0.660   1.365   4.316
 2910SOL    HW2 9630   0.497   1.377   4.315
 2911SOL     OW 9631   0.567   4.264   5.578
 2911SOL    HW1 9632   0.653   4.223   5.609
 2911SOL    HW2 9633   0.515   4.195   5.528
 2912SOL     OW 9634   0.701   0.713   1.824
 2912SOL    HW1 9635   0.753   0.780   1.770
 2912SOL    HW2 9636   0.698   0.626   1.774
 2913SOL     OW 9637   1.597   6.819   3.238
 2913SOL    HW1 9638   1.526   6.805   3.169
 2913SOL    HW2 9639   1.686   6.802   3.196
 2914SOL     OW 9640   4.073   4.747   1.250
 2914SOL    HW1 9641   3.995   4.697   1.288
 2914SOL    HW2 9642   4.046   4.789   1.163
 2915SOL     OW 9643   2.607   0.322   4.060
 2915SOL    HW1 9644   2.538   0.328   3.987
 2915SOL    HW2 9645   2.698   0.314   4.019
 2916SOL     OW 9646   1.384   5.502   0.196
 2916SOL    HW1 9647   1.304   5.555   0.170
 2916SOL    HW2 9648   1.457   5.563   0.226
 2917SOL     OW 9649   2.509   6.722   2.844
 2917SOL    HW1 9650   2.447   6.662   2.795
 2917SOL    HW2 9651   2.475   6.737   2.937
 2918SOL     OW 9652   5.401   2.656   1.891
 2918SOL    HW1 9653   5.469   2.645   1.818
 2918SOL    HW2 9654   5.351   2.570   1.904
 2919SOL     OW 9655   7.004   5.999   4.880
 2919SOL    HW1 9656   6.993   6.096   4.860
 2919SOL    HW2 9657   6.933   5.971   4.945
 2920SOL     OW 9658   2.776   2.088   1.485
 2920SOL    HW1 9659   2.797   2.144   1.405
 2920SOL    HW2 9660   2.819   2.128   1.566
 2921SOL     OW 9661   0.993   6.333   3.697
 2921SOL    HW1 9662   0.955   6.425   3.706
 2921SOL    HW2 9663   1.087   6.340   3.661
 2922SOL     OW 9664   3.928   5.149   3.647
 2922SOL    HW1 9665   3.862   5.078   3.670
 2922SOL    HW2 9666   4.018   5.108   3.631
 2923SOL     OW 9667   0.786   5.482   4.586
 2923SOL    HW1 9668   0.838   5.538   4.651
 2923SOL    HW2 9669   0.843   5.463   4.506
 2924SOL     OW 9670   5.513   1.896   6.253
 2924SOL    HW1 9671   5.567   1.886   6.170
 2924SOL    HW2 9672   5.431   1.838   6.247
 2925SOL     OW 9673   5.817   6.574   4.722
 2925SOL    HW1 9674   5.806   6.548   4.818
 2925SOL    HW2 9675   5.864   6.663   4.718
 2926SOL     OW 9676   6.596   2.115   4.218
 2926SOL    HW1 9677   6.501   2.095   4.194
 2926SOL    HW2 9678   6.616   2.211   4.198
 2927SOL     OW 9679   1.385   2.256   2.503
 2927SOL    HW1 9680   1.434   2.271   2.417
 2927SOL    HW2 9681   1.435   2.189   2.558
 2928SOL     OW 9682   5.782   2.817   0.023
 2928SOL    HW1 9683   5.874   2.839   0.055
 2928SOL    HW2 9684   5.720   2.891   0.045
 2929SOL     OW 9685   1.995   2.336   4.072
 2929SOL    HW1 9686   2.044   2.423   4.086
 2929SOL    HW2 9687   1.918   2.330   4.135
 2930SOL     OW 9688   0.476   3.824   4.155
 2930SOL    HW1 9689   0.490   3.764   4.234
 2930SOL    HW2 9690   0.527   3.909   4.169
 2931SOL     OW 9691   5.646   4.927   5.814
 2931SOL    HW1 9692   5.593   4.843   5.807
 2931SOL    HW2 9693   5.602   4.990   5.878
 2932SOL     OW 9694   6.083   5.179   1.324
 2932SOL    HW1 9695   6.110   5.233   1.244
 2932SOL    HW2 9696   6.021   5.232   1.381
 2933SOL     OW 9697   1.001   6.914   0.244
 2933SOL    HW1 9698   1.066   6.854   0.198
 2933SOL    HW2 9699   0.991   6.999   0.191
 2934SOL     OW 9700   4.614   5.153   1.753
 2934SOL    HW1 9701   4.650   5.108   1.834
 2934SOL    HW2 9702   4.526   5.111   1.728
 2935SOL     OW 9703   0.728   2.694   6.057
 2935SOL    HW1 9704   0.703   2.756   6.133
 2935SOL    HW2 9705   0.651   2.633   6.038
 2936SOL     OW 9706   4.812   0.001   2.313
 2936SOL    HW1 9707   4.847   6.988   2.403
 2936SOL    HW2 9708   4.787   6.935   2.260
 2937SOL     OW 9709   5.682   3.782   3.218
 2937SOL    HW1 9710   5.703   3.875   3.187
 2937SOL    HW2 9711   5.593   3.755   3.180
 2938SOL     OW 9712   0.560   5.338   6.858
 2938SOL    HW1 9713   0.505   5.417   6.882
 2938SOL    HW2 9714   0.582   5.286   6.940
 2939SOL     OW 9715   0.233   5.888   1.558
 2939SOL    HW1 9716   0.227   5.967   1.619
 2939SOL    HW2 9717   0.145   5.876   1.511
 2940SOL     OW 9718   4.683   6.548   3.818
 2940SOL    HW1 9719   4.585   6.538   3.799
 2940SOL    HW2 9720   4.736   6.526   3.737
 2941SOL     OW 9721   2.165   4.742   2.514
 2941SOL    HW1 9722   2.074   4.779   2.532
 2941SOL    HW2 9723   2.164   4.643   2.526
 2942SOL     OW 9724   3.575   2.085   1.718
 2942SOL    HW1 9725   3.612   2.152   1.782
 2942SOL    HW2 9726   3.476   2.096   1.712
 2943SOL     OW 9727   5.894   3.363   3.392
 2943SOL    HW1 9728   5.910   3.369   3.491
 2943SOL    HW2 9729   5.951   3.291   3.354
 2944SOL     OW 9730   1.613   5.858   2.242
 2944SOL    HW1 9731   1.702   5.837   2.202
 2944SOL    HW2 9732   1.544   5.866   2.169
 2945SOL     OW 9733   5.273   3.579   1.602
 2945SOL    HW1 9734   5.221   3.661   1.626
 2945SOL    HW2 9735   5.214   3.499   1.610
 2946SOL     OW 9736   3.758   2.992   4.289
 2946SOL    HW1 9737   3.815   2.992   4.207
 2946SOL    HW2 9738   3.805   3.039   4.363
 2947SOL     OW 9739   6.155   5.318   0.800
 2947SOL    HW1 9740   6.115   5.320   0.891
 2947SOL    HW2 9741   6.237   5.261   0.801
 2948SOL     OW 9742   0.215   3.634   1.672
 2948SOL    HW1 9743   0.305   3.674   1.688
 2948SOL    HW2 9744   0.209   3.603   1.577
 2949SOL     OW 9745   2.143   6.268   0.457
 2949SOL    HW1 9746   2.099   6.343   0.508
 2949SOL    HW2 9747   2.242   6.272   0.470
 2950SOL     OW 9748   6.140   5.851   2.335
 2950SOL    HW1 9749   6.194   5.887   2.412
 2950SOL    HW2 9750   6.163   5.902   2.252
 2951SOL     OW 9751   0.918   1.798   1.213
 2951SOL    HW1 9752   1.005   1.769   1.252
 2951SOL    HW2 9753   0.886   1.880   1.260
 2952SOL     OW 9754   0.114   2.260   5.203
 2952SOL    HW1 9755   0.113   2.356   5.229
 2952SOL    HW2 9756   0.051   2.245   5.127
 2953SOL     OW 9757   1.653   5.569   3.033
 2953SOL    HW1 9758   1.559   5.537   3.046
 2953SOL    HW2 9759   1.663   5.660   3.072
 2954SOL     OW 9760   0.719   4.314   6.378
 2954SOL    HW1 9761   0.802   4.263   6.400
 2954SOL    HW2 9762   0.647   4.290   6.443
 2955SOL     OW 9763   1.703   4.627   6.029
 2955SOL    HW1 9764   1.714   4.551   6.093
 2955SOL    HW2 9765   1.606   4.648   6.018
 2956SOL     OW 9766   5.374   4.408   4.440
 2956SOL    HW1 9767   5.430   4.488   4.417
 2956SOL    HW2 9768   5.278   4.427   4.418
 2957SOL     OW 9769   2.346   5.612   1.664
 2957SOL    HW1 9770   2.341   5.706   1.697
 2957SOL    HW2 9771   2.440   5.593   1.633
 2958SOL     OW 9772   1.828   4.020   2.058
 2958SOL    HW1 9773   1.854   3.942   2.001
 2958SOL    HW2 9774   1.747   4.064   2.019
 2959SOL     OW 9775   0.201   3.622   3.859
 2959SOL    HW1 9776   0.247   3.646   3.944
 2959SOL    HW2 9777   0.181   3.704   3.807
 2960SOL     OW 9778   5.028   6.434   1.393
 2960SOL    HW1 9779   5.034   6.502   1.320
 2960SOL    HW2 9780   5.053   6.344   1.356
 2961SOL     OW 9781   5.548   2.360   1.796
 2961SOL    HW1 9782   5.591   2.448   1.777
 2961SOL    HW2 9783   5.585   2.291   1.735
 2962SOL     OW 9784   6.833   6.993   3.935
 2962SOL    HW1 9785   6.740   6.972   3.904
 2962SOL    HW2 9786   6.846   0.077   3.934
 2963SOL     OW 9787   1.472   0.623   4.857
 2963SOL    HW1 9788   1.434   0.714   4.873
 2963SOL    HW2 9789   1.543   0.629   4.787
 2964SOL     OW 9790   1.631   0.757   6.487
 2964SOL    HW1 9791   1.654   0.770   6.583
 2964SOL    HW2 9792   1.648   0.662   6.461
 2965SOL     OW 9793   6.294   0.269   6.293
 2965SOL    HW1 9794   6.344   0.348   6.258
 2965SOL    HW2 9795   6.341   0.185   6.264
 2966SOL     OW 9796   3.099   5.197   2.934
 2966SOL    HW1 9797   3.047   5.159   2.857
 2966SOL    HW2 9798   3.192   5.218   2.904
 2967SOL     OW 9799   5.961   6.827   5.101
 2967SOL    HW1 9800   5.866   6.829   5.131
 2967SOL    HW2 9801   6.020   6.809   5.180
 2968SOL     OW 9802   0.946   3.612   0.798
 2968SOL    HW1 9803   0.996   3.554   0.862
 2968SOL    HW2 9804   0.995   3.699   0.786
 2969SOL     OW 9805   4.597   2.540   4.804
 2969SOL    HW1 9806   4.657   2.465   4.774
 2969SOL    HW2 9807   4.548   2.577   4.726
 2970SOL     OW 9808   2.676   2.619   5.568
 2970SOL    HW1 9809   2.736   2.680   5.516
 2970SOL    HW2 9810   2.660   2.658   5.659
 2971SOL     OW 9811   4.913   2.972   6.786
 2971SOL    HW1 9812   4.980   3.011   6.848
 2971SOL    HW2 9813   4.854   2.908   6.836
 2972SOL     OW 9814   6.941   5.587   6.135
 2972SOL    HW1 9815   6.993   5.607   6.052
 2972SOL    HW2 9816   6.893   5.670   6.165
 2973SOL     OW 9817   5.468   1.040   4.432
 2973SOL    HW1 9818   5.523   0.957   4.427
 2973SOL    HW2 9819   5.417   1.052   4.347
 2974SOL     OW 9820   4.859   6.722   2.049
 2974SOL    HW1 9821   4.825   6.637   2.008
 2974SOL    HW2 9822   4.931   6.760   1.992
 2975SOL     OW 9823   6.323   3.741   4.680
 2975SOL    HW1 9824   6.417   3.760   4.707
 2975SOL    HW2 9825   6.270   3.711   4.759
 2976SOL     OW 9826   3.577   1.014   1.408
 2976SOL    HW1 9827   3.571   0.976   1.500
 2976SOL    HW2 9828   3.649   1.083   1.405
 2977SOL     OW 9829   1.072   0.488   1.702
 2977SOL    HW1 9830   0.986   0.514   1.659
 2977SOL    HW2 9831   1.148   0.521   1.647
 2978SOL     OW 9832   3.692   5.275   6.727
 2978SOL    HW1 9833   3.756   5.291   6.651
 2978SOL    HW2 9834   3.640   5.192   6.709
 2979SOL     OW 9835   2.937   0.966   4.953
 2979SOL    HW1 9836   2.843   0.939   4.973
 2979SOL    HW2 9837   2.952   1.061   4.981
 2980SOL     OW 9838   3.460   3.321   4.435
 2980SOL    HW1 9839   3.418   3.236   4.401
 2980SOL    HW2 9840   3.392   3.395   4.432
 2981SOL     OW 9841   2.199   1.564   1.531
 2981SOL    HW1 9842   2.226   1.599   1.620
 2981SOL    HW2 9843   2.134   1.489   1.543
 2982SOL     OW 9844   1.784   0.829   1.166
 2982SOL    HW1 9845   1.867   0.873   1.200
 2982SOL    HW2 9846   1.750   0.879   1.086
 2983SOL     OW 9847   6.586   3.552   6.029
 2983SOL    HW1 9848   6.587   3.639   6.078
 2983SOL    HW2 9849   6.508   3.550   5.967
 2984SOL     OW 9850   0.439   6.096   1.329
 2984SOL    HW1 9851   0.530   6.119   1.364
 2984SOL    HW2 9852   0.403   6.017   1.379
 2985SOL     OW 9853   6.181   0.541   6.900
 2985SOL    HW1 9854   6.245   0.613   6.926
 2985SOL    HW2 9855   6.230   0.454   6.888
 2986SOL     OW 9856   3.500   3.212   1.912
 2986SOL    HW1 9857   3.573   3.217   1.980
 2986SOL    HW2 9858   3.530   3.155   1.835
 2987SOL     OW 9859   2.593   5.980   4.644
 2987SOL    HW1 9860   2.631   5.932   4.722
 2987SOL    HW2 9861   2.616   6.077   4.650
 2988SOL     OW 9862   6.687   1.916   5.670
 2988SOL    HW1 9863   6.644   1.885   5.585
 2988SOL    HW2 9864   6.659   2.010   5.689
 2989SOL     OW 9865   5.733   3.574   4.774
 2989SOL    HW1 9866   5.657   3.510   4.760
 2989SOL    HW2 9867   5.776   3.556   4.862
 2990SOL     OW 9868   5.324   1.983   5.157
 2990SOL    HW1 9869   5.399   1.920   5.172
 2990SOL    HW2 9870   5.337   2.065   5.214
 2991SOL     OW 9871   0.091   3.117   0.215
 2991SOL    HW1 9872   0.155   3.191   0.234
 2991SOL    HW2 9873   7.013   3.152   0.218
 2992SOL     OW 9874   0.759   3.780   5.005
 2992SOL    HW1 9875   0.736   3.737   4.918
 2992SOL    HW2 9876   0.744   3.879   4.999
 2993SOL     OW 9877   3.297   4.738   1.180
 2993SOL    HW1 9878   3.272   4.699   1.269
 2993SOL    HW2 9879   3.391   4.771   1.183
 2994SOL     OW 9880   3.068   5.138   4.567
 2994SOL    HW1 9881   2.981   5.093   4.548
 2994SOL    HW2 9882   3.142   5.086   4.525
 2995SOL     OW 9883   4.594   0.778   1.628
 2995SOL    HW1 9884   4.626   0.786   1.723
 2995SOL    HW2 9885   4.645   0.706   1.582
 2996SOL     OW 9886   6.710   1.137   4.337
 2996SOL    HW1 9887   6.721   1.177   4.428
 2996SOL    HW2 9888   6.712   1.038   4.344
 2997SOL     OW 9889   4.941   6.285   4.177
 2997SOL    HW1 9890   4.943   6.383   4.155
 2997SOL    HW2 9891   4.971   6.232   4.098
 2998SOL     OW 9892   2.606   0.939   1.752
 2998SOL    HW1 9893   2.587   1.032   1.783
 2998SOL    HW2 9894   2.520   0.892   1.735
 2999SOL     OW 9895   1.962   4.189   0.893
 2999SOL    HW1 9896   1.933   4.161   0.985
 2999SOL    HW2 9897   1.982   4.107   0.839
 3000SOL     OW 9898   2.047   4.268   5.332
 3000SOL    HW1 9899   2.033   4.354   5.283
 3000SOL    HW2 9900   2.139   4.235   5.314
 3001SOL     OW 9901   3.884   0.796   6.253
 3001SOL    HW1 9902   3.877   0.891   6.223
 3001SOL    HW2 9903   3.827   0.783   6.334
 3002SOL     OW 9904   1.620   1.790   1.795
 3002SOL    HW1 9905   1.653   1.789   1.889
 3002SOL    HW2 9906   1.522   1.768   1.793
 3003SOL     OW 9907   1.506   6.050   0.915
 3003SOL    HW1 9908   1.551   6.007   0.837
 3003SOL    HW2 9909   1.410   6.068   0.892
 3004SOL     OW 9910   2.814   6.731   4.008
 3004SOL    HW1 9911   2.783   6.692   3.921
 3004SOL    HW2 9912   2.757   6.811   4.030
 3005SOL     OW 9913   2.445   1.684   0.744
 3005SOL    HW1 9914   2.422   1.771   0.789
 3005SOL    HW2 9915   2.470   1.617   0.814
 3006SOL     OW 9916   5.579   1.302   5.623
 3006SOL    HW1 9917   5.625   1.291   5.711
 3006SOL    HW2 9918   5.541   1.214   5.594
 3007SOL     OW 9919   6.195   5.443   6.406
 3007SOL    HW1 9920   6.171   5.347   6.420
 3007SOL    HW2 9921   6.204   5.461   6.308
 3008SOL     OW 9922   4.846   4.041   5.520
 3008SOL    HW1 9923   4.923   3.983   5.493
 3008SOL    HW2 9924   4.795   4.070   5.439
 3009SOL     OW 9925   5.480   3.455   2.062
 3009SOL    HW1 9926   5.568   3.438   2.017
 3009SOL    HW2 9927   5.461   3.553   2.061
 3010SOL     OW 9928   4.679   5.033   1.987
 3010SOL    HW1 9929   4.597   5.030   2.044
 3010SOL    HW2 9930   4.743   4.962   2.016
 3011SOL     OW 9931   6.058   0.349   0.597
 3011SOL    HW1 9932   6.050   0.447   0.581
 3011SOL    HW2 9933   6.085   0.332   0.691
 3012SOL     OW 9934   1.953   1.672   4.674
 3012SOL    HW1 9935   2.031   1.687   4.735
 3012SOL    HW2 9936   1.873   1.720   4.709
 3013SOL     OW 9937   0.790   4.909   5.860
 3013SOL    HW1 9938   0.823   4.847   5.788
 3013SOL    HW2 9939   0.811   4.870   5.950
 3014SOL     OW 9940   4.927   0.092   6.585
 3014SOL    HW1 9941   4.855   0.024   6.593
 3014SOL    HW2 9942   4.906   0.170   6.643
 3015SOL     OW 9943   2.102   0.778   5.802
 3015SOL    HW1 9944   2.132   0.846   5.735
 3015SOL    HW2 9945   2.152   0.790   5.888
 3016SOL     OW 9946   2.007   0.616   3.962
 3016SOL    HW1 9947   1.943   0.543   3.986
 3016SOL    HW2 9948   2.075   0.627   4.034
 3017SOL     OW 9949   1.284   5.726   0.439
 3017SOL    HW1 9950   1.247   5.729   0.346
 3017SOL    HW2 9951   1.230   5.663   0.494
 3018SOL     OW 9952   3.281   1.640   2.054
 3018SOL    HW1 9953   3.210   1.709   2.039
 3018SOL    HW2 9954   3.370   1.685   2.059
 3019SOL     OW 9955   1.666   0.020   5.793
 3019SOL    HW1 9956   1.623   0.090   5.734
 3019SOL    HW2 9957   1.763   0.015   5.773
 3020SOL     OW 9958   5.297   4.623   6.814
 3020SOL    HW1 9959   5.223   4.662   6.760
 3020SOL    HW2 9960   5.318   4.683   6.891
 3021SOL     OW 9961   4.393   0.423   4.638
 3021SOL    HW1 9962   4.383   0.487   4.714
 3021SOL    HW2 9963   4.435   0.470   4.560
 3022SOL     OW 9964   3.996   6.172   4.150
 3022SOL    HW1 9965   4.094   6.185   4.164
 3022SOL    HW2 9966   3.961   6.108   4.219
 3023SOL     OW 9967   5.813   4.756   4.949
 3023SOL    HW1 9968   5.741   4.749   5.017
 3023SOL    HW2 9969   5.900   4.728   4.989
 3024SOL     OW 9970   0.461   0.964   0.109
 3024SOL    HW1 9971   0.438   1.035   0.043
 3024SOL    HW2 9972   0.448   0.999   0.202
 3025SOL     OW 9973   4.241   5.461   0.852
 3025SOL    HW1 9974   4.321   5.439   0.908
 3025SOL    HW2 9975   4.225   5.388   0.786
 3026SOL     OW 9976   0.437   0.600   2.185
 3026SOL    HW1 9977   0.398   0.666   2.250
 3026SOL    HW2 9978   0.408   0.623   2.093
 3027SOL     OW 9979   4.103   6.571   0.706
 3027SOL    HW1 9980   4.142   6.589   0.616
 3027SOL    HW2 9981   4.066   6.478   0.709
 3028SOL     OW 9982   3.642   3.516   4.634
 3028SOL    HW1 9983   3.660   3.422   4.604
 3028SOL    HW2 9984   3.707   3.578   4.591
 3029SOL     OW 9985   6.688   3.559   4.810
 3029SOL    HW1 9986   6.753   3.524   4.878
 3029SOL    HW2 9987   6.643   3.641   4.844
 3030SOL     OW 9988   1.447   2.899   6.600
 3030SOL    HW1 9989   1.450   2.848   6.686
 3030SOL    HW2 9990   1.530   2.880   6.547
 3031SOL     OW 9991   0.453   5.483   0.915
 3031SOL    HW1 9992   0.531   5.541   0.938
 3031SOL    HW2 9993   0.485   5.403   0.864
 3032SOL     OW 9994   2.436   6.730   3.537
 3032SOL    HW1 9995   2.389   6.815   3.561
 3032SOL    HW2 9996   2.490   6.744   3.454
 3033SOL     OW 9997   1.507   1.661   5.872
 3033SOL    HW1 9998   1.584   1.675   5.934
 3033SOL    HW2 9999   1.439   1.734   5.886
 3034SOL     OW10000   5.159   3.138   3.179
 3034SOL    HW110001   5.187   3.046   3.204
 3034SOL    HW210002   5.240   3.195   3.165
 3035SOL     OW10003   6.925   3.716   6.682
 3035SOL    HW110004   6.917   3.815   6.692
 3035SOL    HW210005   6.995   3.681   6.745
 3036SOL     OW10006   3.417   2.582   5.793
 3036SOL    HW110007   3.452   2.675   5.787
 3036SOL    HW210008   3.318   2.582   5.779
 3037SOL     OW10009   1.034   5.094   6.763
 3037SOL    HW110010   1.104   5.103   6.834
 3037SOL    HW210011   1.036   5.001   6.725
 3038SOL     OW10012   5.764   5.308   6.348
 3038SOL    HW110013   5.792   5.212   6.355
 3038SOL    HW210014   5.843   5.363   6.319
 3039SOL     OW10015   5.582   3.851   5.783
 3039SOL    HW110016   5.634   3.923   5.828
 3039SOL    HW210017   5.591   3.860   5.684
 3040SOL     OW10018   4.537   6.120   5.939
 3040SOL    HW110019   4.454   6.176   5.938
 3040SOL    HW210020   4.612   6.171   5.981
 3041SOL     OW10021   1.376   4.960   5.946
 3041SOL    HW110022   1.393   5.058   5.942
 3041SOL    HW210023   1.449   4.916   5.999
 3042SOL     OW10024   0.236   5.112   3.814
 3042SOL    HW110025   0.315   5.095   3.872
 3042SOL    HW210026   0.232   5.209   3.791
 3043SOL     OW10027   2.751   4.750   1.554
 3043SOL    HW110028   2.792   4.792   1.635
 3043SOL    HW210029   2.822   4.705   1.500
 3044SOL     OW10030   3.956   3.484   4.692
 3044SOL    HW110031   4.001   3.450   4.609
 3044SOL    HW210032   3.940   3.408   4.754
 3045SOL     OW10033   5.290   1.448   2.553
 3045SOL    HW110034   5.360   1.413   2.491
 3045SOL    HW210035   5.329   1.461   2.644
 3046SOL     OW10036   5.971   6.506   1.726
 3046SOL    HW110037   5.901   6.537   1.790
 3046SOL    HW210038   6.012   6.421   1.759
 3047SOL     OW10039   6.400   1.492   4.592
 3047SOL    HW110040   6.348   1.485   4.677
 3047SOL    HW210041   6.384   1.411   4.536
 3048SOL     OW10042   4.441   4.756   1.666
 3048SOL    HW110043   4.413   4.664   1.694
 3048SOL    HW210044   4.536   4.753   1.635
 3049SOL     OW10045   1.058   1.728   2.384
 3049SOL    HW110046   1.090   1.729   2.479
 3049SOL    HW210047   0.963   1.696   2.381
 3050SOL     OW10048   3.353   2.232   6.266
 3050SOL    HW110049   3.256   2.210   6.274
 3050SOL    HW210050   3.408   2.154   6.294
 3051SOL     OW10051   2.481   5.267   5.627
 3051SOL    HW110052   2.473   5.311   5.716
 3051SOL    HW210053   2.419   5.313   5.562
 3052SOL     OW10054   0.123   6.378   3.877
 3052SOL    HW110055   0.175   6.457   3.909
 3052SOL    HW210056   0.034   6.408   3.843
 3053SOL     OW10057   0.806   4.205   6.888
 3053SOL    HW110058   0.854   4.275   6.836
 3053SOL    HW210059   0.719   4.185   6.844
 3054SOL     OW10060   5.500   0.263   2.930
 3054SOL    HW110061   5.505   0.191   2.861
 3054SOL    HW210062   5.552   0.236   3.011
 3055SOL     OW10063   5.701   6.422   0.535
 3055SOL    HW110064   5.753   6.342   0.566
 3055SOL    HW210065   5.727   6.502   0.589
 3056SOL     OW10066   4.210   1.274   6.865
 3056SOL    HW110067   4.198   1.298   6.769
 3056SOL    HW210068   4.302   1.238   6.880
 3057SOL     OW10069   5.576   3.786   3.561
 3057SOL    HW110070   5.487   3.742   3.551
 3057SOL    HW210071   5.647   3.717   3.569
 3058SOL     OW10072   0.230   5.558   5.943
 3058SOL    HW110073   0.276   5.473   5.918
 3058SOL    HW210074   0.271   5.594   6.027
 3059SOL     OW10075   1.458   2.599   2.163
 3059SOL    HW110076   1.545   2.619   2.117
 3059SOL    HW210077   1.475   2.536   2.239
 3060SOL     OW10078   5.534   4.365   3.779
 3060SOL    HW110079   5.469   4.296   3.811
 3060SOL    HW210080   5.485   4.448   3.753
 3061SOL     OW10081   5.767   6.942   3.451
 3061SOL    HW110082   5.856   6.920   3.411
 3061SOL    HW210083   5.738   6.867   3.510
 3062SOL     OW10084   4.088   5.094   1.293
 3062SOL    HW110085   3.995   5.104   1.258
 3062SOL    HW210086   4.086   5.091   1.393
 3063SOL     OW10087   6.665   4.848   1.296
 3063SOL    HW110088   6.688   4.751   1.293
 3063SOL    HW210089   6.642   4.874   1.390
 3064SOL     OW10090   4.772   2.265   6.376
 3064SOL    HW110091   4.747   2.351   6.419
 3064SOL    HW210092   4.865   2.240   6.404
 3065SOL     OW10093   5.759   1.289   6.280
 3065SOL    HW110094   5.831   1.230   6.243
 3065SOL    HW210095   5.788   1.327   6.368
 3066SOL     OW10096   5.221   0.193   5.418
 3066SOL    HW110097   5.285   0.141   5.474
 3066SOL    HW210098   5.178   0.264   5.473
 3067SOL     OW10099   1.301   2.121   4.622
 3067SOL    HW110100   1.226   2.181   4.648
 3067SOL    HW210101   1.388   2.159   4.655
 3068SOL     OW10102   6.240   0.168   0.473
 3068SOL    HW110103   6.287   0.180   0.561
 3068SOL    HW210104   6.154   0.220   0.474
 3069SOL     OW10105   5.316   6.277   4.114
 3069SOL    HW110106   5.246   6.289   4.185
 3069SOL    HW210107   5.349   6.366   4.085
 3070SOL     OW10108   2.378   1.226   1.230
 3070SOL    HW110109   2.418   1.178   1.308
 3070SOL    HW210110   2.421   1.315   1.219
 3071SOL     OW10111   6.004   4.756   5.245
 3071SOL    HW110112   5.922   4.700   5.258
 3071SOL    HW210113   5.987   4.822   5.171
 3072SOL     OW10114   1.915   6.622   5.977
 3072SOL    HW110115   1.892   6.599   5.883
 3072SOL    HW210116   1.909   6.721   5.990
 3073SOL     OW10117   7.005   5.869   2.122
 3073SOL    HW110118   0.018   5.924   2.044
 3073SOL    HW210119   7.010   5.772   2.098
 3074SOL     OW10120   3.468   2.624   1.645
 3074SOL    HW110121   3.428   2.665   1.563
 3074SOL    HW210122   3.433   2.531   1.657
 3075SOL     OW10123   4.068   5.100   1.572
 3075SOL    HW110124   3.989   5.064   1.622
 3075SOL    HW210125   4.091   5.190   1.607
 3076SOL     OW10126   0.796   1.216   4.348
 3076SOL    HW110127   0.717   1.155   4.340
 3076SOL    HW210128   0.879   1.166   4.324
 3077SOL     OW10129   6.350   3.557   1.727
 3077SOL    HW110130   6.272   3.613   1.753
 3077SOL    HW210131   6.434   3.610   1.738
 3078SOL     OW10132   0.250   3.651   2.076
 3078SOL    HW110133   0.312   3.592   2.129
 3078SOL    HW210134   0.168   3.600   2.052
 3079SOL     OW10135   1.856   4.187   4.302
 3079SOL    HW110136   1.931   4.121   4.306
 3079SOL    HW210137   1.770   4.139   4.286
 3080SOL     OW10138   4.426   5.088   1.455
 3080SOL    HW110139   4.419   5.185   1.476
 3080SOL    HW210140   4.508   5.072   1.399
 3081SOL     OW10141   2.325   3.515   6.088
 3081SOL    HW110142   2.411   3.551   6.123
 3081SOL    HW210143   2.249   3.573   6.118
 3082SOL     OW10144   5.294   4.273   4.867
 3082SOL    HW110145   5.216   4.327   4.898
 3082SOL    HW210146   5.301   4.189   4.921
 3083SOL     OW10147   3.660   5.573   2.044
 3083SOL    HW110148   3.631   5.520   1.965
 3083SOL    HW210149   3.720   5.647   2.015
 3084SOL     OW10150   6.756   5.383   3.541
 3084SOL    HW110151   6.702   5.437   3.475
 3084SOL    HW210152   6.808   5.313   3.492
 3085SOL     OW10153   5.810   5.334   0.073
 3085SOL    HW110154   5.831   5.246   0.032
 3085SOL    HW210155   5.811   5.326   0.173
 3086SOL     OW10156   6.318   5.937   6.594
 3086SOL    HW110157   6.343   5.980   6.680
 3086SOL    HW210158   6.236   5.880   6.607
 3087SOL     OW10159   3.586   0.221   2.405
 3087SOL    HW110160   3.660   0.269   2.357
 3087SOL    HW210161   3.513   0.286   2.427
 3088SOL     OW10162   2.076   3.801   5.684
 3088SOL    HW110163   2.102   3.876   5.622
 3088SOL    HW210164   2.133   3.721   5.664
 3089SOL     OW10165   4.036   5.593   6.095
 3089SOL    HW110166   4.036   5.570   6.192
 3089SOL    HW210167   4.088   5.678   6.081
 3090SOL     OW10168   0.660   2.557   2.289
 3090SOL    HW110169   0.623   2.560   2.196
 3090SOL    HW210170   0.643   2.644   2.334
 3091SOL     OW10171   1.142   2.687   0.584
 3091SOL    HW110172   1.138   2.591   0.557
 3091SOL    HW210173   1.125   2.694   0.683
 3092SOL     OW10174   6.031   1.284   1.944
 3092SOL    HW110175   6.025   1.334   2.030
 3092SOL    HW210176   5.939   1.257   1.914
 3093SOL     OW10177   6.435   5.347   6.592
 3093SOL    HW110178   6.337   5.363   6.584
 3093SOL    HW210179   6.479   5.363   6.503
 3094SOL     OW10180   2.122   1.437   6.713
 3094SOL    HW110181   2.213   1.416   6.678
 3094SOL    HW210182   2.123   1.526   6.758
 3095SOL     OW10183   1.539   3.991   4.961
 3095SOL    HW110184   1.472   3.957   4.895
 3095SOL    HW210185   1.619   3.930   4.962
 3096SOL     OW10186   1.239   3.451   4.070
 3096SOL    HW110187   1.326   3.430   4.026
 3096SOL    HW210188   1.255   3.492   4.160
 3097SOL     OW10189   5.418   2.801   5.200
 3097SOL    HW110190   5.415   2.746   5.116
 3097SOL    HW210191   5.418   2.740   5.279
 3098SOL     OW10192   2.114   3.245   2.573
 3098SOL    HW110193   2.111   3.324   2.512
 3098SOL    HW210194   2.041   3.180   2.548
 3099SOL     OW10195   0.477   0.115   5.263
 3099SOL    HW110196   0.499   0.189   5.327
 3099SOL    HW210197   0.424   0.153   5.186
 3100SOL     OW10198   5.667   4.777   1.708
 3100SOL    HW110199   5.645   4.849   1.642
 3100SOL    HW210200   5.582   4.732   1.737
 3101SOL     OW10201   5.044   0.070   5.105
 3101SOL    HW110202   5.094   7.006   5.141
 3101SOL    HW210203   5.048   0.145   5.171
 3102SOL     OW10204   6.134   4.659   2.378
 3102SOL    HW110205   6.150   4.756   2.359
 3102SOL    HW210206   6.070   4.621   2.311
 3103SOL     OW10207   2.161   1.954   1.686
 3103SOL    HW110208   2.201   2.046   1.682
 3103SOL    HW210209   2.084   1.948   1.621
 3104SOL     OW10210   5.425   2.404   5.184
 3104SOL    HW110211   5.342   2.356   5.213
 3104SOL    HW210212   5.444   2.479   5.247
 3105SOL     OW10213   5.443   3.871   0.640
 3105SOL    HW110214   5.524   3.870   0.582
 3105SOL    HW210215   5.362   3.849   0.586
 3106SOL     OW10216   5.457   1.741   5.214
 3106SOL    HW110217   5.518   1.780   5.145
 3106SOL    HW210218   5.407   1.664   5.174
 3107SOL     OW10219   3.449   1.918   4.922
 3107SOL    HW110220   3.397   1.991   4.966
 3107SOL    HW210221   3.540   1.951   4.898
 3108SOL     OW10222   2.260   4.015   3.362
 3108SOL    HW110223   2.323   3.946   3.399
 3108SOL    HW210224   2.267   4.016   3.262
 3109SOL     OW10225   0.003   6.446   3.505
 3109SOL    HW110226   0.031   6.363   3.554
 3109SOL    HW210227   6.985   6.514   3.570
 3110SOL     OW10228   1.035   5.602   3.496
 3110SOL    HW110229   1.121   5.618   3.448
 3110SOL    HW210230   1.051   5.541   3.574
 3111SOL     OW10231   5.833   4.016   3.969
 3111SOL    HW110232   5.866   4.007   3.875
 3111SOL    HW210233   5.735   3.996   3.972
 3112SOL     OW10234   4.117   0.744   6.904
 3112SOL    HW110235   4.042   0.713   6.846
 3112SOL    HW210236   4.109   0.843   6.920
 3113SOL     OW10237   1.476   6.873   3.597
 3113SOL    HW110238   1.405   6.851   3.530
 3113SOL    HW210239   1.485   6.973   3.604
 3114SOL     OW10240   4.530   0.064   6.026
 3114SOL    HW110241   4.450   0.007   6.006
 3114SOL    HW210242   4.502   0.159   6.035
 3115SOL     OW10243   5.377   5.497   5.100
 3115SOL    HW110244   5.340   5.589   5.088
 3115SOL    HW210245   5.452   5.482   5.035
 3116SOL     OW10246   0.771   1.163   6.095
 3116SOL    HW110247   0.845   1.143   6.160
 3116SOL    HW210248   0.758   1.262   6.090
 3117SOL     OW10249   4.480   0.160   1.177
 3117SOL    HW110250   4.534   0.090   1.130
 3117SOL    HW210251   4.396   0.118   1.212
 3118SOL     OW10252   1.601   1.819   3.564
 3118SOL    HW110253   1.581   1.804   3.660
 3118SOL    HW210254   1.616   1.917   3.548
 3119SOL     OW10255   5.111   5.757   4.535
 3119SOL    HW110256   5.136   5.665   4.504
 3119SOL    HW210257   5.113   5.820   4.457
 3120SOL     OW10258   2.299   5.104   6.621
 3120SOL    HW110259   2.356   5.133   6.698
 3120SOL    HW210260   2.330   5.015   6.589
 3121SOL     OW10261   4.488   2.516   4.247
 3121SOL    HW110262   4.412   2.460   4.214
 3121SOL    HW210263   4.541   2.549   4.169
 3122SOL     OW10264   5.725   5.292   6.092
 3122SOL    HW110265   5.809   5.250   6.059
 3122SOL    HW210266   5.718   5.282   6.191
 3123SOL     OW10267   1.719   1.738   2.985
 3123SOL    HW110268   1.667   1.823   2.988
 3123SOL    HW210269   1.797   1.745   3.048
 3124SOL     OW10270   4.366   6.953   4.778
 3124SOL    HW110271   4.292   6.927   4.840
 3124SOL    HW210272   4.335   6.945   4.683
 3125SOL     OW10273   1.714   1.344   6.061
 3125SOL    HW110274   1.653   1.318   6.136
 3125SOL    HW210275   1.662   1.347   5.976
 3126SOL     OW10276   4.843   4.532   5.694
 3126SOL    HW110277   4.792   4.611   5.729
 3126SOL    HW210278   4.797   4.448   5.721
 3127SOL     OW10279   7.013   1.893   5.185
 3127SOL    HW110280   6.946   1.822   5.161
 3127SOL    HW210281   0.065   1.855   5.248
 3128SOL     OW10282   3.547   0.125   0.238
 3128SOL    HW110283   3.501   0.149   0.323
 3128SOL    HW210284   3.505   0.044   0.198
 3129SOL     OW10285   4.297   3.947   0.124
 3129SOL    HW110286   4.303   4.042   0.155
 3129SOL    HW210287   4.340   3.887   0.191
 3130SOL     OW10288   0.326   5.719   2.411
 3130SOL    HW110289   0.365   5.803   2.449
 3130SOL    HW210290   0.312   5.730   2.313
 3131SOL     OW10291   6.806   4.163   2.955
 3131SOL    HW110292   6.781   4.075   2.994
 3131SOL    HW210293   6.821   4.230   3.028
 3132SOL     OW10294   5.205   3.857   0.481
 3132SOL    HW110295   5.224   3.928   0.414
 3132SOL    HW210296   5.165   3.778   0.436
 3133SOL     OW10297   5.184   0.108   4.649
 3133SOL    HW110298   5.213   0.136   4.741
 3133SOL    HW210299   5.104   0.048   4.657
 3134SOL     OW10300   5.869   4.776   2.789
 3134SOL    HW110301   5.799   4.843   2.815
 3134SOL    HW210302   5.956   4.823   2.774
 3135SOL     OW10303   3.768   5.642   6.738
 3135SOL    HW110304   3.706   5.719   6.721
 3135SOL    HW210305   3.715   5.563   6.768
 3136SOL     OW10306   6.067   0.499   3.121
 3136SOL    HW110307   6.067   0.577   3.183
 3136SOL    HW210308   6.146   0.504   3.060
 3137SOL     OW10309   4.314   5.559   0.222
 3137SOL    HW110310   4.268   5.630   0.170
 3137SOL    HW210311   4.409   5.552   0.192
 3138SOL     OW10312   6.640   6.346   5.140
 3138SOL    HW110313   6.737   6.369   5.129
 3138SOL    HW210314   6.623   6.317   5.234
 3139SOL     OW10315   2.189   5.089   1.461
 3139SOL    HW110316   2.236   5.042   1.535
 3139SOL    HW210317   2.204   5.188   1.468
 3140SOL     OW10318   6.556   6.051   0.182
 3140SOL    HW110319   6.504   6.123   0.229
 3140SOL    HW210320   6.494   5.976   0.159
 3141SOL     OW10321   5.841   1.794   6.558
 3141SOL    HW110322   5.939   1.812   6.567
 3141SOL    HW210323   5.790   1.865   6.607
 3142SOL     OW10324   4.660   0.951   3.765
 3142SOL    HW110325   4.564   0.979   3.768
 3142SOL    HW210326   4.705   0.994   3.686
 3143SOL     OW10327   6.794   1.318   1.100
 3143SOL    HW110328   6.747   1.316   1.011
 3143SOL    HW210329   6.840   1.407   1.111
 3144SOL     OW10330   3.333   4.168   0.264
 3144SOL    HW110331   3.428   4.199   0.263
 3144SOL    HW210332   3.275   4.240   0.303
 3145SOL     OW10333   0.693   5.942   0.165
 3145SOL    HW110334   0.607   5.992   0.176
 3145SOL    HW210335   0.768   6.007   0.151
 3146SOL     OW10336   6.779   1.712   4.531
 3146SOL    HW110337   6.704   1.673   4.584
 3146SOL    HW210338   6.743   1.784   4.470
 3147SOL     OW10339   4.171   6.686   0.202
 3147SOL    HW110340   4.196   6.782   0.185
 3147SOL    HW210341   4.171   6.669   0.300
 3148SOL     OW10342   6.907   4.942   1.547
 3148SOL    HW110343   6.807   4.952   1.547
 3148SOL    HW210344   6.931   4.848   1.569
 3149SOL     OW10345   3.501   2.791   0.042
 3149SOL    HW110346   3.534   2.842   6.978
 3149SOL    HW210347   3.471   2.855   0.112
 3150SOL     OW10348   6.799   6.954   5.791
 3150SOL    HW110349   6.739   6.994   5.860
 3150SOL    HW210350   6.883   6.923   5.834
 3151SOL     OW10351   0.062   0.838   5.281
 3151SOL    HW110352   7.009   0.900   5.320
 3151SOL    HW210353   0.151   0.883   5.280
 3152SOL     OW10354   2.056   2.328   5.361
 3152SOL    HW110355   2.141   2.298   5.404
 3152SOL    HW210356   2.005   2.385   5.425
 3153SOL     OW10357   5.256   5.280   1.885
 3153SOL    HW110358   5.214   5.361   1.927
 3153SOL    HW210359   5.317   5.237   1.952
 3154SOL     OW10360   3.980   1.508   0.526
 3154SOL    HW110361   4.037   1.572   0.476
 3154SOL    HW210362   3.984   1.529   0.624
 3155SOL     OW10363   0.619   5.060   6.821
 3155SOL    HW110364   0.597   5.148   6.778
 3155SOL    HW210365   0.541   5.028   6.874
 3156SOL     OW10366   4.349   4.529   0.652
 3156SOL    HW110367   4.287   4.480   0.713
 3156SOL    HW210368   4.348   4.626   0.674
 3157SOL     OW10369   1.107   0.915   4.849
 3157SOL    HW110370   1.063   0.976   4.915
 3157SOL    HW210371   1.039   0.851   4.812
 3158SOL     OW10372   1.926   1.037   5.693
 3158SOL    HW110373   1.903   0.985   5.775
 3158SOL    HW210374   2.007   1.093   5.710
 3159SOL     OW10375   4.989   0.110   1.393
 3159SOL    HW110376   5.022   0.016   1.396
 3159SOL    HW210377   4.923   0.120   1.318
 3160SOL     OW10378   1.808   0.806   5.164
 3160SOL    HW110379   1.837   0.896   5.133
 3160SOL    HW210380   1.714   0.789   5.132
 3161SOL     OW10381   1.841   3.157   2.097
 3161SOL    HW110382   1.913   3.153   2.167
 3161SOL    HW210383   1.836   3.069   2.049
 3162SOL     OW10384   1.205   5.794   1.464
 3162SOL    HW110385   1.125   5.831   1.510
 3162SOL    HW210386   1.177   5.747   1.381
 3163SOL     OW10387   4.436   4.214   0.457
 3163SOL    HW110388   4.344   4.242   0.485
 3163SOL    HW210389   4.444   4.223   0.358
 3164SOL     OW10390   2.372   6.863   4.265
 3164SOL    HW110391   2.389   6.805   4.345
 3164SOL    HW210392   2.305   6.818   4.206
 3165SOL     OW10393   1.360   5.978   6.119
 3165SOL    HW110394   1.282   6.020   6.072
 3165SOL    HW210395   1.368   6.016   6.211
 3166SOL     OW10396   4.448   1.253   5.244
 3166SOL    HW110397   4.411   1.250   5.337
 3166SOL    HW210398   4.398   1.322   5.191
 3167SOL     OW10399   5.938   3.161   0.985
 3167SOL    HW110400   5.927   3.183   1.082
 3167SOL    HW210401   5.930   3.245   0.931
 3168SOL     OW10402   4.859   1.282   0.489
 3168SOL    HW110403   4.765   1.313   0.505
 3168SOL    HW210404   4.901   1.257   0.576
 3169SOL     OW10405   1.524   4.039   1.629
 3169SOL    HW110406   1.588   3.967   1.654
 3169SOL    HW210407   1.430   4.007   1.641
 3170SOL     OW10408   2.236   4.078   3.663
 3170SOL    HW110409   2.163   4.081   3.594
 3170SOL    HW210410   2.325   4.081   3.618
 3171SOL     OW10411   5.389   1.584   3.987
 3171SOL    HW110412   5.363   1.666   3.937
 3171SOL    HW210413   5.366   1.594   4.084
 3172SOL     OW10414   5.511   4.542   1.446
 3172SOL    HW110415   5.578   4.613   1.424
 3172SOL    HW210416   5.494   4.541   1.544
 3173SOL     OW10417   5.098   2.113   0.433
 3173SOL    HW110418   5.180   2.135   0.485
 3173SOL    HW210419   5.020   2.162   0.473
 3174SOL     OW10420   3.388   2.466   6.534
 3174SOL    HW110421   3.473   2.513   6.511
 3174SOL    HW210422   3.321   2.482   6.462
 3175SOL     OW10423   5.402   0.087   5.616
 3175SOL    HW110424   5.442   0.003   5.652
 3175SOL    HW210425   5.474   0.144   5.577
 3176SOL     OW10426   0.136   5.027   3.351
 3176SOL    HW110427   0.211   5.026   3.417
 3176SOL    HW210428   0.064   5.089   3.384
 3177SOL     OW10429   5.440   3.041   3.565
 3177SOL    HW110430   5.380   3.094   3.505
 3177SOL    HW210431   5.407   2.947   3.572
 3178SOL     OW10432   0.710   0.693   2.095
 3178SOL    HW110433   0.726   0.731   2.004
 3178SOL    HW210434   0.614   0.701   2.119
 3179SOL     OW10435   0.900   2.457   2.416
 3179SOL    HW110436   0.814   2.503   2.396
 3179SOL    HW210437   0.976   2.523   2.407
 3180SOL     OW10438   0.119   6.398   6.743
 3180SOL    HW110439   0.034   6.376   6.790
 3180SOL    HW210440   0.171   6.466   6.795
 3181SOL     OW10441   1.037   6.387   5.578
 3181SOL    HW110442   1.066   6.368   5.484
 3181SOL    HW210443   0.942   6.418   5.578
 3182SOL     OW10444   2.157   0.172   1.065
 3182SOL    HW110445   2.096   0.197   1.141
 3182SOL    HW210446   2.153   0.073   1.051
 3183SOL     OW10447   4.241   3.212   1.033
 3183SOL    HW110448   4.197   3.229   1.121
 3183SOL    HW210449   4.335   3.246   1.036
 3184SOL     OW10450   6.488   1.577   4.361
 3184SOL    HW110451   6.441   1.555   4.447
 3184SOL    HW210452   6.584   1.549   4.368
 3185SOL     OW10453   0.708   6.033   6.585
 3185SOL    HW110454   0.751   6.118   6.616
 3185SOL    HW210455   0.681   5.979   6.664
 3186SOL     OW10456   6.965   2.600   6.646
 3186SOL    HW110457   7.003   2.605   6.553
 3186SOL    HW210458   7.015   2.662   6.706
 3187SOL     OW10459   5.063   6.843   2.754
 3187SOL    HW110460   5.134   6.889   2.807
 3187SOL    HW210461   5.060   6.747   2.779
 3188SOL     OW10462   2.034   6.453   0.637
 3188SOL    HW110463   2.003   6.530   0.693
 3188SOL    HW210464   1.984   6.371   0.664
 3189SOL     OW10465   2.987   1.677   5.773
 3189SOL    HW110466   3.066   1.712   5.722
 3189SOL    HW210467   3.011   1.590   5.816
 3190SOL     OW10468   5.963   6.287   4.259
 3190SOL    HW110469   5.971   6.188   4.254
 3190SOL    HW210470   5.990   6.319   4.350
 3191SOL     OW10471   3.877   5.578   1.464
 3191SOL    HW110472   3.841   5.580   1.371
 3191SOL    HW210473   3.877   5.485   1.499
 3192SOL     OW10474   5.697   0.856   2.760
 3192SOL    HW110475   5.781   0.843   2.707
 3192SOL    HW210476   5.684   0.953   2.779
 3193SOL     OW10477   3.241   6.418   5.033
 3193SOL    HW110478   3.186   6.379   4.960
 3193SOL    HW210479   3.295   6.346   5.076
 3194SOL     OW10480   1.740   0.139   6.396
 3194SOL    HW110481   1.792   0.134   6.481
 3194SOL    HW210482   1.716   0.047   6.366
 3195SOL     OW10483   1.069   0.823   1.145
 3195SOL    HW110484   1.151   0.851   1.194
 3195SOL    HW210485   1.068   0.864   1.054
 3196SOL     OW10486   5.873   6.870   2.889
 3196SOL    HW110487   5.867   6.937   2.962
 3196SOL    HW210488   5.966   6.833   2.885
 3197SOL     OW10489   2.100   0.203   6.187
 3197SOL    HW110490   2.175   0.144   6.159
 3197SOL    HW210491   2.071   0.177   6.279
 3198SOL     OW10492   6.016   2.494   3.685
 3198SOL    HW110493   6.000   2.428   3.611
 3198SOL    HW210494   5.929   2.528   3.719
 3199SOL     OW10495   4.912   3.675   3.004
 3199SOL    HW110496   4.893   3.608   3.076
 3199SOL    HW210497   5.009   3.673   2.981
 3200SOL     OW10498   5.424   3.455   4.166
 3200SOL    HW110499   5.493   3.501   4.222
 3200SOL    HW210500   5.463   3.373   4.124
 3201SOL     OW10501   6.112   4.105   2.075
 3201SOL    HW110502   6.102   4.167   2.152
 3201SOL    HW210503   6.170   4.028   2.102
 3202SOL     OW10504   2.614   3.216   6.736
 3202SOL    HW110505   2.554   3.286   6.774
 3202SOL    HW210506   2.654   3.248   6.650
 3203SOL     OW10507   3.450   6.572   1.883
 3203SOL    HW110508   3.395   6.606   1.807
 3203SOL    HW210509   3.539   6.617   1.882
 3204SOL     OW10510   3.820   1.260   4.455
 3204SOL    HW110511   3.730   1.215   4.458
 3204SOL    HW210512   3.865   1.249   4.544
 3205SOL     OW10513   5.032   3.291   5.848
 3205SOL    HW110514   5.005   3.257   5.757
 3205SOL    HW210515   4.950   3.309   5.902
 3206SOL     OW10516   2.532   4.136   1.225
 3206SOL    HW110517   2.559   4.228   1.251
 3206SOL    HW210518   2.601   4.071   1.256
 3207SOL     OW10519   2.185   5.666   4.970
 3207SOL    HW110520   2.234   5.608   5.035
 3207SOL    HW210521   2.155   5.610   4.892
 3208SOL     OW10522   6.317   4.989   6.517
 3208SOL    HW110523   6.340   5.024   6.426
 3208SOL    HW210524   6.390   5.013   6.581
 3209SOL     OW10525   5.143   6.679   6.389
 3209SOL    HW110526   5.158   6.583   6.412
 3209SOL    HW210527   5.231   6.722   6.368
 3210SOL     OW10528   5.331   5.733   1.925
 3210SOL    HW110529   5.359   5.689   2.011
 3210SOL    HW210530   5.354   5.674   1.848
 3211SOL     OW10531   2.107   6.370   6.451
 3211SOL    HW110532   2.052   6.375   6.368
 3211SOL    HW210533   2.203   6.359   6.427
 3212SOL     OW10534   2.754   6.680   3.745
 3212SOL    HW110535   2.681   6.742   3.716
 3212SOL    HW210536   2.840   6.729   3.750
 3213SOL     OW10537   1.257   6.565   6.225
 3213SOL    HW110538   1.192   6.522   6.288
 3213SOL    HW210539   1.331   6.606   6.277
 3214SOL     OW10540   4.181   0.748   3.017
 3214SOL    HW110541   4.164   0.745   2.919
 3214SOL    HW210542   4.169   0.842   3.050
 3215SOL     OW10543   1.964   3.216   1.706
 3215SOL    HW110544   2.062   3.195   1.709
 3215SOL    HW210545   1.941   3.283   1.776
 3216SOL     OW10546   5.802   4.772   1.120
 3216SOL    HW110547   5.810   4.692   1.061
 3216SOL    HW210548   5.890   4.818   1.126
 3217SOL     OW10549   6.941   5.788   2.372
 3217SOL    HW110550   6.853   5.745   2.351
 3217SOL    HW210551   6.987   5.812   2.286
 3218SOL     OW10552   5.631   1.141   2.828
 3218SOL    HW110553   5.672   1.216   2.777
 3218SOL    HW210554   5.532   1.150   2.826
 3219SOL     OW10555   6.467   1.907   4.799
 3219SOL    HW110556   6.557   1.869   4.818
 3219SOL    HW210557   6.412   1.840   4.750
 3220SOL     OW10558   0.195   4.219   5.747
 3220SOL    HW110559   0.240   4.308   5.751
 3220SOL    HW210560   0.098   4.231   5.728
 3221SOL     OW10561   3.505   1.793   1.958
 3221SOL    HW110562   3.604   1.783   1.966
 3221SOL    HW210563   3.475   1.756   1.870
 3222SOL     OW10564   3.169   0.991   3.146
 3222SOL    HW110565   3.187   0.958   3.053
 3222SOL    HW210566   3.075   1.023   3.152
 3223SOL     OW10567   1.542   5.278   0.305
 3223SOL    HW110568   1.472   5.247   0.241
 3223SOL    HW210569   1.557   5.209   0.375
 3224SOL     OW10570   4.166   1.919   4.167
 3224SOL    HW110571   4.180   1.846   4.100
 3224SOL    HW210572   4.135   1.880   4.253
 3225SOL     OW10573   4.626   1.218   4.606
 3225SOL    HW110574   4.707   1.223   4.549
 3225SOL    HW210575   4.647   1.167   4.690
 3226SOL     OW10576   5.989   0.674   0.824
 3226SOL    HW110577   5.987   0.764   0.868
 3226SOL    HW210578   5.895   0.645   0.803
 3227SOL     OW10579   5.762   4.610   5.189
 3227SOL    HW110580   5.725   4.569   5.106
 3227SOL    HW210581   5.691   4.661   5.237
 3228SOL     OW10582   2.779   4.292   0.494
 3228SOL    HW110583   2.740   4.200   0.495
 3228SOL    HW210584   2.767   4.334   0.584
 3229SOL     OW10585   1.628   2.068   0.645
 3229SOL    HW110586   1.716   2.027   0.671
 3229SOL    HW210587   1.631   2.096   0.549
 3230SOL     OW10588   3.288   6.120   5.395
 3230SOL    HW110589   3.257   6.064   5.318
 3230SOL    HW210590   3.238   6.093   5.478
 3231SOL     OW10591   2.130   2.430   3.127
 3231SOL    HW110592   2.160   2.383   3.210
 3231SOL    HW210593   2.039   2.468   3.141
 3232SOL     OW10594   3.831   5.040   4.179
 3232SOL    HW110595   3.835   5.094   4.095
 3232SOL    HW210596   3.784   5.092   4.250
 3233SOL     OW10597   1.435   0.230   0.109
 3233SOL    HW110598   1.432   0.155   0.043
 3233SOL    HW210599   1.384   0.308   0.074
 3234SOL     OW10600   2.827   3.191   0.667
 3234SOL    HW110601   2.829   3.257   0.592
 3234SOL    HW210602   2.919   3.155   0.683
 3235SOL     OW10603   0.948   0.661   3.229
 3235SOL    HW110604   0.953   0.568   3.193
 3235SOL    HW210605   0.993   0.724   3.166
 3236SOL     OW10606   4.700   0.915   0.087
 3236SOL    HW110607   4.761   0.837   0.099
 3236SOL    HW210608   4.612   0.896   0.130
 3237SOL     OW10609   5.817   1.542   5.504
 3237SOL    HW110610   5.790   1.529   5.408
 3237SOL    HW210611   5.739   1.579   5.555
 3238SOL     OW10612   6.432   4.740   1.671
 3238SOL    HW110613   6.352   4.770   1.722
 3238SOL    HW210614   6.409   4.659   1.617
 3239SOL     OW10615   6.922   0.138   4.846
 3239SOL    HW110616   7.015   0.109   4.868
 3239SOL    HW210617   6.922   0.236   4.826
 3240SOL     OW10618   0.147   0.686   0.133
 3240SOL    HW110619   0.187   0.700   0.224
 3240SOL    HW210620   0.108   0.771   0.100
 3241SOL     OW10621   6.536   3.051   5.403
 3241SOL    HW110622   6.522   3.145   5.373
 3241SOL    HW210623   6.632   3.025   5.388
 3242SOL     OW10624   6.631   3.831   4.564
 3242SOL    HW110625   6.574   3.859   4.487
 3242SOL    HW210626   6.671   3.741   4.545
 3243SOL     OW10627   5.846   4.516   4.151
 3243SOL    HW110628   5.871   4.613   4.154
 3243SOL    HW210629   5.918   4.464   4.104
 3244SOL     OW10630   5.140   6.884   0.513
 3244SOL    HW110631   5.194   6.803   0.492
 3244SOL    HW210632   5.197   6.966   0.501
 3245SOL     OW10633   3.661   6.660   5.077
 3245SOL    HW110634   3.647   6.680   4.980
 3245SOL    HW210635   3.589   6.703   5.131
 3246SOL     OW10636   6.866   0.108   2.817
 3246SOL    HW110637   6.892   0.204   2.811
 3246SOL    HW210638   6.790   0.090   2.754
 3247SOL     OW10639   1.112   4.475   3.591
 3247SOL    HW110640   1.064   4.389   3.605
 3247SOL    HW210641   1.210   4.456   3.576
 3248SOL     OW10642   5.534   2.290   3.412
 3248SOL    HW110643   5.508   2.197   3.438
 3248SOL    HW210644   5.553   2.343   3.495
 3249SOL     OW10645   2.930   3.295   3.382
 3249SOL    HW110646   2.962   3.345   3.302
 3249SOL    HW210647   2.830   3.294   3.383
 3250SOL     OW10648   4.740   5.597   2.774
 3250SOL    HW110649   4.683   5.611   2.694
 3250SOL    HW210650   4.690   5.624   2.856
 3251SOL     OW10651   3.003   2.048   2.805
 3251SOL    HW110652   2.940   2.004   2.869
 3251SOL    HW210653   2.960   2.052   2.714
 3252SOL     OW10654   1.595   1.512   3.226
 3252SOL    HW110655   1.653   1.593   3.231
 3252SOL    HW210656   1.599   1.463   3.313
 3253SOL     OW10657   6.462   3.099   6.970
 3253SOL    HW110658   6.398   3.167   6.933
 3253SOL    HW210659   6.412   3.015   6.993
 3254SOL     OW10660   6.524   6.640   1.293
 3254SOL    HW110661   6.437   6.686   1.312
 3254SOL    HW210662   6.528   6.613   1.197
 3255SOL     OW10663   4.388   6.153   1.837
 3255SOL    HW110664   4.325   6.077   1.821
 3255SOL    HW210665   4.371   6.225   1.769
 3256SOL     OW10666   4.891   2.468   1.206
 3256SOL    HW110667   4.796   2.453   1.235
 3256SOL    HW210668   4.934   2.380   1.187
 3257SOL     OW10669   3.098   1.665   3.137
 3257SOL    HW110670   3.085   1.718   3.053
 3257SOL    HW210671   3.011   1.628   3.167
 3258SOL     OW10672   1.439   5.349   4.454
 3258SOL    HW110673   1.471   5.425   4.396
 3258SOL    HW210674   1.439   5.265   4.400
 3259SOL     OW10675   5.325   3.956   4.045
 3259SOL    HW110676   5.228   3.975   4.058
 3259SOL    HW210677   5.360   3.902   4.122
 3260SOL     OW10678   1.383   4.682   3.198
 3260SOL    HW110679   1.425   4.597   3.227
 3260SOL    HW210680   1.297   4.663   3.152
 3261SOL     OW10681   5.524   0.049   4.323
 3261SOL    HW110682   5.556   0.097   4.241
 3261SOL    HW210683   5.478   0.114   4.383
 3262SOL     OW10684   3.059   1.698   3.569
 3262SOL    HW110685   3.056   1.709   3.668
 3262SOL    HW210686   2.991   1.630   3.541
 3263SOL     OW10687   6.943   0.917   2.031
 3263SOL    HW110688   6.930   0.883   1.938
 3263SOL    HW210689   7.010   0.991   2.030
 3264SOL     OW10690   1.714   4.953   6.797
 3264SOL    HW110691   1.687   4.963   6.893
 3264SOL    HW210692   1.655   4.886   6.753
 3265SOL     OW10693   6.882   5.409   6.756
 3265SOL    HW110694   6.795   5.436   6.716
 3265SOL    HW210695   6.868   5.376   6.849
 3266SOL     OW10696   3.469   4.948   5.795
 3266SOL    HW110697   3.485   4.873   5.731
 3266SOL    HW210698   3.531   5.024   5.773
 3267SOL     OW10699   3.726   6.471   0.402
 3267SOL    HW110700   3.761   6.527   0.476
 3267SOL    HW210701   3.796   6.460   0.332
 3268SOL     OW10702   5.866   5.435   1.870
 3268SOL    HW110703   5.889   5.345   1.908
 3268SOL    HW210704   5.770   5.454   1.888
 3269SOL     OW10705   1.508   4.989   1.870
 3269SOL    HW110706   1.465   4.907   1.833
 3269SOL    HW210707   1.456   5.070   1.841
 3270SOL     OW10708   0.647   2.807   5.816
 3270SOL    HW110709   0.697   2.772   5.737
 3270SOL    HW210710   0.668   2.752   5.896
 3271SOL     OW10711   0.867   3.576   1.190
 3271SOL    HW110712   0.941   3.535   1.137
 3271SOL    HW210713   0.905   3.645   1.251
 3272SOL     OW10714   4.443   5.754   0.684
 3272SOL    HW110715   4.349   5.737   0.716
 3272SOL    HW210716   4.485   5.666   0.659
 3273SOL     OW10717   4.064   3.736   6.650
 3273SOL    HW110718   3.996   3.697   6.711
 3273SOL    HW210719   4.038   3.718   6.555
 3274SOL     OW10720   5.462   0.134   2.140
 3274SOL    HW110721   5.458   0.233   2.127
 3274SOL    HW210722   5.557   0.106   2.155
 3275SOL     OW10723   5.033   0.644   1.599
 3275SOL    HW110724   4.995   0.694   1.677
 3275SOL    HW210725   5.038   0.546   1.621
 3276SOL     OW10726   5.742   6.379   6.774
 3276SOL    HW110727   5.791   6.335   6.849
 3276SOL    HW210728   5.785   6.467   6.754
 3277SOL     OW10729   3.185   2.071   2.535
 3277SOL    HW110730   3.210   2.091   2.440
 3277SOL    HW210731   3.197   2.153   2.590
 3278SOL     OW10732   5.608   0.859   6.475
 3278SOL    HW110733   5.663   0.912   6.539
 3278SOL    HW210734   5.534   0.814   6.524
 3279SOL     OW10735   3.697   0.329   1.385
 3279SOL    HW110736   3.685   0.408   1.445
 3279SOL    HW210737   3.612   0.277   1.382
 3280SOL     OW10738   6.449   3.526   4.115
 3280SOL    HW110739   6.381   3.551   4.046
 3280SOL    HW210740   6.480   3.609   4.163
 3281SOL     OW10741   6.070   2.527   1.520
 3281SOL    HW110742   6.012   2.500   1.442
 3281SOL    HW210743   6.158   2.559   1.486
 3282SOL     OW10744   0.256   5.165   5.222
 3282SOL    HW110745   0.206   5.118   5.294
 3282SOL    HW210746   0.221   5.136   5.133
 3283SOL     OW10747   3.361   2.123   0.100
 3283SOL    HW110748   3.459   2.118   0.117
 3283SOL    HW210749   3.311   2.086   0.178
 3284SOL     OW10750   2.195   6.695   4.539
 3284SOL    HW110751   2.200   6.677   4.441
 3284SOL    HW210752   2.253   6.774   4.561
 3285SOL     OW10753   3.910   2.144   4.336
 3285SOL    HW110754   3.834   2.144   4.270
 3285SOL    HW210755   3.877   2.114   4.425
 3286SOL     OW10756   1.477   2.510   2.780
 3286SOL    HW110757   1.427   2.432   2.743
 3286SOL    HW210758   1.447   2.594   2.734
 3287SOL     OW10759   2.450   0.241   0.647
 3287SOL    HW110760   2.470   0.159   0.594
 3287SOL    HW210761   2.434   0.318   0.584
 3288SOL     OW10762   2.325   5.809   1.865
 3288SOL    HW110763   2.228   5.803   1.885
 3288SOL    HW210764   2.378   5.778   1.944
 3289SOL     OW10765   4.282   0.482   6.622
 3289SOL    HW110766   4.276   0.468   6.523
 3289SOL    HW210767   4.206   0.433   6.666
 3290SOL     OW10768   0.362   5.767   0.396
 3290SOL    HW110769   0.343   5.702   0.470
 3290SOL    HW210770   0.275   5.802   0.360
 3291SOL     OW10771   5.277   6.598   5.237
 3291SOL    HW110772   5.320   6.634   5.154
 3291SOL    HW210773   5.343   6.601   5.312
 3292SOL     OW10774   6.921   2.200   0.372
 3292SOL    HW110775   6.876   2.279   0.415
 3292SOL    HW210776   6.982   2.233   0.300
 3293SOL     OW10777   6.255   5.291   3.403
 3293SOL    HW110778   6.172   5.332   3.365
 3293SOL    HW210779   6.298   5.233   3.334
 3294SOL     OW10780   5.099   2.759   5.179
 3294SOL    HW110781   5.066   2.665   5.178
 3294SOL    HW210782   5.170   2.770   5.109
 3295SOL     OW10783   0.957   2.259   2.587
 3295SOL    HW110784   0.930   2.323   2.515
 3295SOL    HW210785   1.025   2.195   2.551
 3296SOL     OW10786   1.648   1.079   5.931
 3296SOL    HW110787   1.707   1.000   5.947
 3296SOL    HW210788   1.588   1.092   6.010
 3297SOL     OW10789   3.795   1.002   5.447
 3297SOL    HW110790   3.879   0.993   5.500
 3297SOL    HW210791   3.769   1.099   5.443
 3298SOL     OW10792   4.277   3.886   6.012
 3298SOL    HW110793   4.248   3.855   6.103
 3298SOL    HW210794   4.370   3.855   5.995
 3299SOL     OW10795   2.311   5.853   3.852
 3299SOL    HW110796   2.238   5.796   3.891
 3299SOL    HW210797   2.398   5.829   3.896
 3300SOL     OW10798   2.431   0.609   3.783
 3300SOL    HW110799   2.335   0.621   3.760
 3300SOL    HW210800   2.447   0.516   3.815
 3301SOL     OW10801   0.992   1.194   3.109
 3301SOL    HW110802   0.920   1.151   3.163
 3301SOL    HW210803   1.051   1.248   3.169
 3302SOL     OW10804   1.417   4.962   5.088
 3302SOL    HW110805   1.516   4.945   5.094
 3302SOL    HW210806   1.367   4.881   5.119
 3303SOL     OW10807   3.232   3.554   6.978
 3303SOL    HW110808   3.228   3.483   0.033
 3303SOL    HW210809   3.244   3.643   0.006
 3304SOL     OW10810   2.075   4.340   0.126
 3304SOL    HW110811   1.990   4.298   0.094
 3304SOL    HW210812   2.144   4.336   0.053
 3305SOL     OW10813   3.325   2.653   0.472
 3305SOL    HW110814   3.382   2.691   0.400
 3305SOL    HW210815   3.238   2.622   0.433
 3306SOL     OW10816   2.496   0.718   6.953
 3306SOL    HW110817   2.471   0.686   6.862
 3306SOL    HW210818   2.587   0.759   6.949
 3307SOL     OW10819   1.675   6.304   4.689
 3307SOL    HW110820   1.630   6.236   4.632
 3307SOL    HW210821   1.697   6.264   4.778
 3308SOL     OW10822   4.162   4.478   1.139
 3308SOL    HW110823   4.257   4.485   1.109
 3308SOL    HW210824   4.127   4.569   1.161
 3309SOL     OW10825   5.460   3.112   3.243
 3309SOL    HW110826   5.498   3.126   3.151
 3309SOL    HW210827   5.394   3.038   3.241
 3310SOL     OW10828   6.356   4.794   6.113
 3310SOL    HW110829   6.363   4.709   6.166
 3310SOL    HW210830   6.263   4.802   6.076
 3311SOL     OW10831   2.412   3.997   6.993
 3311SOL    HW110832   2.326   4.000   6.942
 3311SOL    HW210833   2.422   3.908   0.021
 3312SOL     OW10834   4.673   2.889   6.464
 3312SOL    HW110835   4.637   2.806   6.422
 3312SOL    HW210836   4.769   2.877   6.486
 3313SOL     OW10837   6.879   0.272   4.292
 3313SOL    HW110838   6.916   0.220   4.368
 3313SOL    HW210839   6.866   0.367   4.320
 3314SOL     OW10840   3.910   5.645   2.627
 3314SOL    HW110841   3.821   5.685   2.649
 3314SOL    HW210842   3.982   5.694   2.676
 3315SOL     OW10843   0.557   5.579   4.416
 3315SOL    HW110844   0.596   5.665   4.383
 3315SOL    HW210845   0.622   5.533   4.476
 3316SOL     OW10846   4.582   2.336   6.634
 3316SOL    HW110847   4.651   2.265   6.653
 3316SOL    HW210848   4.609   2.421   6.679
 3317SOL     OW10849   5.055   2.686   2.068
 3317SOL    HW110850   5.067   2.587   2.071
 3317SOL    HW210851   4.961   2.708   2.041
 3318SOL     OW10852   3.070   2.992   0.607
 3318SOL    HW110853   3.025   2.941   0.534
 3318SOL    HW210854   3.083   2.933   0.687
 3319SOL     OW10855   6.789   5.729   3.690
 3319SOL    HW110856   6.762   5.805   3.631
 3319SOL    HW210857   6.882   5.700   3.667
 3320SOL     OW10858   6.120   6.302   1.843
 3320SOL    HW110859   6.189   6.276   1.776
 3320SOL    HW210860   6.146   6.266   1.933
 3321SOL     OW10861   4.633   2.141   0.252
 3321SOL    HW110862   4.630   2.069   0.321
 3321SOL    HW210863   4.573   2.118   0.176
 3322SOL     OW10864   6.125   3.104   0.478
 3322SOL    HW110865   6.207   3.052   0.457
 3322SOL    HW210866   6.091   3.079   0.568
 3323SOL     OW10867   1.644   2.089   1.461
 3323SOL    HW110868   1.657   2.186   1.437
 3323SOL    HW210869   1.668   2.075   1.557
 3324SOL     OW10870   5.220   5.572   5.551
 3324SOL    HW110871   5.299   5.545   5.496
 3324SOL    HW210872   5.242   5.654   5.603
 3325SOL     OW10873   2.338   4.510   5.362
 3325SOL    HW110874   2.333   4.447   5.285
 3325SOL    HW210875   2.347   4.603   5.329
 3326SOL     OW10876   3.495   1.987   2.681
 3326SOL    HW110877   3.497   1.894   2.718
 3326SOL    HW210878   3.497   1.984   2.581
 3327SOL     OW10879   0.806   5.567   6.211
 3327SOL    HW110880   0.894   5.554   6.256
 3327SOL    HW210881   0.810   5.648   6.153
 3328SOL     OW10882   4.661   2.457   5.600
 3328SOL    HW110883   4.589   2.488   5.538
 3328SOL    HW210884   4.638   2.366   5.635
 3329SOL     OW10885   6.508   5.878   5.735
 3329SOL    HW110886   6.597   5.873   5.782
 3329SOL    HW210887   6.447   5.809   5.773
 3330SOL     OW10888   0.048   3.449   2.930
 3330SOL    HW110889   0.128   3.509   2.925
 3330SOL    HW210890   0.078   3.355   2.944
 3331SOL     OW10891   2.363   3.426   0.125
 3331SOL    HW110892   2.265   3.439   0.106
 3331SOL    HW210893   2.379   3.332   0.153
 3332SOL     OW10894   6.632   4.074   1.571
 3332SOL    HW110895   6.635   4.077   1.671
 3332SOL    HW210896   6.574   4.148   1.538
 3333SOL     OW10897   3.514   5.191   6.473
 3333SOL    HW110898   3.438   5.251   6.448
 3333SOL    HW210899   3.580   5.190   6.398
 3334SOL     OW10900   1.841   3.587   1.730
 3334SOL    HW110901   1.913   3.656   1.720
 3334SOL    HW210902   1.883   3.496   1.738
 3335SOL     OW10903   5.875   4.254   4.687
 3335SOL    HW110904   5.903   4.306   4.607
 3335SOL    HW210905   5.878   4.313   4.768
 3336SOL     OW10906   2.925   5.676   6.139
 3336SOL    HW110907   2.905   5.757   6.194
 3336SOL    HW210908   3.021   5.676   6.113
 3337SOL     OW10909   3.814   1.864   0.854
 3337SOL    HW110910   3.901   1.899   0.821
 3337SOL    HW210911   3.750   1.939   0.868
 3338SOL     OW10912   6.825   4.403   0.452
 3338SOL    HW110913   6.855   4.319   0.498
 3338SOL    HW210914   6.727   4.415   0.463
 3339SOL     OW10915   0.573   5.856   6.400
 3339SOL    HW110916   0.634   5.927   6.437
 3339SOL    HW210917   0.491   5.850   6.457
 3340SOL     OW10918   4.001   0.179   1.870
 3340SOL    HW110919   3.969   0.094   1.913
 3340SOL    HW210920   4.095   0.167   1.838
 3341SOL     OW10921   0.877   0.150   1.897
 3341SOL    HW110922   0.833   0.067   1.863
 3341SOL    HW210923   0.936   0.188   1.826
 3342SOL     OW10924   2.698   0.417   4.986
 3342SOL    HW110925   2.740   0.381   5.070
 3342SOL    HW210926   2.762   0.407   4.910
 3343SOL     OW10927   6.640   2.259   1.307
 3343SOL    HW110928   6.558   2.299   1.267
 3343SOL    HW210929   6.694   2.214   1.235
 3344SOL     OW10930   6.909   3.241   5.752
 3344SOL    HW110931   6.881   3.325   5.706
 3344SOL    HW210932   7.006   3.223   5.733
 3345SOL     OW10933   2.947   3.143   5.927
 3345SOL    HW110934   2.956   3.219   5.992
 3345SOL    HW210935   3.037   3.106   5.907
 3346SOL     OW10936   1.514   5.769   2.492
 3346SOL    HW110937   1.565   5.805   2.414
 3346SOL    HW210938   1.539   5.821   2.574
 3347SOL     OW10939   6.186   4.010   4.643
 3347SOL    HW110940   6.249   3.936   4.620
 3347SOL    HW210941   6.102   3.999   4.591
 3348SOL     OW10942   3.868   3.869   3.139
 3348SOL    HW110943   3.780   3.825   3.121
 3348SOL    HW210944   3.932   3.850   3.065
 3349SOL     OW10945   6.007   4.178   6.131
 3349SOL    HW110946   5.971   4.094   6.171
 3349SOL    HW210947   6.104   4.166   6.108
 3350SOL     OW10948   1.692   2.365   0.722
 3350SOL    HW110949   1.695   2.269   0.693
 3350SOL    HW210950   1.771   2.384   0.780
 3351SOL     OW10951   5.489   2.172   0.105
 3351SOL    HW110952   5.392   2.148   0.111
 3351SOL    HW210953   5.537   2.133   0.184
 3352SOL     OW10954   0.609   3.199   0.392
 3352SOL    HW110955   0.644   3.226   0.482
 3352SOL    HW210956   0.613   3.277   0.330
 3353SOL     OW10957   1.876   6.499   6.228
 3353SOL    HW110958   1.902   6.564   6.157
 3353SOL    HW210959   1.776   6.491   6.231
 3354SOL     OW10960   1.236   1.276   2.235
 3354SOL    HW110961   1.247   1.350   2.302
 3354SOL    HW210962   1.257   1.189   2.279
 3355SOL     OW10963   6.606   1.463   2.670
 3355SOL    HW110964   6.613   1.397   2.595
 3355SOL    HW210965   6.518   1.452   2.715
 3356SOL     OW10966   2.105   3.652   6.253
 3356SOL    HW110967   2.086   3.666   6.350
 3356SOL    HW210968   2.032   3.597   6.213
 3357SOL     OW10969   2.126   5.096   2.079
 3357SOL    HW110970   2.147   5.115   1.983
 3357SOL    HW210971   2.090   5.004   2.088
 3358SOL     OW10972   6.794   4.370   2.758
 3358SOL    HW110973   6.893   4.377   2.743
 3358SOL    HW210974   6.776   4.294   2.821
 3359SOL     OW10975   1.238   1.120   1.872
 3359SOL    HW110976   1.251   1.219   1.879
 3359SOL    HW210977   1.325   1.073   1.887
 3360SOL     OW10978   1.522   0.499   6.226
 3360SOL    HW110979   1.546   0.588   6.187
 3360SOL    HW210980   1.442   0.508   6.284
 3361SOL     OW10981   4.828   0.469   2.825
 3361SOL    HW110982   4.869   0.378   2.827
 3361SOL    HW210983   4.866   0.521   2.747
 3362SOL     OW10984   2.205   1.312   5.527
 3362SOL    HW110985   2.172   1.252   5.600
 3362SOL    HW210986   2.246   1.394   5.568
 3363SOL     OW10987   0.257   1.583   6.556
 3363SOL    HW110988   0.186   1.529   6.601
 3363SOL    HW210989   0.316   1.522   6.504
 3364SOL     OW10990   2.053   4.518   6.119
 3364SOL    HW110991   2.029   4.437   6.066
 3364SOL    HW210992   2.037   4.600   6.064
 3365SOL     OW10993   5.922   1.927   5.380
 3365SOL    HW110994   5.973   1.873   5.448
 3365SOL    HW210995   5.846   1.974   5.425
 3366SOL     OW10996   5.093   1.334   6.351
 3366SOL    HW110997   5.020   1.392   6.314
 3366SOL    HW210998   5.181   1.379   6.340
 3367SOL     OW10999   1.709   0.476   2.329
 3367SOL    HW111000   1.782   0.544   2.323
 3367SOL    HW211001   1.708   0.437   2.421
 3368SOL     OW11002   6.407   0.567   5.925
 3368SOL    HW111003   6.317   0.609   5.937
 3368SOL    HW211004   6.462   0.625   5.864
 3369SOL     OW11005   3.725   6.161   5.940
 3369SOL    HW111006   3.793   6.230   5.964
 3369SOL    HW211007   3.636   6.190   5.973
 3370SOL     OW11008   4.791   0.292   4.731
 3370SOL    HW111009   4.758   0.198   4.726
 3370SOL    HW211010   4.801   0.329   4.639
 3371SOL     OW11011   6.815   5.127   1.304
 3371SOL    HW111012   6.744   5.100   1.239
 3371SOL    HW211013   6.805   5.076   1.389
 3372SOL     OW11014   0.526   2.052   2.681
 3372SOL    HW111015   0.593   2.117   2.717
 3372SOL    HW211016   0.511   1.979   2.747
 3373SOL     OW11017   0.506   2.206   5.890
 3373SOL    HW111018   0.446   2.170   5.962
 3373SOL    HW211019   0.593   2.158   5.892
 3374SOL     OW11020   3.360   5.148   5.351
 3374SOL    HW111021   3.391   5.193   5.435
 3374SOL    HW211022   3.276   5.098   5.369
 3375SOL     OW11023   4.054   3.872   5.168
 3375SOL    HW111024   4.068   3.971   5.161
 3375SOL    HW211025   4.015   3.838   5.082
 3376SOL     OW11026   2.970   3.594   2.090
 3376SOL    HW111027   3.042   3.659   2.066
 3376SOL    HW211028   2.943   3.607   2.185
 3377SOL     OW11029   3.065   5.768   5.476
 3377SOL    HW111030   3.006   5.757   5.395
 3377SOL    HW211031   3.146   5.711   5.466
 3378SOL     OW11032   0.842   1.063   1.237
 3378SOL    HW111033   0.883   1.049   1.328
 3378SOL    HW211034   0.771   0.995   1.222
 3379SOL     OW11035   1.030   4.849   6.619
 3379SOL    HW111036   0.988   4.760   6.635
 3379SOL    HW211037   0.993   4.888   6.535
 3380SOL     OW11038   0.860   3.966   6.075
 3380SOL    HW111039   0.777   3.970   6.130
 3380SOL    HW211040   0.836   3.963   5.978
 3381SOL     OW11041   3.188   3.221   0.930
 3381SOL    HW111042   3.182   3.238   0.832
 3381SOL    HW211043   3.096   3.215   0.969
 3382SOL     OW11044   6.635   6.805   0.085
 3382SOL    HW111045   6.668   6.891   0.123
 3382SOL    HW211046   6.585   6.822   0.000
 3383SOL     OW11047   0.301   4.334   2.683
 3383SOL    HW111048   0.342   4.352   2.594
 3383SOL    HW211049   0.222   4.273   2.672
 3384SOL     OW11050   3.577   2.886   4.684
 3384SOL    HW111051   3.582   2.909   4.587
 3384SOL    HW211052   3.621   2.798   4.700
 3385SOL     OW11053   6.460   4.064   3.302
 3385SOL    HW111054   6.504   3.984   3.262
 3385SOL    HW211055   6.403   4.037   3.379
 3386SOL     OW11056   6.307   4.024   5.115
 3386SOL    HW111057   6.209   4.007   5.125
 3386SOL    HW211058   6.357   3.938   5.109
 3387SOL     OW11059   2.904   1.959   3.110
 3387SOL    HW111060   2.948   2.028   3.167
 3387SOL    HW211061   2.807   1.981   3.101
 3388SOL     OW11062   5.228   2.790   2.239
 3388SOL    HW111063   5.262   2.881   2.212
 3388SOL    HW211064   5.165   2.756   2.169
 3389SOL     OW11065   5.280   4.562   3.099
 3389SOL    HW111066   5.296   4.478   3.046
 3389SOL    HW211067   5.310   4.641   3.046
 3390SOL     OW11068   5.052   2.849   5.919
 3390SOL    HW111069   5.111   2.929   5.909
 3390SOL    HW211070   5.005   2.853   6.008
 3391SOL     OW11071   3.794   1.762   4.438
 3391SOL    HW111072   3.705   1.803   4.456
 3391SOL    HW211073   3.785   1.662   4.434
 3392SOL     OW11074   4.685   6.236   3.693
 3392SOL    HW111075   4.785   6.241   3.693
 3392SOL    HW211076   4.653   6.227   3.788
 3393SOL     OW11077   6.493   0.723   0.167
 3393SOL    HW111078   6.516   0.816   0.197
 3393SOL    HW211079   6.547   0.657   0.217
 3394SOL     OW11080   5.462   1.665   1.241
 3394SOL    HW111081   5.533   1.637   1.176
 3394SOL    HW211082   5.502   1.674   1.332
 3395SOL     OW11083   1.194   3.565   5.029
 3395SOL    HW111084   1.216   3.520   4.943
 3395SOL    HW211085   1.279   3.588   5.077
 3396SOL     OW11086   6.978   4.190   4.292
 3396SOL    HW111087   0.023   4.270   4.295
 3396SOL    HW211088   6.937   4.182   4.201
 3397SOL     OW11089   3.077   6.286   5.880
 3397SOL    HW111090   2.994   6.231   5.872
 3397SOL    HW211091   3.104   6.291   5.977
 3398SOL     OW11092   6.945   6.942   4.296
 3398SOL    HW111093   6.847   6.933   4.278
 3398SOL    HW211094   6.961   0.005   4.355
 3399SOL     OW11095   4.503   5.393   4.599
 3399SOL    HW111096   4.487   5.383   4.697
 3399SOL    HW211097   4.467   5.313   4.551
 3400SOL     OW11098   4.445   2.258   6.379
 3400SOL    HW111099   4.528   2.309   6.357
 3400SOL    HW211100   4.450   2.224   6.473
 3401SOL     OW11101   6.012   4.852   0.187
 3401SOL    HW111102   6.004   4.811   0.278
 3401SOL    HW211103   6.014   4.780   0.117
 3402SOL     OW11104   4.742   5.561   2.422
 3402SOL    HW111105   4.697   5.485   2.374
 3402SOL    HW211106   4.677   5.604   2.485
 3403SOL     OW11107   2.962   1.595   4.945
 3403SOL    HW111108   2.895   1.669   4.950
 3403SOL    HW211109   3.014   1.603   4.861
 3404SOL     OW11110   4.469   0.804   0.985
 3404SOL    HW111111   4.552   0.763   1.021
 3404SOL    HW211112   4.487   0.897   0.953
 3405SOL     OW11113   5.951   3.842   0.777
 3405SOL    HW111114   5.870   3.866   0.829
 3405SOL    HW211115   6.017   3.796   0.837
 3406SOL     OW11116   1.249   4.689   2.048
 3406SOL    HW111117   1.319   4.617   2.048
 3406SOL    HW211118   1.286   4.771   2.092
 3407SOL     OW11119   1.540   5.238   2.537
 3407SOL    HW111120   1.462   5.265   2.482
 3407SOL    HW211121   1.555   5.139   2.528
 3408SOL     OW11122   5.195   3.634   2.971
 3408SOL    HW111123   5.232   3.595   2.886
 3408SOL    HW211124   5.243   3.718   2.992
 3409SOL     OW11125   3.003   0.632   5.493
 3409SOL    HW111126   3.067   0.557   5.478
 3409SOL    HW211127   3.051   0.712   5.529
 3410SOL     OW11128   6.651   0.412   6.940
 3410SOL    HW111129   6.636   0.326   6.891
 3410SOL    HW211130   6.643   0.396   0.023
 3411SOL     OW11131   5.110   2.254   2.073
 3411SOL    HW111132   5.098   2.193   2.151
 3411SOL    HW211133   5.060   2.219   1.994
 3412SOL     OW11134   3.948   4.433   6.858
 3412SOL    HW111135   3.999   4.384   6.788
 3412SOL    HW211136   3.993   4.519   6.880
 3413SOL     OW11137   4.075   2.107   2.645
 3413SOL    HW111138   4.066   2.007   2.645
 3413SOL    HW211139   4.001   2.146   2.700
 3414SOL     OW11140   3.500   2.112   5.478
 3414SOL    HW111141   3.585   2.105   5.531
 3414SOL    HW211142   3.495   2.036   5.413
 3415SOL     OW11143   0.425   5.363   3.885
 3415SOL    HW111144   0.386   5.384   3.795
 3415SOL    HW211145   0.370   5.407   3.956
 3416SOL     OW11146   1.844   4.576   5.346
 3416SOL    HW111147   1.876   4.595   5.253
 3416SOL    HW211148   1.921   4.579   5.409
 3417SOL     OW11149   5.762   0.319   2.125
 3417SOL    HW111150   5.752   0.237   2.181
 3417SOL    HW211151   5.672   0.362   2.114
 3418SOL     OW11152   3.099   1.237   6.370
 3418SOL    HW111153   3.037   1.170   6.411
 3418SOL    HW211154   3.131   1.300   6.440
 3419SOL     OW11155   4.486   3.792   0.282
 3419SOL    HW111156   4.504   3.858   0.356
 3419SOL    HW211157   4.413   3.730   0.310
 3420SOL     OW11158   4.263   2.363   4.261
 3420SOL    HW111159   4.212   2.366   4.346
 3420SOL    HW211160   4.201   2.344   4.185
 3421SOL     OW11161   0.470   6.237   4.380
 3421SOL    HW111162   0.553   6.196   4.416
 3421SOL    HW211163   0.461   6.331   4.412
 3422SOL     OW11164   3.192   1.146   2.252
 3422SOL    HW111165   3.177   1.169   2.348
 3422SOL    HW211166   3.176   1.227   2.196
 3423SOL     OW11167   2.703   0.715   1.339
 3423SOL    HW111168   2.759   0.765   1.405
 3423SOL    HW211169   2.730   0.740   1.246
 3424SOL     OW11170   3.950   1.404   2.727
 3424SOL    HW111171   3.910   1.485   2.771
 3424SOL    HW211172   4.030   1.375   2.779
 3425SOL     OW11173   4.349   4.482   1.798
 3425SOL    HW111174   4.310   4.532   1.875
 3425SOL    HW211175   4.375   4.390   1.828
 3426SOL     OW11176   4.250   3.319   0.528
 3426SOL    HW111177   4.231   3.232   0.574
 3426SOL    HW211178   4.232   3.394   0.591
 3427SOL     OW11179   0.180   1.958   0.145
 3427SOL    HW111180   0.277   1.979   0.153
 3427SOL    HW211181   0.166   1.860   0.152
 3428SOL     OW11182   4.500   4.597   3.314
 3428SOL    HW111183   4.458   4.653   3.386
 3428SOL    HW211184   4.549   4.521   3.356
 3429SOL     OW11185   0.450   3.268   6.790
 3429SOL    HW111186   0.486   3.244   6.700
 3429SOL    HW211187   0.376   3.204   6.814
 3430SOL     OW11188   1.311   6.194   0.152
 3430SOL    HW111189   1.234   6.256   0.147
 3430SOL    HW211190   1.287   6.107   0.107
 3431SOL     OW11191   0.724   6.123   0.501
 3431SOL    HW111192   0.686   6.166   0.420
 3431SOL    HW211193   0.696   6.027   0.505
 3432SOL     OW11194   3.347   1.781   6.636
 3432SOL    HW111195   3.375   1.872   6.602
 3432SOL    HW211196   3.414   1.713   6.607
 3433SOL     OW11197   4.049   0.672   5.078
 3433SOL    HW111198   4.113   0.594   5.077
 3433SOL    HW211199   3.960   0.642   5.045
 3434SOL     OW11200   4.319   1.830   2.953
 3434SOL    HW111201   4.368   1.783   2.879
 3434SOL    HW211202   4.332   1.928   2.944
 3435SOL     OW11203   0.717   1.136   6.992
 3435SOL    HW111204   0.779   1.059   7.007
 3435SOL    HW211205   0.625   1.111   0.006
 3436SOL     OW11206   4.150   6.721   3.229
 3436SOL    HW111207   4.052   6.701   3.237
 3436SOL    HW211208   4.187   6.739   3.320
 3437SOL     OW11209   3.741   0.066   6.231
 3437SOL    HW111210   3.761   0.137   6.164
 3437SOL    HW211211   3.696   7.004   6.185
 3438SOL     OW11212   1.407   3.773   6.724
 3438SOL    HW111213   1.365   3.719   6.651
 3438SOL    HW211214   1.422   3.867   6.692
 3439SOL     OW11215   2.919   5.622   3.476
 3439SOL    HW111216   2.835   5.587   3.437
 3439SOL    HW211217   2.907   5.637   3.574
 3440SOL     OW11218   4.695   1.883   0.791
 3440SOL    HW111219   4.622   1.818   0.814
 3440SOL    HW211220   4.662   1.976   0.805
 3441SOL     OW11221   3.010   0.287   3.792
 3441SOL    HW111222   3.038   0.374   3.751
 3441SOL    HW211223   3.078   0.217   3.769
 3442SOL     OW11224   1.934   4.737   3.250
 3442SOL    HW111225   1.981   4.803   3.192
 3442SOL    HW211226   1.835   4.745   3.238
 3443SOL     OW11227   6.145   0.770   3.609
 3443SOL    HW111228   6.185   0.842   3.666
 3443SOL    HW211229   6.063   0.734   3.654
 3444SOL     OW11230   4.334   5.167   0.280
 3444SOL    HW111231   4.270   5.242   0.267
 3444SOL    HW211232   4.427   5.203   0.284
 3445SOL     OW11233   6.037   4.488   4.555
 3445SOL    HW111234   6.136   4.501   4.554
 3445SOL    HW211235   5.993   4.567   4.599
 3446SOL     OW11236   3.385   6.508   2.779
 3446SOL    HW111237   3.304   6.541   2.731
 3446SOL    HW211238   3.420   6.580   2.838
 3447SOL     OW11239   5.569   5.022   6.359
 3447SOL    HW111240   5.635   5.052   6.290
 3447SOL    HW211241   5.500   4.964   6.316
 3448SOL     OW11242   3.687   2.111   0.869
 3448SOL    HW111243   3.775   2.158   0.861
 3448SOL    HW211244   3.624   2.168   0.922
 3449SOL     OW11245   5.876   6.100   3.454
 3449SOL    HW111246   5.963   6.111   3.503
 3449SOL    HW211247   5.884   6.140   3.363
 3450SOL     OW11248   1.158   1.736   1.344
 3450SOL    HW111249   1.213   1.773   1.418
 3450SOL    HW211250   1.216   1.719   1.264
 3451SOL     OW11251   1.021   5.104   4.410
 3451SOL    HW111252   1.014   5.179   4.476
 3451SOL    HW211253   0.949   5.113   4.342
 3452SOL     OW11254   6.136   1.876   6.638
 3452SOL    HW111255   6.223   1.918   6.664
 3452SOL    HW211256   6.063   1.915   6.694
 3453SOL     OW11257   5.825   5.721   5.693
 3453SOL    HW111258   5.859   5.719   5.787
 3453SOL    HW211259   5.792   5.813   5.671
 3454SOL     OW11260   0.723   0.797   0.469
 3454SOL    HW111261   0.751   0.893   0.463
 3454SOL    HW211262   0.638   0.784   0.417
 3455SOL     OW11263   1.790   2.736   4.871
 3455SOL    HW111264   1.838   2.650   4.886
 3455SOL    HW211265   1.822   2.804   4.936
 3456SOL     OW11266   6.398   0.085   1.637
 3456SOL    HW111267   6.379   0.106   1.733
 3456SOL    HW211268   6.497   0.088   1.621
 3457SOL     OW11269   2.102   5.237   3.265
 3457SOL    HW111270   2.063   5.325   3.237
 3457SOL    HW211271   2.098   5.230   3.365
 3458SOL     OW11272   5.157   5.565   1.288
 3458SOL    HW111273   5.135   5.487   1.345
 3458SOL    HW211274   5.178   5.534   1.195
 3459SOL     OW11275   6.381   6.437   3.571
 3459SOL    HW111276   6.350   6.531   3.588
 3459SOL    HW211277   6.428   6.403   3.651
 3460SOL     OW11278   4.089   3.332   6.621
 3460SOL    HW111279   4.036   3.300   6.700
 3460SOL    HW211280   4.153   3.403   6.651
 3461SOL     OW11281   3.293   5.608   2.679
 3461SOL    HW111282   3.246   5.690   2.649
 3461SOL    HW211283   3.386   5.608   2.645
 3462SOL     OW11284   4.891   3.118   3.281
 3462SOL    HW111285   4.988   3.140   3.264
 3462SOL    HW211286   4.878   3.019   3.277
 3463SOL     OW11287   2.191   2.971   1.212
 3463SOL    HW111288   2.250   3.005   1.139
 3463SOL    HW211289   2.230   2.888   1.251
 3464SOL     OW11290   4.607   2.597   6.792
 3464SOL    HW111291   4.605   2.694   6.769
 3464SOL    HW211292   4.682   2.580   6.856
 3465SOL     OW11293   1.827   3.620   2.131
 3465SOL    HW111294   1.926   3.605   2.123
 3465SOL    HW211295   1.782   3.534   2.154
 3466SOL     OW11296   5.930   4.786   4.059
 3466SOL    HW111297   5.917   4.855   3.987
 3466SOL    HW211298   6.027   4.777   4.080
 3467SOL     OW11299   3.064   2.633   1.254
 3467SOL    HW111300   2.984   2.692   1.267
 3467SOL    HW211301   3.070   2.568   1.330
 3468SOL     OW11302   3.642   1.596   0.880
 3468SOL    HW111303   3.611   1.595   0.976
 3468SOL    HW211304   3.689   1.683   0.862
 3469SOL     OW11305   4.114   5.795   5.252
 3469SOL    HW111306   4.177   5.807   5.176
 3469SOL    HW211307   4.166   5.770   5.334
 3470SOL     OW11308   1.066   2.933   1.745
 3470SOL    HW111309   1.136   2.971   1.685
 3470SOL    HW211310   1.076   2.971   1.837
 3471SOL     OW11311   5.305   3.040   4.070
 3471SOL    HW111312   5.362   3.035   3.989
 3471SOL    HW211313   5.267   3.132   4.079
 3472SOL     OW11314   4.125   1.564   3.582
 3472SOL    HW111315   4.108   1.636   3.649
 3472SOL    HW211316   4.062   1.574   3.505
 3473SOL     OW11317   6.973   4.372   1.931
 3473SOL    HW111318   0.021   4.382   1.855
 3473SOL    HW211319   7.010   4.418   2.012
 3474SOL     OW11320   5.610   5.415   3.975
 3474SOL    HW111321   5.580   5.432   4.069
 3474SOL    HW211322   5.677   5.485   3.949
 3475SOL     OW11323   6.893   4.229   4.044
 3475SOL    HW111324   6.896   4.131   4.024
 3475SOL    HW211325   6.851   4.277   3.967
 3476SOL     OW11326   1.332   0.974   3.350
 3476SOL    HW111327   1.248   0.921   3.337
 3476SOL    HW211328   1.345   0.993   3.447
 3477SOL     OW11329   0.384   4.052   2.043
 3477SOL    HW111330   0.405   3.955   2.025
 3477SOL    HW211331   0.368   4.065   2.140
 3478SOL     OW11332   2.021   1.025   0.890
 3478SOL    HW111333   2.079   1.098   0.926
 3478SOL    HW211334   1.956   0.995   0.961
 3479SOL     OW11335   1.593   4.564   4.304
 3479SOL    HW111336   1.636   4.509   4.233
 3479SOL    HW211337   1.632   4.542   4.393
 3480SOL     OW11338   1.361   4.817   0.056
 3480SOL    HW111339   1.266   4.819   0.026
 3480SOL    HW211340   1.416   4.768   7.004
 3481SOL     OW11341   5.801   1.169   5.005
 3481SOL    HW111342   5.701   1.168   5.016
 3481SOL    HW211343   5.826   1.240   4.939
 3482SOL     OW11344   6.003   3.872   5.433
 3482SOL    HW111345   5.992   3.890   5.335
 3482SOL    HW211346   6.094   3.902   5.462
 3483SOL     OW11347   5.340   2.899   4.711
 3483SOL    HW111348   5.244   2.904   4.682
 3483SOL    HW211349   5.383   2.819   4.670
 3484SOL     OW11350   1.972   3.569   5.328
 3484SOL    HW111351   1.965   3.569   5.428
 3484SOL    HW211352   2.050   3.626   5.300
 3485SOL     OW11353   0.062   2.627   6.405
 3485SOL    HW111354   0.046   2.606   6.309
 3485SOL    HW211355   0.156   2.658   6.417
 3486SOL     OW11356   1.990   6.759   4.894
 3486SOL    HW111357   2.034   6.835   4.846
 3486SOL    HW211358   1.968   6.687   4.828
 3487SOL     OW11359   4.860   1.611   6.776
 3487SOL    HW111360   4.888   1.521   6.810
 3487SOL    HW211361   4.882   1.619   6.679
 3488SOL     OW11362   5.499   0.594   4.782
 3488SOL    HW111363   5.584   0.581   4.732
 3488SOL    HW211364   5.519   0.611   4.878
 3489SOL     OW11365   3.329   6.568   0.467
 3489SOL    HW111366   3.364   6.546   0.376
 3489SOL    HW211367   3.264   6.643   0.461
 3490SOL     OW11368   3.512   5.871   0.084
 3490SOL    HW111369   3.461   5.786   0.071
 3490SOL    HW211370   3.469   5.925   0.156
 3491SOL     OW11371   4.892   4.791   6.035
 3491SOL    HW111372   4.969   4.828   6.086
 3491SOL    HW211373   4.861   4.706   6.079
 3492SOL     OW11374   5.929   4.572   2.975
 3492SOL    HW111375   5.918   4.649   2.912
 3492SOL    HW211376   6.027   4.554   2.989
 3493SOL     OW11377   6.001   3.262   5.110
 3493SOL    HW111378   5.929   3.324   5.081
 3493SOL    HW211379   5.969   3.208   5.188
 3494SOL     OW11380   4.131   1.644   1.734
 3494SOL    HW111381   4.222   1.607   1.715
 3494SOL    HW211382   4.119   1.729   1.682
 3495SOL     OW11383   0.888   2.923   2.580
 3495SOL    HW111384   0.821   2.851   2.558
 3495SOL    HW211385   0.963   2.920   2.514
 3496SOL     OW11386   5.559   5.543   1.313
 3496SOL    HW111387   5.529   5.634   1.285
 3496SOL    HW211388   5.520   5.522   1.403
 3497SOL     OW11389   3.366   6.782   2.542
 3497SOL    HW111390   3.346   6.685   2.524
 3497SOL    HW211391   3.336   6.837   2.464
 3498SOL     OW11392   2.203   2.239   1.723
 3498SOL    HW111393   2.197   2.312   1.792
 3498SOL    HW211394   2.298   2.229   1.693
 3499SOL     OW11395   6.224   5.396   5.735
 3499SOL    HW111396   6.316   5.390   5.696
 3499SOL    HW211397   6.180   5.481   5.705
 3500SOL     OW11398   1.709   2.066   4.097
 3500SOL    HW111399   1.731   2.126   4.174
 3500SOL    HW211400   1.742   2.107   4.012
 3501SOL     OW11401   1.317   0.471   5.761
 3501SOL    HW111402   1.351   0.480   5.854
 3501SOL    HW211403   1.230   0.422   5.762
 3502SOL     OW11404   4.826   2.916   2.244
 3502SOL    HW111405   4.776   2.950   2.164
 3502SOL    HW211406   4.869   2.829   2.221
 3503SOL     OW11407   6.196   5.859   6.936
 3503SOL    HW111408   6.228   5.785   6.875
 3503SOL    HW211409   6.131   5.822   7.002
 3504SOL     OW11410   1.525   1.005   1.072
 3504SOL    HW111411   1.441   0.966   1.034
 3504SOL    HW211412   1.536   0.976   1.167
 3505SOL     OW11413   5.666   4.733   6.426
 3505SOL    HW111414   5.639   4.716   6.331
 3505SOL    HW211415   5.676   4.832   6.440
 3506SOL     OW11416   5.106   4.471   4.867
 3506SOL    HW111417   5.058   4.409   4.805
 3506SOL    HW211418   5.080   4.565   4.847
 3507SOL     OW11419   3.216   6.778   0.322
 3507SOL    HW111420   3.202   6.857   0.382
 3507SOL    HW211421   3.235   6.810   0.229
 3508SOL     OW11422   3.052   2.346   5.340
 3508SOL    HW111423   3.097   2.350   5.429
 3508SOL    HW211424   3.121   2.359   5.267
 3509SOL     OW11425   4.172   5.387   6.697
 3509SOL    HW111426   4.229   5.329   6.638
 3509SOL    HW211427   4.075   5.372   6.675
 3510SOL     OW11428   2.975   0.940   0.725
 3510SOL    HW111429   3.014   0.989   0.803
 3510SOL    HW211430   2.981   0.997   0.643
 3511SOL     OW11431   2.648   4.542   1.747
 3511SOL    HW111432   2.740   4.550   1.786
 3511SOL    HW211433   2.647   4.577   1.654
 3512SOL     OW11434   0.204   4.896   6.486
 3512SOL    HW111435   0.255   4.953   6.549
 3512SOL    HW211436   0.244   4.903   6.395
 3513SOL     OW11437   6.019   2.144   0.200
 3513SOL    HW111438   6.086   2.139   0.274
 3513SOL    HW211439   6.066   2.132   0.112
 3514SOL     OW11440   3.796   1.366   2.485
 3514SOL    HW111441   3.860   1.351   2.561
 3514SOL    HW211442   3.801   1.289   2.422
 3515SOL     OW11443   6.050   5.857   4.053
 3515SOL    HW111444   6.022   5.876   3.959
 3515SOL    HW211445   6.092   5.766   4.058
 3516SOL     OW11446   4.823   0.303   1.550
 3516SOL    HW111447   4.909   0.333   1.591
 3516SOL    HW211448   4.840   0.272   1.456
 3517SOL     OW11449   6.317   0.706   0.884
 3517SOL    HW111450   6.220   0.716   0.864
 3517SOL    HW211451   6.327   0.654   0.969
 3518SOL     OW11452   5.146   1.177   5.256
 3518SOL    HW111453   5.087   1.139   5.327
 3518SOL    HW211454   5.185   1.263   5.288
 3519SOL     OW11455   3.378   0.733   0.557
 3519SOL    HW111456   3.327   0.647   0.554
 3519SOL    HW211457   3.342   0.795   0.488
 3520SOL     OW11458   2.560   6.516   4.883
 3520SOL    HW111459   2.659   6.529   4.873
 3520SOL    HW211460   2.540   6.487   4.977
 3521SOL     OW11461   2.480   2.756   0.595
 3521SOL    HW111462   2.552   2.823   0.573
 3521SOL    HW211463   2.518   2.664   0.587
 3522SOL     OW11464   0.126   5.944   6.629
 3522SOL    HW111465   0.181   6.028   6.626
 3522SOL    HW211466   0.138   5.894   6.543
 3523SOL     OW11467   1.533   5.316   6.385
 3523SOL    HW111468   1.434   5.326   6.386
 3523SOL    HW211469   1.560   5.257   6.309
 3524SOL     OW11470   5.549   1.275   3.096
 3524SOL    HW111471   5.584   1.204   3.158
 3524SOL    HW211472   5.578   1.254   3.002
 3525SOL     OW11473   6.081   4.136   3.502
 3525SOL    HW111474   6.077   4.207   3.433
 3525SOL    HW211475   6.033   4.167   3.584
 3526SOL     OW11476   0.776   6.377   2.847
 3526SOL    HW111477   0.697   6.320   2.826
 3526SOL    HW211478   0.815   6.414   2.763
 3527SOL     OW11479   6.614   2.620   5.798
 3527SOL    HW111480   6.623   2.553   5.724
 3527SOL    HW211481   6.531   2.674   5.785
 3528SOL     OW11482   2.344   6.259   4.781
 3528SOL    HW111483   2.411   6.239   4.853
 3528SOL    HW211484   2.300   6.174   4.753
 3529SOL     OW11485   4.001   5.100   0.952
 3529SOL    HW111486   3.950   5.105   0.866
 3529SOL    HW211487   3.986   5.185   1.004
 3530SOL     OW11488   6.994   0.354   1.624
 3530SOL    HW111489   6.967   0.449   1.638
 3530SOL    HW211490   0.037   0.325   1.699
 3531SOL     OW11491   5.255   2.067   0.176
 3531SOL    HW111492   5.312   2.011   0.236
 3531SOL    HW211493   5.159   2.040   0.186
 3532SOL     OW11494   1.784   1.612   1.629
 3532SOL    HW111495   1.777   1.676   1.706
 3532SOL    HW211496   1.769   1.661   1.543
 3533SOL     OW11497   0.521   1.046   2.629
 3533SOL    HW111498   0.577   1.059   2.711
 3533SOL    HW211499   0.491   1.135   2.595
 3534SOL     OW11500   0.119   0.782   1.329
 3534SOL    HW111501   0.112   0.713   1.257
 3534SOL    HW211502   0.214   0.785   1.363
 3535SOL     OW11503   2.635   5.773   4.481
 3535SOL    HW111504   2.728   5.736   4.479
 3535SOL    HW211505   2.627   5.839   4.555
 3536SOL     OW11506   3.599   2.133   2.868
 3536SOL    HW111507   3.556   2.076   2.797
 3536SOL    HW211508   3.595   2.229   2.841
 3537SOL     OW11509   1.723   5.930   2.879
 3537SOL    HW111510   1.641   5.878   2.903
 3537SOL    HW211511   1.804   5.881   2.911
 3538SOL     OW11512   3.273   5.582   3.844
 3538SOL    HW111513   3.240   5.495   3.808
 3538SOL    HW211514   3.348   5.564   3.909
 3539SOL     OW11515   3.431   3.925   4.464
 3539SOL    HW111516   3.409   4.016   4.499
 3539SOL    HW211517   3.380   3.856   4.516
 3540SOL     OW11518   1.905   1.877   3.840
 3540SOL    HW111519   1.890   1.830   3.753
 3540SOL    HW211520   1.959   1.960   3.824
 3541SOL     OW11521   3.215   4.011   5.002
 3541SOL    HW111522   3.295   3.999   5.061
 3541SOL    HW211523   3.154   3.932   5.013
 3542SOL     OW11524   0.384   5.415   1.644
 3542SOL    HW111525   0.379   5.387   1.740
 3542SOL    HW211526   0.306   5.473   1.622
 3543SOL     OW11527   5.955   2.741   4.632
 3543SOL    HW111528   5.961   2.768   4.536
 3543SOL    HW211529   6.044   2.706   4.662
 3544SOL     OW11530   2.175   5.290   6.169
 3544SOL    HW111531   2.104   5.225   6.197
 3544SOL    HW211532   2.182   5.363   6.238
 3545SOL     OW11533   3.924   5.231   6.920
 3545SOL    HW111534   3.885   5.239   6.828
 3545SOL    HW211535   4.004   5.171   6.917
 3546SOL     OW11536   6.269   5.092   3.217
 3546SOL    HW111537   6.180   5.079   3.174
 3546SOL    HW211538   6.338   5.108   3.147
 3547SOL     OW11539   5.346   4.939   4.312
 3547SOL    HW111540   5.413   4.978   4.375
 3547SOL    HW211541   5.278   4.887   4.363
 3548SOL     OW11542   4.744   2.874   5.365
 3548SOL    HW111543   4.806   2.943   5.329
 3548SOL    HW211544   4.665   2.865   5.305
 3549SOL     OW11545   5.976   4.228   2.803
 3549SOL    HW111546   6.059   4.172   2.796
 3549SOL    HW211547   5.899   4.171   2.830
 3550SOL     OW11548   5.766   2.185   2.318
 3550SOL    HW111549   5.824   2.142   2.249
 3550SOL    HW211550   5.816   2.260   2.362
 3551SOL     OW11551   2.772   6.624   3.382
 3551SOL    HW111552   2.705   6.612   3.309
 3551SOL    HW211553   2.766   6.718   3.418
 3552SOL     OW11554   6.572   4.906   3.118
 3552SOL    HW111555   6.518   4.966   3.059
 3552SOL    HW211556   6.587   4.951   3.207
 3553SOL     OW11557   5.869   1.711   2.758
 3553SOL    HW111558   5.949   1.667   2.718
 3553SOL    HW211559   5.828   1.773   2.690
 3554SOL     OW11560   3.909   5.327   6.549
 3554SOL    HW111561   3.911   5.230   6.525
 3554SOL    HW211562   3.918   5.383   6.466
 3555SOL     OW11563   1.225   2.852   3.618
 3555SOL    HW111564   1.224   2.926   3.685
 3555SOL    HW211565   1.320   2.831   3.593
 3556SOL     OW11566   3.898   0.402   6.498
 3556SOL    HW111567   3.923   0.429   6.405
 3556SOL    HW211568   3.842   0.319   6.495
 3557SOL     OW11569   1.274   0.533   5.154
 3557SOL    HW111570   1.355   0.503   5.204
 3557SOL    HW211571   1.194   0.528   5.214
 3558SOL     OW11572   0.114   5.756   1.194
 3558SOL    HW111573   0.080   5.846   1.223
 3558SOL    HW211574   0.144   5.761   1.099
 3559SOL     OW11575   0.524   1.016   5.485
 3559SOL    HW111576   0.622   1.027   5.501
 3559SOL    HW211577   0.510   0.948   5.413
 3560SOL     OW11578   6.868   6.479   1.551
 3560SOL    HW111579   6.875   6.482   1.451
 3560SOL    HW211580   6.957   6.457   1.590
 3561SOL     OW11581   4.698   4.926   4.742
 3561SOL    HW111582   4.745   4.858   4.798
 3561SOL    HW211583   4.627   4.880   4.687
 3562SOL     OW11584   4.465   1.531   3.131
 3562SOL    HW111585   4.513   1.511   3.046
 3562SOL    HW211586   4.430   1.446   3.171
 3563SOL     OW11587   4.896   0.950   1.313
 3563SOL    HW111588   4.850   0.894   1.244
 3563SOL    HW211589   4.960   1.012   1.267
 3564SOL     OW11590   0.336   4.482   3.080
 3564SOL    HW111591   0.359   4.385   3.071
 3564SOL    HW211592   0.371   4.531   3.001
 3565SOL     OW11593   1.775   0.411   5.042
 3565SOL    HW111594   1.874   0.398   5.048
 3565SOL    HW211595   1.728   0.327   5.067
 3566SOL     OW11596   0.750   3.847   5.436
 3566SOL    HW111597   0.732   3.802   5.523
 3566SOL    HW211598   0.848   3.840   5.414
 3567SOL     OW11599   0.183   2.870   0.984
 3567SOL    HW111600   0.182   2.808   1.063
 3567SOL    HW211601   0.104   2.852   0.926
 3568SOL     OW11602   5.320   3.668   3.512
 3568SOL    HW111603   5.308   3.569   3.510
 3568SOL    HW211604   5.298   3.702   3.604
 3569SOL     OW11605   3.597   3.178   3.887
 3569SOL    HW111606   3.679   3.214   3.843
 3569SOL    HW211607   3.589   3.080   3.868
 3570SOL     OW11608   0.268   2.586   5.994
 3570SOL    HW111609   0.248   2.566   5.898
 3570SOL    HW211610   0.223   2.672   6.020
 3571SOL     OW11611   2.103   6.603   5.107
 3571SOL    HW111612   2.086   6.684   5.050
 3571SOL    HW211613   2.138   6.529   5.050
 3572SOL     OW11614   4.831   4.719   2.161
 3572SOL    HW111615   4.906   4.740   2.098
 3572SOL    HW211616   4.777   4.644   2.124
 3573SOL     OW11617   0.187   3.844   3.048
 3573SOL    HW111618   0.209   3.835   2.951
 3573SOL    HW211619   0.271   3.849   3.101
 3574SOL     OW11620   2.400   2.041   5.552
 3574SOL    HW111621   2.364   2.132   5.533
 3574SOL    HW211622   2.460   2.044   5.632
 3575SOL     OW11623   5.163   7.009   0.018
 3575SOL    HW111624   5.126   6.992   0.110
 3575SOL    HW211625   5.228   6.937   7.011
 3576SOL     OW11626   1.249   2.791   1.036
 3576SOL    HW111627   1.266   2.832   0.946
 3576SOL    HW211628   1.244   2.863   1.105
 3577SOL     OW11629   2.400   2.906   5.660
 3577SOL    HW111630   2.337   2.837   5.623
 3577SOL    HW211631   2.461   2.938   5.588
 3578SOL     OW11632   3.120   2.962   6.512
 3578SOL    HW111633   3.205   2.991   6.468
 3578SOL    HW211634   3.115   2.862   6.512
 3579SOL     OW11635   0.801   2.964   1.692
 3579SOL    HW111636   0.897   2.967   1.718
 3579SOL    HW211637   0.786   3.026   1.615
 3580SOL     OW11638   0.565   4.251   1.610
 3580SOL    HW111639   0.562   4.164   1.561
 3580SOL    HW211640   0.513   4.243   1.695
 3581SOL     OW11641   1.458   0.123   2.843
 3581SOL    HW111642   1.463   0.213   2.887
 3581SOL    HW211643   1.549   0.098   2.810
 3582SOL     OW11644   3.730   4.600   6.282
 3582SOL    HW111645   3.692   4.535   6.347
 3582SOL    HW211646   3.817   4.635   6.317
 3583SOL     OW11647   0.708   4.900   0.872
 3583SOL    HW111648   0.786   4.849   0.836
 3583SOL    HW211649   0.701   4.885   0.970
 3584SOL     OW11650   6.226   4.846   4.905
 3584SOL    HW111651   6.298   4.777   4.912
 3584SOL    HW211652   6.238   4.898   4.820
 3585SOL     OW11653   3.259   1.467   3.011
 3585SOL    HW111654   3.174   1.471   3.064
 3585SOL    HW211655   3.307   1.555   3.019
 3586SOL     OW11656   6.808   2.749   5.131
 3586SOL    HW111657   6.831   2.775   5.037
 3586SOL    HW211658   6.806   2.831   5.189
 3587SOL     OW11659   2.795   6.917   6.646
 3587SOL    HW111660   2.732   6.889   6.574
 3587SOL    HW211661   2.773   6.870   6.731
 3588SOL     OW11662   6.235   5.066   4.717
 3588SOL    HW111663   6.335   5.060   4.718
 3588SOL    HW211664   6.199   4.995   4.657
 3589SOL     OW11665   0.343   0.415   5.853
 3589SOL    HW111666   0.334   0.411   5.952
 3589SOL    HW211667   0.288   0.491   5.817
 3590SOL     OW11668   6.556   5.040   0.092
 3590SOL    HW111669   6.477   5.097   0.113
 3590SOL    HW211670   6.637   5.077   0.138
 3591SOL     OW11671   6.138   1.476   6.368
 3591SOL    HW111672   6.141   1.474   6.468
 3591SOL    HW211673   6.205   1.542   6.334
 3592SOL     OW11674   1.851   6.042   1.236
 3592SOL    HW111675   1.879   6.138   1.235
 3592SOL    HW211676   1.822   6.015   1.144
 3593SOL     OW11677   4.358   2.932   5.313
 3593SOL    HW111678   4.448   2.914   5.275
 3593SOL    HW211679   4.328   2.854   5.368
 3594SOL     OW11680   4.541   4.710   5.114
 3594SOL    HW111681   4.463   4.656   5.083
 3594SOL    HW211682   4.601   4.728   5.036
 3595SOL     OW11683   5.242   6.337   4.698
 3595SOL    HW111684   5.212   6.363   4.790
 3595SOL    HW211685   5.186   6.386   4.631
 3596SOL     OW11686   4.110   2.235   3.669
 3596SOL    HW111687   4.178   2.302   3.697
 3596SOL    HW211688   4.106   2.161   3.736
 3597SOL     OW11689   2.775   3.326   5.378
 3597SOL    HW111690   2.832   3.257   5.335
 3597SOL    HW211691   2.804   3.338   5.474
 3598SOL     OW11692   1.425   5.831   5.140
 3598SOL    HW111693   1.327   5.817   5.157
 3598SOL    HW211694   1.454   5.919   5.177
 3599SOL     OW11695   3.261   1.233   5.192
 3599SOL    HW111696   3.222   1.238   5.284
 3599SOL    HW211697   3.354   1.198   5.197
 3600SOL     OW11698   3.207   3.315   0.142
 3600SOL    HW111699   3.272   3.347   0.212
 3600SOL    HW211700   3.151   3.242   0.179
 3601SOL     OW11701   4.465   0.861   4.969
 3601SOL    HW111702   4.468   0.803   5.051
 3601SOL    HW211703   4.485   0.956   4.995
 3602SOL     OW11704   2.216   1.970   1.324
 3602SOL    HW111705   2.124   1.945   1.355
 3602SOL    HW211706   2.251   2.045   1.380
 3603SOL     OW11707   2.682   0.836   5.337
 3603SOL    HW111708   2.604   0.897   5.321
 3603SOL    HW211709   2.665   0.784   5.421
 3604SOL     OW11710   0.038   0.502   3.505
 3604SOL    HW111711   0.097   0.501   3.424
 3604SOL    HW211712   7.008   0.413   3.515
 3605SOL     OW11713   1.201   6.549   4.120
 3605SOL    HW111714   1.135   6.532   4.047
 3605SOL    HW211715   1.292   6.560   4.081
 3606SOL     OW11716   2.557   6.906   2.325
 3606SOL    HW111717   2.459   6.925   2.319
 3606SOL    HW211718   2.595   6.953   2.404
 3607SOL     OW11719   5.992   1.971   3.103
 3607SOL    HW111720   6.056   1.962   3.179
 3607SOL    HW211721   5.898   1.966   3.137
 3608SOL     OW11722   2.630   2.130   6.158
 3608SOL    HW111723   2.714   2.111   6.208
 3608SOL    HW211724   2.640   2.214   6.105
 3609SOL     OW11725   2.985   0.992   4.641
 3609SOL    HW111726   3.043   0.994   4.723
 3609SOL    HW211727   2.893   1.023   4.664
 3610SOL     OW11728   1.588   0.202   5.203
 3610SOL    HW111729   1.570   0.140   5.279
 3610SOL    HW211730   1.503   0.223   5.155
 3611SOL     OW11731   5.406   4.821   3.218
 3611SOL    HW111732   5.399   4.877   3.301
 3611SOL    HW211733   5.358   4.734   3.233
 3612SOL     OW11734   6.153   1.157   0.031
 3612SOL    HW111735   6.117   1.134   0.121
 3612SOL    HW211736   6.098   1.231   7.007
 3613SOL     OW11737   4.531   6.327   2.049
 3613SOL    HW111738   4.511   6.264   1.973
 3613SOL    HW211739   4.462   6.399   2.052
 3614SOL     OW11740   3.585   5.475   6.872
 3614SOL    HW111741   3.645   5.461   6.950
 3614SOL    HW211742   3.595   5.398   6.808
 3615SOL     OW11743   5.504   2.237   5.764
 3615SOL    HW111744   5.551   2.290   5.694
 3615SOL    HW211745   5.566   2.168   5.801
 3616SOL     OW11746   1.118   2.041   0.215
 3616SOL    HW111747   1.076   2.101   0.147
 3616SOL    HW211748   1.218   2.043   0.203
 3617SOL     OW11749   3.878   5.831   5.505
 3617SOL    HW111750   3.842   5.761   5.444
 3617SOL    HW211751   3.959   5.873   5.463
 3618SOL     OW11752   1.039   5.130   4.006
 3618SOL    HW111753   1.132   5.143   4.040
 3618SOL    HW211754   1.042   5.100   3.911
 3619SOL     OW11755   5.907   3.615   2.241
 3619SOL    HW111756   5.839   3.577   2.304
 3619SOL    HW211757   5.864   3.684   2.182
 3620SOL     OW11758   5.914   5.861   4.751
 3620SOL    HW111759   5.914   5.822   4.843
 3620SOL    HW211760   5.936   5.958   4.756
 3621SOL     OW11761   3.673   3.013   3.491
 3621SOL    HW111762   3.577   2.994   3.508
 3621SOL    HW211763   3.683   3.102   3.447
 3622SOL     OW11764   1.619   6.250   5.868
 3622SOL    HW111765   1.565   6.330   5.895
 3622SOL    HW211766   1.557   6.172   5.853
 3623SOL     OW11767   1.225   5.603   6.025
 3623SOL    HW111768   1.133   5.614   6.064
 3623SOL    HW211769   1.293   5.629   6.094
 3624SOL     OW11770   2.757   2.551   1.448
 3624SOL    HW111771   2.791   2.464   1.414
 3624SOL    HW211772   2.769   2.556   1.547
 3625SOL     OW11773   0.040   2.286   0.689
 3625SOL    HW111774   0.035   2.371   0.637
 3625SOL    HW211775   6.963   2.251   0.704
 3626SOL     OW11776   1.803   2.983   5.066
 3626SOL    HW111777   1.706   2.984   5.039
 3626SOL    HW211778   1.856   3.039   5.003
 3627SOL     OW11779   3.439   2.053   2.073
 3627SOL    HW111780   3.529   2.092   2.054
 3627SOL    HW211781   3.443   1.954   2.061
 3628SOL     OW11782   6.537   1.954   1.627
 3628SOL    HW111783   6.538   1.910   1.537
 3628SOL    HW211784   6.567   2.049   1.618
 3629SOL     OW11785   1.210   1.427   4.508
 3629SOL    HW111786   1.286   1.458   4.451
 3629SOL    HW211787   1.242   1.352   4.566
 3630SOL     OW11788   6.902   2.093   1.731
 3630SOL    HW111789   6.924   2.019   1.667
 3630SOL    HW211790   6.889   2.055   1.823
 3631SOL     OW11791   1.828   6.888   2.489
 3631SOL    HW111792   1.765   6.966   2.498
 3631SOL    HW211793   1.831   6.838   2.576
 3632SOL     OW11794   4.631   3.960   1.685
 3632SOL    HW111795   4.667   3.867   1.677
 3632SOL    HW211796   4.535   3.955   1.712
 3633SOL     OW11797   3.714   3.938   0.212
 3633SOL    HW111798   3.757   3.849   0.198
 3633SOL    HW211799   3.649   3.956   0.138
 3634SOL     OW11800   3.260   5.299   6.381
 3634SOL    HW111801   3.188   5.325   6.444
 3634SOL    HW211802   3.221   5.282   6.290
 3635SOL     OW11803   1.398   5.801   2.057
 3635SOL    HW111804   1.339   5.881   2.045
 3635SOL    HW211805   1.418   5.761   1.967
 3636SOL     OW11806   0.525   5.258   6.343
 3636SOL    HW111807   0.514   5.316   6.424
 3636SOL    HW211808   0.556   5.167   6.371
 3637SOL     OW11809   6.008   3.086   0.213
 3637SOL    HW111810   6.069   3.077   0.292
 3637SOL    HW211811   5.949   3.167   0.226
 3638SOL     OW11812   6.714   3.401   2.989
 3638SOL    HW111813   6.743   3.389   3.084
 3638SOL    HW211814   6.674   3.316   2.955
 3639SOL     OW11815   3.965   3.134   3.512
 3639SOL    HW111816   3.991   3.186   3.432
 3639SOL    HW211817   3.909   3.056   3.485
 3640SOL     OW11818   4.495   1.959   2.087
 3640SOL    HW111819   4.489   2.001   1.996
 3640SOL    HW211820   4.406   1.920   2.111
 3641SOL     OW11821   6.070   4.037   2.511
 3641SOL    HW111822   6.114   4.059   2.598
 3641SOL    HW211823   6.088   4.110   2.445
 3642SOL     OW11824   5.377   3.203   5.993
 3642SOL    HW111825   5.450   3.171   6.054
 3642SOL    HW211826   5.331   3.282   6.034
 3643SOL     OW11827   3.900   5.599   4.737
 3643SOL    HW111828   3.841   5.601   4.657
 3643SOL    HW211829   3.979   5.540   4.720
 3644SOL     OW11830   2.779   0.451   1.908
 3644SOL    HW111831   2.766   0.547   1.933
 3644SOL    HW211832   2.876   0.434   1.889
 3645SOL     OW11833   1.264   4.072   3.435
 3645SOL    HW111834   1.300   4.018   3.359
 3645SOL    HW211835   1.337   4.129   3.473
 3646SOL     OW11836   1.511   4.542   5.552
 3646SOL    HW111837   1.494   4.445   5.534
 3646SOL    HW211838   1.518   4.591   5.465
 3647SOL     OW11839   2.515   0.058   6.587
 3647SOL    HW111840   2.462   0.008   6.655
 3647SOL    HW211841   2.599   0.093   6.628
 3648SOL     OW11842   4.677   5.676   3.480
 3648SOL    HW111843   4.588   5.672   3.525
 3648SOL    HW211844   4.736   5.740   3.530
 3649SOL     OW11845   5.942   2.634   0.234
 3649SOL    HW111846   5.978   2.665   0.147
 3649SOL    HW211847   5.969   2.697   0.307
 3650SOL     OW11848   5.515   5.932   6.698
 3650SOL    HW111849   5.453   6.010   6.697
 3650SOL    HW211850   5.531   5.904   6.793
 3651SOL     OW11851   0.838   2.226   5.689
 3651SOL    HW111852   0.858   2.138   5.645
 3651SOL    HW211853   0.836   2.213   5.788
 3652SOL     OW11854   4.398   1.548   1.673
 3652SOL    HW111855   4.419   1.489   1.751
 3652SOL    HW211856   4.452   1.521   1.594
 3653SOL     OW11857   1.388   1.713   1.083
 3653SOL    HW111858   1.346   1.753   1.002
 3653SOL    HW211859   1.432   1.785   1.137
 3654SOL     OW11860   4.371   6.396   1.629
 3654SOL    HW111861   4.330   6.474   1.582
 3654SOL    HW211862   4.437   6.351   1.569
 3655SOL     OW11863   1.176   1.093   4.117
 3655SOL    HW111864   1.209   1.187   4.117
 3655SOL    HW211865   1.182   1.056   4.024
 3656SOL     OW11866   0.260   0.106   1.457
 3656SOL    HW111867   0.233   0.132   1.549
 3656SOL    HW211868   0.216   0.019   1.433
 3657SOL     OW11869   5.936   5.503   6.134
 3657SOL    HW111870   5.866   5.506   6.063
 3657SOL    HW211871   5.938   5.590   6.184
 3658SOL     OW11872   1.786   4.941   5.671
 3658SOL    HW111873   1.865   4.985   5.713
 3658SOL    HW211874   1.778   4.847   5.705
 3659SOL     OW11875   0.301   2.501   6.321
 3659SOL    HW111876   0.225   2.436   6.317
 3659SOL    HW211877   0.313   2.544   6.231
 3660SOL     OW11878   4.999   5.485   6.144
 3660SOL    HW111879   4.965   5.579   6.146
 3660SOL    HW211880   5.077   5.480   6.082
 3661SOL     OW11881   0.312   1.846   4.472
 3661SOL    HW111882   0.376   1.906   4.518
 3661SOL    HW211883   0.337   1.837   4.375
 3662SOL     OW11884   3.164   1.828   5.567
 3662SOL    HW111885   3.123   1.898   5.508
 3662SOL    HW211886   3.212   1.871   5.643
 3663SOL     OW11887   2.556   2.524   6.855
 3663SOL    HW111888   2.456   2.532   6.854
 3663SOL    HW211889   2.586   2.468   6.778
 3664SOL     OW11890   3.577   1.869   1.149
 3664SOL    HW111891   3.543   1.873   1.056
 3664SOL    HW211892   3.650   1.936   1.161
 3665SOL     OW11893   0.621   5.524   5.961
 3665SOL    HW111894   0.581   5.458   6.025
 3665SOL    HW211895   0.691   5.578   6.008
 3666SOL     OW11896   2.176   3.213   4.575
 3666SOL    HW111897   2.150   3.307   4.598
 3666SOL    HW211898   2.221   3.171   4.653
 3667SOL     OW11899   1.832   6.557   0.972
 3667SOL    HW111900   1.869   6.647   0.994
 3667SOL    HW211901   1.733   6.557   0.986
 3668SOL     OW11902   6.338   1.052   0.873
 3668SOL    HW111903   6.388   0.979   0.826
 3668SOL    HW211904   6.275   1.012   0.939
 3669SOL     OW11905   0.847   1.013   3.509
 3669SOL    HW111906   0.911   0.984   3.581
 3669SOL    HW211907   0.778   1.074   3.549
 3670SOL     OW11908   2.753   0.323   1.638
 3670SOL    HW111909   2.743   0.230   1.673
 3670SOL    HW211910   2.739   0.388   1.713
 3671SOL     OW11911   6.844   0.545   4.374
 3671SOL    HW111912   6.898   0.629   4.367
 3671SOL    HW211913   6.781   0.552   4.452
 3672SOL     OW11914   3.573   0.044   3.714
 3672SOL    HW111915   3.624   0.122   3.749
 3672SOL    HW211916   3.514   0.074   3.638
 3673SOL     OW11917   3.360   0.077   1.169
 3673SOL    HW111918   3.263   0.054   1.174
 3673SOL    HW211919   3.412   7.013   1.138
 3674SOL     OW11920   0.584   4.656   6.902
 3674SOL    HW111921   0.527   4.735   6.877
 3674SOL    HW211922   0.546   4.574   6.860
 3675SOL     OW11923   0.799   0.666   4.051
 3675SOL    HW111924   0.772   0.659   4.147
 3675SOL    HW211925   0.898   0.658   4.043
 3676SOL     OW11926   3.429   1.292   4.731
 3676SOL    HW111927   3.523   1.326   4.732
 3676SOL    HW211928   3.386   1.315   4.643
 3677SOL     OW11929   1.426   1.200   4.545
 3677SOL    HW111930   1.460   1.274   4.488
 3677SOL    HW211931   1.457   1.214   4.639
 3678SOL     OW11932   1.285   0.977   3.812
 3678SOL    HW111933   1.191   0.946   3.823
 3678SOL    HW211934   1.347   0.913   3.857
 3679SOL     OW11935   4.063   0.310   2.220
 3679SOL    HW111936   4.091   0.330   2.314
 3679SOL    HW211937   4.095   0.219   2.194
 3680SOL     OW11938   3.254   1.793   4.503
 3680SOL    HW111939   3.325   1.793   4.573
 3680SOL    HW211940   3.293   1.761   4.416
 3681SOL     OW11941   0.924   6.497   4.265
 3681SOL    HW111942   0.909   6.543   4.177
 3681SOL    HW211943   1.022   6.487   4.280
 3682SOL     OW11944   5.508   1.974   0.673
 3682SOL    HW111945   5.469   1.953   0.763
 3682SOL    HW211946   5.551   2.065   0.676
 3683SOL     OW11947   6.524   1.514   0.195
 3683SOL    HW111948   6.614   1.499   0.154
 3683SOL    HW211949   6.489   1.427   0.231
 3684SOL     OW11950   2.439   6.290   5.231
 3684SOL    HW111951   2.503   6.358   5.265
 3684SOL    HW211952   2.474   6.252   5.145
 3685SOL     OW11953   1.687   6.056   4.530
 3685SOL    HW111954   1.589   6.039   4.523
 3685SOL    HW211955   1.726   5.998   4.602
 3686SOL     OW11956   0.224   3.695   1.101
 3686SOL    HW111957   0.205   3.710   1.004
 3686SOL    HW211958   0.193   3.603   1.127
 3687SOL     OW11959   5.900   4.259   5.098
 3687SOL    HW111960   5.882   4.310   5.014
 3687SOL    HW211961   5.959   4.314   5.158
 3688SOL     OW11962   6.311   2.597   1.405
 3688SOL    HW111963   6.385   2.659   1.432
 3688SOL    HW211964   6.329   2.561   1.313
 3689SOL     OW11965   1.092   0.303   6.411
 3689SOL    HW111966   1.119   0.226   6.352
 3689SOL    HW211967   1.011   0.278   6.462
 3690SOL     OW11968   5.292   5.512   1.714
 3690SOL    HW111969   5.254   5.422   1.736
 3690SOL    HW211970   5.390   5.503   1.696
 3691SOL     OW11971   1.970   2.970   0.636
 3691SOL    HW111972   2.026   2.966   0.553
 3691SOL    HW211973   1.969   2.880   0.680
 3692SOL     OW11974   1.114   2.903   5.209
 3692SOL    HW111975   1.017   2.890   5.187
 3692SOL    HW211976   1.130   2.878   5.304
 3693SOL     OW11977   0.564   1.344   2.654
 3693SOL    HW111978   0.566   1.425   2.596
 3693SOL    HW211979   0.470   1.314   2.667
 3694SOL     OW11980   6.525   0.187   3.285
 3694SOL    HW111981   6.607   0.168   3.230
 3694SOL    HW211982   6.450   0.131   3.251
 3695SOL     OW11983   5.719   3.548   3.519
 3695SOL    HW111984   5.782   3.529   3.594
 3695SOL    HW211985   5.659   3.469   3.505
 3696SOL     OW11986   4.131   0.590   4.531
 3696SOL    HW111987   4.150   0.539   4.615
 3696SOL    HW211988   4.032   0.599   4.519
 3697SOL     OW11989   6.463   6.171   3.220
 3697SOL    HW111990   6.402   6.119   3.280
 3697SOL    HW211991   6.480   6.261   3.260
 3698SOL     OW11992   1.812   0.375   2.874
 3698SOL    HW111993   1.772   0.308   2.812
 3698SOL    HW211994   1.912   0.366   2.873
 3699SOL     OW11995   2.530   2.521   3.104
 3699SOL    HW111996   2.455   2.504   3.040
 3699SOL    HW211997   2.615   2.535   3.053
 3700SOL     OW11998   0.906   5.100   5.047
 3700SOL    HW111999   0.949   5.092   4.957
 3700SOL    HW212000   0.808   5.084   5.038
 3701SOL     OW12001   0.192   1.037   2.323
 3701SOL    HW112002   0.252   0.959   2.344
 3701SOL    HW212003   0.097   1.012   2.343
 3702SOL     OW12004   5.957   3.861   3.625
 3702SOL    HW112005   6.022   3.891   3.695
 3702SOL    HW212006   5.871   3.912   3.634
 3703SOL     OW12007   1.273   1.611   3.308
 3703SOL    HW112008   1.306   1.536   3.365
 3703SOL    HW212009   1.343   1.635   3.241
 3704SOL     OW12010   6.430   0.798   0.463
 3704SOL    HW112011   6.481   0.809   0.549
 3704SOL    HW212012   6.416   0.700   0.446
 3705SOL     OW12013   5.819   4.424   3.740
 3705SOL    HW112014   5.851   4.495   3.676
 3705SOL    HW212015   5.720   4.433   3.753
 3706SOL     OW12016   1.320   4.570   6.115
 3706SOL    HW112017   1.359   4.595   6.027
 3706SOL    HW212018   1.278   4.651   6.157
 3707SOL     OW12019   1.128   4.829   3.469
 3707SOL    HW112020   1.127   4.771   3.387
 3707SOL    HW212021   1.214   4.817   3.518
 3708SOL     OW12022   2.291   6.142   1.165
 3708SOL    HW112023   2.274   6.127   1.068
 3708SOL    HW212024   2.284   6.055   1.214
 3709SOL     OW12025   1.189   1.220   1.600
 3709SOL    HW112026   1.168   1.262   1.513
 3709SOL    HW212027   1.248   1.140   1.585
 3710SOL     OW12028   1.102   4.257   5.024
 3710SOL    HW112029   1.082   4.326   5.094
 3710SOL    HW212030   1.019   4.204   5.005
 3711SOL     OW12031   1.204   5.491   4.578
 3711SOL    HW112032   1.302   5.473   4.571
 3711SOL    HW212033   1.159   5.415   4.624
 3712SOL     OW12034   2.418   5.660   4.396
 3712SOL    HW112035   2.435   5.592   4.325
 3712SOL    HW212036   2.505   5.696   4.429
 3713SOL     OW12037   5.875   0.707   4.508
 3713SOL    HW112038   5.862   0.615   4.546
 3713SOL    HW212039   5.786   0.753   4.502
 3714SOL     OW12040   0.392   4.228   0.498
 3714SOL    HW112041   0.331   4.232   0.577
 3714SOL    HW212042   0.487   4.235   0.529
 3715SOL     OW12043   5.859   4.613   3.561
 3715SOL    HW112044   5.816   4.699   3.586
 3715SOL    HW212045   5.857   4.601   3.461
 3716SOL     OW12046   5.597   5.902   4.861
 3716SOL    HW112047   5.620   5.959   4.782
 3716SOL    HW212048   5.559   5.815   4.829
 3717SOL     OW12049   4.701   0.685   0.535
 3717SOL    HW112050   4.740   0.723   0.452
 3717SOL    HW212051   4.763   0.701   0.612
 3718SOL     OW12052   5.969   6.605   6.624
 3718SOL    HW112053   6.033   6.668   6.580
 3718SOL    HW212054   5.889   6.656   6.656
 3719SOL     OW12055   3.215   3.911   0.288
 3719SOL    HW112056   3.257   4.001   0.285
 3719SOL    HW212057   3.116   3.919   0.272
 3720SOL     OW12058   0.349   3.063   0.893
 3720SOL    HW112059   0.278   3.006   0.936
 3720SOL    HW212060   0.313   3.154   0.876
 3721SOL     OW12061   6.362   6.948   5.839
 3721SOL    HW112062   6.410   6.868   5.805
 3721SOL    HW212063   6.302   6.922   5.915
 3722SOL     OW12064   5.712   0.048   2.166
 3722SOL    HW112065   5.794   0.006   2.127
 3722SOL    HW212066   5.681   7.010   2.245
 3723SOL     OW12067   4.598   3.277   6.528
 3723SOL    HW112068   4.502   3.248   6.529
 3723SOL    HW212069   4.610   3.350   6.461
 3724SOL     OW12070   0.511   4.099   4.258
 3724SOL    HW112071   0.575   4.174   4.244
 3724SOL    HW212072   0.533   4.051   4.343
 3725SOL     OW12073   1.617   6.277   0.563
 3725SOL    HW112074   1.548   6.230   0.618
 3725SOL    HW212075   1.652   6.355   0.614
 3726SOL     OW12076   6.111   4.195   5.700
 3726SOL    HW112077   6.185   4.216   5.636
 3726SOL    HW212078   6.083   4.279   5.747
 3727SOL     OW12079   6.689   2.739   4.108
 3727SOL    HW112080   6.618   2.733   4.039
 3727SOL    HW212081   6.657   2.797   4.183
 3728SOL     OW12082   2.454   4.241   0.748
 3728SOL    HW112083   2.362   4.202   0.746
 3728SOL    HW212084   2.513   4.185   0.806
 3729SOL     OW12085   0.007   0.621   5.437
 3729SOL    HW112086   0.022   0.703   5.381
 3729SOL    HW212087   0.061   0.545   5.401
 3730SOL     OW12088   5.114   5.429   4.754
 3730SOL    HW112089   5.057   5.405   4.676
 3730SOL    HW212090   5.151   5.345   4.795
 3731SOL     OW12091   6.938   1.935   0.399
 3731SOL    HW112092   6.969   2.019   0.355
 3731SOL    HW212093   7.003   1.910   0.472
 3732SOL     OW12094   3.630   3.088   6.858
 3732SOL    HW112095   3.722   3.056   6.835
 3732SOL    HW212096   3.633   3.139   6.944
 3733SOL     OW12097   1.343   0.315   3.944
 3733SOL    HW112098   1.406   0.385   3.976
 3733SOL    HW212099   1.339   0.316   3.844
 3734SOL     OW12100   3.837   0.417   1.182
 3734SOL    HW112101   3.863   0.363   1.102
 3734SOL    HW212102   3.771   0.365   1.237
 3735SOL     OW12103   4.545   0.230   2.986
 3735SOL    HW112104   4.588   0.248   2.898
 3735SOL    HW212105   4.459   0.180   2.972
 3736SOL     OW12106   0.139   1.265   6.786
 3736SOL    HW112107   0.077   1.326   6.736
 3736SOL    HW212108   0.169   1.309   6.871
 3737SOL     OW12109   5.910   1.885   2.459
 3737SOL    HW112110   5.934   1.973   2.500
 3737SOL    HW212111   5.991   1.828   2.454
 3738SOL     OW12112   0.154   0.360   1.356
 3738SOL    HW112113   0.062   0.383   1.324
 3738SOL    HW212114   0.154   0.269   1.397
 3739SOL     OW12115   3.293   3.701   6.721
 3739SOL    HW112116   3.330   3.626   6.776
 3739SOL    HW212117   3.209   3.670   6.677
 3740SOL     OW12118   4.593   5.657   0.077
 3740SOL    HW112119   4.551   5.729   0.022
 3740SOL    HW212120   4.659   5.697   0.140
 3741SOL     OW12121   5.586   3.229   0.444
 3741SOL    HW112122   5.538   3.172   0.378
 3741SOL    HW212123   5.631   3.171   0.512
 3742SOL     OW12124   4.496   5.852   1.184
 3742SOL    HW112125   4.464   5.896   1.268
 3742SOL    HW212126   4.420   5.849   1.118
 3743SOL     OW12127   3.588   4.142   1.160
 3743SOL    HW112128   3.585   4.165   1.063
 3743SOL    HW212129   3.502   4.099   1.186
 3744SOL     OW12130   6.600   6.478   2.508
 3744SOL    HW112131   6.665   6.543   2.469
 3744SOL    HW212132   6.593   6.492   2.607
 3745SOL     OW12133   4.775   2.689   2.462
 3745SOL    HW112134   4.744   2.777   2.426
 3745SOL    HW212135   4.875   2.682   2.451
 3746SOL     OW12136   6.315   0.633   4.628
 3746SOL    HW112137   6.372   0.693   4.572
 3746SOL    HW212138   6.293   0.550   4.575
 3747SOL     OW12139   3.480   5.789   5.468
 3747SOL    HW112140   3.488   5.888   5.454
 3747SOL    HW212141   3.438   5.772   5.557
 3748SOL     OW12142   5.247   2.486   3.654
 3748SOL    HW112143   5.346   2.475   3.665
 3748SOL    HW212144   5.225   2.584   3.649
 3749SOL     OW12145   6.527   6.226   2.394
 3749SOL    HW112146   6.583   6.146   2.417
 3749SOL    HW212147   6.569   6.308   2.431
 3750SOL     OW12148   5.298   3.965   0.924
 3750SOL    HW112149   5.243   3.967   1.007
 3750SOL    HW212150   5.317   3.870   0.898
 3751SOL     OW12151   1.098   4.197   1.948
 3751SOL    HW112152   1.109   4.247   2.034
 3751SOL    HW212153   1.084   4.100   1.967
 3752SOL     OW12154   0.488   6.133   5.955
 3752SOL    HW112155   0.492   6.065   5.882
 3752SOL    HW212156   0.492   6.225   5.916
 3753SOL     OW12157   0.007   0.979   4.690
 3753SOL    HW112158   0.081   0.929   4.735
 3753SOL    HW212159   0.042   1.068   4.659
 3754SOL     OW12160   6.624   6.156   1.792
 3754SOL    HW112161   6.564   6.226   1.830
 3754SOL    HW212162   6.674   6.111   1.867
 3755SOL     OW12163   5.446   2.888   2.797
 3755SOL    HW112164   5.411   2.967   2.746
 3755SOL    HW212165   5.371   2.843   2.844
 3756SOL     OW12166   3.201   0.031   6.729
 3756SOL    HW112167   3.221   0.111   6.673
 3756SOL    HW212168   3.277   0.015   6.792
 3757SOL     OW12169   3.548   4.584   6.783
 3757SOL    HW112170   3.600   4.516   6.731
 3757SOL    HW212171   3.481   4.539   6.840
 3758SOL     OW12172   0.145   0.443   3.010
 3758SOL    HW112173   0.241   0.469   3.002
 3758SOL    HW212174   0.086   0.516   2.976
 3759SOL     OW12175   4.802   5.077   0.474
 3759SOL    HW112176   4.860   5.149   0.511
 3759SOL    HW212177   4.714   5.115   0.445
 3760SOL     OW12178   2.268   2.285   5.555
 3760SOL    HW112179   2.360   2.322   5.569
 3760SOL    HW212180   2.240   2.233   5.635
 3761SOL     OW12181   0.343   6.789   4.332
 3761SOL    HW112182   0.321   6.697   4.300
 3761SOL    HW212183   0.391   6.783   4.420
 3762SOL     OW12184   0.527   3.720   6.999
 3762SOL    HW112185   0.499   3.626   6.980
 3762SOL    HW212186   0.465   3.760   0.051
 3763SOL     OW12187   6.539   3.808   6.117
 3763SOL    HW112188   6.531   3.822   6.215
 3763SOL    HW212189   6.450   3.821   6.074
 3764SOL     OW12190   2.641   6.916   4.134
 3764SOL    HW112191   2.564   6.918   4.198
 3764SOL    HW212192   2.703   6.992   4.153
 3765SOL     OW12193   6.383   1.440   3.300
 3765SOL    HW112194   6.378   1.540   3.307
 3765SOL    HW212195   6.313   1.408   3.236
 3766SOL     OW12196   1.450   0.337   4.894
 3766SOL    HW112197   1.519   0.308   4.827
 3766SOL    HW212198   1.445   0.437   4.894
 3767SOL     OW12199   1.623   4.052   0.859
 3767SOL    HW112200   1.623   4.103   0.773
 3767SOL    HW212201   1.661   4.109   0.932
 3768SOL     OW12202   4.687   6.423   1.119
 3768SOL    HW112203   4.710   6.391   1.027
 3768SOL    HW212204   4.698   6.348   1.184
 3769SOL     OW12205   4.410   6.664   4.853
 3769SOL    HW112206   4.510   6.673   4.856
 3769SOL    HW212207   4.380   6.604   4.927
 3770SOL     OW12208   2.363   1.157   0.598
 3770SOL    HW112209   2.299   1.114   0.534
 3770SOL    HW212210   2.312   1.198   0.674
 3771SOL     OW12211   4.894   1.487   5.149
 3771SOL    HW112212   4.873   1.455   5.056
 3771SOL    HW212213   4.848   1.427   5.215
 3772SOL     OW12214   4.805   1.088   2.881
 3772SOL    HW112215   4.865   1.010   2.897
 3772SOL    HW212216   4.860   1.170   2.867
 3773SOL     OW12217   6.608   2.148   0.064
 3773SOL    HW112218   6.664   2.172   7.000
 3773SOL    HW212219   6.547   2.072   0.040
 3774SOL     OW12220   0.755   1.788   1.964
 3774SOL    HW112221   0.780   1.702   2.008
 3774SOL    HW212222   0.713   1.849   2.031
 3775SOL     OW12223   5.852   2.804   3.472
 3775SOL    HW112224   5.919   2.816   3.546
 3775SOL    HW212225   5.835   2.892   3.428
 3776SOL     OW12226   3.092   2.702   6.813
 3776SOL    HW112227   3.180   2.655   6.819
 3776SOL    HW212228   3.023   2.652   6.866
 3777SOL     OW12229   1.610   4.100   3.440
 3777SOL    HW112230   1.651   4.185   3.406
 3777SOL    HW212231   1.613   4.100   3.540
 3778SOL     OW12232   2.272   6.711   2.020
 3778SOL    HW112233   2.247   6.775   2.093
 3778SOL    HW212234   2.371   6.711   2.007
 3779SOL     OW12235   3.010   5.184   6.877
 3779SOL    HW112236   3.092   5.129   6.865
 3779SOL    HW212237   2.973   5.171   6.969
 3780SOL     OW12238   2.512   0.101   4.780
 3780SOL    HW112239   2.513   0.076   4.683
 3780SOL    HW212240   2.488   0.198   4.789
 3781SOL     OW12241   2.779   5.294   4.720
 3781SOL    HW112242   2.795   5.325   4.814
 3781SOL    HW212243   2.767   5.195   4.719
 3782SOL     OW12244   2.459   1.413   3.054
 3782SOL    HW112245   2.496   1.492   3.006
 3782SOL    HW212246   2.368   1.392   3.018
 3783SOL     OW12247   4.851   5.749   5.812
 3783SOL    HW112248   4.834   5.659   5.771
 3783SOL    HW212249   4.916   5.799   5.755
 3784SOL     OW12250   4.742   1.611   3.767
 3784SOL    HW112251   4.801   1.677   3.813
 3784SOL    HW212252   4.798   1.538   3.727
 3785SOL     OW12253   1.248   1.528   1.690
 3785SOL    HW112254   1.175   1.462   1.671
 3785SOL    HW212255   1.323   1.513   1.626
 3786SOL     OW12256   3.599   5.486   2.856
 3786SOL    HW112257   3.505   5.475   2.888
 3786SOL    HW212258   3.624   5.583   2.858
 3787SOL     OW12259   4.137   1.178   4.557
 3787SOL    HW112260   4.135   1.140   4.649
 3787SOL    HW212261   4.112   1.275   4.561
 3788SOL     OW12262   5.721   3.718   2.014
 3788SOL    HW112263   5.632   3.719   2.061
 3788SOL    HW212264   5.707   3.706   1.916
 3789SOL     OW12265   1.188   5.183   2.667
 3789SOL    HW112266   1.264   5.127   2.701
 3789SOL    HW212267   1.150   5.141   2.585
 3790SOL     OW12268   2.267   2.957   3.747
 3790SOL    HW112269   2.177   2.946   3.790
 3790SOL    HW212270   2.331   2.891   3.786
 3791SOL     OW12271   5.610   0.234   2.430
 3791SOL    HW112272   5.511   0.218   2.439
 3791SOL    HW212273   5.628   0.332   2.440
 3792SOL     OW12274   6.885   6.821   6.430
 3792SOL    HW112275   6.882   6.781   6.339
 3792SOL    HW212276   6.980   6.822   6.463
 3793SOL     OW12277   2.222   6.359   2.944
 3793SOL    HW112278   2.251   6.393   3.033
 3793SOL    HW212279   2.124   6.338   2.946
 3794SOL     OW12280   4.122   6.011   2.426
 3794SOL    HW112281   4.075   6.093   2.393
 3794SOL    HW212282   4.138   6.020   2.525
 3795SOL     OW12283   4.791   0.466   0.901
 3795SOL    HW112284   4.733   0.460   0.819
 3795SOL    HW212285   4.876   0.416   0.885
 3796SOL     OW12286   1.857   2.692   1.245
 3796SOL    HW112287   1.897   2.602   1.263
 3796SOL    HW212288   1.856   2.745   1.330
 3797SOL     OW12289   0.338   5.471   2.513
 3797SOL    HW112290   0.250   5.423   2.520
 3797SOL    HW212291   0.329   5.547   2.449
 3798SOL     OW12292   1.018   4.306   1.562
 3798SOL    HW112293   0.928   4.316   1.518
 3798SOL    HW212294   1.090   4.330   1.497
 3799SOL     OW12295   1.477   0.498   5.344
 3799SOL    HW112296   1.529   0.521   5.262
 3799SOL    HW212297   1.468   0.579   5.402
 3800SOL     OW12298   5.159   2.306   5.227
 3800SOL    HW112299   5.126   2.233   5.285
 3800SOL    HW212300   5.106   2.389   5.244
 3801SOL     OW12301   6.898   0.228   6.604
 3801SOL    HW112302   6.965   0.178   6.550
 3801SOL    HW212303   6.902   0.325   6.581
 3802SOL     OW12304   1.289   2.327   5.824
 3802SOL    HW112305   1.371   2.324   5.767
 3802SOL    HW212306   1.311   2.373   5.911
 3803SOL     OW12307   3.838   1.459   1.123
 3803SOL    HW112308   3.909   1.428   1.187
 3803SOL    HW212309   3.825   1.558   1.135
 3804SOL     OW12310   4.556   2.814   5.152
 3804SOL    HW112311   4.586   2.843   5.062
 3804SOL    HW212312   4.511   2.725   5.146
 3805SOL     OW12313   2.153   3.791   1.295
 3805SOL    HW112314   2.203   3.873   1.323
 3805SOL    HW212315   2.154   3.724   1.369
 3806SOL     OW12316   3.117   1.487   0.575
 3806SOL    HW112317   3.048   1.487   0.502
 3806SOL    HW212318   3.075   1.521   0.659
 3807SOL     OW12319   1.266   6.728   2.975
 3807SOL    HW112320   1.319   6.646   2.953
 3807SOL    HW212321   1.329   6.805   2.988
 3808SOL     OW12322   3.267   0.289   0.269
 3808SOL    HW112323   3.357   0.278   0.312
 3808SOL    HW212324   3.201   0.321   0.337
 3809SOL     OW12325   4.693   0.317   6.355
 3809SOL    HW112326   4.772   0.257   6.342
 3809SOL    HW212327   4.655   0.302   6.446
 3810SOL     OW12328   2.661   3.097   5.632
 3810SOL    HW112329   2.674   3.074   5.728
 3810SOL    HW212330   2.748   3.129   5.593
 3811SOL     OW12331   0.134   0.600   6.108
 3811SOL    HW112332   0.206   0.669   6.114
 3811SOL    HW212333   0.175   0.509   6.109
 3812SOL     OW12334   5.505   1.460   5.401
 3812SOL    HW112335   5.544   1.398   5.469
 3812SOL    HW212336   5.412   1.431   5.378
 3813SOL     OW12337   3.876   4.864   1.956
 3813SOL    HW112338   3.929   4.786   1.990
 3813SOL    HW212339   3.781   4.855   1.984
 3814SOL     OW12340   1.555   6.506   2.343
 3814SOL    HW112341   1.572   6.476   2.250
 3814SOL    HW212342   1.457   6.511   2.360
 3815SOL     OW12343   5.675   2.111   1.705
 3815SOL    HW112344   5.692   2.027   1.757
 3815SOL    HW212345   5.592   2.100   1.651
 3816SOL     OW12346   0.528   6.396   1.426
 3816SOL    HW112347   0.484   6.382   1.337
 3816SOL    HW212348   0.553   6.308   1.465
 3817SOL     OW12349   5.208   1.432   5.318
 3817SOL    HW112350   5.171   1.482   5.396
 3817SOL    HW212351   5.217   1.494   5.240
 3818SOL     OW12352   4.982   5.417   2.733
 3818SOL    HW112353   5.033   5.462   2.806
 3818SOL    HW212354   4.900   5.470   2.712
 3819SOL     OW12355   5.704   4.518   5.953
 3819SOL    HW112356   5.801   4.541   5.948
 3819SOL    HW212357   5.694   4.419   5.966
 3820SOL     OW12358   5.346   6.094   4.341
 3820SOL    HW112359   5.382   6.159   4.273
 3820SOL    HW212360   5.388   6.005   4.327
 3821SOL     OW12361   0.984   3.888   0.916
 3821SOL    HW112362   0.973   3.971   0.970
 3821SOL    HW212363   0.894   3.849   0.896
 3822SOL     OW12364   1.325   4.782   1.771
 3822SOL    HW112365   1.360   4.695   1.737
 3822SOL    HW212366   1.285   4.769   1.861
 3823SOL     OW12367   2.448   2.614   5.406
 3823SOL    HW112368   2.409   2.705   5.399
 3823SOL    HW212369   2.541   2.619   5.444
 3824SOL     OW12370   6.618   2.394   6.663
 3824SOL    HW112371   6.524   2.428   6.658
 3824SOL    HW212372   6.631   2.322   6.595
 3825SOL     OW12373   6.354   6.503   6.138
 3825SOL    HW112374   6.451   6.497   6.164
 3825SOL    HW212375   6.314   6.586   6.176
 3826SOL     OW12376   6.531   2.124   0.883
 3826SOL    HW112377   6.527   2.110   0.784
 3826SOL    HW212378   6.440   2.117   0.922
 3827SOL     OW12379   5.066   2.685   1.142
 3827SOL    HW112380   5.057   2.769   1.195
 3827SOL    HW212381   4.995   2.620   1.169
 3828SOL     OW12382   4.143   1.199   1.829
 3828SOL    HW112383   4.187   1.115   1.858
 3828SOL    HW212384   4.148   1.207   1.729
 3829SOL     OW12385   1.119   5.481   3.954
 3829SOL    HW112386   1.165   5.465   4.041
 3829SOL    HW212387   1.030   5.435   3.955
 3830SOL     OW12388   3.252   0.944   4.952
 3830SOL    HW112389   3.297   0.987   5.030
 3830SOL    HW212390   3.154   0.963   4.954
 3831SOL     OW12391   4.342   1.989   2.477
 3831SOL    HW112392   4.307   2.082   2.472
 3831SOL    HW212393   4.442   1.992   2.487
 3832SOL     OW12394   5.340   0.193   2.474
 3832SOL    HW112395   5.306   0.135   2.400
 3832SOL    HW212396   5.276   0.268   2.490
 3833SOL     OW12397   1.826   6.034   0.476
 3833SOL    HW112398   1.850   6.043   0.379
 3833SOL    HW212399   1.792   6.122   0.509
 3834SOL     OW12400   2.659   2.271   0.908
 3834SOL    HW112401   2.681   2.303   1.000
 3834SOL    HW212402   2.716   2.319   0.841
 3835SOL     OW12403   3.350   5.762   4.354
 3835SOL    HW112404   3.439   5.739   4.316
 3835SOL    HW212405   3.300   5.679   4.377
 3836SOL     OW12406   1.783   3.384   5.295
 3836SOL    HW112407   1.864   3.441   5.283
 3836SOL    HW212408   1.761   3.339   5.208
 3837SOL     OW12409   3.079   3.611   0.265
 3837SOL    HW112410   2.996   3.566   0.235
 3837SOL    HW212411   3.099   3.688   0.205
 3838SOL     OW12412   5.791   3.407   5.281
 3838SOL    HW112413   5.708   3.381   5.331
 3838SOL    HW212414   5.857   3.444   5.345
 3839SOL     OW12415   6.381   6.148   6.269
 3839SOL    HW112416   6.312   6.217   6.290
 3839SOL    HW212417   6.454   6.190   6.215
 3840SOL     OW12418   2.613   0.706   3.612
 3840SOL    HW112419   2.558   0.653   3.676
 3840SOL    HW212420   2.645   0.790   3.657
 3841SOL     OW12421   0.862   4.137   4.922
 3841SOL    HW112422   0.859   4.108   5.017
 3841SOL    HW212423   0.779   4.189   4.900
 3842SOL     OW12424   1.656   4.666   6.431
 3842SOL    HW112425   1.752   4.686   6.411
 3842SOL    HW212426   1.605   4.656   6.345
 3843SOL     OW12427   5.641   3.906   0.431
 3843SOL    HW112428   5.709   3.834   0.440
 3843SOL    HW212429   5.664   3.982   0.492
 3844SOL     OW12430   2.718   3.847   6.273
 3844SOL    HW112431   2.719   3.942   6.242
 3844SOL    HW212432   2.805   3.825   6.318
 3845SOL     OW12433   2.952   3.556   3.580
 3845SOL    HW112434   3.034   3.596   3.538
 3845SOL    HW212435   2.935   3.466   3.540
 3846SOL     OW12436   6.875   3.955   4.052
 3846SOL    HW112437   6.837   3.929   3.963
 3846SOL    HW212438   6.906   3.873   4.100
 3847SOL     OW12439   0.832   6.930   0.782
 3847SOL    HW112440   0.793   6.970   0.699
 3847SOL    HW212441   0.931   6.924   0.773
 3848SOL     OW12442   3.012   4.974   1.022
 3848SOL    HW112443   3.085   5.035   1.051
 3848SOL    HW212444   2.985   4.996   0.928
 3849SOL     OW12445   1.967   1.779   6.194
 3849SOL    HW112446   1.962   1.865   6.245
 3849SOL    HW212447   1.897   1.777   6.123
 3850SOL     OW12448   2.302   3.983   0.875
 3850SOL    HW112449   2.390   3.996   0.920
 3850SOL    HW212450   2.229   3.983   0.945
 3851SOL     OW12451   2.106   2.986   1.534
 3851SOL    HW112452   2.165   3.044   1.588
 3851SOL    HW212453   2.051   3.042   1.471
 3852SOL     OW12454   4.653   0.793   5.547
 3852SOL    HW112455   4.581   0.731   5.578
 3852SOL    HW212456   4.613   0.879   5.515
 3853SOL     OW12457   1.381   2.865   2.098
 3853SOL    HW112458   1.410   2.850   2.004
 3853SOL    HW212459   1.411   2.788   2.155
 3854SOL     OW12460   1.908   3.388   4.902
 3854SOL    HW112461   1.880   3.480   4.877
 3854SOL    HW212462   2.007   3.386   4.917
 3855SOL     OW12463   0.042   1.976   4.922
 3855SOL    HW112464   0.021   1.934   5.010
 3855SOL    HW212465   6.989   2.047   4.902
 3856SOL     OW12466   0.807   0.018   5.782
 3856SOL    HW112467   0.837   6.979   5.860
 3856SOL    HW212468   0.841   6.992   5.697
 3857SOL     OW12469   1.115   6.977   6.759
 3857SOL    HW112470   1.119   6.884   6.798
 3857SOL    HW212471   1.195   6.992   6.701
 3858SOL     OW12472   2.513   5.107   6.823
 3858SOL    HW112473   2.582   5.088   6.752
 3858SOL    HW212474   2.506   5.205   6.837
 3859SOL     OW12475   6.606   2.697   1.346
 3859SOL    HW112476   6.623   2.604   1.376
 3859SOL    HW212477   6.604   2.700   1.246
 3860SOL     OW12478   1.828   6.381   4.968
 3860SOL    HW112479   1.877   6.306   4.922
 3860SOL    HW212480   1.834   6.369   5.067
 3861SOL     OW12481   4.237   4.448   0.027
 3861SOL    HW112482   4.187   4.409   0.104
 3861SOL    HW212483   4.173   4.472   6.970
 3862SOL     OW12484   0.885   5.146   5.718
 3862SOL    HW112485   0.855   5.057   5.752
 3862SOL    HW212486   0.835   5.219   5.765
 3863SOL     OW12487   2.820   3.432   0.487
 3863SOL    HW112488   2.758   3.370   0.438
 3863SOL    HW212489   2.768   3.511   0.520
 3864SOL     OW12490   2.909   1.462   0.108
 3864SOL    HW112491   2.823   1.473   0.058
 3864SOL    HW212492   2.979   1.428   0.045
 3865SOL     OW12493   4.324   0.876   2.571
 3865SOL    HW112494   4.249   0.927   2.527
 3865SOL    HW212495   4.378   0.939   2.627
 3866SOL     OW12496   3.866   6.376   6.372
 3866SOL    HW112497   3.864   6.301   6.438
 3866SOL    HW212498   3.868   6.463   6.421
 3867SOL     OW12499   1.747   4.366   3.306
 3867SOL    HW112500   1.814   4.401   3.371
 3867SOL    HW212501   1.795   4.315   3.234
 3868SOL     OW12502   2.344   5.282   2.558
 3868SOL    HW112503   2.294   5.198   2.540
 3868SOL    HW212504   2.442   5.268   2.543
 3869SOL     OW12505   1.315   1.411   3.599
 3869SOL    HW112506   1.216   1.402   3.609
 3869SOL    HW212507   1.348   1.488   3.654
 3870SOL     OW12508   4.162   4.213   0.549
 3870SOL    HW112509   4.096   4.221   0.473
 3870SOL    HW212510   4.153   4.122   0.591
 3871SOL     OW12511   3.078   1.506   4.436
 3871SOL    HW112512   3.092   1.417   4.394
 3871SOL    HW212513   2.984   1.514   4.468
 3872SOL     OW12514   4.270   3.640   0.355
 3872SOL    HW112515   4.240   3.664   0.447
 3872SOL    HW212516   4.193   3.604   0.303
 3873SOL     OW12517   5.003   4.760   1.953
 3873SOL    HW112518   5.079   4.702   1.924
 3873SOL    HW212519   5.037   4.835   2.009
 3874SOL     OW12520   4.853   6.201   6.212
 3874SOL    HW112521   4.833   6.122   6.270
 3874SOL    HW212522   4.784   6.208   6.140
 3875SOL     OW12523   2.305   4.407   0.362
 3875SOL    HW112524   2.219   4.432   0.407
 3875SOL    HW212525   2.289   4.330   0.300
 3876SOL     OW12526   5.512   4.003   2.083
 3876SOL    HW112527   5.589   4.040   2.134
 3876SOL    HW212528   5.456   3.946   2.144
 3877SOL     OW12529   5.194   1.628   1.718
 3877SOL    HW112530   5.236   1.548   1.675
 3877SOL    HW212531   5.228   1.711   1.673
 3878SOL     OW12532   4.611   6.091   4.626
 3878SOL    HW112533   4.625   6.112   4.723
 3878SOL    HW212534   4.647   6.000   4.606
 3879SOL     OW12535   2.925   5.725   1.365
 3879SOL    HW112536   2.958   5.678   1.283
 3879SOL    HW212537   2.979   5.695   1.444
 3880SOL     OW12538   5.542   2.079   4.301
 3880SOL    HW112539   5.607   2.059   4.227
 3880SOL    HW212540   5.550   2.175   4.327
 3881SOL     OW12541   1.083   5.277   0.855
 3881SOL    HW112542   1.130   5.201   0.900
 3881SOL    HW212543   1.135   5.305   0.774
 3882SOL     OW12544   0.743   5.829   6.779
 3882SOL    HW112545   0.821   5.791   6.731
 3882SOL    HW212546   0.693   5.756   6.826
 3883SOL     OW12547   3.174   1.983   6.363
 3883SOL    HW112548   3.144   2.048   6.433
 3883SOL    HW212549   3.271   1.996   6.343
 3884SOL     OW12550   1.979   5.316   5.613
 3884SOL    HW112551   2.046   5.264   5.561
 3884SOL    HW212552   1.890   5.312   5.566
 3885SOL     OW12553   0.306   1.991   4.884
 3885SOL    HW112554   0.337   2.067   4.827
 3885SOL    HW212555   0.207   1.986   4.883
 3886SOL     OW12556   0.199   6.453   5.303
 3886SOL    HW112557   0.202   6.389   5.227
 3886SOL    HW212558   0.284   6.448   5.355
 3887SOL     OW12559   5.864   3.015   4.589
 3887SOL    HW112560   5.767   3.027   4.567
 3887SOL    HW212561   5.877   2.925   4.632
 3888SOL     OW12562   5.967   2.092   2.147
 3888SOL    HW112563   5.930   2.063   2.059
 3888SOL    HW212564   6.016   2.016   2.189
 3889SOL     OW12565   6.534   5.744   6.706
 3889SOL    HW112566   6.524   5.842   6.723
 3889SOL    HW212567   6.446   5.699   6.715
 3890SOL     OW12568   6.553   3.183   2.868
 3890SOL    HW112569   6.473   3.244   2.863
 3890SOL    HW212570   6.580   3.156   2.776
 3891SOL     OW12571   5.281   5.004   5.913
 3891SOL    HW112572   5.360   5.065   5.919
 3891SOL    HW212573   5.312   4.912   5.888
 3892SOL     OW12574   5.797   5.634   4.255
 3892SOL    HW112575   5.826   5.653   4.349
 3892SOL    HW212576   5.699   5.652   4.246
 3893SOL     OW12577   2.980   6.238   4.504
 3893SOL    HW112578   2.992   6.225   4.406
 3893SOL    HW212579   3.063   6.278   4.543
 3894SOL     OW12580   5.067   5.523   6.809
 3894SOL    HW112581   4.987   5.550   6.756
 3894SOL    HW212582   5.150   5.554   6.763
 3895SOL     OW12583   2.088   1.899   5.873
 3895SOL    HW112584   2.116   1.815   5.826
 3895SOL    HW212585   1.989   1.900   5.883
 3896SOL     OW12586   6.305   3.294   6.862
 3896SOL    HW112587   6.267   3.355   6.792
 3896SOL    HW212588   6.238   3.280   6.934
 3897SOL     OW12589   3.757   6.442   3.326
 3897SOL    HW112590   3.698   6.405   3.254
 3897SOL    HW212591   3.702   6.459   3.408
 3898SOL     OW12592   3.096   3.165   4.585
 3898SOL    HW112593   3.166   3.224   4.626
 3898SOL    HW212594   3.132   3.073   4.573
 3899SOL     OW12595   4.125   1.839   5.667
 3899SOL    HW112596   4.174   1.904   5.725
 3899SOL    HW212597   4.174   1.753   5.664
 3900SOL     OW12598   0.321   2.923   4.100
 3900SOL    HW112599   0.263   2.978   4.161
 3900SOL    HW212600   0.344   2.976   4.019
 3901SOL     OW12601   2.545   5.336   5.256
 3901SOL    HW112602   2.612   5.299   5.320
 3901SOL    HW212603   2.468   5.375   5.306
 3902SOL     OW12604   4.318   4.663   3.117
 3902SOL    HW112605   4.228   4.692   3.151
 3902SOL    HW212606   4.384   4.666   3.192
 3903SOL     OW12607   4.068   3.686   6.019
 3903SOL    HW112608   4.148   3.626   6.014
 3903SOL    HW212609   3.986   3.631   6.033
 3904SOL     OW12610   2.205   6.857   0.171
 3904SOL    HW112611   2.233   6.761   0.170
 3904SOL    HW212612   2.212   6.894   0.264
 3905SOL     OW12613   5.573   0.116   6.190
 3905SOL    HW112614   5.631   0.195   6.171
 3905SOL    HW212615   5.544   0.119   6.285
 3906SOL     OW12616   6.860   6.186   4.703
 3906SOL    HW112617   6.793   6.261   4.700
 3906SOL    HW212618   6.944   6.215   4.658
 3907SOL     OW12619   0.571   1.914   4.921
 3907SOL    HW112620   0.477   1.937   4.896
 3907SOL    HW212621   0.634   1.977   4.876
 3908SOL     OW12622   2.219   1.109   4.533
 3908SOL    HW112623   2.315   1.136   4.528
 3908SOL    HW212624   2.163   1.189   4.554
 3909SOL     OW12625   5.094   3.363   1.644
 3909SOL    HW112626   4.995   3.376   1.636
 3909SOL    HW212627   5.113   3.293   1.713
 3910SOL     OW12628   2.467   2.806   1.211
 3910SOL    HW112629   2.452   2.783   1.307
 3910SOL    HW212630   2.518   2.892   1.205
 3911SOL     OW12631   0.256   1.085   1.527
 3911SOL    HW112632   0.205   1.156   1.575
 3911SOL    HW212633   0.221   0.995   1.553
 3912SOL     OW12634   4.607   3.792   0.033
 3912SOL    HW112635   4.584   3.820   0.126
 3912SOL    HW212636   4.566   3.703   0.013
 3913SOL     OW12637   4.138   5.619   1.512
 3913SOL    HW112638   4.145   5.687   1.439
 3913SOL    HW212639   4.044   5.588   1.520
 3914SOL     OW12640   0.074   1.572   0.221
 3914SOL    HW112641   0.088   1.560   0.320
 3914SOL    HW212642   0.010   1.648   0.205
 3915SOL     OW12643   5.328   0.518   5.418
 3915SOL    HW112644   5.254   0.556   5.363
 3915SOL    HW212645   5.293   0.491   5.507
 3916SOL     OW12646   1.835   2.252   2.722
 3916SOL    HW112647   1.924   2.284   2.754
 3916SOL    HW212648   1.793   2.322   2.664
 3917SOL     OW12649   4.003   4.770   2.344
 3917SOL    HW112650   3.906   4.790   2.327
 3917SOL    HW212651   4.038   4.835   2.411
 3918SOL     OW12652   5.184   0.148   0.841
 3918SOL    HW112653   5.269   0.149   0.789
 3918SOL    HW212654   5.199   0.104   0.929
 3919SOL     OW12655   4.827   6.043   3.472
 3919SOL    HW112656   4.769   6.118   3.438
 3919SOL    HW212657   4.860   5.989   3.395
 3920SOL     OW12658   3.352   1.593   5.647
 3920SOL    HW112659   3.272   1.570   5.592
 3920SOL    HW212660   3.324   1.610   5.741
 3921SOL     OW12661   1.551   3.713   6.245
 3921SOL    HW112662   1.567   3.811   6.244
 3921SOL    HW212663   1.517   3.683   6.156
 3922SOL     OW12664   5.087   2.672   3.897
 3922SOL    HW112665   5.120   2.730   3.971
 3922SOL    HW212666   5.059   2.583   3.934
 3923SOL     OW12667   5.929   1.569   1.756
 3923SOL    HW112668   5.973   1.623   1.685
 3923SOL    HW212669   5.837   1.543   1.726
 3924SOL     OW12670   4.942   4.571   4.595
 3924SOL    HW112671   4.989   4.552   4.508
 3924SOL    HW212672   4.952   4.493   4.656
 3925SOL     OW12673   3.783   5.764   1.659
 3925SOL    HW112674   3.829   5.704   1.594
 3925SOL    HW212675   3.700   5.802   1.617
 3926SOL     OW12676   0.880   5.739   4.952
 3926SOL    HW112677   0.917   5.715   4.862
 3926SOL    HW212678   0.867   5.657   5.006
 3927SOL     OW12679   5.830   0.907   5.062
 3927SOL    HW112680   5.920   0.868   5.041
 3927SOL    HW212681   5.824   0.999   5.025
 3928SOL     OW12682   4.391   5.565   2.343
 3928SOL    HW112683   4.335   5.552   2.425
 3928SOL    HW212684   4.389   5.661   2.315
 3929SOL     OW12685   1.159   1.507   5.851
 3929SOL    HW112686   1.238   1.555   5.891
 3929SOL    HW212687   1.111   1.458   5.924
 3930SOL     OW12688   1.903   5.519   4.187
 3930SOL    HW112689   1.946   5.588   4.245
 3930SOL    HW212690   1.851   5.455   4.243
 3931SOL     OW12691   0.395   2.240   0.197
 3931SOL    HW112692   0.463   2.306   0.229
 3931SOL    HW212693   0.340   2.209   0.275
 3932SOL     OW12694   2.319   4.318   2.825
 3932SOL    HW112695   2.295   4.351   2.917
 3932SOL    HW212696   2.312   4.218   2.823
 3933SOL     OW12697   1.994   5.957   0.825
 3933SOL    HW112698   1.986   5.862   0.795
 3933SOL    HW212699   1.924   5.977   0.893
 3934SOL     OW12700   2.271   6.538   1.418
 3934SOL    HW112701   2.259   6.533   1.517
 3934SOL    HW212702   2.242   6.628   1.386
 3935SOL     OW12703   0.279   3.006   4.878
 3935SOL    HW112704   0.336   3.080   4.913
 3935SOL    HW212705   0.295   2.924   4.932
 3936SOL     OW12706   0.098   4.622   4.086
 3936SOL    HW112707   0.052   4.569   4.014
 3936SOL    HW212708   0.194   4.596   4.089
 3937SOL     OW12709   1.075   6.453   0.379
 3937SOL    HW112710   1.059   6.552   0.376
 3937SOL    HW212711   1.040   6.417   0.465
 3938SOL     OW12712   0.671   3.392   0.208
 3938SOL    HW112713   0.630   3.455   0.142
 3938SOL    HW212714   0.714   3.445   0.282
 3939SOL     OW12715   1.434   6.561   3.996
 3939SOL    HW112716   1.489   6.624   4.051
 3939SOL    HW212717   1.467   6.564   3.901
 3940SOL     OW12718   2.475   5.960   6.478
 3940SOL    HW112719   2.421   6.012   6.544
 3940SOL    HW212720   2.474   6.007   6.389
 3941SOL     OW12721   5.166   5.690   2.353
 3941SOL    HW112722   5.212   5.615   2.305
 3941SOL    HW212723   5.109   5.653   2.427
 3942SOL     OW12724   6.397   6.223   6.714
 3942SOL    HW112725   6.299   6.204   6.717
 3942SOL    HW212726   6.420   6.289   6.785
 3943SOL     OW12727   1.561   3.557   6.775
 3943SOL    HW112728   1.538   3.655   6.777
 3943SOL    HW212729   1.658   3.545   6.796
 3944SOL     OW12730   4.651   3.188   6.760
 3944SOL    HW112731   4.636   3.224   6.667
 3944SOL    HW212732   4.747   3.165   6.771
 3945SOL     OW12733   5.827   0.634   3.395
 3945SOL    HW112734   5.784   0.606   3.309
 3945SOL    HW212735   5.927   0.631   3.384
 3946SOL     OW12736   0.002   3.091   0.563
 3946SOL    HW112737   6.969   3.032   0.499
 3946SOL    HW212738   6.969   3.178   0.572
 3947SOL     OW12739   5.407   6.470   2.326
 3947SOL    HW112740   5.344   6.539   2.291
 3947SOL    HW212741   5.391   6.383   2.279
 3948SOL     OW12742   2.021   1.486   5.380
 3948SOL    HW112743   2.078   1.565   5.358
 3948SOL    HW212744   2.079   1.413   5.417
 3949SOL     OW12745   6.078   0.262   2.353
 3949SOL    HW112746   6.104   0.204   2.276
 3949SOL    HW212747   6.051   0.352   2.320
 3950SOL     OW12748   3.089   4.679   1.736
 3950SOL    HW112749   3.178   4.635   1.745
 3950SOL    HW212750   3.019   4.623   1.781
 3951SOL     OW12751   0.509   2.936   3.667
 3951SOL    HW112752   0.471   2.888   3.588
 3951SOL    HW212753   0.553   2.871   3.728
 3952SOL     OW12754   5.501   4.142   6.795
 3952SOL    HW112755   5.453   4.055   6.785
 3952SOL    HW212756   5.435   4.214   6.815
 3953SOL     OW12757   3.288   3.699   5.695
 3953SOL    HW112758   3.296   3.789   5.738
 3953SOL    HW212759   3.222   3.704   5.620
 3954SOL     OW12760   0.496   3.365   4.774
 3954SOL    HW112761   0.527   3.279   4.814
 3954SOL    HW212762   0.573   3.428   4.765
 3955SOL     OW12763   6.319   3.475   0.407
 3955SOL    HW112764   6.272   3.473   0.318
 3955SOL    HW212765   6.266   3.424   0.474
 3956SOL     OW12766   6.403   2.812   5.313
 3956SOL    HW112767   6.427   2.773   5.224
 3956SOL    HW212768   6.466   2.887   5.334
 3957SOL     OW12769   1.072   2.337   1.842
 3957SOL    HW112770   1.064   2.363   1.746
 3957SOL    HW212771   0.982   2.310   1.877
 3958SOL     OW12772   5.573   6.078   1.393
 3958SOL    HW112773   5.608   6.081   1.299
 3958SOL    HW212774   5.541   6.169   1.419
 3959SOL     OW12775   2.385   5.023   1.652
 3959SOL    HW112776   2.412   4.940   1.702
 3959SOL    HW212777   2.453   5.045   1.582
 3960SOL     OW12778   5.439   3.070   0.780
 3960SOL    HW112779   5.408   3.162   0.757
 3960SOL    HW212780   5.368   3.004   0.755
 3961SOL     OW12781   6.731   0.552   1.444
 3961SOL    HW112782   6.644   0.563   1.494
 3961SOL    HW212783   6.748   0.455   1.429
 3962SOL     OW12784   6.902   0.280   6.074
 3962SOL    HW112785   6.983   0.321   6.033
 3962SOL    HW212786   6.928   0.201   6.130
 3963SOL     OW12787   4.948   4.399   4.017
 3963SOL    HW112788   5.034   4.428   3.975
 3963SOL    HW212789   4.878   4.470   4.002
 3964SOL     OW12790   5.693   5.146   0.259
 3964SOL    HW112791   5.729   5.114   0.171
 3964SOL    HW212792   5.767   5.181   0.315
 3965SOL     OW12793   3.675   3.842   1.147
 3965SOL    HW112794   3.691   3.869   1.241
 3965SOL    HW212795   3.578   3.821   1.133
 3966SOL     OW12796   6.935   3.905   6.029
 3966SOL    HW112797   7.001   3.977   6.008
 3966SOL    HW212798   6.893   3.873   5.944
 3967SOL     OW12799   2.026   6.267   0.216
 3967SOL    HW112800   2.061   6.240   0.305
 3967SOL    HW212801   2.072   6.350   0.185
 3968SOL     OW12802   4.750   1.740   1.199
 3968SOL    HW112803   4.715   1.771   1.287
 3968SOL    HW212804   4.674   1.712   1.141
 3969SOL     OW12805   6.775   6.458   0.858
 3969SOL    HW112806   6.786   6.377   0.916
 3969SOL    HW212807   6.865   6.495   0.835
 3970SOL     OW12808   5.139   4.525   3.871
 3970SOL    HW112809   5.090   4.498   3.788
 3970SOL    HW212810   5.230   4.558   3.847
 3971SOL     OW12811   0.252   6.270   4.088
 3971SOL    HW112812   0.350   6.269   4.070
 3971SOL    HW212813   0.202   6.271   4.001
 3972SOL     OW12814   1.073   6.806   6.277
 3972SOL    HW112815   1.122   6.744   6.215
 3972SOL    HW212816   1.083   6.900   6.244
 3973SOL     OW12817   4.005   3.072   2.785
 3973SOL    HW112818   4.050   3.095   2.699
 3973SOL    HW212819   3.928   3.011   2.767
 3974SOL     OW12820   4.681   1.038   6.406
 3974SOL    HW112821   4.671   0.998   6.315
 3974SOL    HW212822   4.778   1.051   6.427
 3975SOL     OW12823   0.540   6.560   5.077
 3975SOL    HW112824   0.583   6.510   5.002
 3975SOL    HW212825   0.610   6.594   5.140
 3976SOL     OW12826   0.571   3.403   6.105
 3976SOL    HW112827   0.503   3.434   6.172
 3976SOL    HW212828   0.653   3.461   6.112
 3977SOL     OW12829   3.097   5.175   4.953
 3977SOL    HW112830   3.106   5.218   5.043
 3977SOL    HW212831   3.124   5.240   4.882
 3978SOL     OW12832   6.173   3.439   6.647
 3978SOL    HW112833   6.186   3.355   6.595
 3978SOL    HW212834   6.076   3.450   6.670
 3979SOL     OW12835   1.016   6.239   3.276
 3979SOL    HW112836   0.962   6.319   3.302
 3979SOL    HW212837   1.091   6.226   3.341
 3980SOL     OW12838   5.071   4.088   3.869
 3980SOL    HW112839   4.990   4.144   3.858
 3980SOL    HW212840   5.058   4.000   3.822
 3981SOL     OW12841   6.760   1.508   6.357
 3981SOL    HW112842   6.802   1.595   6.384
 3981SOL    HW212843   6.780   1.490   6.261
 3982SOL     OW12844   2.238   2.813   4.404
 3982SOL    HW112845   2.144   2.777   4.403
 3982SOL    HW212846   2.302   2.737   4.413
 3983SOL     OW12847   3.166   6.864   3.577
 3983SOL    HW112848   3.218   6.946   3.602
 3983SOL    HW212849   3.228   6.786   3.571
 3984SOL     OW12850   1.949   5.484   2.146
 3984SOL    HW112851   1.873   5.422   2.168
 3984SOL    HW212852   2.033   5.449   2.189
 3985SOL     OW12853   1.728   2.343   1.363
 3985SOL    HW112854   1.800   2.392   1.412
 3985SOL    HW212855   1.747   2.344   1.265
 3986SOL     OW12856   0.994   2.074   2.267
 3986SOL    HW112857   0.965   2.164   2.235
 3986SOL    HW212858   1.059   2.084   2.341
 3987SOL     OW12859   1.686   4.386   5.082
 3987SOL    HW112860   1.783   4.366   5.069
 3987SOL    HW212861   1.638   4.303   5.112
 3988SOL     OW12862   4.950   0.153   1.825
 3988SOL    HW112863   4.895   0.160   1.909
 3988SOL    HW212864   4.890   0.130   1.748
 3989SOL     OW12865   3.936   0.683   5.444
 3989SOL    HW112866   3.959   0.657   5.538
 3989SOL    HW212867   3.901   0.777   5.444
 3990SOL     OW12868   6.721   1.766   3.678
 3990SOL    HW112869   6.709   1.841   3.742
 3990SOL    HW212870   6.819   1.747   3.666
 3991SOL     OW12871   0.368   2.035   3.480
 3991SOL    HW112872   0.327   1.997   3.396
 3991SOL    HW212873   0.465   2.013   3.482
 3992SOL     OW12874   5.583   3.451   6.475
 3992SOL    HW112875   5.598   3.381   6.545
 3992SOL    HW212876   5.547   3.408   6.392
 3993SOL     OW12877   1.557   1.003   4.165
 3993SOL    HW112878   1.546   1.056   4.081
 3993SOL    HW212879   1.652   1.008   4.196
 3994SOL     OW12880   3.201   2.175   3.463
 3994SOL    HW112881   3.274   2.238   3.488
 3994SOL    HW212882   3.232   2.081   3.476
 3995SOL     OW12883   1.242   3.530   2.240
 3995SOL    HW112884   1.285   3.474   2.170
 3995SOL    HW212885   1.211   3.473   2.316
 3996SOL     OW12886   6.030   6.554   5.374
 3996SOL    HW112887   5.942   6.600   5.370
 3996SOL    HW212888   6.103   6.618   5.350
 3997SOL     OW12889   5.290   3.824   3.727
 3997SOL    HW112890   5.252   3.756   3.789
 3997SOL    HW212891   5.382   3.849   3.757
 3998SOL     OW12892   5.052   2.300   3.387
 3998SOL    HW112893   4.983   2.285   3.458
 3998SOL    HW212894   5.019   2.370   3.324
 3999SOL     OW12895   4.524   3.439   0.906
 3999SOL    HW112896   4.476   3.373   0.848
 3999SOL    HW212897   4.475   3.451   0.992
 4000SOL     OW12898   2.186   4.896   2.907
 4000SOL    HW112899   2.256   4.967   2.905
 4000SOL    HW212900   2.145   4.893   2.998
 4001SOL     OW12901   6.924   5.813   4.640
 4001SOL    HW112902   6.937   5.855   4.730
 4001SOL    HW212903   6.910   5.885   4.572
 4002SOL     OW12904   4.065   3.737   4.680
 4002SOL    HW112905   4.106   3.740   4.588
 4002SOL    HW212906   4.038   3.643   4.701
 4003SOL     OW12907   1.968   1.222   4.539
 4003SOL    HW112908   1.881   1.268   4.555
 4003SOL    HW212909   1.951   1.129   4.508
 4004SOL     OW12910   1.541   4.612   4.709
 4004SOL    HW112911   1.600   4.636   4.785
 4004SOL    HW212912   1.445   4.618   4.737
 4005SOL     OW12913   4.831   3.306   0.171
 4005SOL    HW112914   4.893   3.350   0.236
 4005SOL    HW212915   4.785   3.229   0.216
 4006SOL     OW12916   6.820   5.336   2.205
 4006SOL    HW112917   6.915   5.313   2.221
 4006SOL    HW212918   6.766   5.252   2.192
 4007SOL     OW12919   0.160   0.552   1.848
 4007SOL    HW112920   0.179   0.543   1.750
 4007SOL    HW212921   0.062   0.566   1.862
 4008SOL     OW12922   2.833   1.139   1.018
 4008SOL    HW112923   2.776   1.067   0.979
 4008SOL    HW212924   2.852   1.117   1.114
 4009SOL     OW12925   4.366   2.239   0.578
 4009SOL    HW112926   4.294   2.307   0.559
 4009SOL    HW212927   4.449   2.265   0.528
 4010SOL     OW12928   1.788   4.460   1.175
 4010SOL    HW112929   1.754   4.420   1.260
 4010SOL    HW212930   1.887   4.450   1.171
 4011SOL     OW12931   6.024   6.368   6.105
 4011SOL    HW112932   6.022   6.325   6.015
 4011SOL    HW212933   5.966   6.318   6.168
 4012SOL     OW12934   5.810   6.352   2.718
 4012SOL    HW112935   5.849   6.444   2.725
 4012SOL    HW212936   5.800   6.328   2.622
 4013SOL     OW12937   6.909   1.586   6.862
 4013SOL    HW112938   6.955   1.668   6.896
 4013SOL    HW212939   6.882   1.528   6.939
 4014SOL     OW12940   3.445   5.489   2.224
 4014SOL    HW112941   3.524   5.527   2.176
 4014SOL    HW212942   3.475   5.445   2.308
 4015SOL     OW12943   4.206   5.253   6.232
 4015SOL    HW112944   4.225   5.318   6.158
 4015SOL    HW212945   4.205   5.160   6.196
 4016SOL     OW12946   5.332   4.722   4.681
 4016SOL    HW112947   5.411   4.777   4.656
 4016SOL    HW212948   5.358   4.625   4.683
 4017SOL     OW12949   1.397   5.526   5.344
 4017SOL    HW112950   1.424   5.619   5.369
 4017SOL    HW212951   1.361   5.478   5.424
 4018SOL     OW12952   3.934   5.875   0.908
 4018SOL    HW112953   3.848   5.830   0.929
 4018SOL    HW212954   4.000   5.808   0.874
 4019SOL     OW12955   6.616   3.764   2.339
 4019SOL    HW112956   6.520   3.738   2.339
 4019SOL    HW212957   6.627   3.849   2.390
 4020SOL     OW12958   6.793   5.747   4.910
 4020SOL    HW112959   6.732   5.796   4.847
 4020SOL    HW212960   6.771   5.772   5.004
 4021SOL     OW12961   4.193   4.968   6.162
 4021SOL    HW112962   4.199   4.932   6.255
 4021SOL    HW212963   4.237   4.904   6.099
 4022SOL     OW12964   2.986   6.126   1.292
 4022SOL    HW112965   2.893   6.089   1.293
 4022SOL    HW212966   2.990   6.203   1.228
 4023SOL     OW12967   0.416   1.853   4.227
 4023SOL    HW112968   0.386   1.931   4.172
 4023SOL    HW212969   0.435   1.775   4.168
 4024SOL     OW12970   0.817   6.461   4.957
 4024SOL    HW112971   0.906   6.491   4.992
 4024SOL    HW212972   0.770   6.409   5.028
 4025SOL     OW12973   6.853   5.267   3.855
 4025SOL    HW112974   6.821   5.194   3.795
 4025SOL    HW212975   6.779   5.295   3.916
 4026SOL     OW12976   0.324   6.552   3.948
 4026SOL    HW112977   0.303   6.649   3.941
 4026SOL    HW212978   0.337   6.527   4.044
 4027SOL     OW12979   3.399   4.893   4.832
 4027SOL    HW112980   3.302   4.889   4.857
 4027SOL    HW212981   3.448   4.818   4.878
 4028SOL     OW12982   5.093   1.185   3.762
 4028SOL    HW112983   5.074   1.089   3.779
 4028SOL    HW212984   5.184   1.194   3.720
 4029SOL     OW12985   1.704   6.483   0.733
 4029SOL    HW112986   1.728   6.471   0.830
 4029SOL    HW212987   1.627   6.547   0.726
 4030SOL     OW12988   0.744   1.907   2.273
 4030SOL    HW112989   0.761   1.820   2.320
 4030SOL    HW212990   0.827   1.963   2.274
 4031SOL     OW12991   6.033   6.250   0.795
 4031SOL    HW112992   6.087   6.330   0.770
 4031SOL    HW212993   5.998   6.262   0.888
 4032SOL     OW12994   4.871   0.982   2.448
 4032SOL    HW112995   4.921   0.895   2.443
 4032SOL    HW212996   4.922   1.053   2.400
 4033SOL     OW12997   2.355   2.210   2.785
 4033SOL    HW112998   2.379   2.289   2.842
 4033SOL    HW212999   2.283   2.157   2.831
 4034SOL     OW13000   1.255   2.726   4.677
 4034SOL    HW113001   1.312   2.719   4.595
 4034SOL    HW213002   1.260   2.640   4.728
 4035SOL     OW13003   4.659   2.303   1.973
 4035SOL    HW113004   4.673   2.261   2.063
 4035SOL    HW213005   4.680   2.400   1.978
 4036SOL     OW13006   2.952   5.952   3.449
 4036SOL    HW113007   2.953   5.852   3.450
 4036SOL    HW213008   3.046   5.986   3.453
 4037SOL     OW13009   2.234   1.480   6.384
 4037SOL    HW113010   2.275   1.546   6.322
 4037SOL    HW213011   2.304   1.442   6.444
 4038SOL     OW13012   3.407   4.445   5.820
 4038SOL    HW113013   3.358   4.364   5.787
 4038SOL    HW213014   3.352   4.492   5.889
 4039SOL     OW13015   5.718   4.938   1.465
 4039SOL    HW113016   5.785   5.007   1.438
 4039SOL    HW213017   5.630   4.982   1.481
 4040SOL     OW13018   3.220   0.101   5.296
 4040SOL    HW113019   3.318   0.105   5.277
 4040SOL    HW213020   3.175   0.179   5.253
 4041SOL     OW13021   1.604   5.906   1.412
 4041SOL    HW113022   1.652   5.977   1.359
 4041SOL    HW213023   1.508   5.931   1.422
 4042SOL     OW13024   0.490   1.585   2.526
 4042SOL    HW113025   0.402   1.559   2.565
 4042SOL    HW213026   0.477   1.612   2.430
 4043SOL     OW13027   5.253   2.994   6.263
 4043SOL    HW113028   5.234   2.937   6.343
 4043SOL    HW213029   5.175   3.053   6.245
 4044SOL     OW13030   4.819   4.284   2.990
 4044SOL    HW113031   4.872   4.199   2.995
 4044SOL    HW213032   4.872   4.354   2.941
 4045SOL     OW13033   4.706   0.742   5.255
 4045SOL    HW113034   4.753   0.785   5.178
 4045SOL    HW213035   4.751   0.766   5.340
 4046SOL     OW13036   4.959   1.706   3.106
 4046SOL    HW113037   4.926   1.785   3.055
 4046SOL    HW213038   4.988   1.736   3.197
 4047SOL     OW13039   3.049   2.678   6.526
 4047SOL    HW113040   3.049   2.684   6.626
 4047SOL    HW213041   2.969   2.627   6.496
 4048SOL     OW13042   5.448   1.774   2.800
 4048SOL    HW113043   5.414   1.723   2.721
 4048SOL    HW213044   5.370   1.809   2.853
 4049SOL     OW13045   4.350   3.785   0.612
 4049SOL    HW113046   4.357   3.868   0.557
 4049SOL    HW213047   4.418   3.789   0.685
 4050SOL     OW13048   0.531   5.279   2.466
 4050SOL    HW113049   0.562   5.228   2.547
 4050SOL    HW213050   0.469   5.352   2.494
 4051SOL     OW13051   5.389   0.861   5.161
 4051SOL    HW113052   5.397   0.957   5.189
 4051SOL    HW213053   5.341   0.857   5.073
 4052SOL     OW13054   5.464   2.125   3.164
 4052SOL    HW113055   5.435   2.221   3.167
 4052SOL    HW213056   5.387   2.066   3.191
 4053SOL     OW13057   0.823   5.096   4.153
 4053SOL    HW113058   0.902   5.104   4.091
 4053SOL    HW213059   0.747   5.150   4.117
 4054SOL     OW13060   4.042   3.831   0.906
 4054SOL    HW113061   4.069   3.814   1.001
 4054SOL    HW213062   3.967   3.770   0.882
 4055SOL     OW13063   0.452   3.989   0.279
 4055SOL    HW113064   0.522   4.007   0.210
 4055SOL    HW213065   0.494   3.984   0.369
 4056SOL     OW13066   4.882   3.579   0.099
 4056SOL    HW113067   4.814   3.652   0.092
 4056SOL    HW213068   4.838   3.494   0.127
 4057SOL     OW13069   6.991   3.588   0.644
 4057SOL    HW113070   6.953   3.605   0.735
 4057SOL    HW213071   0.006   3.675   0.604
 4058SOL     OW13072   2.531   0.635   5.015
 4058SOL    HW113073   2.594   0.557   5.015
 4058SOL    HW213074   2.463   0.622   4.943
 4059SOL     OW13075   0.370   1.284   3.165
 4059SOL    HW113076   0.409   1.202   3.206
 4059SOL    HW213077   0.444   1.346   3.139
 4060SOL     OW13078   0.101   6.327   4.668
 4060SOL    HW113079   0.135   6.345   4.575
 4060SOL    HW213080   0.169   6.359   4.734
 4061SOL     OW13081   0.820   5.029   1.389
 4061SOL    HW113082   0.725   5.018   1.421
 4061SOL    HW213083   0.882   5.023   1.467
 4062SOL     OW13084   2.208   3.377   0.877
 4062SOL    HW113085   2.277   3.308   0.852
 4062SOL    HW213086   2.117   3.337   0.868
 4063SOL     OW13087   4.592   0.508   0.171
 4063SOL    HW113088   4.541   0.520   0.086
 4063SOL    HW213089   4.670   0.569   0.173
 4064SOL     OW13090   1.522   1.079   6.193
 4064SOL    HW113091   1.429   1.050   6.171
 4064SOL    HW213092   1.519   1.149   6.264
 4065SOL     OW13093   2.554   0.028   1.053
 4065SOL    HW113094   2.475   0.019   1.113
 4065SOL    HW213095   2.543   0.107   0.993
 4066SOL     OW13096   0.895   3.792   3.370
 4066SOL    HW113097   0.825   3.804   3.300
 4066SOL    HW213098   0.936   3.701   3.361
 4067SOL     OW13099   5.428   5.044   0.707
 4067SOL    HW113100   5.352   5.006   0.656
 4067SOL    HW213101   5.394   5.093   0.787
 4068SOL     OW13102   2.218   2.740   4.989
 4068SOL    HW113103   2.271   2.824   5.002
 4068SOL    HW213104   2.276   2.661   5.009
 4069SOL     OW13105   4.718   6.937   6.595
 4069SOL    HW113106   4.650   7.009   6.607
 4069SOL    HW213107   4.716   6.904   6.501
 4070SOL     OW13108   1.443   3.552   3.682
 4070SOL    HW113109   1.394   3.465   3.674
 4070SOL    HW213110   1.444   3.598   3.594
 4071SOL     OW13111   1.707   0.605   4.269
 4071SOL    HW113112   1.688   0.693   4.224
 4071SOL    HW213113   1.627   0.546   4.261
 4072SOL     OW13114   2.548   5.802   3.348
 4072SOL    HW113115   2.639   5.816   3.308
 4072SOL    HW213116   2.545   5.842   3.440
 4073SOL     OW13117   4.378   4.735   6.642
 4073SOL    HW113118   4.378   4.666   6.714
 4073SOL    HW213119   4.427   4.816   6.673
 4074SOL     OW13120   1.484   5.754   2.910
 4074SOL    HW113121   1.511   5.686   2.842
 4074SOL    HW213122   1.398   5.725   2.952
 4075SOL     OW13123   6.675   0.879   1.151
 4075SOL    HW113124   6.708   0.785   1.146
 4075SOL    HW213125   6.732   0.937   1.092
 4076SOL     OW13126   2.431   4.652   4.435
 4076SOL    HW113127   2.440   4.751   4.423
 4076SOL    HW213128   2.395   4.611   4.351
 4077SOL     OW13129   3.071   0.731   1.913
 4077SOL    HW113130   2.992   0.728   1.852
 4077SOL    HW213131   3.136   0.800   1.880
 4078SOL     OW13132   3.348   5.082   2.437
 4078SOL    HW113133   3.323   5.030   2.356
 4078SOL    HW213134   3.326   5.029   2.519
 4079SOL     OW13135   0.701   1.895   3.781
 4079SOL    HW113136   0.651   1.967   3.827
 4079SOL    HW213137   0.769   1.856   3.843
 4080SOL     OW13138   6.828   2.552   5.337
 4080SOL    HW113139   6.808   2.589   5.246
 4080SOL    HW213140   6.922   2.518   5.339
 4081SOL     OW13141   1.997   3.339   3.717
 4081SOL    HW113142   1.902   3.336   3.684
 4081SOL    HW213143   1.998   3.362   3.814
 4082SOL     OW13144   0.688   3.325   1.030
 4082SOL    HW113145   0.664   3.241   0.981
 4082SOL    HW213146   0.677   3.404   0.969
 4083SOL     OW13147   6.072   3.189   4.497
 4083SOL    HW113148   6.081   3.256   4.571
 4083SOL    HW213149   5.985   3.141   4.506
 4084SOL     OW13150   0.025   1.523   4.039
 4084SOL    HW113151   6.989   1.528   3.953
 4084SOL    HW213152   0.061   1.614   4.061
 4085SOL     OW13153   2.712   6.401   0.424
 4085SOL    HW113154   2.723   6.304   0.404
 4085SOL    HW213155   2.762   6.423   0.508
 4086SOL     OW13156   1.189   4.689   0.745
 4086SOL    HW113157   1.094   4.687   0.776
 4086SOL    HW213158   1.249   4.706   0.823
 4087SOL     OW13159   2.119   1.707   2.979
 4087SOL    HW113160   2.105   1.757   2.894
 4087SOL    HW213161   2.101   1.767   3.057
 4088SOL     OW13162   6.658   1.908   0.729
 4088SOL    HW113163   6.592   1.847   0.685
 4088SOL    HW213164   6.661   1.888   0.827
 4089SOL     OW13165   1.064   1.667   5.634
 4089SOL    HW113166   1.118   1.625   5.707
 4089SOL    HW213167   1.041   1.599   5.565
 4090SOL     OW13168   1.980   5.083   5.798
 4090SOL    HW113169   2.060   5.058   5.852
 4090SOL    HW213170   1.986   5.180   5.773
 4091SOL     OW13171   4.338   6.252   0.220
 4091SOL    HW113172   4.247   6.261   0.261
 4091SOL    HW213173   4.363   6.155   0.214
 4092SOL     OW13174   0.234   2.413   4.666
 4092SOL    HW113175   0.157   2.415   4.603
 4092SOL    HW213176   0.230   2.493   4.726
 4093SOL     OW13177   5.728   0.664   4.922
 4093SOL    HW113178   5.807   0.602   4.926
 4093SOL    HW213179   5.752   0.750   4.967
 4094SOL     OW13180   2.923   4.336   5.308
 4094SOL    HW113181   2.903   4.419   5.254
 4094SOL    HW213182   2.965   4.268   5.248
 4095SOL     OW13183   1.739   4.126   5.945
 4095SOL    HW113184   1.734   4.112   5.846
 4095SOL    HW213185   1.834   4.140   5.972
 4096SOL     OW13186   4.062   4.708   2.062
 4096SOL    HW113187   4.162   4.698   2.060
 4096SOL    HW213188   4.032   4.723   2.157
 4097SOL     OW13189   2.939   3.327   4.418
 4097SOL    HW113190   3.004   3.280   4.477
 4097SOL    HW213191   2.965   3.423   4.410
 4098SOL     OW13192   0.508   2.289   2.532
 4098SOL    HW113193   0.510   2.200   2.576
 4098SOL    HW213194   0.559   2.286   2.446
 4099SOL     OW13195   3.476   6.340   1.779
 4099SOL    HW113196   3.456   6.425   1.827
 4099SOL    HW213197   3.555   6.354   1.720
 4100SOL     OW13198   3.616   6.333   3.115
 4100SOL    HW113199   3.525   6.318   3.075
 4100SOL    HW213200   3.685   6.327   3.043
 4101SOL     OW13201   4.411   0.889   6.250
 4101SOL    HW113202   4.487   0.825   6.238
 4101SOL    HW213203   4.331   0.840   6.286
 4102SOL     OW13204   5.588   1.458   0.686
 4102SOL    HW113205   5.575   1.552   0.656
 4102SOL    HW213206   5.627   1.404   0.612
 4103SOL     OW13207   0.255   0.236   2.621
 4103SOL    HW113208   0.287   0.220   2.714
 4103SOL    HW213209   0.307   0.181   2.557
 4104SOL     OW13210   1.539   4.555   2.523
 4104SOL    HW113211   1.510   4.463   2.498
 4104SOL    HW213212   1.505   4.621   2.456
 4105SOL     OW13213   5.265   5.570   0.280
 4105SOL    HW113214   5.318   5.649   0.248
 4105SOL    HW213215   5.307   5.486   0.246
 4106SOL     OW13216   6.937   3.761   4.855
 4106SOL    HW113217   6.942   3.838   4.791
 4106SOL    HW213218   6.858   3.704   4.832
 4107SOL     OW13219   6.990   1.045   1.396
 4107SOL    HW113220   0.036   0.967   1.406
 4107SOL    HW213221   0.028   1.128   1.381
 4108SOL     OW13222   6.790   3.024   5.337
 4108SOL    HW113223   6.879   2.985   5.361
 4108SOL    HW213224   6.799   3.123   5.321
 4109SOL     OW13225   3.346   6.501   3.320
 4109SOL    HW113226   3.427   6.527   3.268
 4109SOL    HW213227   3.312   6.580   3.371
 4110SOL     OW13228   4.793   3.251   5.369
 4110SOL    HW113229   4.825   3.244   5.275
 4110SOL    HW213230   4.702   3.211   5.376
 4111SOL     OW13231   4.412   3.166   6.843
 4111SOL    HW113232   4.402   3.138   6.938
 4111SOL    HW213233   4.510   3.168   6.819
 4112SOL     OW13234   3.317   0.715   4.448
 4112SOL    HW113235   3.263   0.799   4.441
 4112SOL    HW213236   3.270   0.641   4.399
 4113SOL     OW13237   3.666   5.228   4.354
 4113SOL    HW113238   3.729   5.270   4.420
 4113SOL    HW213239   3.648   5.293   4.280
 4114SOL     OW13240   2.665   2.009   2.817
 4114SOL    HW113241   2.679   1.911   2.833
 4114SOL    HW213242   2.615   2.022   2.732
 4115SOL     OW13243   5.329   4.834   2.170
 4115SOL    HW113244   5.249   4.889   2.149
 4115SOL    HW213245   5.333   4.754   2.109
 4116SOL     OW13246   3.451   0.977   2.339
 4116SOL    HW113247   3.443   0.998   2.436
 4116SOL    HW213248   3.364   0.996   2.293
 4117SOL     OW13249   1.021   5.591   2.129
 4117SOL    HW113250   0.941   5.631   2.174
 4117SOL    HW213251   1.057   5.655   2.062
 4118SOL     OW13252   2.623   6.786   0.144
 4118SOL    HW113253   2.632   6.869   0.199
 4118SOL    HW213254   2.551   6.798   0.076
 4119SOL     OW13255   4.261   0.860   3.478
 4119SOL    HW113256   4.201   0.882   3.401
 4119SOL    HW213257   4.357   0.863   3.448
 4120SOL     OW13258   3.739   0.910   2.427
 4120SOL    HW113259   3.644   0.941   2.417
 4120SOL    HW213260   3.748   0.818   2.390
 4121SOL     OW13261   6.880   3.207   5.025
 4121SOL    HW113262   6.809   3.263   5.068
 4121SOL    HW213263   6.960   3.202   5.084
 4122SOL     OW13264   1.829   5.375   6.361
 4122SOL    HW113265   1.742   5.365   6.410
 4122SOL    HW213266   1.902   5.333   6.414
 4123SOL     OW13267   4.895   3.880   5.997
 4123SOL    HW113268   4.843   3.948   5.945
 4123SOL    HW213269   4.837   3.842   6.069
 4124SOL     OW13270   4.652   6.760   3.436
 4124SOL    HW113271   4.738   6.758   3.487
 4124SOL    HW213272   4.647   6.680   3.377
 4125SOL     OW13273   5.255   1.468   0.863
 4125SOL    HW113274   5.221   1.537   0.799
 4125SOL    HW213275   5.178   1.414   0.898
 4126SOL     OW13276   1.989   4.813   4.212
 4126SOL    HW113277   2.081   4.848   4.225
 4126SOL    HW213278   1.954   4.843   4.123
 4127SOL     OW13279   6.338   3.957   5.823
 4127SOL    HW113280   6.425   3.915   5.799
 4127SOL    HW213281   6.299   3.911   5.902
 4128SOL     OW13282   1.178   2.043   2.459
 4128SOL    HW113283   1.180   1.944   2.470
 4128SOL    HW213284   1.254   2.085   2.509
 4129SOL     OW13285   5.697   1.816   6.013
 4129SOL    HW113286   5.776   1.774   6.057
 4129SOL    HW213287   5.682   1.776   5.923
 4130SOL     OW13288   5.821   3.606   1.023
 4130SOL    HW113289   5.785   3.666   1.094
 4130SOL    HW213290   5.887   3.542   1.063
 4131SOL     OW13291   6.575   4.287   3.422
 4131SOL    HW113292   6.506   4.214   3.421
 4131SOL    HW213293   6.639   4.274   3.347
 4132SOL     OW13294   5.090   2.169   4.178
 4132SOL    HW113295   4.993   2.174   4.204
 4132SOL    HW213296   5.114   2.074   4.159
 4133SOL     OW13297   2.794   2.024   0.934
 4133SOL    HW113298   2.818   2.083   1.011
 4133SOL    HW213299   2.726   2.069   0.877
 4134SOL     OW13300   1.191   1.754   7.010
 4134SOL    HW113301   1.129   1.827   6.984
 4134SOL    HW213302   1.237   1.778   0.080
 4135SOL     OW13303   1.260   0.523   1.016
 4135SOL    HW113304   1.231   0.562   1.103
 4135SOL    HW213305   1.304   0.434   1.032
 4136SOL     OW13306   1.067   1.780   3.197
 4136SOL    HW113307   1.139   1.723   3.237
 4136SOL    HW213308   1.049   1.858   3.257
 4137SOL     OW13309   3.322   3.972   5.768
 4137SOL    HW113310   3.287   4.060   5.738
 4137SOL    HW213311   3.387   3.987   5.843
 4138SOL     OW13312   4.306   5.311   2.979
 4138SOL    HW113313   4.232   5.376   2.959
 4138SOL    HW213314   4.303   5.236   2.913
 4139SOL     OW13315   1.947   1.000   0.021
 4139SOL    HW113316   1.906   1.062   0.088
 4139SOL    HW213317   2.001   0.931   0.069
 4140SOL     OW13318   4.581   1.587   5.383
 4140SOL    HW113319   4.634   1.503   5.379
 4140SOL    HW213320   4.559   1.617   5.290
 4141SOL     OW13321   5.396   5.671   0.516
 4141SOL    HW113322   5.316   5.722   0.546
 4141SOL    HW213323   5.404   5.678   0.416
 4142SOL     OW13324   6.083   3.367   1.517
 4142SOL    HW113325   6.050   3.276   1.490
 4142SOL    HW213326   6.127   3.411   1.439
 4143SOL     OW13327   0.393   2.293   1.487
 4143SOL    HW113328   0.431   2.300   1.395
 4143SOL    HW213329   0.377   2.196   1.509
 4144SOL     OW13330   4.622   1.052   2.598
 4144SOL    HW113331   4.612   0.995   2.680
 4144SOL    HW213332   4.710   1.032   2.554
 4145SOL     OW13333   2.867   6.809   2.942
 4145SOL    HW113334   2.844   6.761   2.858
 4145SOL    HW213335   2.896   6.742   3.011
 4146SOL     OW13336   4.764   5.483   0.641
 4146SOL    HW113337   4.816   5.406   0.604
 4146SOL    HW213338   4.666   5.465   0.632
 4147SOL     OW13339   3.165   2.439   5.600
 4147SOL    HW113340   3.204   2.351   5.626
 4147SOL    HW213341   3.081   2.455   5.651
 4148SOL     OW13342   5.823   0.003   3.126
 4148SOL    HW113343   5.773   0.081   3.163
 4148SOL    HW213344   5.806   6.938   3.183
 4149SOL     OW13345   5.359   4.306   1.589
 4149SOL    HW113346   5.363   4.295   1.490
 4149SOL    HW213347   5.264   4.300   1.621
 4150SOL     OW13348   4.618   0.299   5.813
 4150SOL    HW113349   4.678   0.222   5.835
 4150SOL    HW213350   4.662   0.385   5.841
 4151SOL     OW13351   6.975   5.126   0.439
 4151SOL    HW113352   0.001   5.208   0.479
 4151SOL    HW213353   6.917   5.082   0.508
 4152SOL     OW13354   4.144   4.225   1.027
 4152SOL    HW113355   4.065   4.175   1.062
 4152SOL    HW213356   4.155   4.311   1.077
 4153SOL     OW13357   6.578   5.371   6.350
 4153SOL    HW113358   6.677   5.366   6.338
 4153SOL    HW213359   6.533   5.308   6.287
 4154SOL     OW13360   4.653   2.888   5.624
 4154SOL    HW113361   4.737   2.842   5.654
 4154SOL    HW213362   4.655   2.898   5.524
 4155SOL     OW13363   1.261   3.142   1.590
 4155SOL    HW113364   1.335   3.177   1.533
 4155SOL    HW213365   1.293   3.132   1.685
 4156SOL     OW13366   6.326   0.177   5.717
 4156SOL    HW113367   6.326   0.088   5.764
 4156SOL    HW213368   6.266   0.172   5.637
 4157SOL     OW13369   3.247   0.649   5.256
 4157SOL    HW113370   3.297   0.727   5.292
 4157SOL    HW213371   3.162   0.680   5.214
 4158SOL     OW13372   1.258   0.184   4.338
 4158SOL    HW113373   1.313   0.101   4.339
 4158SOL    HW213374   1.220   0.201   4.429
 4159SOL     OW13375   0.855   3.186   5.152
 4159SOL    HW113376   0.916   3.217   5.079
 4159SOL    HW213377   0.868   3.088   5.168
 4160SOL     OW13378   1.539   1.267   0.999
 4160SOL    HW113379   1.449   1.307   0.983
 4160SOL    HW213380   1.531   1.167   1.005
 4161SOL     OW13381   6.078   1.865   0.833
 4161SOL    HW113382   6.046   1.908   0.748
 4161SOL    HW213383   6.016   1.791   0.858
 4162SOL     OW13384   6.777   0.192   5.105
 4162SOL    HW113385   6.730   0.127   5.164
 4162SOL    HW213386   6.828   0.143   5.034
 4163SOL     OW13387   6.029   1.124   3.837
 4163SOL    HW113388   5.959   1.111   3.767
 4163SOL    HW213389   5.986   1.124   3.927
 4164SOL     OW13390   2.294   7.007   6.097
 4164SOL    HW113391   2.293   6.907   6.108
 4164SOL    HW213392   2.372   0.018   6.040
 4165SOL     OW13393   3.223   6.103   2.551
 4165SOL    HW113394   3.198   6.165   2.625
 4165SOL    HW213395   3.319   6.077   2.561
 4166SOL     OW13396   6.022   3.038   0.742
 4166SOL    HW113397   5.970   2.958   0.713
 4166SOL    HW213398   6.006   3.055   0.839
 4167SOL     OW13399   1.965   3.100   1.286
 4167SOL    HW113400   2.047   3.054   1.251
 4167SOL    HW213401   1.920   3.149   1.212
 4168SOL     OW13402   1.354   4.242   0.977
 4168SOL    HW113403   1.402   4.320   0.938
 4168SOL    HW213404   1.419   4.171   1.003
 4169SOL     OW13405   6.166   3.657   4.452
 4169SOL    HW113406   6.237   3.694   4.512
 4169SOL    HW213407   6.110   3.592   4.504
 4170SOL     OW13408   4.482   2.497   5.324
 4170SOL    HW113409   4.470   2.514   5.226
 4170SOL    HW213410   4.469   2.399   5.342
 4171SOL     OW13411   5.642   3.637   1.725
 4171SOL    HW113412   5.575   3.570   1.693
 4171SOL    HW213413   5.734   3.605   1.704
 4172SOL     OW13414   2.105   1.729   0.144
 4172SOL    HW113415   2.061   1.804   0.195
 4172SOL    HW213416   2.189   1.763   0.102
 4173SOL     OW13417   5.678   3.711   5.434
 4173SOL    HW113418   5.619   3.791   5.420
 4173SOL    HW213419   5.765   3.725   5.388
 4174SOL     OW13420   5.055   0.712   4.322
 4174SOL    HW113421   5.042   0.614   4.335
 4174SOL    HW213422   5.137   0.728   4.268
 4175SOL     OW13423   3.465   1.645   3.794
 4175SOL    HW113424   3.411   1.692   3.864
 4175SOL    HW213425   3.430   1.669   3.704
 4176SOL     OW13426   5.837   5.862   2.696
 4176SOL    HW113427   5.857   5.886   2.601
 4176SOL    HW213428   5.816   5.764   2.701
 4177SOL     OW13429   6.874   5.190   2.610
 4177SOL    HW113430   6.783   5.149   2.596
 4177SOL    HW213431   6.930   5.129   2.666
 4178SOL     OW13432   4.203   2.452   6.026
 4178SOL    HW113433   4.119   2.474   6.075
 4178SOL    HW213434   4.189   2.462   5.928
 4179SOL     OW13435   6.236   3.037   6.189
 4179SOL    HW113436   6.168   3.077   6.128
 4179SOL    HW213437   6.207   3.048   6.284
 4180SOL     OW13438   4.266   3.765   1.158
 4180SOL    HW113439   4.350   3.719   1.129
 4180SOL    HW213440   4.283   3.862   1.169
 4181SOL     OW13441   0.406   1.201   6.979
 4181SOL    HW113442   0.394   1.287   0.012
 4181SOL    HW213443   0.406   1.218   6.880
 4182SOL     OW13444   5.754   1.476   3.827
 4182SOL    HW113445   5.839   1.447   3.783
 4182SOL    HW213446   5.721   1.402   3.886
 4183SOL     OW13447   1.498   1.980   1.220
 4183SOL    HW113448   1.516   2.046   1.292
 4183SOL    HW213449   1.563   1.995   1.145
 4184SOL     OW13450   3.936   5.106   0.632
 4184SOL    HW113451   3.850   5.055   0.635
 4184SOL    HW213452   3.959   5.127   0.537
 4185SOL     OW13453   0.128   6.870   4.139
 4185SOL    HW113454   0.205   6.857   4.202
 4185SOL    HW213455   0.054   6.917   4.187
 4186SOL     OW13456   3.589   4.251   1.682
 4186SOL    HW113457   3.608   4.349   1.683
 4186SOL    HW213458   3.561   4.222   1.774
 4187SOL     OW13459   4.096   4.365   6.604
 4187SOL    HW113460   4.148   4.438   6.560
 4187SOL    HW213461   4.014   4.344   6.550
 4188SOL     OW13462   4.830   6.608   4.630
 4188SOL    HW113463   4.820   6.705   4.612
 4188SOL    HW213464   4.793   6.587   4.720
 4189SOL     OW13465   1.945   2.992   3.466
 4189SOL    HW113466   2.015   3.021   3.400
 4189SOL    HW213467   1.926   3.067   3.529
 4190SOL     OW13468   3.420   0.207   1.402
 4190SOL    HW113469   3.365   0.150   1.463
 4190SOL    HW213470   3.398   0.185   1.307
 4191SOL     OW13471   6.963   2.616   1.993
 4191SOL    HW113472   6.872   2.581   2.012
 4191SOL    HW213473   6.958   2.715   1.974
 4192SOL     OW13474   6.012   0.985   2.811
 4192SOL    HW113475   5.956   0.999   2.892
 4192SOL    HW213476   6.083   0.917   2.831
 4193SOL     OW13477   2.175   6.632   2.545
 4193SOL    HW113478   2.136   6.587   2.465
 4193SOL    HW213479   2.206   6.724   2.520
 4194SOL     OW13480   0.239   0.910   3.746
 4194SOL    HW113481   0.182   0.849   3.691
 4194SOL    HW213482   0.306   0.957   3.688
 4195SOL     OW13483   5.206   0.833   2.646
 4195SOL    HW113484   5.151   0.750   2.657
 4195SOL    HW213485   5.252   0.854   2.733
 4196SOL     OW13486   4.487   2.424   3.151
 4196SOL    HW113487   4.536   2.396   3.233
 4196SOL    HW213488   4.422   2.353   3.124
 4197SOL     OW13489   4.746   4.065   3.984
 4197SOL    HW113490   4.700   4.152   3.967
 4197SOL    HW213491   4.791   4.034   3.900
 4198SOL     OW13492   5.604   3.993   5.475
 4198SOL    HW113493   5.673   4.035   5.416
 4198SOL    HW213494   5.515   3.997   5.430
 4199SOL     OW13495   3.323   3.932   5.365
 4199SOL    HW113496   3.377   3.983   5.298
 4199SOL    HW213497   3.312   3.838   5.335
 4200SOL     OW13498   2.381   0.237   6.000
 4200SOL    HW113499   2.337   0.323   6.022
 4200SOL    HW213500   2.368   0.216   5.903
 4201SOL     OW13501   6.359   6.691   4.761
 4201SOL    HW113502   6.292   6.635   4.712
 4201SOL    HW213503   6.372   6.777   4.712
 4202SOL     OW13504   5.619   3.885   5.191
 4202SOL    HW113505   5.576   3.796   5.178
 4202SOL    HW213506   5.560   3.956   5.155
 4203SOL     OW13507   4.958   5.391   3.797
 4203SOL    HW113508   4.989   5.369   3.704
 4203SOL    HW213509   4.858   5.397   3.797
 4204SOL     OW13510   2.774   3.883   0.679
 4204SOL    HW113511   2.860   3.924   0.649
 4204SOL    HW213512   2.769   3.884   0.778
 4205SOL     OW13513   2.708   5.483   3.117
 4205SOL    HW113514   2.800   5.476   3.079
 4205SOL    HW213515   2.714   5.504   3.215
 4206SOL     OW13516   5.734   0.015   4.699
 4206SOL    HW113517   5.637   7.010   4.687
 4206SOL    HW213518   5.785   6.947   4.718
 4207SOL     OW13519   0.827   0.453   1.235
 4207SOL    HW113520   0.888   0.484   1.162
 4207SOL    HW213521   0.777   0.531   1.273
 4208SOL     OW13522   0.840   2.685   0.796
 4208SOL    HW113523   0.791   2.705   0.881
 4208SOL    HW213524   0.786   2.620   0.742
 4209SOL     OW13525   2.658   0.651   4.596
 4209SOL    HW113526   2.580   0.711   4.578
 4209SOL    HW213527   2.701   0.677   4.683
 4210SOL     OW13528   5.116   2.334   0.150
 4210SOL    HW113529   5.182   2.391   0.200
 4210SOL    HW213530   5.110   2.244   0.194
 4211SOL     OW13531   4.962   3.443   3.592
 4211SOL    HW113532   4.932   3.348   3.584
 4211SOL    HW213533   4.953   3.473   3.687
 4212SOL     OW13534   6.243   6.901   3.055
 4212SOL    HW113535   6.254   6.806   3.027
 4212SOL    HW213536   6.278   6.912   3.148
 4213SOL     OW13537   0.695   0.471   1.680
 4213SOL    HW113538   0.729   0.438   1.593
 4213SOL    HW213539   0.595   0.478   1.676
 4214SOL     OW13540   1.924   4.368   4.569
 4214SOL    HW113541   1.930   4.327   4.478
 4214SOL    HW213542   1.832   4.354   4.606
 4215SOL     OW13543   0.825   5.371   5.346
 4215SOL    HW113544   0.731   5.360   5.378
 4215SOL    HW213545   0.888   5.356   5.423
 4216SOL     OW13546   2.521   3.414   5.365
 4216SOL    HW113547   2.478   3.355   5.434
 4216SOL    HW213548   2.614   3.382   5.348
 4217SOL     OW13549   7.005   0.758   2.952
 4217SOL    HW113550   6.941   0.834   2.966
 4217SOL    HW213551   0.075   0.778   2.999
 4218SOL     OW13552   3.075   6.910   2.800
 4218SOL    HW113553   2.985   6.884   2.836
 4218SOL    HW213554   3.146   6.874   2.860
 4219SOL     OW13555   4.963   6.918   3.215
 4219SOL    HW113556   4.880   6.876   3.252
 4219SOL    HW213557   4.944   6.955   3.124
 4220SOL     OW13558   0.750   3.996   3.613
 4220SOL    HW113559   0.826   4.047   3.574
 4220SOL    HW213560   0.778   3.903   3.634
 4221SOL     OW13561   5.271   5.998   5.897
 4221SOL    HW113562   5.182   5.978   5.857
 4221SOL    HW213563   5.304   6.086   5.863
 4222SOL     OW13564   3.808   2.336   0.136
 4222SOL    HW113565   3.831   2.274   0.061
 4222SOL    HW213566   3.792   2.428   0.099
 4223SOL     OW13567   2.950   3.763   2.553
 4223SOL    HW113568   2.888   3.695   2.591
 4223SOL    HW213569   2.983   3.822   2.627
 4224SOL     OW13570   3.930   1.942   5.467
 4224SOL    HW113571   3.878   2.026   5.483
 4224SOL    HW213572   3.984   1.920   5.549
 4225SOL     OW13573   5.197   0.594   4.841
 4225SOL    HW113574   5.296   0.578   4.841
 4225SOL    HW213575   5.153   0.536   4.772
 4226SOL     OW13576   1.709   0.857   3.164
 4226SOL    HW113577   1.672   0.944   3.198
 4226SOL    HW213578   1.677   0.843   3.070
 4227SOL     OW13579   6.272   3.786   0.168
 4227SOL    HW113580   6.366   3.775   0.200
 4227SOL    HW213581   6.265   3.869   0.112
 4228SOL     OW13582   5.919   5.623   2.926
 4228SOL    HW113583   5.941   5.539   2.975
 4228SOL    HW213584   5.949   5.702   2.979
 4229SOL     OW13585   4.628   4.898   5.505
 4229SOL    HW113586   4.570   4.841   5.562
 4229SOL    HW213587   4.680   4.961   5.562
 4230SOL     OW13588   3.018   0.558   4.830
 4230SOL    HW113589   2.960   0.479   4.812
 4230SOL    HW213590   3.000   0.628   4.761
 4231SOL     OW13591   4.247   6.118   5.156
 4231SOL    HW113592   4.158   6.105   5.112
 4231SOL    HW213593   4.246   6.074   5.246
 4232SOL     OW13594   2.109   4.086   1.872
 4232SOL    HW113595   2.204   4.116   1.887
 4232SOL    HW213596   2.090   4.007   1.931
 4233SOL     OW13597   5.589   6.630   1.144
 4233SOL    HW113598   5.671   6.632   1.201
 4233SOL    HW213599   5.521   6.569   1.186
 4234SOL     OW13600   3.108   4.052   5.514
 4234SOL    HW113601   3.097   4.136   5.462
 4234SOL    HW213602   3.182   3.997   5.474
 4235SOL     OW13603   0.115   3.849   5.368
 4235SOL    HW113604   0.016   3.861   5.363
 4235SOL    HW213605   0.157   3.884   5.285
 4236SOL     OW13606   1.065   3.904   4.811
 4236SOL    HW113607   1.083   3.887   4.907
 4236SOL    HW213608   1.001   3.981   4.802
 4237SOL     OW13609   5.612   4.508   4.976
 4237SOL    HW113610   5.545   4.528   4.905
 4237SOL    HW213611   5.576   4.439   5.038
 4238SOL     OW13612   4.516   4.480   4.268
 4238SOL    HW113613   4.545   4.575   4.253
 4238SOL    HW213614   4.516   4.432   4.181
 4239SOL     OW13615   5.280   5.321   5.791
 4239SOL    HW113616   5.217   5.274   5.853
 4239SOL    HW213617   5.257   5.296   5.696
 4240SOL     OW13618   2.436   4.879   6.487
 4240SOL    HW113619   2.532   4.893   6.461
 4240SOL    HW213620   2.388   4.832   6.414
 4241SOL     OW13621   4.003   1.074   0.220
 4241SOL    HW113622   3.999   0.985   0.265
 4241SOL    HW213623   4.057   1.137   0.276
 4242SOL     OW13624   1.208   0.307   2.771
 4242SOL    HW113625   1.198   0.210   2.792
 4242SOL    HW213626   1.304   0.334   2.780
 4243SOL     OW13627   1.507   3.303   3.172
 4243SOL    HW113628   1.555   3.306   3.259
 4243SOL    HW213629   1.564   3.346   3.101
 4244SOL     OW13630   3.036   6.937   0.930
 4244SOL    HW113631   3.024   6.888   0.844
 4244SOL    HW213632   2.947   6.968   0.964
 4245SOL     OW13633   6.355   2.479   1.161
 4245SOL    HW113634   6.436   2.512   1.112
 4245SOL    HW213635   6.306   2.413   1.104
 4246SOL     OW13636   4.707   2.509   3.589
 4246SOL    HW113637   4.674   2.485   3.680
 4246SOL    HW213638   4.801   2.478   3.579
 4247SOL     OW13639   2.021   4.470   6.672
 4247SOL    HW113640   2.090   4.542   6.679
 4247SOL    HW213641   1.988   4.466   6.577
 4248SOL     OW13642   2.000   0.562   3.126
 4248SOL    HW113643   1.962   0.525   3.041
 4248SOL    HW213644   2.044   0.650   3.108
 4249SOL     OW13645   6.130   0.353   5.872
 4249SOL    HW113646   6.072   0.357   5.791
 4249SOL    HW213647   6.183   0.268   5.872
 4250SOL     OW13648   6.427   5.748   4.646
 4250SOL    HW113649   6.333   5.717   4.653
 4250SOL    HW213650   6.486   5.685   4.697
 4251SOL     OW13651   5.122   2.598   5.654
 4251SOL    HW113652   5.155   2.596   5.749
 4251SOL    HW213653   5.042   2.540   5.645
 4252SOL     OW13654   6.757   0.028   0.082
 4252SOL    HW113655   6.842   0.077   0.102
 4252SOL    HW213656   6.751   0.010   7.000
 4253SOL     OW13657   4.831   6.033   2.923
 4253SOL    HW113658   4.758   6.079   2.974
 4253SOL    HW213659   4.861   6.092   2.848
 4254SOL     OW13660   1.619   2.420   5.829
 4254SOL    HW113661   1.616   2.401   5.927
 4254SOL    HW213662   1.638   2.517   5.814
 4255SOL     OW13663   0.866   2.898   3.295
 4255SOL    HW113664   0.792   2.903   3.361
 4255SOL    HW213665   0.830   2.867   3.207
 4256SOL     OW13666   0.205   5.915   0.965
 4256SOL    HW113667   0.253   5.827   0.958
 4256SOL    HW213668   0.265   5.983   1.005
 4257SOL     OW13669   6.440   0.851   3.573
 4257SOL    HW113670   6.353   0.824   3.616
 4257SOL    HW213671   6.422   0.890   3.483
 4258SOL     OW13672   3.103   5.356   1.049
 4258SOL    HW113673   3.082   5.441   1.098
 4258SOL    HW213674   3.112   5.281   1.115
 4259SOL     OW13675   1.069   0.301   0.919
 4259SOL    HW113676   0.996   0.234   0.929
 4259SOL    HW213677   1.134   0.271   0.849
 4260SOL     OW13678   5.715   0.479   4.651
 4260SOL    HW113679   5.768   0.401   4.618
 4260SOL    HW213680   5.770   0.533   4.715
 4261SOL     OW13681   2.704   6.230   4.617
 4261SOL    HW113682   2.676   6.323   4.639
 4261SOL    HW213683   2.802   6.229   4.598
 4262SOL     OW13684   2.412   4.838   5.373
 4262SOL    HW113685   2.492   4.891   5.346
 4262SOL    HW213686   2.375   4.791   5.292
 4263SOL     OW13687   2.585   1.816   3.405
 4263SOL    HW113688   2.685   1.823   3.400
 4263SOL    HW213689   2.556   1.821   3.501
 4264SOL     OW13690   4.648   1.754   5.816
 4264SOL    HW113691   4.727   1.792   5.863
 4264SOL    HW213692   4.594   1.828   5.776
 4265SOL     OW13693   2.572   6.766   6.067
 4265SOL    HW113694   2.474   6.750   6.075
 4265SOL    HW213695   2.597   6.771   5.970
 4266SOL     OW13696   1.376   5.258   1.842
 4266SOL    HW113697   1.417   5.314   1.770
 4266SOL    HW213698   1.293   5.215   1.807
 4267SOL     OW13699   0.776   3.933   4.196
 4267SOL    HW113700   0.734   3.933   4.105
 4267SOL    HW213701   0.865   3.977   4.191
 4268SOL     OW13702   0.930   4.514   6.282
 4268SOL    HW113703   0.863   4.457   6.330
 4268SOL    HW213704   0.936   4.484   6.187
 4269SOL     OW13705   2.872   1.780   4.467
 4269SOL    HW113706   2.961   1.811   4.431
 4269SOL    HW213707   2.801   1.797   4.398
 4270SOL     OW13708   3.833   3.570   0.406
 4270SOL    HW113709   3.889   3.555   0.324
 4270SOL    HW213710   3.891   3.607   0.479
 4271SOL     OW13711   6.996   0.247   0.997
 4271SOL    HW113712   6.911   0.209   0.961
 4271SOL    HW213713   7.007   0.219   1.092
 4272SOL     OW13714   6.991   1.344   5.917
 4272SOL    HW113715   0.064   1.314   5.951
 4272SOL    HW213716   6.959   1.281   5.846
 4273SOL     OW13717   2.686   5.875   3.817
 4273SOL    HW113718   2.649   5.880   3.909
 4273SOL    HW213719   2.731   5.961   3.793
 4274SOL     OW13720   0.989   1.694   1.704
 4274SOL    HW113721   0.962   1.607   1.745
 4274SOL    HW213722   1.061   1.679   1.636
 4275SOL     OW13723   0.106   2.469   3.678
 4275SOL    HW113724   0.080   2.436   3.588
 4275SOL    HW213725   0.025   2.484   3.734
 4276SOL     OW13726   1.948   6.409   3.124
 4276SOL    HW113727   1.889   6.464   3.065
 4276SOL    HW213728   1.944   6.313   3.096
 4277SOL     OW13729   6.797   5.489   3.030
 4277SOL    HW113730   6.860   5.526   3.099
 4277SOL    HW213731   6.826   5.520   2.940
 4278SOL     OW13732   1.067   6.642   1.078
 4278SOL    HW113733   0.972   6.671   1.090
 4278SOL    HW213734   1.117   6.654   1.164
 4279SOL     OW13735   0.847   2.564   3.360
 4279SOL    HW113736   0.857   2.663   3.363
 4279SOL    HW213737   0.751   2.540   3.378
 4280SOL     OW13738   1.950   6.234   6.267
 4280SOL    HW113739   1.991   6.181   6.194
 4280SOL    HW213740   1.923   6.324   6.232
 4281SOL     OW13741   6.079   6.044   3.196
 4281SOL    HW113742   5.997   5.988   3.181
 4281SOL    HW213743   6.148   6.020   3.128
 4282SOL     OW13744   5.377   5.016   2.446
 4282SOL    HW113745   5.455   5.040   2.388
 4282SOL    HW213746   5.337   4.930   2.416
 4283SOL     OW13747   5.717   1.211   4.622
 4283SOL    HW113748   5.663   1.138   4.664
 4283SOL    HW213749   5.668   1.246   4.542
 4284SOL     OW13750   4.682   5.739   6.553
 4284SOL    HW113751   4.617   5.665   6.571
 4284SOL    HW213752   4.692   5.751   6.455
 4285SOL     OW13753   3.221   1.423   6.597
 4285SOL    HW113754   3.295   1.440   6.532
 4285SOL    HW213755   3.233   1.480   6.678
 4286SOL     OW13756   5.277   0.455   6.697
 4286SOL    HW113757   5.206   0.416   6.755
 4286SOL    HW213758   5.366   0.418   6.724
 4287SOL     OW13759   3.434   0.812   1.105
 4287SOL    HW113760   3.388   0.895   1.136
 4287SOL    HW213761   3.367   0.750   1.064
 4288SOL     OW13762   6.757   5.970   1.939
 4288SOL    HW113763   6.748   5.889   1.882
 4288SOL    HW213764   6.719   5.952   2.030
 4289SOL     OW13765   0.360   4.528   5.076
 4289SOL    HW113766   0.415   4.523   4.993
 4289SOL    HW213767   0.302   4.447   5.083
 4290SOL     OW13768   0.373   1.656   3.034
 4290SOL    HW113769   0.454   1.597   3.035
 4290SOL    HW213770   0.401   1.751   3.043
 4291SOL     OW13771   3.855   4.675   6.515
 4291SOL    HW113772   3.796   4.597   6.538
 4291SOL    HW213773   3.821   4.757   6.560
 4292SOL     OW13774   6.526   1.196   1.714
 4292SOL    HW113775   6.474   1.186   1.629
 4292SOL    HW213776   6.464   1.193   1.792
 4293SOL     OW13777   4.143   2.588   0.341
 4293SOL    HW113778   4.091   2.508   0.370
 4293SOL    HW213779   4.080   2.666   0.331
 4294SOL     OW13780   2.758   1.792   6.433
 4294SOL    HW113781   2.741   1.858   6.360
 4294SOL    HW213782   2.856   1.773   6.439
 4295SOL     OW13783   4.479   6.295   2.936
 4295SOL    HW113784   4.419   6.369   2.968
 4295SOL    HW213785   4.574   6.319   2.956
 4296SOL     OW13786   2.206   6.453   2.115
 4296SOL    HW113787   2.280   6.386   2.110
 4296SOL    HW213788   2.241   6.544   2.094
 4297SOL     OW13789   4.630   5.256   0.271
 4297SOL    HW113790   4.704   5.323   0.271
 4297SOL    HW213791   4.608   5.231   0.177
 4298SOL     OW13792   1.581   0.313   0.877
 4298SOL    HW113793   1.632   0.398   0.865
 4298SOL    HW213794   1.645   0.241   0.906
 4299SOL     OW13795   0.994   3.305   6.618
 4299SOL    HW113796   0.973   3.233   6.551
 4299SOL    HW213797   0.980   3.269   6.711
 4300SOL     OW13798   3.176   1.000   1.866
 4300SOL    HW113799   3.237   1.016   1.789
 4300SOL    HW213800   3.161   1.086   1.915
 4301SOL     OW13801   2.366   6.044   6.251
 4301SOL    HW113802   2.280   6.010   6.214
 4301SOL    HW213803   2.431   6.060   6.177
 4302SOL     OW13804   3.188   4.959   6.194
 4302SOL    HW113805   3.153   5.046   6.160
 4302SOL    HW213806   3.288   4.958   6.185
 4303SOL     OW13807   4.111   5.418   3.277
 4303SOL    HW113808   4.012   5.431   3.278
 4303SOL    HW213809   4.155   5.494   3.324
 4304SOL     OW13810   3.296   4.128   1.910
 4304SOL    HW113811   3.343   4.214   1.930
 4304SOL    HW213812   3.338   4.054   1.962
 4305SOL     OW13813   0.788   6.321   6.326
 4305SOL    HW113814   0.795   6.269   6.241
 4305SOL    HW213815   0.700   6.369   6.329
 4306SOL     OW13816   5.988   3.612   5.434
 4306SOL    HW113817   5.999   3.708   5.461
 4306SOL    HW213818   6.024   3.553   5.506
 4307SOL     OW13819   0.121   1.220   5.619
 4307SOL    HW113820   0.061   1.296   5.593
 4307SOL    HW213821   0.172   1.189   5.539
 4308SOL     OW13822   4.301   5.818   6.562
 4308SOL    HW113823   4.328   5.751   6.493
 4308SOL    HW213824   4.287   5.771   6.650
 4309SOL     OW13825   1.536   1.228   0.194
 4309SOL    HW113826   1.498   1.137   0.177
 4309SOL    HW213827   1.462   1.295   0.197
 4310SOL     OW13828   6.191   2.268   2.702
 4310SOL    HW113829   6.225   2.174   2.705
 4310SOL    HW213830   6.092   2.267   2.692
 4311SOL     OW13831   0.975   0.116   1.484
 4311SOL    HW113832   1.024   0.161   1.410
 4311SOL    HW213833   0.952   0.022   1.457
 4312SOL     OW13834   6.792   3.537   2.053
 4312SOL    HW113835   6.773   3.527   1.955
 4312SOL    HW213836   6.743   3.466   2.103
 4313SOL     OW13837   0.877   3.578   6.372
 4313SOL    HW113838   0.912   3.610   6.460
 4313SOL    HW213839   0.790   3.531   6.386
 4314SOL     OW13840   0.976   1.260   5.708
 4314SOL    HW113841   0.938   1.351   5.690
 4314SOL    HW213842   1.074   1.260   5.690
 4315SOL     OW13843   2.718   1.781   5.691
 4315SOL    HW113844   2.796   1.738   5.738
 4315SOL    HW213845   2.649   1.712   5.672
 4316SOL     OW13846   4.341   5.745   1.677
 4316SOL    HW113847   4.316   5.841   1.663
 4316SOL    HW213848   4.317   5.693   1.595
 4317SOL     OW13849   4.997   0.589   5.052
 4317SOL    HW113850   4.933   0.664   5.063
 4317SOL    HW213851   5.043   0.597   4.963
 4318SOL     OW13852   1.465   6.573   4.374
 4318SOL    HW113853   1.483   6.643   4.443
 4318SOL    HW213854   1.374   6.535   4.389
 4319SOL     OW13855   0.929   4.022   2.252
 4319SOL    HW113856   0.932   3.944   2.314
 4319SOL    HW213857   0.834   4.037   2.221
 4320SOL     OW13858   3.229   0.130   0.730
 4320SOL    HW113859   3.204   0.149   0.825
 4320SOL    HW213860   3.163   0.173   0.669
 4321SOL     OW13861   6.800   6.355   3.332
 4321SOL    HW113862   6.842   6.361   3.241
 4321SOL    HW213863   6.865   6.385   3.401
 4322SOL     OW13864   2.144   1.922   4.423
 4322SOL    HW113865   2.048   1.897   4.419
 4322SOL    HW213866   2.156   2.014   4.385
 4323SOL     OW13867   4.529   4.833   0.125
 4323SOL    HW113868   4.432   4.818   0.143
 4323SOL    HW213869   4.557   4.778   0.046
 4324SOL     OW13870   0.584   5.073   5.957
 4324SOL    HW113871   0.502   5.026   5.987
 4324SOL    HW213872   0.630   5.018   5.887
 4325SOL     OW13873   2.056   6.142   1.535
 4325SOL    HW113874   2.033   6.177   1.626
 4325SOL    HW213875   2.029   6.208   1.465
 4326SOL     OW13876   4.779   2.256   2.408
 4326SOL    HW113877   4.814   2.197   2.480
 4326SOL    HW213878   4.722   2.202   2.346
 4327SOL     OW13879   2.261   5.513   3.684
 4327SOL    HW113880   2.275   5.522   3.585
 4327SOL    HW213881   2.209   5.591   3.717
 4328SOL     OW13882   6.269   0.472   3.468
 4328SOL    HW113883   6.195   0.519   3.419
 4328SOL    HW213884   6.345   0.455   3.405
 4329SOL     OW13885   6.634   3.360   6.444
 4329SOL    HW113886   6.658   3.300   6.521
 4329SOL    HW213887   6.648   3.455   6.470
 4330SOL     OW13888   2.367   5.290   4.540
 4330SOL    HW113889   2.303   5.229   4.493
 4330SOL    HW213890   2.360   5.277   4.638
 4331SOL     OW13891   5.931   2.140   2.569
 4331SOL    HW113892   5.905   2.147   2.665
 4331SOL    HW213893   5.928   2.230   2.526
 4332SOL     OW13894   0.223   5.493   1.293
 4332SOL    HW113895   0.208   5.495   1.392
 4332SOL    HW213896   0.163   5.560   1.249
 4333SOL     OW13897   4.000   2.729   6.010
 4333SOL    HW113898   4.017   2.690   5.920
 4333SOL    HW213899   3.968   2.658   6.072
 4334SOL     OW13900   0.115   3.277   3.660
 4334SOL    HW113901   0.053   3.355   3.671
 4334SOL    HW213902   0.061   3.192   3.659
 4335SOL     OW13903   2.490   3.940   1.736
 4335SOL    HW113904   2.587   3.960   1.720
 4335SOL    HW213905   2.466   3.855   1.690
 4336SOL     OW13906   2.452   5.721   5.546
 4336SOL    HW113907   2.481   5.803   5.497
 4336SOL    HW213908   2.530   5.679   5.592
 4337SOL     OW13909   6.927   4.824   3.670
 4337SOL    HW113910   6.991   4.786   3.603
 4337SOL    HW213911   6.978   4.854   3.751
 4338SOL     OW13912   2.973   2.394   5.787
 4338SOL    HW113913   3.005   2.470   5.844
 4338SOL    HW213914   2.929   2.326   5.845
 4339SOL     OW13915   4.012   4.803   5.061
 4339SOL    HW113916   4.005   4.827   4.964
 4339SOL    HW213917   3.943   4.853   5.113
 4340SOL     OW13918   0.031   4.403   1.127
 4340SOL    HW113919   0.069   4.335   1.191
 4340SOL    HW213920   0.104   4.459   1.090
 4341SOL     OW13921   5.747   5.917   1.498
 4341SOL    HW113922   5.782   5.947   1.587
 4341SOL    HW213923   5.687   5.988   1.461
 4342SOL     OW13924   5.558   3.151   2.570
 4342SOL    HW113925   5.464   3.135   2.599
 4342SOL    HW213926   5.591   3.073   2.518
 4343SOL     OW13927   3.529   0.373   6.276
 4343SOL    HW113928   3.520   0.273   6.284
 4343SOL    HW213929   3.586   0.407   6.351
 4344SOL     OW13930   0.438   3.976   3.046
 4344SOL    HW113931   0.532   3.943   3.032
 4344SOL    HW213932   0.418   4.047   2.978
 4345SOL     OW13933   3.568   3.581   2.452
 4345SOL    HW113934   3.547   3.624   2.540
 4345SOL    HW213935   3.549   3.646   2.379
 4346SOL     OW13936   0.634   3.169   3.013
 4346SOL    HW113937   0.541   3.202   2.998
 4346SOL    HW213938   0.689   3.239   3.058
 4347SOL     OW13939   6.091   5.502   0.522
 4347SOL    HW113940   6.098   5.595   0.558
 4347SOL    HW213941   6.048   5.443   0.591
 4348SOL     OW13942   6.044   5.080   5.614
 4348SOL    HW113943   6.077   5.066   5.521
 4348SOL    HW213944   6.121   5.090   5.677
 4349SOL     OW13945   0.763   3.512   4.022
 4349SOL    HW113946   0.790   3.604   3.993
 4349SOL    HW213947   0.673   3.491   3.984
 4350SOL     OW13948   4.066   0.921   4.458
 4350SOL    HW113949   4.112   0.846   4.506
 4350SOL    HW213950   4.093   1.008   4.498
 4351SOL     OW13951   0.265   5.594   0.629
 4351SOL    HW113952   0.281   5.599   0.728
 4351SOL    HW213953   0.167   5.603   0.612
 4352SOL     OW13954   3.660   5.096   2.020
 4352SOL    HW113955   3.641   5.010   1.972
 4352SOL    HW213956   3.608   5.170   1.978
 4353SOL     OW13957   2.817   3.026   0.986
 4353SOL    HW113958   2.819   2.961   0.910
 4353SOL    HW213959   2.885   3.098   0.971
 4354SOL     OW13960   5.693   6.122   2.362
 4354SOL    HW113961   5.745   6.040   2.388
 4354SOL    HW213962   5.751   6.203   2.373
 4355SOL     OW13963   1.916   4.849   2.549
 4355SOL    HW113964   1.870   4.772   2.593
 4355SOL    HW213965   1.862   4.880   2.471
 4356SOL     OW13966   5.774   2.736   5.281
 4356SOL    HW113967   5.764   2.831   5.308
 4356SOL    HW213968   5.860   2.700   5.317
 4357SOL     OW13969   6.013   6.950   1.707
 4357SOL    HW113970   6.061   6.862   1.702
 4357SOL    HW213971   6.068   0.005   1.663
 4358SOL     OW13972   2.900   1.235   0.277
 4358SOL    HW113973   2.906   1.331   0.247
 4358SOL    HW213974   2.863   1.180   0.203
 4359SOL     OW13975   2.479   1.935   0.860
 4359SOL    HW113976   2.546   1.954   0.788
 4359SOL    HW213977   2.457   2.019   0.908
 4360SOL     OW13978   2.030   5.358   4.009
 4360SOL    HW113979   1.961   5.316   3.950
 4360SOL    HW213980   1.985   5.422   4.072
 4361SOL     OW13981   0.543   1.990   0.180
 4361SOL    HW113982   0.522   2.087   0.184
 4361SOL    HW213983   0.567   1.964   0.087
 4362SOL     OW13984   1.277   5.437   3.280
 4362SOL    HW113985   1.321   5.492   3.351
 4362SOL    HW213986   1.277   5.341   3.307
 4363SOL     OW13987   3.914   0.976   2.049
 4363SOL    HW113988   3.938   0.918   1.971
 4363SOL    HW213989   3.980   0.961   2.123
 4364SOL     OW13990   3.682   4.092   2.844
 4364SOL    HW113991   3.605   4.146   2.879
 4364SOL    HW213992   3.753   4.087   2.914
 4365SOL     OW13993   2.018   0.972   1.206
 4365SOL    HW113994   2.010   1.065   1.242
 4365SOL    HW213995   2.115   0.952   1.189
 4366SOL     OW13996   5.156   6.690   4.868
 4366SOL    HW113997   5.207   6.720   4.949
 4366SOL    HW213998   5.212   6.706   4.787
 4367SOL     OW13999   2.497   6.329   2.626
 4367SOL    HW114000   2.438   6.349   2.548
 4367SOL    HW214001   2.461   6.373   2.707
 4368SOL     OW14002   4.814   3.970   3.735
 4368SOL    HW114003   4.847   3.878   3.757
 4368SOL    HW214004   4.781   3.971   3.640
 4369SOL     OW14005   5.173   4.104   3.569
 4369SOL    HW114006   5.151   4.020   3.520
 4369SOL    HW214007   5.228   4.082   3.650
 4370SOL     OW14008   3.990   4.530   0.868
 4370SOL    HW114009   4.076   4.480   0.858
 4370SOL    HW214010   4.008   4.625   0.893
 4371SOL     OW14011   3.121   0.924   2.465
 4371SOL    HW114012   3.101   1.019   2.489
 4371SOL    HW214013   3.086   0.905   2.373
 4372SOL     OW14014   1.824   4.216   3.918
 4372SOL    HW114015   1.814   4.122   3.951
 4372SOL    HW214016   1.900   4.260   3.967
 4373SOL     OW14017   4.340   0.719   6.750
 4373SOL    HW114018   4.260   0.726   6.810
 4373SOL    HW214019   4.333   0.636   6.694
 4374SOL     OW14020   3.083   6.585   0.170
 4374SOL    HW114021   3.136   6.624   0.244
 4374SOL    HW214022   2.985   6.602   0.185
 4375SOL     OW14023   4.488   1.276   5.737
 4375SOL    HW114024   4.530   1.366   5.742
 4375SOL    HW214025   4.405   1.281   5.682
 4376SOL     OW14026   2.280   5.704   0.006
 4376SOL    HW114027   2.224   5.762   6.962
 4376SOL    HW214028   2.328   5.761   0.072
 4377SOL     OW14029   5.185   6.058   7.014
 4377SOL    HW114030   5.285   6.061   0.003
 4377SOL    HW214031   5.154   5.964   0.017
 4378SOL     OW14032   2.556   5.233   2.772
 4378SOL    HW114033   2.459   5.249   2.756
 4378SOL    HW214034   2.607   5.244   2.686
 4379SOL     OW14035   0.597   6.710   1.594
 4379SOL    HW114036   0.560   6.635   1.539
 4379SOL    HW214037   0.549   6.794   1.572
 4380SOL     OW14038   1.875   5.505   4.473
 4380SOL    HW114039   1.786   5.487   4.514
 4380SOL    HW214040   1.906   5.596   4.500
 4381SOL     OW14041   4.970   5.510   5.673
 4381SOL    HW114042   5.069   5.513   5.664
 4381SOL    HW214043   4.928   5.563   5.599
 4382SOL     OW14044   5.215   3.428   3.172
 4382SOL    HW114045   5.119   3.409   3.194
 4382SOL    HW214046   5.219   3.481   3.087
 4383SOL     OW14047   0.900   1.592   0.417
 4383SOL    HW114048   0.806   1.624   0.429
 4383SOL    HW214049   0.945   1.648   0.347
 4384SOL     OW14050   4.057   6.539   1.073
 4384SOL    HW114051   3.958   6.544   1.061
 4384SOL    HW214052   4.095   6.631   1.080
 4385SOL     OW14053   6.484   2.189   2.399
 4385SOL    HW114054   6.446   2.154   2.485
 4385SOL    HW214055   6.429   2.264   2.365
 4386SOL     OW14056   1.065   4.084   6.905
 4386SOL    HW114057   1.052   3.988   6.930
 4386SOL    HW214058   0.977   4.127   6.889
 4387SOL     OW14059   6.170   2.508   1.771
 4387SOL    HW114060   6.143   2.509   1.675
 4387SOL    HW214061   6.207   2.418   1.795
 4388SOL     OW14062   3.240   1.898   5.819
 4388SOL    HW114063   3.236   1.805   5.856
 4388SOL    HW214064   3.289   1.957   5.883
 4389SOL     OW14065   6.304   2.500   2.594
 4389SOL    HW114066   6.392   2.471   2.557
 4389SOL    HW214067   6.268   2.429   2.654
 4390SOL     OW14068   4.361   2.457   1.910
 4390SOL    HW114069   4.316   2.482   1.824
 4390SOL    HW214070   4.307   2.387   1.957
 4391SOL     OW14071   0.526   6.563   0.562
 4391SOL    HW114072   0.622   6.547   0.537
 4391SOL    HW214073   0.505   6.660   0.550
 4392SOL     OW14074   5.751   4.043   4.540
 4392SOL    HW114075   5.749   4.067   4.443
 4392SOL    HW214076   5.802   4.113   4.590
 4393SOL     OW14077   5.185   6.451   3.564
 4393SOL    HW114078   5.206   6.397   3.645
 4393SOL    HW214079   5.166   6.391   3.487
 4394SOL     OW14080   4.342   1.114   2.711
 4394SOL    HW114081   4.414   1.159   2.764
 4394SOL    HW214082   4.287   1.183   2.665
 4395SOL     OW14083   5.247   1.920   1.338
 4395SOL    HW114084   5.322   1.987   1.341
 4395SOL    HW214085   5.240   1.881   1.246
 4396SOL     OW14086   1.448   1.333   4.135
 4396SOL    HW114087   1.430   1.259   4.200
 4396SOL    HW214088   1.421   1.303   4.043
 4397SOL     OW14089   5.826   0.267   6.358
 4397SOL    HW114090   5.878   0.307   6.434
 4397SOL    HW214091   5.761   0.334   6.323
 4398SOL     OW14092   0.237   5.448   4.082
 4398SOL    HW114093   0.252   5.465   4.180
 4398SOL    HW214094   0.150   5.401   4.069
 4399SOL     OW14095   2.905   1.291   2.192
 4399SOL    HW114096   2.884   1.356   2.264
 4399SOL    HW214097   3.002   1.295   2.169
 4400SOL     OW14098   3.592   6.043   3.637
 4400SOL    HW114099   3.628   5.988   3.562
 4400SOL    HW214100   3.501   6.012   3.661
 4401SOL     OW14101   6.259   6.170   4.947
 4401SOL    HW114102   6.229   6.139   4.857
 4401SOL    HW214103   6.203   6.126   5.018
 4402SOL     OW14104   6.540   6.797   3.231
 4402SOL    HW114105   6.542   6.724   3.163
 4402SOL    HW214106   6.617   6.787   3.294
 4403SOL     OW14107   0.235   0.185   3.372
 4403SOL    HW114108   0.144   0.186   3.330
 4403SOL    HW214109   0.246   0.100   3.424
 4404SOL     OW14110   1.681   4.748   3.145
 4404SOL    HW114111   1.610   4.819   3.147
 4404SOL    HW214112   1.663   4.685   3.070
 4405SOL     OW14113   3.253   3.704   6.036
 4405SOL    HW114114   3.279   3.739   6.126
 4405SOL    HW214115   3.235   3.780   5.974
 4406SOL     OW14116   5.466   3.819   1.807
 4406SOL    HW114117   5.455   3.891   1.739
 4406SOL    HW214118   5.537   3.755   1.777
 4407SOL     OW14119   6.822   0.243   0.390
 4407SOL    HW114120   6.859   0.263   0.481
 4407SOL    HW214121   6.864   0.160   0.355
 4408SOL     OW14122   4.398   6.237   0.513
 4408SOL    HW114123   4.469   6.299   0.479
 4408SOL    HW214124   4.433   6.144   0.513
 4409SOL     OW14125   2.147   1.653   3.388
 4409SOL    HW114126   2.139   1.554   3.381
 4409SOL    HW214127   2.159   1.678   3.484
 4410SOL     OW14128   1.966   5.821   1.317
 4410SOL    HW114129   1.936   5.914   1.292
 4410SOL    HW214130   1.890   5.772   1.360
 4411SOL     OW14131   3.769   3.184   2.489
 4411SOL    HW114132   3.748   3.185   2.586
 4411SOL    HW214133   3.704   3.242   2.440
 4412SOL     OW14134   3.399   1.802   6.147
 4412SOL    HW114135   3.461   1.759   6.212
 4412SOL    HW214136   3.444   1.882   6.107
 4413SOL     OW14137   4.454   5.181   3.843
 4413SOL    HW114138   4.421   5.194   3.749
 4413SOL    HW214139   4.379   5.201   3.907
 4414SOL     OW14140   3.467   5.688   1.444
 4414SOL    HW114141   3.449   5.686   1.346
 4414SOL    HW214142   3.513   5.774   1.467
 4415SOL     OW14143   4.361   1.577   1.336
 4415SOL    HW114144   4.373   1.501   1.401
 4415SOL    HW214145   4.278   1.628   1.359
 4416SOL     OW14146   2.741   2.369   4.546
 4416SOL    HW114147   2.642   2.354   4.559
 4416SOL    HW214148   2.779   2.414   4.626
 4417SOL     OW14149   6.833   0.688   0.944
 4417SOL    HW114150   6.923   0.644   0.951
 4417SOL    HW214151   6.774   0.653   1.017
 4418SOL     OW14152   4.751   1.067   4.011
 4418SOL    HW114153   4.747   1.043   3.914
 4418SOL    HW214154   4.755   0.983   4.066
 4419SOL     OW14155   6.415   5.482   0.183
 4419SOL    HW114156   6.449   5.462   0.091
 4419SOL    HW214157   6.459   5.422   0.249
 4420SOL     OW14158   4.610   0.791   6.675
 4420SOL    HW114159   4.609   0.885   6.708
 4420SOL    HW214160   4.527   0.744   6.704
 4421SOL     OW14161   1.344   1.968   3.299
 4421SOL    HW114162   1.312   2.057   3.268
 4421SOL    HW214163   1.416   1.980   3.367
 4422SOL     OW14164   1.778   4.410   5.609
 4422SOL    HW114165   1.743   4.421   5.515
 4422SOL    HW214166   1.758   4.318   5.641
 4423SOL     OW14167   6.704   1.833   6.358
 4423SOL    HW114168   6.695   1.867   6.264
 4423SOL    HW214169   6.797   1.801   6.373
 4424SOL     OW14170   0.630   6.433   3.736
 4424SOL    HW114171   0.648   6.361   3.670
 4424SOL    HW214172   0.537   6.424   3.771
 4425SOL     OW14173   5.144   4.050   0.126
 4425SOL    HW114174   5.199   4.000   0.059
 4425SOL    HW214175   5.047   4.034   0.108
 4426SOL     OW14176   0.743   0.306   6.170
 4426SOL    HW114177   0.792   0.382   6.211
 4426SOL    HW214178   0.697   0.337   6.087
 4427SOL     OW14179   0.907   6.101   4.076
 4427SOL    HW114180   0.928   6.029   4.142
 4427SOL    HW214181   0.934   6.071   3.984
 4428SOL     OW14182   1.902   6.502   3.357
 4428SOL    HW114183   1.941   6.591   3.380
 4428SOL    HW214184   1.927   6.478   3.263
 4429SOL     OW14185   3.738   6.974   3.160
 4429SOL    HW114186   3.711   6.923   3.078
 4429SOL    HW214187   3.806   6.921   3.212
 4430SOL     OW14188   1.305   0.319   1.503
 4430SOL    HW114189   1.391   0.369   1.515
 4430SOL    HW214190   1.235   0.381   1.466
 4431SOL     OW14191   2.076   2.036   3.486
 4431SOL    HW114192   2.103   1.941   3.494
 4431SOL    HW214193   1.982   2.047   3.517
 4432SOL     OW14194   2.992   3.171   3.960
 4432SOL    HW114195   3.075   3.200   3.912
 4432SOL    HW214196   2.961   3.083   3.924
 4433SOL     OW14197   6.302   0.208   3.605
 4433SOL    HW114198   6.296   0.246   3.697
 4433SOL    HW214199   6.306   0.283   3.538
 4434SOL     OW14200   4.986   2.095   4.809
 4434SOL    HW114201   4.964   2.051   4.896
 4434SOL    HW214202   5.084   2.089   4.792
 4435SOL     OW14203   3.984   3.254   2.137
 4435SOL    HW114204   4.071   3.239   2.090
 4435SOL    HW214205   3.998   3.313   2.216
 4436SOL     OW14206   5.294   0.509   0.737
 4436SOL    HW114207   5.260   0.591   0.690
 4436SOL    HW214208   5.330   0.445   0.670
 4437SOL     OW14209   3.505   0.026   5.249
 4437SOL    HW114210   3.526   0.073   5.335
 4437SOL    HW214211   3.590   7.011   5.207
 4438SOL     OW14212   3.615   3.761   6.684
 4438SOL    HW114213   3.523   3.744   6.716
 4438SOL    HW214214   3.628   3.717   6.595
 4439SOL     OW14215   2.365   4.614   2.131
 4439SOL    HW114216   2.456   4.593   2.168
 4439SOL    HW214217   2.338   4.706   2.161
 4440SOL     OW14218   6.879   1.093   0.057
 4440SOL    HW114219   6.943   1.164   0.086
 4440SOL    HW214220   6.799   1.136   0.015
 4441SOL     OW14221   6.362   1.728   3.263
 4441SOL    HW114222   6.443   1.725   3.322
 4441SOL    HW214223   6.390   1.722   3.167
 4442SOL     OW14224   1.781   6.206   1.900
 4442SOL    HW114225   1.777   6.110   1.928
 4442SOL    HW214226   1.770   6.265   1.981
 4443SOL     OW14227   2.950   1.335   6.165
 4443SOL    HW114228   2.862   1.349   6.209
 4443SOL    HW214229   3.019   1.309   6.233
 4444SOL     OW14230   4.951   0.869   2.908
 4444SOL    HW114231   4.906   0.806   2.971
 4444SOL    HW214232   4.926   0.848   2.814
 4445SOL     OW14233   1.071   1.347   6.464
 4445SOL    HW114234   1.057   1.399   6.548
 4445SOL    HW214235   0.999   1.370   6.398
 4446SOL     OW14236   5.267   5.091   3.874
 4446SOL    HW114237   5.193   5.138   3.922
 4446SOL    HW214238   5.295   5.010   3.926
 4447SOL     OW14239   4.978   3.072   4.899
 4447SOL    HW114240   4.951   2.975   4.904
 4447SOL    HW214241   5.072   3.082   4.930
 4448SOL     OW14242   2.256   2.765   6.795
 4448SOL    HW114243   2.296   2.784   6.885
 4448SOL    HW214244   2.330   2.749   6.730
 4449SOL     OW14245   0.492   1.598   5.384
 4449SOL    HW114246   0.581   1.626   5.420
 4449SOL    HW214247   0.425   1.670   5.400
 4450SOL     OW14248   3.191   4.014   2.796
 4450SOL    HW114249   3.251   3.979   2.724
 4450SOL    HW214250   3.173   4.111   2.781
 4451SOL     OW14251   0.098   4.153   1.293
 4451SOL    HW114252   0.175   4.178   1.351
 4451SOL    HW214253   0.031   4.102   1.347
 4452SOL     OW14254   6.270   4.146   6.124
 4452SOL    HW114255   6.323   4.228   6.104
 4452SOL    HW214256   6.279   4.123   6.221
 4453SOL     OW14257   5.149   1.536   1.202
 4453SOL    HW114258   5.079   1.560   1.135
 4453SOL    HW214259   5.229   1.595   1.188
 4454SOL     OW14260   5.001   2.889   1.335
 4454SOL    HW114261   5.014   2.985   1.309
 4454SOL    HW214262   4.907   2.875   1.366
 4455SOL     OW14263   4.286   1.814   2.148
 4455SOL    HW114264   4.224   1.742   2.115
 4455SOL    HW214265   4.300   1.803   2.246
 4456SOL     OW14266   0.754   5.698   2.534
 4456SOL    HW114267   0.663   5.674   2.568
 4456SOL    HW214268   0.760   5.676   2.437
 4457SOL     OW14269   4.645   1.756   6.389
 4457SOL    HW114270   4.640   1.787   6.294
 4457SOL    HW214271   4.662   1.834   6.449
 4458SOL     OW14272   3.756   1.360   0.385
 4458SOL    HW114273   3.827   1.392   0.448
 4458SOL    HW214274   3.733   1.265   0.405
 4459SOL     OW14275   5.083   6.453   5.313
 4459SOL    HW114276   4.994   6.497   5.299
 4459SOL    HW214277   5.155   6.510   5.274
 4460SOL     OW14278   1.277   1.544   6.374
 4460SOL    HW114279   1.222   1.461   6.381
 4460SOL    HW214280   1.296   1.579   6.465
 4461SOL     OW14281   1.894   6.936   2.205
 4461SOL    HW114282   1.874   6.918   2.301
 4461SOL    HW214283   1.993   6.930   2.190
 4462SOL     OW14284   6.868   4.997   0.650
 4462SOL    HW114285   6.786   4.940   0.656
 4462SOL    HW214286   6.900   5.020   0.742
 4463SOL     OW14287   1.899   3.690   5.884
 4463SOL    HW114288   1.916   3.761   5.816
 4463SOL    HW214289   1.944   3.605   5.856
 4464SOL     OW14290   5.844   3.297   0.182
 4464SOL    HW114291   5.818   3.323   0.089
 4464SOL    HW214292   5.839   3.377   0.242
 4465SOL     OW14293   0.876   6.403   1.095
 4465SOL    HW114294   0.906   6.331   1.032
 4465SOL    HW214295   0.917   6.387   1.185
 4466SOL     OW14296   0.500   2.971   3.129
 4466SOL    HW114297   0.566   3.037   3.094
 4466SOL    HW214298   0.498   2.976   3.229
 4467SOL     OW14299   1.451   0.120   3.222
 4467SOL    HW114300   1.514   0.083   3.290
 4467SOL    HW214301   1.491   0.202   3.181
 4468SOL     OW14302   2.216   2.115   0.672
 4468SOL    HW114303   2.274   2.126   0.592
 4468SOL    HW214304   2.268   2.141   0.754
 4469SOL     OW14305   4.900   6.830   0.658
 4469SOL    HW114306   4.828   6.794   0.599
 4469SOL    HW214307   4.976   6.862   0.602
 4470SOL     OW14308   4.763   5.225   1.532
 4470SOL    HW114309   4.735   5.306   1.482
 4470SOL    HW214310   4.713   5.220   1.619
 4471SOL     OW14311   6.473   2.774   0.646
 4471SOL    HW114312   6.509   2.738   0.560
 4471SOL    HW214313   6.539   2.760   0.719
 4472SOL     OW14314   2.261   4.385   1.730
 4472SOL    HW114315   2.297   4.440   1.655
 4472SOL    HW214316   2.312   4.406   1.814
 4473SOL     OW14317   0.498   0.552   6.352
 4473SOL    HW114318   0.404   0.585   6.350
 4473SOL    HW214319   0.529   0.546   6.447
 4474SOL     OW14320   6.046   0.362   4.178
 4474SOL    HW114321   5.994   0.296   4.233
 4474SOL    HW214322   5.989   0.398   4.105
 4475SOL     OW14323   1.897   3.317   0.378
 4475SOL    HW114324   1.996   3.312   0.394
 4475SOL    HW214325   1.873   3.408   0.346
 4476SOL     OW14326   5.129   0.262   2.050
 4476SOL    HW114327   5.116   0.201   1.972
 4476SOL    HW214328   5.179   0.344   2.021
 4477SOL     OW14329   1.272   0.867   0.319
 4477SOL    HW114330   1.204   0.937   0.296
 4477SOL    HW214331   1.242   0.819   0.402
 4478SOL     OW14332   1.719   4.819   1.894
 4478SOL    HW114333   1.652   4.891   1.874
 4478SOL    HW214334   1.683   4.731   1.863
 4479SOL     OW14335   0.827   0.520   6.285
 4479SOL    HW114336   0.904   0.570   6.323
 4479SOL    HW214337   0.746   0.579   6.284
 4480SOL     OW14338   0.167   4.557   3.759
 4480SOL    HW114339   0.217   4.641   3.780
 4480SOL    HW214340   0.193   4.524   3.669
 4481SOL     OW14341   1.394   0.585   3.675
 4481SOL    HW114342   1.466   0.601   3.742
 4481SOL    HW214343   1.305   0.584   3.721
 4482SOL     OW14344   0.711   4.463   3.912
 4482SOL    HW114345   0.681   4.539   3.854
 4482SOL    HW214346   0.800   4.484   3.951
 4483SOL     OW14347   5.337   3.070   1.341
 4483SOL    HW114348   5.408   3.138   1.321
 4483SOL    HW214349   5.302   3.033   1.255
 4484SOL     OW14350   3.715   3.250   6.559
 4484SOL    HW114351   3.785   3.245   6.629
 4484SOL    HW214352   3.626   3.268   6.601
 4485SOL     OW14353   4.782   0.450   6.636
 4485SOL    HW114354   4.853   0.455   6.565
 4485SOL    HW214355   4.723   0.530   6.629
 4486SOL     OW14356   5.983   2.188   3.940
 4486SOL    HW114357   5.906   2.252   3.938
 4486SOL    HW214358   5.984   2.139   4.028
 4487SOL     OW14359   2.904   3.237   5.656
 4487SOL    HW114360   2.969   3.292   5.604
 4487SOL    HW214361   2.935   3.229   5.751
 4488SOL     OW14362   0.170   1.856   6.491
 4488SOL    HW114363   0.197   1.760   6.486
 4488SOL    HW214364   0.166   1.894   6.398
 4489SOL     OW14365   6.491   0.670   2.580
 4489SOL    HW114366   6.526   0.611   2.652
 4489SOL    HW214367   6.562   0.736   2.553
 4490SOL     OW14368   0.004   2.206   3.854
 4490SOL    HW114369   7.012   2.172   3.947
 4490SOL    HW214370   6.991   2.302   3.850
 4491SOL     OW14371   1.333   3.682   3.120
 4491SOL    HW114372   1.235   3.702   3.116
 4491SOL    HW214373   1.357   3.618   3.046
 4492SOL     OW14374   4.667   4.461   6.390
 4492SOL    HW114375   4.606   4.491   6.316
 4492SOL    HW214376   4.732   4.533   6.411
 4493SOL     OW14377   5.603   5.179   3.543
 4493SOL    HW114378   5.702   5.182   3.532
 4493SOL    HW214379   5.578   5.221   3.630
 4494SOL     OW14380   6.071   2.620   3.411
 4494SOL    HW114381   5.997   2.592   3.472
 4494SOL    HW214382   6.033   2.669   3.333
 4495SOL     OW14383   4.072   6.348   1.746
 4495SOL    HW114384   4.026   6.422   1.696
 4495SOL    HW214385   4.145   6.310   1.689
 4496SOL     OW14386   5.556   4.607   5.734
 4496SOL    HW114387   5.605   4.577   5.816
 4496SOL    HW214388   5.582   4.549   5.657
 4497SOL     OW14389   6.012   5.345   1.032
 4497SOL    HW114390   5.957   5.282   1.087
 4497SOL    HW214391   6.010   5.436   1.073
 4498SOL     OW14392   0.643   3.948   6.914
 4498SOL    HW114393   0.573   4.008   6.876
 4498SOL    HW214394   0.602   3.860   6.938
 4499SOL     OW14395   5.506   3.123   6.194
 4499SOL    HW114396   5.427   3.075   6.233
 4499SOL    HW214397   5.503   3.219   6.220
 4500SOL     OW14398   3.017   3.846   3.431
 4500SOL    HW114399   3.013   3.860   3.530
 4500SOL    HW214400   3.086   3.776   3.411
 4501SOL     OW14401   1.872   4.915   4.443
 4501SOL    HW114402   1.772   4.918   4.438
 4501SOL    HW214403   1.909   4.907   4.350
 4502SOL     OW14404   6.332   2.847   6.992
 4502SOL    HW114405   6.295   2.845   6.899
 4502SOL    HW214406   6.408   2.783   6.999
 4503SOL     OW14407   1.905   3.097   2.995
 4503SOL    HW114408   1.988   3.144   2.965
 4503SOL    HW214409   1.841   3.090   2.919
 4504SOL     OW14410   4.488   2.500   4.551
 4504SOL    HW114411   4.459   2.410   4.583
 4504SOL    HW214412   4.419   2.537   4.489
 4505SOL     OW14413   1.707   4.987   6.413
 4505SOL    HW114414   1.807   4.987   6.419
 4505SOL    HW214415   1.670   4.917   6.474
 4506SOL     OW14416   4.117   6.783   4.624
 4506SOL    HW114417   4.072   6.697   4.648
 4506SOL    HW214418   4.209   6.765   4.590
 4507SOL     OW14419   6.596   3.709   1.753
 4507SOL    HW114420   6.620   3.719   1.657
 4507SOL    HW214421   6.609   3.797   1.800
 4508SOL     OW14422   1.832   4.281   7.012
 4508SOL    HW114423   1.793   4.286   0.088
 4508SOL    HW214424   1.764   4.245   6.948
 4509SOL     OW14425   0.778   1.804   3.333
 4509SOL    HW114426   0.773   1.785   3.235
 4509SOL    HW214427   0.858   1.861   3.352
 4510SOL     OW14428   3.887   6.191   5.305
 4510SOL    HW114429   3.822   6.267   5.299
 4510SOL    HW214430   3.837   6.105   5.316
 4511SOL     OW14431   6.340   2.820   6.368
 4511SOL    HW114432   6.394   2.770   6.436
 4511SOL    HW214433   6.401   2.868   6.306
 4512SOL     OW14434   2.852   4.986   0.266
 4512SOL    HW114435   2.758   5.010   0.292
 4512SOL    HW214436   2.872   4.893   0.296
 4513SOL     OW14437   5.766   1.294   1.990
 4513SOL    HW114438   5.757   1.381   1.942
 4513SOL    HW214439   5.679   1.272   2.036
 4514SOL     OW14440   3.449   0.840   5.381
 4514SOL    HW114441   3.424   0.773   5.451
 4514SOL    HW214442   3.544   0.825   5.353
 4515SOL     OW14443   6.356   5.040   1.158
 4515SOL    HW114444   6.425   5.099   1.200
 4515SOL    HW214445   6.340   4.961   1.217
 4516SOL     OW14446   0.791   0.352   4.523
 4516SOL    HW114447   0.817   0.256   4.533
 4516SOL    HW214448   0.691   0.360   4.529
 4517SOL     OW14449   3.626   6.826   6.100
 4517SOL    HW114450   3.535   6.788   6.116
 4517SOL    HW214451   3.692   6.782   6.162
 4518SOL     OW14452   1.406   0.814   4.008
 4518SOL    HW114453   1.483   0.762   3.971
 4518SOL    HW214454   1.441   0.897   4.052
 4519SOL     OW14455   6.290   3.078   4.606
 4519SOL    HW114456   6.213   3.108   4.550
 4519SOL    HW214457   6.326   3.157   4.657
 4520SOL     OW14458   0.283   3.929   2.353
 4520SOL    HW114459   0.199   3.884   2.323
 4520SOL    HW214460   0.262   3.996   2.424
 4521SOL     OW14461   5.155   1.704   6.068
 4521SOL    HW114462   5.130   1.714   5.972
 4521SOL    HW214463   5.254   1.705   6.077
 4522SOL     OW14464   5.933   0.359   2.920
 4522SOL    HW114465   5.988   0.424   2.973
 4522SOL    HW214466   5.932   0.270   2.967
 4523SOL     OW14467   4.320   3.193   6.586
 4523SOL    HW114468   4.230   3.234   6.572
 4523SOL    HW214469   4.334   3.175   6.683
 4524SOL     OW14470   6.349   0.626   4.915
 4524SOL    HW114471   6.440   0.585   4.920
 4524SOL    HW214472   6.345   0.689   4.838
 4525SOL     OW14473   6.832   1.878   5.432
 4525SOL    HW114474   6.870   1.962   5.393
 4525SOL    HW214475   6.795   1.898   5.523
 4526SOL     OW14476   3.590   0.993   0.659
 4526SOL    HW114477   3.660   0.942   0.708
 4526SOL    HW214478   3.501   0.951   0.674
 4527SOL     OW14479   3.919   0.514   4.130
 4527SOL    HW114480   3.944   0.609   4.149
 4527SOL    HW214481   3.838   0.512   4.072
 4528SOL     OW14482   4.973   6.942   5.751
 4528SOL    HW114483   4.936   6.865   5.698
 4528SOL    HW214484   4.908   6.968   5.822
 4529SOL     OW14485   3.978   0.413   3.826
 4529SOL    HW114486   4.065   0.391   3.869
 4529SOL    HW214487   3.932   0.485   3.878
 4530SOL     OW14488   0.580   2.915   4.685
 4530SOL    HW114489   0.678   2.902   4.670
 4530SOL    HW214490   0.532   2.830   4.664
 4531SOL     OW14491   0.051   4.059   3.452
 4531SOL    HW114492   6.974   4.028   3.472
 4531SOL    HW214493   0.060   4.077   3.354
 4532SOL     OW14494   6.433   1.747   0.628
 4532SOL    HW114495   6.369   1.749   0.552
 4532SOL    HW214496   6.383   1.767   0.713
 4533SOL     OW14497   3.950   5.619   2.363
 4533SOL    HW114498   3.925   5.700   2.311
 4533SOL    HW214499   3.933   5.635   2.461
 4534SOL     OW14500   0.154   4.155   5.345
 4534SOL    HW114501   0.233   4.103   5.378
 4534SOL    HW214502   0.073   4.129   5.398
 4535SOL     OW14503   4.934   2.155   2.861
 4535SOL    HW114504   5.029   2.164   2.830
 4535SOL    HW214505   4.922   2.206   2.947
 4536SOL     OW14506   0.157   0.639   4.059
 4536SOL    HW114507   0.094   0.716   4.071
 4536SOL    HW214508   0.216   0.631   4.139
 4537SOL     OW14509   4.204   3.021   6.271
 4537SOL    HW114510   4.287   3.046   6.321
 4537SOL    HW214511   4.219   2.934   6.223
 4538SOL     OW14512   3.689   1.245   2.055
 4538SOL    HW114513   3.698   1.265   1.958
 4538SOL    HW214514   3.697   1.331   2.107
 4539SOL     OW14515   2.084   1.894   2.419
 4539SOL    HW114516   2.045   1.811   2.380
 4539SOL    HW214517   2.011   1.962   2.432
 4540SOL     OW14518   3.680   2.805   5.129
 4540SOL    HW114519   3.754   2.854   5.083
 4540SOL    HW214520   3.713   2.717   5.163
 4541SOL     OW14521   6.426   1.463   1.314
 4541SOL    HW114522   6.507   1.408   1.337
 4541SOL    HW214523   6.346   1.403   1.307
 4542SOL     OW14524   5.088   0.206   3.475
 4542SOL    HW114525   5.096   0.304   3.494
 4542SOL    HW214526   5.038   0.193   3.389
 4543SOL     OW14527   5.316   2.090   1.733
 4543SOL    HW114528   5.367   2.081   1.819
 4543SOL    HW214529   5.325   2.184   1.699
 4544SOL     OW14530   3.987   4.827   6.348
 4544SOL    HW114531   3.927   4.778   6.411
 4544SOL    HW214532   4.022   4.763   6.279
 4545SOL     OW14533   4.375   3.591   6.063
 4545SOL    HW114534   4.428   3.662   6.017
 4545SOL    HW214535   4.349   3.520   5.997
 4546SOL     OW14536   0.260   6.573   6.948
 4546SOL    HW114537   0.190   6.616   7.005
 4546SOL    HW214538   0.349   6.579   6.994
 4547SOL     OW14539   4.109   1.442   1.496
 4547SOL    HW114540   4.139   1.532   1.526
 4547SOL    HW214541   4.019   1.423   1.533
 4548SOL     OW14542   1.733   3.347   3.629
 4548SOL    HW114543   1.714   3.353   3.531
 4548SOL    HW214544   1.654   3.307   3.676
 4549SOL     OW14545   4.852   1.665   2.651
 4549SOL    HW114546   4.857   1.567   2.633
 4549SOL    HW214547   4.791   1.708   2.585
 4550SOL     OW14548   1.494   6.513   4.723
 4550SOL    HW114549   1.513   6.603   4.684
 4550SOL    HW214550   1.568   6.450   4.698
 4551SOL     OW14551   0.326   2.830   6.440
 4551SOL    HW114552   0.410   2.797   6.484
 4551SOL    HW214553   0.315   2.928   6.457
 4552SOL     OW14554   6.806   2.999   3.834
 4552SOL    HW114555   6.843   3.035   3.919
 4552SOL    HW214556   6.808   2.899   3.837
 4553SOL     OW14557   4.966   4.673   0.142
 4553SOL    HW114558   4.884   4.686   0.197
 4553SOL    HW214559   5.043   4.647   0.201
 4554SOL     OW14560   5.463   0.284   3.477
 4554SOL    HW114561   5.383   0.225   3.477
 4554SOL    HW214562   5.538   0.238   3.430
 4555SOL     OW14563   4.492   2.201   6.890
 4555SOL    HW114564   4.503   2.142   6.809
 4555SOL    HW214565   4.489   2.144   6.972
 4556SOL     OW14566   4.944   1.041   4.923
 4556SOL    HW114567   4.955   1.055   4.825
 4556SOL    HW214568   5.029   1.007   4.962
 4557SOL     OW14569   4.952   0.364   5.411
 4557SOL    HW114570   4.920   0.277   5.447
 4557SOL    HW214571   4.965   0.429   5.487
 4558SOL     OW14572   5.931   3.882   6.143
 4558SOL    HW114573   5.969   3.791   6.158
 4558SOL    HW214574   5.957   3.916   6.053
 4559SOL     OW14575   0.407   6.423   1.662
 4559SOL    HW114576   0.408   6.415   1.563
 4559SOL    HW214577   0.461   6.348   1.702
 4560SOL     OW14578   5.217   2.756   2.857
 4560SOL    HW114579   5.222   2.711   2.768
 4560SOL    HW214580   5.165   2.699   2.921
 4561SOL     OW14581   2.903   0.589   6.567
 4561SOL    HW114582   2.880   0.549   6.479
 4561SOL    HW214583   2.938   0.518   6.629
 4562SOL     OW14584   2.784   4.963   5.395
 4562SOL    HW114585   2.831   4.967   5.483
 4562SOL    HW214586   2.796   4.872   5.356
 4563SOL     OW14587   5.683   2.467   6.013
 4563SOL    HW114588   5.599   2.518   5.993
 4563SOL    HW214589   5.762   2.521   5.983
 4564SOL     OW14590   1.401   5.613   6.860
 4564SOL    HW114591   1.397   5.688   6.927
 4564SOL    HW214592   1.312   5.567   6.857
 4565SOL     OW14593   3.087   0.626   3.760
 4565SOL    HW114594   3.007   0.684   3.778
 4565SOL    HW214595   3.170   0.674   3.790
 4566SOL     OW14596   0.596   1.582   0.472
 4566SOL    HW114597   0.555   1.610   0.559
 4566SOL    HW214598   0.583   1.654   0.405
 4567SOL     OW14599   6.819   1.049   1.012
 4567SOL    HW114600   6.764   1.059   0.929
 4567SOL    HW214601   6.806   1.130   1.070
 4568SOL     OW14602   3.303   4.962   4.448
 4568SOL    HW114603   3.244   4.904   4.504
 4568SOL    HW214604   3.390   4.915   4.431
 4569SOL     OW14605   0.082   2.456   3.380
 4569SOL    HW114606   0.156   2.390   3.392
 4569SOL    HW214607   0.118   2.540   3.339
 4570SOL     OW14608   6.337   5.135   4.147
 4570SOL    HW114609   6.306   5.123   4.053
 4570SOL    HW214610   6.262   5.119   4.210
 4571SOL     OW14611   3.819   2.961   4.010
 4571SOL    HW114612   3.764   2.958   3.926
 4571SOL    HW214613   3.907   3.004   3.990
 4572SOL     OW14614   2.283   5.489   1.971
 4572SOL    HW114615   2.363   5.458   1.919
 4572SOL    HW214616   2.283   5.589   1.975
 4573SOL     OW14617   5.526   7.010   0.513
 4573SOL    HW114618   5.430   0.004   0.487
 4573SOL    HW214619   5.573   6.949   0.448
 4574SOL     OW14620   0.401   4.602   1.554
 4574SOL    HW114621   0.483   4.580   1.606
 4574SOL    HW214622   0.409   4.694   1.516
 4575SOL     OW14623   6.550   6.563   2.209
 4575SOL    HW114624   6.455   6.584   2.188
 4575SOL    HW214625   6.556   6.474   2.254
 4576SOL     OW14626   2.992   5.841   4.375
 4576SOL    HW114627   2.915   5.843   4.312
 4576SOL    HW214628   2.971   5.896   4.456
 4577SOL     OW14629   1.456   2.309   3.911
 4577SOL    HW114630   1.501   2.396   3.890
 4577SOL    HW214631   1.412   2.274   3.829
 4578SOL     OW14632   6.822   5.017   4.048
 4578SOL    HW114633   6.744   4.957   4.030
 4578SOL    HW214634   6.798   5.082   4.120
 4579SOL     OW14635   5.132   2.229   4.508
 4579SOL    HW114636   5.093   2.322   4.509
 4579SOL    HW214637   5.137   2.197   4.413
 4580SOL     OW14638   6.826   5.488   0.223
 4580SOL    HW114639   6.924   5.500   0.211
 4580SOL    HW214640   6.778   5.572   0.197
 4581SOL     OW14641   3.378   6.215   3.624
 4581SOL    HW114642   3.357   6.267   3.542
 4581SOL    HW214643   3.471   6.179   3.619
 4582SOL     OW14644   4.728   0.082   3.490
 4582SOL    HW114645   4.747   0.161   3.548
 4582SOL    HW214646   4.794   0.009   3.510
 4583SOL     OW14647   4.239   1.602   5.746
 4583SOL    HW114648   4.299   1.625   5.822
 4583SOL    HW214649   4.293   1.560   5.672
 4584SOL     OW14650   1.450   4.823   5.620
 4584SOL    HW114651   1.510   4.779   5.554
 4584SOL    HW214652   1.504   4.854   5.698
 4585SOL     OW14653   3.146   6.578   2.663
 4585SOL    HW114654   3.094   6.662   2.676
 4585SOL    HW214655   3.100   6.521   2.595
 4586SOL     OW14656   2.752   6.895   2.146
 4586SOL    HW114657   2.681   6.903   2.215
 4586SOL    HW214658   2.831   6.848   2.185
 4587SOL     OW14659   2.632   4.788   1.107
 4587SOL    HW114660   2.578   4.868   1.080
 4587SOL    HW214661   2.651   4.732   1.026
 4588SOL     OW14662   3.848   3.996   5.597
 4588SOL    HW114663   3.904   4.079   5.597
 4588SOL    HW214664   3.878   3.935   5.670
 4589SOL     OW14665   1.021   1.945   3.417
 4589SOL    HW114666   1.077   1.895   3.483
 4589SOL    HW214667   1.046   2.042   3.417
 4590SOL     OW14668   4.486   6.038   2.826
 4590SOL    HW114669   4.525   5.984   2.901
 4590SOL    HW214670   4.496   6.135   2.847
 4591SOL     OW14671   6.001   6.382   5.593
 4591SOL    HW114672   5.993   6.446   5.517
 4591SOL    HW214673   5.935   6.308   5.582
 4592SOL     OW14674   3.265   1.604   5.907
 4592SOL    HW114675   3.221   1.589   5.996
 4592SOL    HW214676   3.356   1.563   5.908
 4593SOL     OW14677   3.890   6.697   1.500
 4593SOL    HW114678   3.877   6.735   1.591
 4593SOL    HW214679   3.831   6.744   1.435
 4594SOL     OW14680   3.258   2.144   2.828
 4594SOL    HW114681   3.167   2.109   2.811
 4594SOL    HW214682   3.324   2.095   2.771
 4595SOL     OW14683   4.671   3.261   6.020
 4595SOL    HW114684   4.726   3.343   6.038
 4595SOL    HW214685   4.602   3.250   6.091
 4596SOL     OW14686   6.214   6.946   1.985
 4596SOL    HW114687   6.192   6.899   2.071
 4596SOL    HW214688   6.181   6.892   1.908
 4597SOL     OW14689   6.813   4.959   6.159
 4597SOL    HW114690   6.837   4.863   6.146
 4597SOL    HW214691   6.754   4.968   6.239
 4598SOL     OW14692   3.201   4.389   0.401
 4598SOL    HW114693   3.165   4.451   0.470
 4598SOL    HW214694   3.267   4.438   0.343
 4599SOL     OW14695   2.241   5.126   0.433
 4599SOL    HW114696   2.326   5.117   0.485
 4599SOL    HW214697   2.176   5.056   0.464
 4600SOL     OW14698   3.613   5.046   1.631
 4600SOL    HW114699   3.561   5.089   1.558
 4600SOL    HW214700   3.551   4.999   1.694
 4601SOL     OW14701   1.610   5.722   4.605
 4601SOL    HW114702   1.566   5.744   4.518
 4601SOL    HW214703   1.706   5.749   4.602
 4602SOL     OW14704   1.523   1.329   1.319
 4602SOL    HW114705   1.523   1.321   1.219
 4602SOL    HW214706   1.445   1.278   1.356
 4603SOL     OW14707   3.186   1.521   1.800
 4603SOL    HW114708   3.215   1.553   1.890
 4603SOL    HW214709   3.266   1.492   1.748
 4604SOL     OW14710   1.594   0.932   2.225
 4604SOL    HW114711   1.676   0.965   2.178
 4604SOL    HW214712   1.521   0.917   2.159
 4605SOL     OW14713   4.817   6.499   5.799
 4605SOL    HW114714   4.781   6.592   5.790
 4605SOL    HW214715   4.905   6.502   5.846
 4606SOL     OW14716   6.947   6.459   5.518
 4606SOL    HW114717   0.003   6.440   5.451
 4606SOL    HW214718   6.953   6.554   5.547
 4607SOL     OW14719   2.732   2.437   1.118
 4607SOL    HW114720   2.787   2.514   1.085
 4607SOL    HW214721   2.779   2.394   1.196
 4608SOL     OW14722   1.697   3.790   5.285
 4608SOL    HW114723   1.628   3.735   5.332
 4608SOL    HW214724   1.787   3.772   5.326
 4609SOL     OW14725   3.427   6.626   6.944
 4609SOL    HW114726   3.504   6.689   6.957
 4609SOL    HW214727   3.415   6.608   6.846
 4610SOL     OW14728   6.776   3.319   6.711
 4610SOL    HW114729   6.770   3.409   6.753
 4610SOL    HW214730   6.693   3.266   6.733
 4611SOL     OW14731   0.646   3.423   6.435
 4611SOL    HW114732   0.659   3.326   6.453
 4611SOL    HW214733   0.652   3.474   6.520
 4612SOL     OW14734   2.589   0.369   6.441
 4612SOL    HW114735   2.649   0.303   6.487
 4612SOL    HW214736   2.546   0.325   6.362
 4613SOL     OW14737   3.243   5.665   2.311
 4613SOL    HW114738   3.312   5.610   2.263
 4613SOL    HW214739   3.262   5.663   2.409
 4614SOL     OW14740   2.551   5.084   0.080
 4614SOL    HW114741   2.561   5.092   6.996
 4614SOL    HW214742   2.464   5.040   0.100
 4615SOL     OW14743   6.915   2.884   0.369
 4615SOL    HW114744   6.899   2.883   0.271
 4615SOL    HW214745   6.831   2.910   0.417
 4616SOL     OW14746   6.366   0.569   0.358
 4616SOL    HW114747   6.375   0.598   0.262
 4616SOL    HW214748   6.286   0.509   0.367
 4617SOL     OW14749   6.817   3.794   2.146
 4617SOL    HW114750   6.774   3.708   2.119
 4617SOL    HW214751   6.748   3.854   2.186
 4618SOL     OW14752   1.193   2.109   6.227
 4618SOL    HW114753   1.198   2.195   6.279
 4618SOL    HW214754   1.115   2.055   6.260
 4619SOL     OW14755   2.959   6.956   3.809
 4619SOL    HW114756   3.007   6.869   3.824
 4619SOL    HW214757   3.019   0.003   3.760
 4620SOL     OW14758   2.706   4.788   6.401
 4620SOL    HW114759   2.792   4.747   6.431
 4620SOL    HW214760   2.720   4.886   6.383
 4621SOL     OW14761   0.068   6.716   0.071
 4621SOL    HW114762   0.079   6.679   0.163
 4621SOL    HW214763   6.991   6.699   0.039
 4622SOL     OW14764   2.417   3.203   1.349
 4622SOL    HW114765   2.445   3.298   1.336
 4622SOL    HW214766   2.356   3.176   1.275
 4623SOL     OW14767   6.167   4.652   2.671
 4623SOL    HW114768   6.192   4.560   2.699
 4623SOL    HW214769   6.171   4.658   2.571
 4624SOL     OW14770   4.916   6.796   5.517
 4624SOL    HW114771   4.916   6.704   5.477
 4624SOL    HW214772   4.833   6.845   5.488
 4625SOL     OW14773   1.684   3.562   6.003
 4625SOL    HW114774   1.770   3.607   5.976
 4625SOL    HW214775   1.610   3.628   6.001
 4626SOL     OW14776   5.442   5.519   2.167
 4626SOL    HW114777   5.352   5.486   2.195
 4626SOL    HW214778   5.513   5.461   2.207
 4627SOL     OW14779   2.018   0.521   5.757
 4627SOL    HW114780   2.075   0.600   5.782
 4627SOL    HW214781   1.973   0.485   5.839
 4628SOL     OW14782   0.000   3.345   1.821
 4628SOL    HW114783   0.078   3.332   1.883
 4628SOL    HW214784   6.986   3.441   1.826
 4629SOL     OW14785   3.914   4.848   4.342
 4629SOL    HW114786   3.882   4.913   4.273
 4629SOL    HW214787   3.868   4.867   4.429
 4630SOL     OW14788   2.100   6.970   2.678
 4630SOL    HW114789   2.119   0.001   2.764
 4630SOL    HW214790   2.017   6.915   2.687
 4631SOL     OW14791   2.029   0.955   2.345
 4631SOL    HW114792   1.980   0.999   2.420
 4631SOL    HW214793   1.973   0.956   2.263
 4632SOL     OW14794   5.989   5.497   4.124
 4632SOL    HW114795   5.917   5.554   4.162
 4632SOL    HW214796   6.078   5.540   4.140
 4633SOL     OW14797   5.603   2.676   5.609
 4633SOL    HW114798   5.553   2.762   5.608
 4633SOL    HW214799   5.698   2.692   5.581
 4634SOL     OW14800   3.612   4.822   1.222
 4634SOL    HW114801   3.626   4.857   1.130
 4634SOL    HW214802   3.615   4.722   1.220
 4635SOL     OW14803   5.147   3.961   1.139
 4635SOL    HW114804   5.149   3.890   1.210
 4635SOL    HW214805   5.071   4.024   1.157
 4636SOL     OW14806   1.330   5.253   1.110
 4636SOL    HW114807   1.323   5.161   1.072
 4636SOL    HW214808   1.346   5.319   1.036
 4637SOL     OW14809   1.816   0.396   4.642
 4637SOL    HW114810   1.890   0.418   4.705
 4637SOL    HW214811   1.852   0.340   4.567
 4638SOL     OW14812   4.456   3.970   6.346
 4638SOL    HW114813   4.511   4.047   6.377
 4638SOL    HW214814   4.500   3.884   6.374
 4639SOL     OW14815   0.185   2.907   5.218
 4639SOL    HW114816   0.278   2.920   5.252
 4639SOL    HW214817   0.188   2.869   5.126
 4640SOL     OW14818   6.298   4.389   2.776
 4640SOL    HW114819   6.396   4.368   2.773
 4640SOL    HW214820   6.246   4.304   2.764
 4641SOL     OW14821   2.829   4.251   5.861
 4641SOL    HW114822   2.873   4.208   5.782
 4641SOL    HW214823   2.894   4.313   5.906
 4642SOL     OW14824   5.946   5.966   3.808
 4642SOL    HW114825   5.975   6.053   3.767
 4642SOL    HW214826   5.852   5.946   3.778
 4643SOL     OW14827   4.181   2.481   0.939
 4643SOL    HW114828   4.087   2.499   0.965
 4643SOL    HW214829   4.223   2.565   0.903
 4644SOL     OW14830   2.339   5.039   4.909
 4644SOL    HW114831   2.352   4.991   4.996
 4644SOL    HW214832   2.402   5.002   4.841
 4645SOL     OW14833   2.189   6.157   4.428
 4645SOL    HW114834   2.144   6.129   4.512
 4645SOL    HW214835   2.278   6.111   4.421
 4646SOL     OW14836   4.019   0.622   1.636
 4646SOL    HW114837   4.072   0.559   1.580
 4646SOL    HW214838   3.953   0.671   1.579
 4647SOL     OW14839   0.018   0.766   4.391
 4647SOL    HW114840   0.004   0.858   4.354
 4647SOL    HW214841   0.044   0.772   4.487
 4648SOL     OW14842   1.460   4.722   2.298
 4648SOL    HW114843   1.531   4.662   2.261
 4648SOL    HW214844   1.455   4.806   2.243
 4649SOL     OW14845   5.881   6.230   6.292
 4649SOL    HW114846   5.855   6.219   6.388
 4649SOL    HW214847   5.799   6.240   6.236
 4650SOL     OW14848   0.210   5.044   1.793
 4650SOL    HW114849   0.179   4.950   1.809
 4650SOL    HW214850   0.132   5.106   1.801
 4651SOL     OW14851   6.542   1.689   1.987
 4651SOL    HW114852   6.483   1.614   1.958
 4651SOL    HW214853   6.500   1.776   1.960
 4652SOL     OW14854   0.323   6.005   5.550
 4652SOL    HW114855   0.328   5.958   5.639
 4652SOL    HW214856   0.228   6.028   5.530
 4653SOL     OW14857   0.730   5.624   6.943
 4653SOL    HW114858   0.810   5.578   6.904
 4653SOL    HW214859   0.649   5.567   6.930
 4654SOL     OW14860   0.693   1.487   6.201
 4654SOL    HW114861   0.701   1.481   6.300
 4654SOL    HW214862   0.757   1.556   6.166
 4655SOL     OW14863   0.326   5.350   3.410
 4655SOL    HW114864   0.418   5.334   3.374
 4655SOL    HW214865   0.261   5.290   3.363
 4656SOL     OW14866   2.161   0.272   3.336
 4656SOL    HW114867   2.195   0.253   3.428
 4656SOL    HW214868   2.087   0.339   3.341
 4657SOL     OW14869   5.665   0.136   6.617
 4657SOL    HW114870   5.756   0.109   6.586
 4657SOL    HW214871   5.649   0.101   6.709
 4658SOL     OW14872   5.070   0.727   3.255
 4658SOL    HW114873   4.992   0.777   3.293
 4658SOL    HW214874   5.039   0.669   3.180
 4659SOL     OW14875   2.468   2.662   4.650
 4659SOL    HW114876   2.551   2.694   4.695
 4659SOL    HW214877   2.433   2.582   4.698
 4660SOL     OW14878   6.824   1.480   6.093
 4660SOL    HW114879   6.852   1.416   6.021
 4660SOL    HW214880   6.773   1.556   6.052
 4661SOL     OW14881   4.035   3.617   3.526
 4661SOL    HW114882   4.044   3.563   3.442
 4661SOL    HW214883   4.033   3.714   3.503
 4662SOL     OW14884   5.878   0.421   3.956
 4662SOL    HW114885   5.787   0.457   3.975
 4662SOL    HW214886   5.905   0.444   3.862
 4663SOL     OW14887   1.030   1.423   2.011
 4663SOL    HW114888   1.050   1.355   2.083
 4663SOL    HW214889   1.077   1.509   2.033
 4664SOL     OW14890   3.203   3.241   0.632
 4664SOL    HW114891   3.291   3.240   0.584
 4664SOL    HW214892   3.155   3.156   0.615
 4665SOL     OW14893   5.226   1.065   6.732
 4665SOL    HW114894   5.322   1.071   6.702
 4665SOL    HW214895   5.189   1.157   6.742
 4666SOL     OW14896   2.734   1.499   0.487
 4666SOL    HW114897   2.786   1.495   0.572
 4666SOL    HW214898   2.673   1.421   0.481
 4667SOL     OW14899   0.524   5.844   5.081
 4667SOL    HW114900   0.434   5.841   5.124
 4667SOL    HW214901   0.576   5.921   5.119
 4668SOL     OW14902   5.546   1.487   4.970
 4668SOL    HW114903   5.598   1.570   4.989
 4668SOL    HW214904   5.566   1.456   4.877
 4669SOL     OW14905   2.434   0.814   1.328
 4669SOL    HW114906   2.531   0.797   1.312
 4669SOL    HW214907   2.389   0.833   1.241
 4670SOL     OW14908   1.565   1.243   4.786
 4670SOL    HW114909   1.641   1.300   4.756
 4670SOL    HW214910   1.595   1.147   4.790
 4671SOL     OW14911   5.758   2.822   0.994
 4671SOL    HW114912   5.847   2.814   1.040
 4671SOL    HW214913   5.687   2.839   1.062
 4672SOL     OW14914   2.929   3.139   5.280
 4672SOL    HW114915   2.991   3.113   5.206
 4672SOL    HW214916   2.865   3.065   5.298
 4673SOL     OW14917   4.091   0.339   2.483
 4673SOL    HW114918   4.152   0.369   2.556
 4673SOL    HW214919   4.023   0.275   2.520
 4674SOL     OW14920   4.265   6.977   5.898
 4674SOL    HW114921   4.330   6.994   5.825
 4674SOL    HW214922   4.173   6.965   5.859
 4675SOL     OW14923   1.377   4.192   6.174
 4675SOL    HW114924   1.419   4.243   6.249
 4675SOL    HW214925   1.285   4.163   6.200
 4676SOL     OW14926   0.279   5.412   3.656
 4676SOL    HW114927   0.307   5.389   3.563
 4676SOL    HW214928   0.270   5.511   3.665
 4677SOL     OW14929   1.196   3.519   0.595
 4677SOL    HW114930   1.225   3.469   0.513
 4677SOL    HW214931   1.265   3.588   0.617
 4678SOL     OW14932   1.403   4.215   2.128
 4678SOL    HW114933   1.392   4.275   2.207
 4678SOL    HW214934   1.402   4.119   2.158
 4679SOL     OW14935   4.276   0.196   1.838
 4679SOL    HW114936   4.311   0.134   1.768
 4679SOL    HW214937   4.345   0.263   1.861
 4680SOL     OW14938   1.792   0.818   6.883
 4680SOL    HW114939   1.748   0.782   6.966
 4680SOL    HW214940   1.858   0.888   6.909
 4681SOL     OW14941   5.089   5.148   2.318
 4681SOL    HW114942   4.991   5.168   2.312
 4681SOL    HW214943   5.121   5.166   2.411
 4682SOL     OW14944   3.103   4.123   6.604
 4682SOL    HW114945   3.053   4.174   6.533
 4682SOL    HW214946   3.097   4.172   6.690
 4683SOL     OW14947   5.961   4.191   3.729
 4683SOL    HW114948   6.050   4.219   3.765
 4683SOL    HW214949   5.898   4.269   3.733
 4684SOL     OW14950   5.545   6.314   0.103
 4684SOL    HW114951   5.501   6.371   0.034
 4684SOL    HW214952   5.643   6.310   0.084
 4685SOL     OW14953   3.610   4.116   4.367
 4685SOL    HW114954   3.551   4.036   4.363
 4685SOL    HW214955   3.618   4.147   4.462
 4686SOL     OW14956   2.478   6.271   0.515
 4686SOL    HW114957   2.498   6.223   0.601
 4686SOL    HW214958   2.560   6.317   0.482
 4687SOL     OW14959   2.380   0.337   2.606
 4687SOL    HW114960   2.398   0.431   2.578
 4687SOL    HW214961   2.384   0.331   2.706
 4688SOL     OW14962   5.695   2.918   6.238
 4688SOL    HW114963   5.684   2.893   6.335
 4688SOL    HW214964   5.636   2.995   6.217
 4689SOL     OW14965   6.629   0.618   2.225
 4689SOL    HW114966   6.654   0.707   2.189
 4689SOL    HW214967   6.591   0.561   2.151
 4690SOL     OW14968   2.646   2.032   0.637
 4690SOL    HW114969   2.624   1.962   0.569
 4690SOL    HW214970   2.601   2.118   0.612
 4691SOL     OW14971   6.724   4.084   2.310
 4691SOL    HW114972   6.793   4.083   2.237
 4691SOL    HW214973   6.633   4.071   2.270
 4692SOL     OW14974   5.012   3.082   2.598
 4692SOL    HW114975   4.940   3.030   2.643
 4692SOL    HW214976   4.977   3.118   2.511
 4693SOL     OW14977   1.221   0.688   2.939
 4693SOL    HW114978   1.316   0.683   2.970
 4693SOL    HW214979   1.174   0.603   2.961
 4694SOL     OW14980   1.817   0.549   6.442
 4694SOL    HW114981   1.883   0.609   6.487
 4694SOL    HW214982   1.847   0.532   6.348
 4695SOL     OW14983   1.849   5.222   2.169
 4695SOL    HW114984   1.940   5.183   2.162
 4695SOL    HW214985   1.831   5.250   2.263
 4696SOL     OW14986   1.760   6.030   6.096
 4696SOL    HW114987   1.810   5.960   6.046
 4696SOL    HW214988   1.776   6.119   6.052
 4697SOL     OW14989   4.126   5.328   1.714
 4697SOL    HW114990   4.044   5.338   1.770
 4697SOL    HW214991   4.158   5.418   1.685
 4698SOL     OW14992   4.991   1.083   4.672
 4698SOL    HW114993   4.915   1.038   4.626
 4698SOL    HW214994   5.041   1.140   4.607
 4699SOL     OW14995   1.446   0.068   2.540
 4699SOL    HW114996   1.378   0.016   2.489
 4699SOL    HW214997   1.435   0.051   2.638
 4700SOL     OW14998   6.153   1.884   2.240
 4700SOL    HW114999   6.210   1.913   2.317
 4700SOL    HW215000   6.187   1.796   2.206
 4701SOL     OW15001   3.154   2.462   1.720
 4701SOL    HW115002   3.243   2.418   1.730
 4701SOL    HW215003   3.088   2.419   1.781
 4702SOL     OW15004   5.569   5.048   6.635
 4702SOL    HW115005   5.658   5.089   6.654
 4702SOL    HW215006   5.555   5.041   6.536
 4703SOL     OW15007   0.798   5.701   3.383
 4703SOL    HW115008   0.716   5.648   3.405
 4703SOL    HW215009   0.876   5.663   3.431
 4704SOL     OW15010   1.159   4.722   4.214
 4704SOL    HW115011   1.166   4.670   4.299
 4704SOL    HW215012   1.215   4.679   4.144
 4705SOL     OW15013   3.835   2.047   1.676
 4705SOL    HW115014   3.866   2.130   1.628
 4705SOL    HW215015   3.737   2.056   1.697
 4706SOL     OW15016   2.193   0.145   1.412
 4706SOL    HW115017   2.245   0.205   1.474
 4706SOL    HW215018   2.123   0.199   1.365
 4707SOL     OW15019   1.575   5.494   1.966
 4707SOL    HW115020   1.540   5.513   2.058
 4707SOL    HW215021   1.614   5.402   1.963
 4708SOL     OW15022   2.003   2.784   5.157
 4708SOL    HW115023   1.977   2.880   5.146
 4708SOL    HW215024   2.076   2.761   5.093
 4709SOL     OW15025   4.901   4.169   5.757
 4709SOL    HW115026   5.000   4.186   5.760
 4709SOL    HW215027   4.876   4.136   5.666
 4710SOL     OW15028   5.906   5.941   5.096
 4710SOL    HW115029   5.891   5.850   5.057
 4710SOL    HW215030   6.003   5.964   5.091
 4711SOL     OW15031   5.392   4.019   2.699
 4711SOL    HW115032   5.330   4.002   2.623
 4711SOL    HW215033   5.485   4.029   2.664
 4712SOL     OW15034   4.668   4.312   5.805
 4712SOL    HW115035   4.749   4.257   5.785
 4712SOL    HW215036   4.600   4.256   5.853
 4713SOL     OW15037   5.652   4.108   0.664
 4713SOL    HW115038   5.602   4.065   0.739
 4713SOL    HW215039   5.730   4.159   0.700
 4714SOL     OW15040   4.004   1.763   6.455
 4714SOL    HW115041   4.075   1.692   6.454
 4714SOL    HW215042   3.957   1.765   6.367
 4715SOL     OW15043   6.760   1.502   1.797
 4715SOL    HW115044   6.737   1.522   1.702
 4715SOL    HW215045   6.697   1.550   1.858
 4716SOL     OW15046   4.141   4.992   5.446
 4716SOL    HW115047   4.214   4.971   5.380
 4716SOL    HW215048   4.174   4.974   5.539
 4717SOL     OW15049   2.614   4.978   5.188
 4717SOL    HW115050   2.666   4.966   5.273
 4717SOL    HW215051   2.656   4.925   5.115
 4718SOL     OW15052   4.601   4.486   0.182
 4718SOL    HW115053   4.678   4.543   0.211
 4718SOL    HW215054   4.612   4.463   0.085
 4719SOL     OW15055   0.014   4.329   3.579
 4719SOL    HW115056   0.036   4.232   3.572
 4719SOL    HW215057   0.096   4.383   3.558
 4720SOL     OW15058   2.188   3.027   6.712
 4720SOL    HW115059   2.187   2.927   6.716
 4720SOL    HW215060   2.281   3.060   6.727
 4721SOL     OW15061   0.408   2.616   2.733
 4721SOL    HW115062   0.380   2.701   2.778
 4721SOL    HW215063   0.505   2.599   2.752
 4722SOL     OW15064   1.236   5.969   0.006
 4722SOL    HW115065   1.257   5.931   6.931
 4722SOL    HW215066   1.145   6.010   0.004
 4723SOL     OW15067   3.735   4.337   6.719
 4723SOL    HW115068   3.679   4.261   6.753
 4723SOL    HW215069   3.806   4.358   6.786
 4724SOL     OW15070   0.824   0.257   4.907
 4724SOL    HW115071   0.797   0.166   4.937
 4724SOL    HW215072   0.773   0.326   4.958
 4725SOL     OW15073   5.170   5.869   1.426
 4725SOL    HW115074   5.148   5.772   1.435
 4725SOL    HW215075   5.128   5.919   1.503
 4726SOL     OW15076   2.066   3.013   5.471
 4726SOL    HW115077   2.154   3.052   5.445
 4726SOL    HW215078   1.998   3.086   5.475
 4727SOL     OW15079   6.732   4.571   1.367
 4727SOL    HW115080   6.782   4.564   1.454
 4727SOL    HW215081   6.753   4.492   1.310
 4728SOL     OW15082   6.011   1.613   4.731
 4728SOL    HW115083   6.103   1.583   4.757
 4728SOL    HW215084   6.014   1.653   4.640
 4729SOL     OW15085   6.380   1.486   1.939
 4729SOL    HW115086   6.328   1.500   1.855
 4729SOL    HW215087   6.386   1.388   1.960
 4730SOL     OW15088   3.250   0.136   4.513
 4730SOL    HW115089   3.283   0.149   4.607
 4730SOL    HW215090   3.260   0.221   4.462
 4731SOL     OW15091   3.129   6.431   0.770
 4731SOL    HW115092   3.047   6.373   0.771
 4731SOL    HW215093   3.199   6.389   0.713
 4732SOL     OW15094   0.530   5.319   4.907
 4732SOL    HW115095   0.551   5.401   4.961
 4732SOL    HW215096   0.446   5.334   4.855
 4733SOL     OW15097   2.276   4.209   2.456
 4733SOL    HW115098   2.311   4.118   2.436
 4733SOL    HW215099   2.345   4.277   2.430
 4734SOL     OW15100   4.700   3.832   6.540
 4734SOL    HW115101   4.694   3.876   6.629
 4734SOL    HW215102   4.789   3.854   6.498
 4735SOL     OW15103   0.653   0.754   5.005
 4735SOL    HW115104   0.662   0.850   4.976
 4735SOL    HW215105   0.741   0.708   4.992
 4736SOL     OW15106   6.648   2.020   3.283
 4736SOL    HW115107   6.610   2.007   3.191
 4736SOL    HW215108   6.595   2.090   3.331
 4737SOL     OW15109   2.362   4.876   6.849
 4737SOL    HW115110   2.435   4.944   6.841
 4737SOL    HW215111   2.275   4.923   6.864
 4738SOL     OW15112   1.047   5.871   3.573
 4738SOL    HW115113   1.045   5.772   3.585
 4738SOL    HW215114   0.955   5.904   3.553
 4739SOL     OW15115   5.712   3.255   2.753
 4739SOL    HW115116   5.649   3.209   2.690
 4739SOL    HW215117   5.759   3.329   2.705
 4740SOL     OW15118   0.976   0.598   1.027
 4740SOL    HW115119   1.013   0.675   1.078
 4740SOL    HW215120   1.045   0.564   0.962
 4741SOL     OW15121   4.978   4.560   1.207
 4741SOL    HW115122   5.051   4.610   1.253
 4741SOL    HW215123   4.939   4.616   1.134
 4742SOL     OW15124   2.183   5.430   2.247
 4742SOL    HW115125   2.257   5.370   2.279
 4742SOL    HW215126   2.200   5.455   2.152
 4743SOL     OW15127   2.599   3.362   0.350
 4743SOL    HW115128   2.626   3.456   0.326
 4743SOL    HW215129   2.524   3.365   0.416
 4744SOL     OW15130   2.341   1.998   5.013
 4744SOL    HW115131   2.387   1.976   4.927
 4744SOL    HW215132   2.260   2.053   4.995
 4745SOL     OW15133   3.507   5.283   5.111
 4745SOL    HW115134   3.453   5.256   5.191
 4745SOL    HW215135   3.492   5.219   5.037
 4746SOL     OW15136   5.778   1.128   1.436
 4746SOL    HW115137   5.822   1.127   1.526
 4746SOL    HW215138   5.694   1.074   1.440
 4747SOL     OW15139   6.738   2.497   1.768
 4747SOL    HW115140   6.801   2.434   1.723
 4747SOL    HW215141   6.775   2.520   1.859
 4748SOL     OW15142   1.815   0.561   1.126
 4748SOL    HW115143   1.795   0.659   1.132
 4748SOL    HW215144   1.902   0.547   1.079
 4749SOL     OW15145   2.785   0.304   6.110
 4749SOL    HW115146   2.858   0.236   6.122
 4749SOL    HW215147   2.701   0.269   6.151
 4750SOL     OW15148   0.781   2.145   4.433
 4750SOL    HW115149   0.781   2.218   4.364
 4750SOL    HW215150   0.875   2.126   4.461
 4751SOL     OW15151   1.124   3.683   5.624
 4751SOL    HW115152   1.026   3.680   5.639
 4751SOL    HW215153   1.163   3.762   5.673
 4752SOL     OW15154   2.065   5.832   1.892
 4752SOL    HW115155   2.058   5.887   1.808
 4752SOL    HW215156   2.002   5.754   1.886
 4753SOL     OW15157   0.244   6.982   5.621
 4753SOL    HW115158   0.304   0.033   5.666
 4753SOL    HW215159   0.283   6.957   5.532
 4754SOL     OW15160   0.302   0.298   6.849
 4754SOL    HW115161   0.320   0.221   6.910
 4754SOL    HW215162   0.221   0.347   6.881
 4755SOL     OW15163   2.543   0.735   1.031
 4755SOL    HW115164   2.625   0.684   1.009
 4755SOL    HW215165   2.464   0.674   1.032
 4756SOL     OW15166   4.728   2.808   1.379
 4756SOL    HW115167   4.650   2.800   1.317
 4756SOL    HW215168   4.697   2.798   1.473
 4757SOL     OW15169   2.101   1.272   1.614
 4757SOL    HW115170   2.046   1.326   1.679
 4757SOL    HW215171   2.134   1.190   1.659
 4758SOL     OW15172   5.376   3.997   5.323
 4758SOL    HW115173   5.351   3.927   5.256
 4758SOL    HW215174   5.295   4.050   5.348
 4759SOL     OW15175   5.926   4.792   6.318
 4759SOL    HW115176   6.014   4.769   6.360
 4759SOL    HW215177   5.853   4.777   6.384
 4760SOL     OW15178   2.071   2.725   0.777
 4760SOL    HW115179   2.022   2.726   0.864
 4760SOL    HW215180   2.008   2.700   0.703
 4761SOL     OW15181   1.501   5.575   5.683
 4761SOL    HW115182   1.459   5.659   5.718
 4761SOL    HW215183   1.555   5.596   5.602
 4762SOL     OW15184   3.942   6.783   2.230
 4762SOL    HW115185   3.855   6.735   2.241
 4762SOL    HW215186   3.991   6.783   2.317
 4763SOL     OW15187   5.740   5.543   4.820
 4763SOL    HW115188   5.651   5.511   4.787
 4763SOL    HW215189   5.810   5.476   4.794
 4764SOL     OW15190   3.974   3.851   4.902
 4764SOL    HW115191   3.881   3.819   4.886
 4764SOL    HW215192   4.035   3.815   4.832
 4765SOL     OW15193   6.925   4.460   5.228
 4765SOL    HW115194   6.900   4.448   5.132
 4765SOL    HW215195   7.011   4.511   5.234
 4766SOL     OW15196   3.243   0.610   3.279
 4766SOL    HW115197   3.273   0.634   3.187
 4766SOL    HW215198   3.147   0.581   3.277
 4767SOL     OW15199   3.973   6.480   6.786
 4767SOL    HW115200   4.038   6.455   6.858
 4767SOL    HW215201   3.921   6.400   6.759
 4768SOL     OW15202   0.669   1.029   4.936
 4768SOL    HW115203   0.736   1.044   5.008
 4768SOL    HW215204   0.700   1.072   4.852
 4769SOL     OW15205   3.886   0.797   1.466
 4769SOL    HW115206   3.825   0.744   1.406
 4769SOL    HW215207   3.833   0.863   1.518
 4770SOL     OW15208   2.627   0.464   3.477
 4770SOL    HW115209   2.642   0.444   3.574
 4770SOL    HW215210   2.614   0.563   3.465
 4771SOL     OW15211   3.804   4.335   5.453
 4771SOL    HW115212   3.891   4.304   5.492
 4771SOL    HW215213   3.820   4.416   5.397
 4772SOL     OW15214   2.303   2.651   0.393
 4772SOL    HW115215   2.307   2.748   0.417
 4772SOL    HW215216   2.378   2.629   0.330
 4773SOL     OW15217   0.026   5.465   3.855
 4773SOL    HW115218   6.977   5.389   3.849
 4773SOL    HW215219   0.120   5.428   3.854
 4774SOL     OW15220   0.785   4.247   0.446
 4774SOL    HW115221   0.852   4.197   0.393
 4774SOL    HW215222   0.772   4.338   0.406
 4775SOL     OW15223   2.581   1.490   2.484
 4775SOL    HW115224   2.502   1.551   2.492
 4775SOL    HW215225   2.647   1.528   2.419
 4776SOL     OW15226   4.025   5.093   2.059
 4776SOL    HW115227   3.985   5.162   2.120
 4776SOL    HW215228   3.958   5.022   2.040
 4777SOL     OW15229   2.918   4.277   1.683
 4777SOL    HW115230   2.966   4.198   1.721
 4777SOL    HW215231   2.915   4.350   1.751
 4778SOL     OW15232   5.314   3.562   2.720
 4778SOL    HW115233   5.396   3.607   2.683
 4778SOL    HW215234   5.233   3.598   2.674
 4779SOL     OW15235   4.808   0.670   3.034
 4779SOL    HW115236   4.796   0.601   2.962
 4779SOL    HW215237   4.777   0.633   3.121
 4780SOL     OW15238   1.819   0.308   5.337
 4780SOL    HW115239   1.831   0.396   5.383
 4780SOL    HW215240   1.733   0.309   5.286
 4781SOL     OW15241   1.975   5.764   2.990
 4781SOL    HW115242   2.068   5.793   2.968
 4781SOL    HW215243   1.969   5.664   2.983
 4782SOL     OW15244   5.673   6.011   0.505
 4782SOL    HW115245   5.712   5.923   0.535
 4782SOL    HW215246   5.741   6.083   0.517
 4783SOL     OW15247   6.343   3.827   2.387
 4783SOL    HW115248   6.279   3.767   2.339
 4783SOL    HW215249   6.335   3.812   2.486
 4784SOL     OW15250   6.110   4.386   5.237
 4784SOL    HW115251   6.142   4.465   5.290
 4784SOL    HW215252   6.189   4.342   5.193
 4785SOL     OW15253   6.569   6.851   0.980
 4785SOL    HW115254   6.605   6.758   0.988
 4785SOL    HW215255   6.483   6.850   0.929
 4786SOL     OW15256   1.899   3.071   2.497
 4786SOL    HW115257   1.918   2.973   2.491
 4786SOL    HW215258   1.801   3.087   2.483
 4787SOL     OW15259   4.236   2.285   2.493
 4787SOL    HW115260   4.284   2.347   2.555
 4787SOL    HW215261   4.155   2.248   2.540
 4788SOL     OW15262   1.299   6.178   5.529
 4788SOL    HW115263   1.209   6.221   5.536
 4788SOL    HW215264   1.288   6.082   5.502
 4789SOL     OW15265   6.340   6.909   0.793
 4789SOL    HW115266   6.359   6.940   0.700
 4789SOL    HW215267   6.299   6.817   0.790
 4790SOL     OW15268   5.432   0.959   0.019
 4790SOL    HW115269   5.395   1.052   0.021
 4790SOL    HW215270   5.515   0.957   6.978
 4791SOL     OW15271   4.851   0.874   3.350
 4791SOL    HW115272   4.802   0.789   3.336
 4791SOL    HW215273   4.787   0.951   3.346
 4792SOL     OW15274   2.946   2.227   1.651
 4792SOL    HW115275   3.037   2.189   1.634
 4792SOL    HW215276   2.950   2.292   1.727
 4793SOL     OW15277   0.553   0.265   6.335
 4793SOL    HW115278   0.524   0.361   6.345
 4793SOL    HW215279   0.623   0.259   6.264
 4794SOL     OW15280   3.964   0.775   1.871
 4794SOL    HW115281   3.987   0.726   1.787
 4794SOL    HW215282   3.994   0.722   1.950
 4795SOL     OW15283   5.817   2.600   4.325
 4795SOL    HW115284   5.826   2.571   4.230
 4795SOL    HW215285   5.845   2.526   4.386
 4796SOL     OW15286   6.121   3.757   0.958
 4796SOL    HW115287   6.086   3.783   1.048
 4796SOL    HW215288   6.158   3.664   0.963
 4797SOL     OW15289   0.239   4.765   4.835
 4797SOL    HW115290   0.166   4.833   4.841
 4797SOL    HW215291   0.311   4.788   4.900
 4798SOL     OW15292   6.556   4.287   5.610
 4798SOL    HW115293   6.650   4.320   5.606
 4798SOL    HW215294   6.500   4.337   5.544
 4799SOL     OW15295   3.671   1.285   5.083
 4799SOL    HW115296   3.650   1.379   5.058
 4799SOL    HW215297   3.717   1.239   5.007
 4800SOL     OW15298   2.248   1.969   3.813
 4800SOL    HW115299   2.287   1.934   3.899
 4800SOL    HW215300   2.164   2.019   3.833
 4801SOL     OW15301   1.558   2.797   0.515
 4801SOL    HW115302   1.490   2.868   0.496
 4801SOL    HW215303   1.555   2.773   0.612
 4802SOL     OW15304   1.980   0.532   2.073
 4802SOL    HW115305   2.043   0.599   2.112
 4802SOL    HW215306   1.962   0.460   2.140
 4803SOL     OW15307   0.879   6.879   1.395
 4803SOL    HW115308   0.851   6.785   1.375
 4803SOL    HW215309   0.860   6.937   1.316
 4804SOL     OW15310   3.861   5.671   0.348
 4804SOL    HW115311   3.833   5.711   0.261
 4804SOL    HW215312   3.837   5.573   0.349
 4805SOL     OW15313   0.476   1.257   0.843
 4805SOL    HW115314   0.405   1.316   0.805
 4805SOL    HW215315   0.566   1.297   0.824
 4806SOL     OW15316   0.731   2.816   3.041
 4806SOL    HW115317   0.643   2.863   3.043
 4806SOL    HW215318   0.716   2.717   3.035
 4807SOL     OW15319   0.941   6.509   2.296
 4807SOL    HW115320   0.870   6.517   2.227
 4807SOL    HW215321   1.030   6.500   2.251
 4808SOL     OW15322   5.597   3.208   1.276
 4808SOL    HW115323   5.656   3.163   1.343
 4808SOL    HW215324   5.598   3.156   1.191
 4809SOL     OW15325   4.572   6.492   6.025
 4809SOL    HW115326   4.564   6.470   6.122
 4809SOL    HW215327   4.655   6.451   5.988
 4810SOL     OW15328   1.324   0.034   1.418
 4810SOL    HW115329   1.325   0.131   1.442
 4810SOL    HW215330   1.385   6.999   1.479
 4811SOL     OW15331   5.516   5.859   2.934
 4811SOL    HW115332   5.489   5.887   2.842
 4811SOL    HW215333   5.603   5.903   2.958
 4812SOL     OW15334   6.628   4.928   4.481
 4812SOL    HW115335   6.564   4.941   4.406
 4812SOL    HW215336   6.719   4.958   4.453
 4813SOL     OW15337   5.764   2.981   2.488
 4813SOL    HW115338   5.787   2.889   2.519
 4813SOL    HW215339   5.829   3.046   2.527
 4814SOL     OW15340   6.585   3.344   2.112
 4814SOL    HW115341   6.492   3.324   2.082
 4814SOL    HW215342   6.642   3.262   2.100
 4815SOL     OW15343   4.082   6.403   2.792
 4815SOL    HW115344   4.170   6.393   2.838
 4815SOL    HW215345   4.017   6.448   2.854
 4816SOL     OW15346   5.331   5.256   3.243
 4816SOL    HW115347   5.379   5.208   3.316
 4816SOL    HW215348   5.280   5.333   3.281
 4817SOL     OW15349   0.006   1.834   6.903
 4817SOL    HW115350   0.084   1.872   6.853
 4817SOL    HW215351   6.977   1.906   6.956
 4818SOL     OW15352   6.872   6.048   3.616
 4818SOL    HW115353   6.903   6.021   3.707
 4818SOL    HW215354   6.936   6.014   3.547
 4819SOL     OW15355   1.781   3.292   1.199
 4819SOL    HW115356   1.699   3.235   1.195
 4819SOL    HW215357   1.787   3.349   1.117
 4820SOL     OW15358   0.664   3.221   2.528
 4820SOL    HW115359   0.655   3.186   2.621
 4820SOL    HW215360   0.695   3.148   2.468
 4821SOL     OW15361   0.032   5.745   3.942
 4821SOL    HW115362   0.003   5.651   3.923
 4821SOL    HW215363   0.131   5.748   3.956
 4822SOL     OW15364   2.012   4.544   4.183
 4822SOL    HW115365   2.112   4.538   4.195
 4822SOL    HW215366   1.982   4.637   4.202
 4823SOL     OW15367   1.696   2.874   1.575
 4823SOL    HW115368   1.600   2.876   1.604
 4823SOL    HW215369   1.727   2.967   1.556
 4824SOL     OW15370   6.292   1.709   6.466
 4824SOL    HW115371   6.381   1.740   6.501
 4824SOL    HW215372   6.219   1.752   6.518
 4825SOL     OW15373   0.706   0.016   3.941
 4825SOL    HW115374   0.626   0.074   3.955
 4825SOL    HW215375   0.698   6.950   3.998
 4826SOL     OW15376   3.890   0.369   0.885
 4826SOL    HW115377   3.968   0.364   0.824
 4826SOL    HW215378   3.807   0.387   0.833
 4827SOL     OW15379   6.748   1.486   0.764
 4827SOL    HW115380   6.720   1.487   0.668
 4827SOL    HW215381   6.845   1.463   0.770
 4828SOL     OW15382   5.728   1.475   5.271
 4828SOL    HW115383   5.730   1.395   5.211
 4828SOL    HW215384   5.639   1.478   5.318
 4829SOL     OW15385   4.304   6.493   5.051
 4829SOL    HW115386   4.335   6.458   5.139
 4829SOL    HW215387   4.207   6.518   5.057
 4830SOL     OW15388   1.712   6.423   3.686
 4830SOL    HW115389   1.649   6.351   3.657
 4830SOL    HW215390   1.801   6.407   3.643
 4831SOL     OW15391   3.181   4.545   5.312
 4831SOL    HW115392   3.102   4.544   5.251
 4831SOL    HW215393   3.193   4.454   5.352
 4832SOL     OW15394   4.080   3.665   4.399
 4832SOL    HW115395   3.982   3.653   4.390
 4832SOL    HW215396   4.120   3.688   4.310
 4833SOL     OW15397   6.255   3.296   5.128
 4833SOL    HW115398   6.298   3.335   5.046
 4833SOL    HW215399   6.157   3.289   5.114
 4834SOL     OW15400   1.155   5.144   1.634
 4834SOL    HW115401   1.201   5.108   1.553
 4834SOL    HW215402   1.114   5.233   1.612
 4835SOL     OW15403   6.932   2.949   5.836
 4835SOL    HW115404   0.015   2.953   5.824
 4835SOL    HW215405   6.894   3.041   5.830
 4836SOL     OW15406   4.601   2.188   5.622
 4836SOL    HW115407   4.541   2.205   5.543
 4836SOL    HW215408   4.556   2.124   5.684
 4837SOL     OW15409   0.485   3.750   3.873
 4837SOL    HW115410   0.522   3.663   3.841
 4837SOL    HW215411   0.464   3.744   3.971
 4838SOL     OW15412   2.061   3.937   6.224
 4838SOL    HW115413   2.146   3.973   6.261
 4838SOL    HW215414   2.061   3.837   6.231
 4839SOL     OW15415   2.594   1.059   0.701
 4839SOL    HW115416   2.518   1.112   0.665
 4839SOL    HW215417   2.583   0.963   0.676
 4840SOL     OW15418   5.475   3.050   5.294
 4840SOL    HW115419   5.451   2.957   5.265
 4840SOL    HW215420   5.402   3.085   5.353
 4841SOL     OW15421   2.895   6.428   3.500
 4841SOL    HW115422   2.859   6.508   3.453
 4841SOL    HW215423   2.848   6.417   3.588
 4842SOL     OW15424   3.758   5.926   3.377
 4842SOL    HW115425   3.664   5.951   3.356
 4842SOL    HW215426   3.819   5.961   3.306
 4843SOL     OW15427   0.146   1.437   7.014
 4843SOL    HW115428   0.097   1.470   0.079
 4843SOL    HW215429   0.171   1.514   6.955
 4844SOL     OW15430   1.252   5.387   5.857
 4844SOL    HW115431   1.235   5.420   5.765
 4844SOL    HW215432   1.260   5.465   5.920
 4845SOL     OW15433   4.875   3.829   4.867
 4845SOL    HW115434   4.842   3.744   4.825
 4845SOL    HW215435   4.868   3.822   4.966
 4846SOL     OW15436   6.103   3.328   4.738
 4846SOL    HW115437   6.059   3.400   4.792
 4846SOL    HW215438   6.192   3.307   4.778
 4847SOL     OW15439   2.514   6.615   6.635
 4847SOL    HW115440   2.421   6.592   6.608
 4847SOL    HW215441   2.554   6.676   6.567
 4848SOL     OW15442   4.521   1.196   4.065
 4848SOL    HW115443   4.450   1.127   4.075
 4848SOL    HW215444   4.609   1.151   4.050
 4849SOL     OW15445   2.496   6.322   1.090
 4849SOL    HW115446   2.514   6.395   1.157
 4849SOL    HW215447   2.412   6.275   1.115
 4850SOL     OW15448   3.593   6.629   1.134
 4850SOL    HW115449   3.648   6.579   1.067
 4850SOL    HW215450   3.536   6.565   1.185
 4851SOL     OW15451   3.702   4.760   6.978
 4851SOL    HW115452   3.780   4.738   6.919
 4851SOL    HW215453   3.622   4.707   6.948
 4852SOL     OW15454   5.515   5.151   5.912
 4852SOL    HW115455   5.486   5.221   5.846
 4852SOL    HW215456   5.596   5.183   5.960
 4853SOL     OW15457   4.652   0.471   2.474
 4853SOL    HW115458   4.600   0.496   2.392
 4853SOL    HW215459   4.658   0.371   2.479
 4854SOL     OW15460   4.226   6.780   2.190
 4854SOL    HW115461   4.128   6.767   2.198
 4854SOL    HW215462   4.246   6.841   2.113
 4855SOL     OW15463   4.941   5.212   5.389
 4855SOL    HW115464   4.893   5.236   5.474
 4855SOL    HW215465   4.884   5.238   5.311
 4856SOL     OW15466   0.258   3.279   2.647
 4856SOL    HW115467   0.271   3.229   2.732
 4856SOL    HW215468   0.244   3.376   2.666
 4857SOL     OW15469   2.441   2.578   5.122
 4857SOL    HW115470   2.421   2.487   5.158
 4857SOL    HW215471   2.482   2.634   5.194
 4858SOL     OW15472   1.854   6.605   4.702
 4858SOL    HW115473   1.894   6.514   4.715
 4858SOL    HW215474   1.784   6.621   4.771
 4859SOL     OW15475   6.922   5.598   2.796
 4859SOL    HW115476   6.978   5.619   2.717
 4859SOL    HW215477   6.844   5.661   2.801
 4860SOL     OW15478   4.288   5.180   2.072
 4860SOL    HW115479   4.204   5.126   2.072
 4860SOL    HW215480   4.272   5.269   2.029
 4861SOL     OW15481   0.237   4.430   5.504
 4861SOL    HW115482   0.274   4.439   5.596
 4861SOL    HW215483   0.217   4.334   5.485
 4862SOL     OW15484   2.310   6.408   4.533
 4862SOL    HW115485   2.311   6.382   4.630
 4862SOL    HW215486   2.219   6.439   4.507
 4863SOL     OW15487   5.598   1.881   2.407
 4863SOL    HW115488   5.639   1.899   2.497
 4863SOL    HW215489   5.671   1.873   2.339
 4864SOL     OW15490   2.042   1.704   0.977
 4864SOL    HW115491   2.009   1.672   1.066
 4864SOL    HW215492   2.127   1.754   0.990
 4865SOL     OW15493   4.177   6.092   4.775
 4865SOL    HW115494   4.128   6.064   4.858
 4865SOL    HW215495   4.229   6.175   4.793
 4866SOL     OW15496   0.600   5.460   1.954
 4866SOL    HW115497   0.611   5.431   2.049
 4866SOL    HW215498   0.578   5.381   1.896
 4867SOL     OW15499   5.089   4.497   4.338
 4867SOL    HW115500   5.039   4.417   4.305
 4867SOL    HW215501   5.123   4.549   4.259
 4868SOL     OW15502   2.053   5.624   1.626
 4868SOL    HW115503   1.993   5.621   1.706
 4868SOL    HW215504   2.148   5.610   1.655
 4869SOL     OW15505   6.244   1.946   1.335
 4869SOL    HW115506   6.223   1.989   1.423
 4869SOL    HW215507   6.238   1.847   1.343
 4870SOL     OW15508   6.670   0.596   1.150
 4870SOL    HW115509   6.632   0.518   1.102
 4870SOL    HW215510   6.689   0.572   1.245
 4871SOL     OW15511   1.879   3.866   4.433
 4871SOL    HW115512   1.904   3.892   4.526
 4871SOL    HW215513   1.961   3.857   4.378
 4872SOL     OW15514   1.088   0.832   3.991
 4872SOL    HW115515   1.046   0.890   4.061
 4872SOL    HW215516   1.134   0.755   4.036
 4873SOL     OW15517   1.097   6.318   5.300
 4873SOL    HW115518   1.152   6.251   5.251
 4873SOL    HW215519   1.056   6.382   5.235
 4874SOL     OW15520   6.134   3.216   3.395
 4874SOL    HW115521   6.121   3.118   3.409
 4874SOL    HW215522   6.209   3.249   3.453
 4875SOL     OW15523   6.890   2.757   6.131
 4875SOL    HW115524   6.970   2.815   6.143
 4875SOL    HW215525   6.896   2.710   6.043
 4876SOL     OW15526   0.434   1.389   0.150
 4876SOL    HW115527   0.435   1.361   0.246
 4876SOL    HW215528   0.493   1.469   0.138
 4877SOL     OW15529   5.880   1.100   2.217
 4877SOL    HW115530   5.899   1.154   2.134
 4877SOL    HW215531   5.880   1.003   2.194
 4878SOL     OW15532   0.288   2.686   1.681
 4878SOL    HW115533   0.333   2.632   1.751
 4878SOL    HW215534   0.211   2.736   1.721
 4879SOL     OW15535   4.905   5.746   2.980
 4879SOL    HW115536   4.874   5.835   2.947
 4879SOL    HW215537   4.913   5.683   2.903
 4880SOL     OW15538   6.104   1.822   5.589
 4880SOL    HW115539   6.103   1.733   5.635
 4880SOL    HW215540   6.191   1.868   5.606
 4881SOL     OW15541   2.851   5.512   6.404
 4881SOL    HW115542   2.844   5.535   6.501
 4881SOL    HW215543   2.797   5.577   6.350
 4882SOL     OW15544   4.904   6.363   6.969
 4882SOL    HW115545   4.911   6.293   6.898
 4882SOL    HW215546   4.822   6.419   6.953
 4883SOL     OW15547   6.049   5.698   0.089
 4883SOL    HW115548   5.950   5.698   0.073
 4883SOL    HW215549   6.076   5.611   0.130
 4884SOL     OW15550   4.123   6.145   1.510
 4884SOL    HW115551   4.200   6.194   1.469
 4884SOL    HW215552   4.071   6.099   1.438
 4885SOL     OW15553   2.066   0.310   2.913
 4885SOL    HW115554   2.066   0.214   2.941
 4885SOL    HW215555   2.140   0.358   2.960
 4886SOL     OW15556   6.166   0.663   5.944
 4886SOL    HW115557   6.145   0.566   5.925
 4886SOL    HW215558   6.080   0.714   5.951
 4887SOL     OW15559   0.408   2.374   5.685
 4887SOL    HW115560   0.314   2.345   5.667
 4887SOL    HW215561   0.449   2.314   5.754
 4888SOL     OW15562   3.473   6.174   2.004
 4888SOL    HW115563   3.540   6.102   1.987
 4888SOL    HW215564   3.473   6.238   1.927
 4889SOL     OW15565   1.336   3.104   6.455
 4889SOL    HW115566   1.390   3.042   6.512
 4889SOL    HW215567   1.394   3.141   6.382
 4890SOL     OW15568   0.405   0.199   4.282
 4890SOL    HW115569   0.324   0.237   4.237
 4890SOL    HW215570   0.480   0.192   4.216
 4891SOL     OW15571   1.122   3.969   0.407
 4891SOL    HW115572   1.215   3.989   0.439
 4891SOL    HW215573   1.058   3.981   0.482
 4892SOL     OW15574   1.758   5.360   2.411
 4892SOL    HW115575   1.679   5.309   2.446
 4892SOL    HW215576   1.804   5.406   2.487
 4893SOL     OW15577   0.809   3.509   6.879
 4893SOL    HW115578   0.907   3.506   6.899
 4893SOL    HW215579   0.794   3.562   6.795
 4894SOL     OW15580   1.669   0.640   3.306
 4894SOL    HW115581   1.659   0.673   3.399
 4894SOL    HW215582   1.710   0.711   3.249
 4895SOL     OW15583   6.185   4.089   0.078
 4895SOL    HW115584   6.110   4.035   0.117
 4895SOL    HW215585   6.172   4.185   0.103
 4896SOL     OW15586   3.978   6.372   3.672
 4896SOL    HW115587   4.050   6.303   3.662
 4896SOL    HW215588   3.892   6.327   3.698
 4897SOL     OW15589   2.860   5.973   6.649
 4897SOL    HW115590   2.932   5.964   6.580
 4897SOL    HW215591   2.898   6.016   6.731
 4898SOL     OW15592   6.197   2.289   4.513
 4898SOL    HW115593   6.249   2.249   4.589
 4898SOL    HW215594   6.214   2.237   4.430
 4899SOL     OW15595   5.049   4.733   4.830
 4899SOL    HW115596   5.104   4.732   4.746
 4899SOL    HW215597   5.063   4.820   4.877
 4900SOL     OW15598   0.521   6.682   5.481
 4900SOL    HW115599   0.472   6.693   5.567
 4900SOL    HW215600   0.502   6.592   5.442
 4901SOL     OW15601   6.846   6.686   3.102
 4901SOL    HW115602   6.863   6.721   3.010
 4901SOL    HW215603   6.933   6.672   3.149
 4902SOL     OW15604   3.435   4.917   1.812
 4902SOL    HW115605   3.357   4.877   1.765
 4902SOL    HW215606   3.497   4.845   1.842
 4903SOL     OW15607   5.466   5.582   6.096
 4903SOL    HW115608   5.551   5.558   6.049
 4903SOL    HW215609   5.448   5.679   6.085
 4904SOL     OW15610   3.095   6.730   3.800
 4904SOL    HW115611   3.150   6.648   3.820
 4904SOL    HW215612   3.114   6.761   3.707
 4905SOL     OW15613   6.294   3.593   3.838
 4905SOL    HW115614   6.335   3.518   3.787
 4905SOL    HW215615   6.198   3.571   3.859
 4906SOL     OW15616   5.105   0.716   1.075
 4906SOL    HW115617   5.200   0.723   1.044
 4906SOL    HW215618   5.099   0.647   1.147
 4907SOL     OW15619   2.437   1.859   2.071
 4907SOL    HW115620   2.350   1.910   2.069
 4907SOL    HW215621   2.508   1.918   2.109
 4908SOL     OW15622   3.926   4.789   0.197
 4908SOL    HW115623   3.831   4.765   0.176
 4908SOL    HW215624   3.934   4.889   0.203
 4909SOL     OW15625   6.203   0.279   5.117
 4909SOL    HW115626   6.212   0.326   5.205
 4909SOL    HW215627   6.179   0.345   5.046
 4910SOL     OW15628   5.791   6.875   6.458
 4910SOL    HW115629   5.757   6.846   6.547
 4910SOL    HW215630   5.751   6.818   6.387
 4911SOL     OW15631   1.231   3.601   6.115
 4911SOL    HW115632   1.200   3.695   6.125
 4911SOL    HW215633   1.321   3.600   6.071
 4912SOL     OW15634   2.531   2.630   1.732
 4912SOL    HW115635   2.525   2.728   1.717
 4912SOL    HW215636   2.622   2.598   1.707
 4913SOL     OW15637   2.883   3.128   1.899
 4913SOL    HW115638   2.914   3.220   1.872
 4913SOL    HW215639   2.901   3.113   1.996
 4914SOL     OW15640   1.874   6.529   2.721
 4914SOL    HW115641   1.834   6.562   2.635
 4914SOL    HW215642   1.946   6.463   2.702
 4915SOL     OW15643   2.623   6.294   3.347
 4915SOL    HW115644   2.655   6.237   3.423
 4915SOL    HW215645   2.579   6.376   3.383
 4916SOL     OW15646   2.066   2.327   2.877
 4916SOL    HW115647   2.090   2.367   2.965
 4916SOL    HW215648   2.106   2.381   2.804
 4917SOL     OW15649   1.993   4.527   5.823
 4917SOL    HW115650   1.969   4.436   5.790
 4917SOL    HW215651   1.920   4.591   5.801
 4918SOL     OW15652   2.194   0.739   3.713
 4918SOL    HW115653   2.208   0.800   3.635
 4918SOL    HW215654   2.140   0.787   3.783
 4919SOL     OW15655   2.475   3.148   1.614
 4919SOL    HW115656   2.469   3.142   1.514
 4919SOL    HW215657   2.510   3.238   1.640
 4920SOL     OW15658   4.162   0.367   0.298
 4920SOL    HW115659   4.119   0.441   0.247
 4920SOL    HW215660   4.259   0.389   0.313
 4921SOL     OW15661   0.713   4.628   1.969
 4921SOL    HW115662   0.807   4.624   2.004
 4921SOL    HW215663   0.661   4.551   2.006
 4922SOL     OW15664   0.722   3.067   5.869
 4922SOL    HW115665   0.706   2.976   5.830
 4922SOL    HW215666   0.704   3.064   5.968
 4923SOL     OW15667   2.934   1.834   0.260
 4923SOL    HW115668   2.934   1.848   0.359
 4923SOL    HW215669   2.851   1.874   0.221
 4924SOL     OW15670   0.242   3.641   4.129
 4924SOL    HW115671   0.274   3.560   4.178
 4924SOL    HW215672   0.308   3.715   4.139
 4925SOL     OW15673   4.644   6.100   6.596
 4925SOL    HW115674   4.545   6.109   6.584
 4925SOL    HW215675   4.683   6.189   6.620
 4926SOL     OW15676   4.241   2.915   0.493
 4926SOL    HW115677   4.281   2.841   0.439
 4926SOL    HW215678   4.147   2.932   0.462
 4927SOL     OW15679   3.398   3.732   2.280
 4927SOL    HW115680   3.447   3.712   2.195
 4927SOL    HW215681   3.423   3.823   2.312
 4928SOL     OW15682   0.759   6.508   0.454
 4928SOL    HW115683   0.745   6.409   0.452
 4928SOL    HW215684   0.854   6.529   0.478
 4929SOL     OW15685   0.776   4.690   4.721
 4929SOL    HW115686   0.796   4.705   4.624
 4929SOL    HW215687   0.860   4.666   4.769
 4930SOL     OW15688   0.504   2.818   0.903
 4930SOL    HW115689   0.583   2.830   0.842
 4930SOL    HW215690   0.430   2.878   0.873
 4931SOL     OW15691   6.645   6.604   1.052
 4931SOL    HW115692   6.695   6.570   1.132
 4931SOL    HW215693   6.670   6.551   0.971
 4932SOL     OW15694   3.536   1.603   1.159
 4932SOL    HW115695   3.575   1.695   1.168
 4932SOL    HW215696   3.568   1.546   1.235
 4933SOL     OW15697   2.432   0.362   4.866
 4933SOL    HW115698   2.501   0.394   4.931
 4933SOL    HW215699   2.356   0.427   4.865
 4934SOL     OW15700   1.838   5.940   5.354
 4934SOL    HW115701   1.808   5.868   5.291
 4934SOL    HW215702   1.832   6.028   5.309
 4935SOL     OW15703   1.926   1.405   0.840
 4935SOL    HW115704   1.976   1.486   0.810
 4935SOL    HW215705   1.833   1.430   0.867
 4936SOL     OW15706   5.087   6.001   1.649
 4936SOL    HW115707   4.999   6.026   1.690
 4936SOL    HW215708   5.160   6.051   1.696
 4937SOL     OW15709   1.022   3.194   4.925
 4937SOL    HW115710   1.103   3.192   4.983
 4937SOL    HW215711   1.024   3.115   4.862
 4938SOL     OW15712   3.456   4.938   2.187
 4938SOL    HW115713   3.498   5.024   2.218
 4938SOL    HW215714   3.518   4.890   2.125
 4939SOL     OW15715   1.067   1.390   0.970
 4939SOL    HW115716   1.086   1.295   0.994
 4939SOL    HW215717   0.969   1.400   0.951
 4940SOL     OW15718   1.217   2.044   5.755
 4940SOL    HW115719   1.280   1.988   5.700
 4940SOL    HW215720   1.265   2.126   5.787
 4941SOL     OW15721   4.272   2.650   5.422
 4941SOL    HW115722   4.202   2.633   5.353
 4941SOL    HW215723   4.357   2.605   5.395
 4942SOL     OW15724   0.461   1.885   3.159
 4942SOL    HW115725   0.392   1.957   3.150
 4942SOL    HW215726   0.459   1.849   3.252
 4943SOL     OW15727   5.503   2.878   6.928
 4943SOL    HW115728   5.542   2.970   6.926
 4943SOL    HW215729   5.530   2.828   6.845
 4944SOL     OW15730   1.040   5.002   0.053
 4944SOL    HW115731   0.942   5.018   0.063
 4944SOL    HW215732   1.057   4.904   0.045
 4945SOL     OW15733   2.735   0.308   5.808
 4945SOL    HW115734   2.792   0.389   5.792
 4945SOL    HW215735   2.726   0.291   5.906
 4946SOL     OW15736   2.773   5.393   6.828
 4946SOL    HW115737   2.757   5.401   6.927
 4946SOL    HW215738   2.851   5.333   6.812
 4947SOL     OW15739   0.862   0.448   0.716
 4947SOL    HW115740   0.789   0.382   0.702
 4947SOL    HW215741   0.932   0.408   0.774
 4948SOL     OW15742   1.831   2.049   2.431
 4948SOL    HW115743   1.876   2.139   2.433
 4948SOL    HW215744   1.782   2.035   2.517
 4949SOL     OW15745   0.008   4.162   6.230
 4949SOL    HW115746   6.935   4.166   6.182
 4949SOL    HW215747   0.078   4.127   6.168
 4950SOL     OW15748   3.769   4.423   5.954
 4950SOL    HW115749   3.761   4.513   5.995
 4950SOL    HW215750   3.784   4.432   5.856
 4951SOL     OW15751   5.189   5.717   3.024
 4951SOL    HW115752   5.100   5.745   2.988
 4951SOL    HW215753   5.261   5.775   2.986
 4952SOL     OW15754   0.758   0.276   0.045
 4952SOL    HW115755   0.756   0.369   0.080
 4952SOL    HW215756   0.833   0.225   0.089
 4953SOL     OW15757   1.380   2.317   4.995
 4953SOL    HW115758   1.303   2.304   4.932
 4953SOL    HW215759   1.407   2.229   5.034
 4954SOL     OW15760   2.931   3.733   4.634
 4954SOL    HW115761   2.923   3.683   4.720
 4954SOL    HW215762   2.911   3.830   4.649
 4955SOL     OW15763   3.871   5.953   6.055
 4955SOL    HW115764   3.830   6.023   5.998
 4955SOL    HW215765   3.874   5.866   6.006
 4956SOL     OW15766   2.776   0.077   4.833
 4956SOL    HW115767   2.683   0.071   4.797
 4956SOL    HW215768   2.805   7.002   4.865
 4957SOL     OW15769   5.674   4.258   7.011
 4957SOL    HW115770   5.598   4.206   6.971
 4957SOL    HW215771   5.730   4.296   6.938
 4958SOL     OW15772   3.757   5.460   0.873
 4958SOL    HW115773   3.719   5.376   0.836
 4958SOL    HW215774   3.855   5.450   0.886
 4959SOL     OW15775   0.230   2.401   2.776
 4959SOL    HW115776   0.160   2.397   2.847
 4959SOL    HW215777   0.265   2.494   2.769
 4960SOL     OW15778   5.091   4.754   3.648
 4960SOL    HW115779   5.043   4.697   3.581
 4960SOL    HW215780   5.078   4.714   3.739
 4961SOL     OW15781   3.417   2.359   1.694
 4961SOL    HW115782   3.425   2.278   1.637
 4961SOL    HW215783   3.490   2.360   1.762
 4962SOL     OW15784   1.126   2.997   0.116
 4962SOL    HW115785   1.156   3.088   0.086
 4962SOL    HW215786   1.202   2.949   0.159
 4963SOL     OW15787   0.785   3.903   5.820
 4963SOL    HW115788   0.841   3.957   5.758
 4963SOL    HW215789   0.798   3.805   5.800
 4964SOL     OW15790   2.320   5.977   4.738
 4964SOL    HW115791   2.398   5.920   4.711
 4964SOL    HW215792   2.298   5.960   4.834
 4965SOL     OW15793   1.396   6.495   2.938
 4965SOL    HW115794   1.435   6.447   3.017
 4965SOL    HW215795   1.462   6.493   2.863
 4966SOL     OW15796   3.445   6.488   4.307
 4966SOL    HW115797   3.357   6.534   4.310
 4966SOL    HW215798   3.476   6.468   4.400
 4967SOL     OW15799   4.371   4.747   4.808
 4967SOL    HW115800   4.338   4.685   4.879
 4967SOL    HW215801   4.388   4.837   4.848
 4968SOL     OW15802   0.152   2.689   3.273
 4968SOL    HW115803   0.134   2.786   3.289
 4968SOL    HW215804   0.242   2.678   3.231
 4969SOL     OW15805   0.087   5.702   4.282
 4969SOL    HW115806   0.149   5.732   4.355
 4969SOL    HW215807   0.095   5.764   4.204
 4970SOL     OW15808   1.976   1.958   1.459
 4970SOL    HW115809   1.947   1.864   1.440
 4970SOL    HW215810   1.913   2.022   1.415
 4971SOL     OW15811   0.014   6.254   2.383
 4971SOL    HW115812   0.086   6.185   2.387
 4971SOL    HW215813   6.964   6.229   2.311
 4972SOL     OW15814   0.632   4.185   0.664
 4972SOL    HW115815   0.608   4.268   0.715
 4972SOL    HW215816   0.706   4.205   0.600
 4973SOL     OW15817   6.212   1.226   0.352
 4973SOL    HW115818   6.302   1.251   0.389
 4973SOL    HW215819   6.164   1.308   0.323
 4974SOL     OW15820   3.282   6.924   4.337
 4974SOL    HW115821   3.277   7.003   4.398
 4974SOL    HW215822   3.197   6.917   4.284
 4975SOL     OW15823   5.125   4.839   1.106
 4975SOL    HW115824   5.097   4.890   1.188
 4975SOL    HW215825   5.213   4.794   1.123
 4976SOL     OW15826   1.238   6.742   3.260
 4976SOL    HW115827   1.219   6.829   3.305
 4976SOL    HW215828   1.259   6.758   3.163
 4977SOL     OW15829   1.514   3.980   6.028
 4977SOL    HW115830   1.605   4.017   6.014
 4977SOL    HW215831   1.450   4.054   6.046
 4978SOL     OW15832   6.366   4.241   4.647
 4978SOL    HW115833   6.345   4.333   4.678
 4978SOL    HW215834   6.292   4.179   4.673
 4979SOL     OW15835   2.593   6.818   6.446
 4979SOL    HW115836   2.646   6.855   6.369
 4979SOL    HW215837   2.512   6.874   6.460
 4980SOL     OW15838   5.476   2.995   4.297
 4980SOL    HW115839   5.402   3.005   4.231
 4980SOL    HW215840   5.503   2.899   4.304
 4981SOL     OW15841   3.270   4.950   2.666
 4981SOL    HW115842   3.287   4.878   2.734
 4981SOL    HW215843   3.190   5.003   2.694
 4982SOL     OW15844   4.004   2.569   5.480
 4982SOL    HW115845   4.023   2.567   5.382
 4982SOL    HW215846   4.063   2.502   5.527
 4983SOL     OW15847   5.613   4.547   2.973
 4983SOL    HW115848   5.712   4.558   2.975
 4983SOL    HW215849   5.590   4.468   2.915
 4984SOL     OW15850   4.911   3.736   3.836
 4984SOL    HW115851   4.880   3.714   3.929
 4984SOL    HW215852   5.011   3.728   3.832
 4985SOL     OW15853   5.493   0.678   2.419
 4985SOL    HW115854   5.489   0.695   2.517
 4985SOL    HW215855   5.568   0.615   2.399
 4986SOL     OW15856   0.775   5.177   1.040
 4986SOL    HW115857   0.762   5.159   0.943
 4986SOL    HW215858   0.862   5.223   1.055
 4987SOL     OW15859   1.624   1.167   2.349
 4987SOL    HW115860   1.606   1.081   2.301
 4987SOL    HW215861   1.661   1.147   2.440
 4988SOL     OW15862   6.077   5.716   3.787
 4988SOL    HW115863   6.176   5.706   3.780
 4988SOL    HW215864   6.048   5.796   3.734
 4989SOL     OW15865   5.170   0.294   3.736
 4989SOL    HW115866   5.175   0.268   3.833
 4989SOL    HW215867   5.103   0.236   3.690
 4990SOL     OW15868   4.466   1.988   5.812
 4990SOL    HW115869   4.369   1.976   5.832
 4990SOL    HW215870   4.507   2.051   5.878
 4991SOL     OW15871   1.789   5.341   5.835
 4991SOL    HW115872   1.836   5.300   5.757
 4991SOL    HW215873   1.691   5.342   5.819
 4992SOL     OW15874   0.984   3.390   3.914
 4992SOL    HW115875   1.068   3.434   3.945
 4992SOL    HW215876   0.910   3.411   3.978
 4993SOL     OW15877   2.242   6.318   4.036
 4993SOL    HW115878   2.160   6.374   4.052
 4993SOL    HW215879   2.285   6.346   3.951
 4994SOL     OW15880   3.675   4.965   5.158
 4994SOL    HW115881   3.591   4.927   5.198
 4994SOL    HW215882   3.723   5.018   5.227
 4995SOL     OW15883   0.091   0.624   5.692
 4995SOL    HW115884   0.073   0.601   5.596
 4995SOL    HW215885   0.048   0.556   5.751
 4996SOL     OW15886   0.413   1.320   3.522
 4996SOL    HW115887   0.321   1.337   3.488
 4996SOL    HW215888   0.412   1.316   3.622
 4997SOL     OW15889   4.003   1.579   0.799
 4997SOL    HW115890   3.941   1.657   0.792
 4997SOL    HW215891   4.019   1.558   0.896
 4998SOL     OW15892   0.770   3.852   3.143
 4998SOL    HW115893   0.781   3.770   3.087
 4998SOL    HW215894   0.719   3.921   3.092
 4999SOL     OW15895   0.704   2.799   3.510
 4999SOL    HW115896   0.659   2.713   3.488
 4999SOL    HW215897   0.708   2.811   3.609
 5000SOL     OW15898   2.540   6.275   2.944
 5000SOL    HW115899   2.448   6.238   2.949
 5000SOL    HW215900   2.606   6.200   2.939
 5001SOL     OW15901   0.581   6.120   3.049
 5001SOL    HW115902   0.566   6.218   3.040
 5001SOL    HW215903   0.530   6.072   2.977
 5002SOL     OW15904   1.561   4.518   3.906
 5002SOL    HW115905   1.590   4.505   3.811
 5002SOL    HW215906   1.636   4.495   3.968
 5003SOL     OW15907   4.049   0.593   3.185
 5003SOL    HW115908   3.961   0.555   3.156
 5003SOL    HW215909   4.081   0.660   3.118
 5004SOL     OW15910   3.968   5.528   6.923
 5004SOL    HW115911   3.907   5.453   6.948
 5004SOL    HW215912   3.920   5.593   6.864
 5005SOL     OW15913   2.883   2.782   0.146
 5005SOL    HW115914   2.858   2.862   0.092
 5005SOL    HW215915   2.869   2.802   0.243
 5006SOL     OW15916   4.829   1.404   2.243
 5006SOL    HW115917   4.888   1.438   2.170
 5006SOL    HW215918   4.879   1.404   2.329
 5007SOL     OW15919   5.637   6.054   2.100
 5007SOL    HW115920   5.645   6.083   2.195
 5007SOL    HW215921   5.722   6.077   2.051
 5008SOL     OW15922   5.445   0.526   2.988
 5008SOL    HW115923   5.419   0.514   3.084
 5008SOL    HW215924   5.462   0.436   2.947
 5009SOL     OW15925   6.723   2.361   0.555
 5009SOL    HW115926   6.756   2.278   0.600
 5009SOL    HW215927   6.773   2.440   0.589
 5010SOL     OW15928   3.572   3.590   1.000
 5010SOL    HW115929   3.601   3.511   1.053
 5010SOL    HW215930   3.633   3.667   1.018
 5011SOL     OW15931   1.636   3.359   6.615
 5011SOL    HW115932   1.596   3.442   6.655
 5011SOL    HW215933   1.680   3.306   6.687
 5012SOL     OW15934   6.313   1.769   5.998
 5012SOL    HW115935   6.266   1.821   5.927
 5012SOL    HW215936   6.363   1.693   5.957
 5013SOL     OW15937   5.798   0.272   6.016
 5013SOL    HW115938   5.774   0.325   5.935
 5013SOL    HW215939   5.828   0.334   6.089
 5014SOL     OW15940   5.713   3.393   1.873
 5014SOL    HW115941   5.777   3.435   1.809
 5014SOL    HW215942   5.643   3.343   1.822
 5015SOL     OW15943   5.757   6.143   3.964
 5015SOL    HW115944   5.801   6.198   3.892
 5015SOL    HW215945   5.685   6.198   4.007
 5016SOL     OW15946   1.776   3.742   5.563
 5016SOL    HW115947   1.798   3.645   5.559
 5016SOL    HW215948   1.859   3.794   5.587
 5017SOL     OW15949   0.681   3.135   2.002
 5017SOL    HW115950   0.677   3.187   1.916
 5017SOL    HW215951   0.703   3.040   1.982
 5018SOL     OW15952   1.032   0.211   6.851
 5018SOL    HW115953   1.044   0.117   6.820
 5018SOL    HW215954   0.936   0.237   6.838
 5019SOL     OW15955   1.129   4.598   4.474
 5019SOL    HW115956   1.186   4.604   4.556
 5019SOL    HW215957   1.103   4.503   4.458
 5020SOL     OW15958   2.216   0.121   4.800
 5020SOL    HW115959   2.311   0.090   4.796
 5020SOL    HW215960   2.199   0.162   4.890
 5021SOL     OW15961   1.918   1.075   0.622
 5021SOL    HW115962   1.843   1.141   0.625
 5021SOL    HW215963   1.944   1.049   0.715
 5022SOL     OW15964   6.975   2.674   1.331
 5022SOL    HW115965   6.916   2.593   1.339
 5022SOL    HW215966   7.001   2.706   1.422
 5023SOL     OW15967   0.484   4.323   2.364
 5023SOL    HW115968   0.559   4.265   2.396
 5023SOL    HW215969   0.488   4.411   2.411
 5024SOL     OW15970   4.376   3.982   0.869
 5024SOL    HW115971   4.435   3.901   0.861
 5024SOL    HW215972   4.361   4.002   0.966
 5025SOL     OW15973   4.549   1.431   4.895
 5025SOL    HW115974   4.492   1.446   4.814
 5025SOL    HW215975   4.611   1.355   4.879
 5026SOL     OW15976   4.793   6.891   4.625
 5026SOL    HW115977   4.728   6.964   4.642
 5026SOL    HW215978   4.839   6.866   4.710
 5027SOL     OW15979   4.700   6.061   1.073
 5027SOL    HW115980   4.635   5.989   1.099
 5027SOL    HW215981   4.718   6.056   0.975
 5028SOL     OW15982   6.199   1.629   2.136
 5028SOL    HW115983   6.253   1.584   2.065
 5028SOL    HW215984   6.244   1.617   2.224
 5029SOL     OW15985   5.772   1.805   2.200
 5029SOL    HW115986   5.844   1.846   2.256
 5029SOL    HW215987   5.813   1.748   2.129
 5030SOL     OW15988   0.413   4.060   6.878
 5030SOL    HW115989   0.397   4.129   6.949
 5030SOL    HW215990   0.353   3.982   6.894
 5031SOL     OW15991   6.437   0.067   6.106
 5031SOL    HW115992   6.415   0.143   6.045
 5031SOL    HW215993   6.466   7.003   6.052
 5032SOL     OW15994   3.219   3.315   5.748
 5032SOL    HW115995   3.189   3.322   5.653
 5032SOL    HW215996   3.313   3.349   5.756
 5033SOL     OW15997   2.210   0.578   6.545
 5033SOL    HW115998   2.199   0.569   6.446
 5033SOL    HW215999   2.131   0.628   6.582
 5034SOL     OW16000   4.368   6.689   4.595
 5034SOL    HW116001   4.445   6.736   4.552
 5034SOL    HW216002   4.386   6.678   4.693
 5035SOL     OW16003   1.980   3.385   3.976
 5035SOL    HW116004   1.928   3.470   3.986
 5035SOL    HW216005   2.054   3.383   4.043
 5036SOL     OW16006   0.728   2.372   4.811
 5036SOL    HW116007   0.708   2.453   4.756
 5036SOL    HW216008   0.707   2.290   4.758
 5037SOL     OW16009   3.903   4.072   1.072
 5037SOL    HW116010   3.813   4.060   1.113
 5037SOL    HW216011   3.912   4.015   0.991
 5038SOL     OW16012   3.806   3.691   3.748
 5038SOL    HW116013   3.905   3.693   3.735
 5038SOL    HW216014   3.785   3.713   3.843
 5039SOL     OW16015   1.167   3.871   6.143
 5039SOL    HW116016   1.195   3.870   6.239
 5039SOL    HW216017   1.096   3.940   6.130
 5040SOL     OW16018   0.312   1.167   5.451
 5040SOL    HW116019   0.393   1.110   5.463
 5040SOL    HW216020   0.330   1.236   5.382
 5041SOL     OW16021   6.927   2.348   1.644
 5041SOL    HW116022   0.007   2.377   1.650
 5041SOL    HW216023   6.921   2.249   1.654
 5042SOL     OW16024   0.923   2.537   6.432
 5042SOL    HW116025   0.986   2.505   6.362
 5042SOL    HW216026   0.871   2.615   6.397
 5043SOL     OW16027   3.634   6.781   1.923
 5043SOL    HW116028   3.605   6.876   1.928
 5043SOL    HW216029   3.718   6.775   1.869
 5044SOL     OW16030   6.578   4.583   0.332
 5044SOL    HW116031   6.625   4.671   0.338
 5044SOL    HW216032   6.482   4.598   0.308
 5045SOL     OW16033   6.065   3.015   6.846
 5045SOL    HW116034   6.048   2.999   6.749
 5045SOL    HW216035   6.016   2.946   6.900
 5046SOL     OW16036   3.510   3.223   2.656
 5046SOL    HW116037   3.447   3.149   2.678
 5046SOL    HW216038   3.464   3.290   2.598
 5047SOL     OW16039   1.776   3.652   3.651
 5047SOL    HW116040   1.724   3.712   3.711
 5047SOL    HW216041   1.756   3.556   3.672
 5048SOL     OW16042   2.152   1.173   6.235
 5048SOL    HW116043   2.094   1.243   6.277
 5048SOL    HW216044   2.152   1.185   6.135
 5049SOL     OW16045   4.516   1.330   6.724
 5049SOL    HW116046   4.473   1.253   6.771
 5049SOL    HW216047   4.531   1.404   6.790
 5050SOL     OW16048   1.763   0.111   0.978
 5050SOL    HW116049   1.846   0.112   0.922
 5050SOL    HW216050   1.788   0.116   1.075
 5051SOL     OW16051   4.614   4.958   1.062
 5051SOL    HW116052   4.658   4.887   1.116
 5051SOL    HW216053   4.515   4.942   1.060
 5052SOL     OW16054   2.353   1.613   5.034
 5052SOL    HW116055   2.438   1.663   5.018
 5052SOL    HW216056   2.352   1.580   5.129
 5053SOL     OW16057   0.380   0.710   1.922
 5053SOL    HW116058   0.380   0.793   1.867
 5053SOL    HW216059   0.290   0.666   1.916
 5054SOL     OW16060   3.836   5.174   3.928
 5054SOL    HW116061   3.742   5.207   3.935
 5054SOL    HW216062   3.869   5.189   3.834
 5055SOL     OW16063   0.357   3.990   6.115
 5055SOL    HW116064   0.352   3.911   6.176
 5055SOL    HW216065   0.446   3.992   6.070
 5056SOL     OW16066   5.710   4.219   4.325
 5056SOL    HW116067   5.677   4.238   4.233
 5056SOL    HW216068   5.693   4.298   4.384
 5057SOL     OW16069   1.113   5.922   2.211
 5057SOL    HW116070   1.109   5.870   2.126
 5057SOL    HW216071   1.133   5.860   2.287
 5058SOL     OW16072   2.884   5.462   5.564
 5058SOL    HW116073   2.951   5.397   5.528
 5058SOL    HW216074   2.819   5.415   5.623
 5059SOL     OW16075   6.683   0.206   2.312
 5059SOL    HW116076   6.717   0.179   2.402
 5059SOL    HW216077   6.693   0.305   2.302
 5060SOL     OW16078   6.441   2.138   5.803
 5060SOL    HW116079   6.377   2.213   5.790
 5060SOL    HW216080   6.471   2.135   5.898
 5061SOL     OW16081   5.273   4.948   0.369
 5061SOL    HW116082   5.192   4.974   0.316
 5061SOL    HW216083   5.246   4.919   0.461
 5062SOL     OW16084   0.321   0.559   0.799
 5062SOL    HW116085   0.369   0.540   0.884
 5062SOL    HW216086   0.304   0.658   0.791
 5063SOL     OW16087   1.686   5.834   1.688
 5063SOL    HW116088   1.670   5.870   1.596
 5063SOL    HW216089   1.618   5.764   1.708
 5064SOL     OW16090   5.353   3.267   0.210
 5064SOL    HW116091   5.275   3.328   0.220
 5064SOL    HW216092   5.430   3.316   0.170
 5065SOL     OW16093   2.577   6.393   5.621
 5065SOL    HW116094   2.542   6.329   5.690
 5065SOL    HW216095   2.675   6.405   5.633
 5066SOL     OW16096   4.682   4.603   1.042
 5066SOL    HW116097   4.650   4.659   1.119
 5066SOL    HW216098   4.668   4.507   1.063
 5067SOL     OW16099   5.381   1.391   6.491
 5067SOL    HW116100   5.471   1.433   6.496
 5067SOL    HW216101   5.388   1.293   6.513
 5068SOL     OW16102   3.280   5.294   2.099
 5068SOL    HW116103   3.337   5.252   2.028
 5068SOL    HW216104   3.325   5.376   2.134
 5069SOL     OW16105   0.589   5.044   3.007
 5069SOL    HW116106   0.618   5.024   3.101
 5069SOL    HW216107   0.552   5.137   3.003
 5070SOL     OW16108   4.943   3.394   4.096
 5070SOL    HW116109   4.913   3.485   4.125
 5070SOL    HW216110   4.889   3.325   4.144
 5071SOL     OW16111   3.811   0.563   6.950
 5071SOL    HW116112   3.833   0.558   6.852
 5071SOL    HW216113   3.857   0.488   6.998
 5072SOL     OW16114   1.105   4.337   1.013
 5072SOL    HW116115   1.048   4.255   1.016
 5072SOL    HW216116   1.201   4.310   1.009
 5073SOL     OW16117   4.491   1.706   4.382
 5073SOL    HW116118   4.450   1.793   4.409
 5073SOL    HW216119   4.436   1.664   4.310
 5074SOL     OW16120   3.097   4.784   5.606
 5074SOL    HW116121   3.071   4.688   5.602
 5074SOL    HW216122   3.063   4.824   5.692
 5075SOL     OW16123   6.825   6.184   3.907
 5075SOL    HW116124   6.843   6.222   3.998
 5075SOL    HW216125   6.898   6.120   3.883
 5076SOL     OW16126   3.687   0.633   0.619
 5076SOL    HW116127   3.612   0.697   0.606
 5076SOL    HW216128   3.654   0.551   0.666
 5077SOL     OW16129   0.248   1.878   2.255
 5077SOL    HW116130   0.253   1.957   2.194
 5077SOL    HW216131   0.253   1.907   2.350
 5078SOL     OW16132   0.445   1.281   3.807
 5078SOL    HW116133   0.404   1.363   3.847
 5078SOL    HW216134   0.436   1.204   3.871
 5079SOL     OW16135   4.009   5.040   4.677
 5079SOL    HW116136   4.051   4.950   4.679
 5079SOL    HW216137   3.921   5.035   4.629
 5080SOL     OW16138   5.757   6.798   5.819
 5080SOL    HW116139   5.736   6.810   5.915
 5080SOL    HW216140   5.849   6.834   5.800
 5081SOL     OW16141   3.376   3.471   3.003
 5081SOL    HW116142   3.471   3.443   3.018
 5081SOL    HW216143   3.352   3.456   2.907
 5082SOL     OW16144   6.714   6.930   6.128
 5082SOL    HW116145   6.794   6.871   6.112
 5082SOL    HW216146   6.631   6.875   6.125
 5083SOL     OW16147   1.412   5.672   1.799
 5083SOL    HW116148   1.447   5.590   1.845
 5083SOL    HW216149   1.350   5.644   1.725
 5084SOL     OW16150   2.029   6.293   2.715
 5084SOL    HW116151   1.952   6.236   2.744
 5084SOL    HW216152   2.114   6.243   2.729
 5085SOL     OW16153   6.513   3.294   6.059
 5085SOL    HW116154   6.532   3.234   5.982
 5085SOL    HW216155   6.550   3.385   6.041
 5086SOL     OW16156   6.988   5.179   3.518
 5086SOL    HW116157   6.918   5.146   3.581
 5086SOL    HW216158   0.004   5.269   3.548
 5087SOL     OW16159   0.280   5.789   5.168
 5087SOL    HW116160   0.237   5.803   5.257
 5087SOL    HW216161   0.220   5.735   5.110
 5088SOL     OW16162   5.838   0.517   6.958
 5088SOL    HW116163   5.934   0.547   6.957
 5088SOL    HW216164   5.780   0.589   6.921
 5089SOL     OW16165   5.629   2.826   3.884
 5089SOL    HW116166   5.581   2.914   3.889
 5089SOL    HW216167   5.574   2.756   3.930
 5090SOL     OW16168   1.526   4.401   0.581
 5090SOL    HW116169   1.598   4.467   0.601
 5090SOL    HW216170   1.457   4.443   0.522
 5091SOL     OW16171   1.431   6.592   3.389
 5091SOL    HW116172   1.346   6.636   3.361
 5091SOL    HW216173   1.501   6.662   3.405
 5092SOL     OW16174   3.782   2.697   1.508
 5092SOL    HW116175   3.751   2.791   1.496
 5092SOL    HW216176   3.766   2.667   1.602
 5093SOL     OW16177   0.789   1.628   0.775
 5093SOL    HW116178   0.872   1.582   0.744
 5093SOL    HW216179   0.769   1.706   0.715
 5094SOL     OW16180   6.600   0.163   6.590
 5094SOL    HW116181   6.546   0.116   6.520
 5094SOL    HW216182   6.655   0.235   6.547
 5095SOL     OW16183   3.011   6.973   5.370
 5095SOL    HW116184   2.944   6.987   5.297
 5095SOL    HW216185   3.088   0.020   5.357
 5096SOL     OW16186   4.184   5.342   2.686
 5096SOL    HW116187   4.274   5.299   2.685
 5096SOL    HW216188   4.157   5.365   2.592
 5097SOL     OW16189   0.618   0.828   6.506
 5097SOL    HW116190   0.683   0.836   6.430
 5097SOL    HW216191   0.641   0.748   6.561
 5098SOL     OW16192   6.634   2.645   2.337
 5098SOL    HW116193   6.646   2.604   2.428
 5098SOL    HW216194   6.720   2.638   2.286
 5099SOL     OW16195   0.991   0.416   4.747
 5099SOL    HW116196   0.933   0.349   4.793
 5099SOL    HW216197   1.063   0.447   4.810
 5100SOL     OW16198   4.814   6.005   6.396
 5100SOL    HW116199   4.774   6.048   6.477
 5100SOL    HW216200   4.864   5.922   6.423
 5101SOL     OW16201   3.984   6.048   0.566
 5101SOL    HW116202   4.049   6.078   0.635
 5101SOL    HW216203   3.895   6.090   0.583
 5102SOL     OW16204   4.129   5.728   4.461
 5102SOL    HW116205   4.084   5.728   4.550
 5102SOL    HW216206   4.211   5.671   4.465
 5103SOL     OW16207   1.016   1.011   4.352
 5103SOL    HW116208   1.024   0.912   4.354
 5103SOL    HW216209   1.078   1.047   4.281
 5104SOL     OW16210   1.141   6.753   1.339
 5104SOL    HW116211   1.085   6.777   1.418
 5104SOL    HW216212   1.156   6.833   1.282
 5105SOL     OW16213   2.597   3.025   6.464
 5105SOL    HW116214   2.657   2.957   6.506
 5105SOL    HW216215   2.634   3.116   6.482
 5106SOL     OW16216   2.836   0.178   2.238
 5106SOL    HW116217   2.856   0.276   2.232
 5106SOL    HW216218   2.911   0.126   2.198
 5107SOL     OW16219   1.172   0.066   6.250
 5107SOL    HW116220   1.096   0.100   6.195
 5107SOL    HW216221   1.254   0.121   6.232
 5108SOL     OW16222   3.036   3.666   3.877
 5108SOL    HW116223   3.043   3.580   3.927
 5108SOL    HW216224   3.023   3.648   3.780
 5109SOL     OW16225   0.367   1.431   1.500
 5109SOL    HW116226   0.288   1.384   1.461
 5109SOL    HW216227   0.345   1.462   1.592
 5110SOL     OW16228   1.893   6.164   5.198
 5110SOL    HW116229   1.914   6.142   5.103
 5110SOL    HW216230   1.967   6.219   5.236
 5111SOL     OW16231   1.667   1.085   6.806
 5111SOL    HW116232   1.570   1.061   6.798
 5111SOL    HW216233   1.701   1.057   6.896
 5112SOL     OW16234   0.271   6.986   3.552
 5112SOL    HW116235   0.259   7.005   3.650
 5112SOL    HW216236   0.204   6.918   3.523
 5113SOL     OW16237   0.855   6.962   6.626
 5113SOL    HW116238   0.822   6.982   6.718
 5113SOL    HW216239   0.955   6.969   6.624
 5114SOL     OW16240   4.292   5.485   6.425
 5114SOL    HW116241   4.235   5.409   6.393
 5114SOL    HW216242   4.285   5.561   6.361
 5115SOL     OW16243   2.028   4.046   5.038
 5115SOL    HW116244   2.030   4.034   5.137
 5115SOL    HW216245   2.121   4.043   5.002
 5116SOL     OW16246   6.611   3.047   1.382
 5116SOL    HW116247   6.678   3.109   1.421
 5116SOL    HW216248   6.656   2.986   1.316
 5117SOL     OW16249   2.697   4.889   3.544
 5117SOL    HW116250   2.657   4.976   3.515
 5117SOL    HW216251   2.677   4.819   3.477
 5118SOL     OW16252   4.738   6.690   1.741
 5118SOL    HW116253   4.803   6.655   1.674
 5118SOL    HW216254   4.669   6.619   1.761
 5119SOL     OW16255   6.517   6.832   2.745
 5119SOL    HW116256   6.420   6.824   2.720
 5119SOL    HW216257   6.525   6.867   2.838
 5120SOL     OW16258   4.137   1.640   2.948
 5120SOL    HW116259   4.192   1.707   2.998
 5120SOL    HW216260   4.138   1.663   2.850
 5121SOL     OW16261   1.588   3.516   4.747
 5121SOL    HW116262   1.588   3.418   4.729
 5121SOL    HW216263   1.575   3.532   4.845
 5122SOL     OW16264   2.741   6.127   3.509
 5122SOL    HW116265   2.687   6.054   3.551
 5122SOL    HW216266   2.837   6.098   3.504
 5123SOL     OW16267   6.245   4.082   1.687
 5123SOL    HW116268   6.215   4.020   1.615
 5123SOL    HW216269   6.165   4.123   1.732
 5124SOL     OW16270   3.029   5.963   0.818
 5124SOL    HW116271   2.974   6.041   0.788
 5124SOL    HW216272   3.012   5.885   0.757
 5125SOL     OW16273   6.910   2.263   5.832
 5125SOL    HW116274   6.987   2.200   5.843
 5125SOL    HW216275   6.859   2.239   5.750
 5126SOL     OW16276   4.777   2.529   6.457
 5126SOL    HW116277   4.830   2.580   6.525
 5126SOL    HW216278   4.694   2.579   6.434
 5127SOL     OW16279   5.612   3.198   6.605
 5127SOL    HW116280   5.589   3.172   6.699
 5127SOL    HW216281   5.610   3.117   6.547
 5128SOL     OW16282   0.377   0.042   6.988
 5128SOL    HW116283   0.282   0.028   6.961
 5128SOL    HW216284   0.422   6.969   6.999
 5129SOL     OW16285   4.543   2.221   2.871
 5129SOL    HW116286   4.510   2.248   2.781
 5129SOL    HW216287   4.466   2.219   2.935
 5130SOL     OW16288   1.040   6.752   5.231
 5130SOL    HW116289   1.015   6.846   5.207
 5130SOL    HW216290   1.075   6.750   5.325
 5131SOL     OW16291   3.776   4.925   3.701
 5131SOL    HW116292   3.862   4.876   3.687
 5131SOL    HW216293   3.732   4.941   3.613
 5132SOL     OW16294   3.543   1.580   6.626
 5132SOL    HW116295   3.616   1.648   6.623
 5132SOL    HW216296   3.536   1.543   6.719
 5133SOL     OW16297   4.995   4.474   6.917
 5133SOL    HW116298   5.026   4.539   6.987
 5133SOL    HW216299   4.977   4.523   6.832
 5134SOL     OW16300   5.630   5.768   0.670
 5134SOL    HW116301   5.680   5.711   0.735
 5134SOL    HW216302   5.564   5.711   0.620
 5135SOL     OW16303   6.907   2.526   2.278
 5135SOL    HW116304   6.874   2.488   2.192
 5135SOL    HW216305   6.959   2.457   2.327
 5136SOL     OW16306   0.770   1.712   5.725
 5136SOL    HW116307   0.720   1.725   5.640
 5136SOL    HW216308   0.867   1.727   5.709
 5137SOL     OW16309   5.714   0.545   3.122
 5137SOL    HW116310   5.645   0.546   3.050
 5137SOL    HW216311   5.756   0.454   3.127
 5138SOL     OW16312   3.016   3.039   2.412
 5138SOL    HW116313   2.952   2.963   2.417
 5138SOL    HW216314   3.008   3.084   2.323
 5139SOL     OW16315   2.903   0.508   5.716
 5139SOL    HW116316   2.925   0.537   5.623
 5139SOL    HW216317   2.978   0.532   5.778
 5140SOL     OW16318   3.435   3.441   6.497
 5140SOL    HW116319   3.460   3.532   6.465
 5140SOL    HW216320   3.445   3.376   6.422
 5141SOL     OW16321   0.408   2.738   1.385
 5141SOL    HW116322   0.344   2.703   1.317
 5141SOL    HW216323   0.376   2.714   1.477
 5142SOL     OW16324   0.878   6.999   2.249
 5142SOL    HW116325   0.845   6.908   2.276
 5142SOL    HW216326   0.968   6.990   2.207
 5143SOL     OW16327   0.266   6.194   2.867
 5143SOL    HW116328   0.307   6.221   2.954
 5143SOL    HW216329   0.174   6.159   2.882
 5144SOL     OW16330   2.345   2.858   5.373
 5144SOL    HW116331   2.257   2.884   5.334
 5144SOL    HW216332   2.419   2.904   5.323
 5145SOL     OW16333   2.253   5.580   5.992
 5145SOL    HW116334   2.302   5.571   6.079
 5145SOL    HW216335   2.200   5.498   5.974
 5146SOL     OW16336   5.459   6.059   0.026
 5146SOL    HW116337   5.439   6.096   6.950
 5146SOL    HW216338   5.506   6.128   0.080
 5147SOL     OW16339   5.242   2.087   3.476
 5147SOL    HW116340   5.185   2.136   3.410
 5147SOL    HW216341   5.260   2.146   3.554
 5148SOL     OW16342   0.200   0.592   6.692
 5148SOL    HW116343   0.218   0.691   6.687
 5148SOL    HW216344   0.155   0.571   6.778
 5149SOL     OW16345   3.964   5.742   4.222
 5149SOL    HW116346   3.942   5.837   4.242
 5149SOL    HW216347   3.996   5.697   4.306
 5150SOL     OW16348   6.141   6.871   3.864
 5150SOL    HW116349   6.075   6.797   3.876
 5150SOL    HW216350   6.174   6.902   3.953
 5151SOL     OW16351   5.536   5.793   2.194
 5151SOL    HW116352   5.490   5.705   2.189
 5151SOL    HW216353   5.469   5.865   2.212
 5152SOL     OW16354   2.295   1.343   0.344
 5152SOL    HW116355   2.322   1.324   0.249
 5152SOL    HW216356   2.203   1.307   0.361
 5153SOL     OW16357   1.359   1.609   0.433
 5153SOL    HW116358   1.364   1.558   0.519
 5153SOL    HW216359   1.287   1.569   0.376
 5154SOL     OW16360   0.381   2.580   0.777
 5154SOL    HW116361   0.469   2.534   0.788
 5154SOL    HW216362   0.380   2.666   0.828
 5155SOL     OW16363   1.411   1.734   0.181
 5155SOL    HW116364   1.388   1.663   0.247
 5155SOL    HW216365   1.468   1.695   0.108
 5156SOL     OW16366   5.826   5.608   5.229
 5156SOL    HW116367   5.851   5.645   5.140
 5156SOL    HW216368   5.839   5.678   5.299
 5157SOL     OW16369   3.753   0.930   1.681
 5157SOL    HW116370   3.840   0.951   1.728
 5157SOL    HW216371   3.700   0.868   1.738
 5158SOL     OW16372   1.477   2.323   2.269
 5158SOL    HW116373   1.429   2.294   2.187
 5158SOL    HW216374   1.575   2.306   2.257
 5159SOL     OW16375   6.106   3.451   5.666
 5159SOL    HW116376   6.059   3.397   5.735
 5159SOL    HW216377   6.105   3.547   5.691
 5160SOL     OW16378   6.315   6.692   3.634
 5160SOL    HW116379   6.275   6.778   3.603
 5160SOL    HW216380   6.405   6.709   3.673
 5161SOL     OW16381   0.794   2.153   6.789
 5161SOL    HW116382   0.787   2.082   6.719
 5161SOL    HW216383   0.793   2.243   6.746
 5162SOL     OW16384   0.324   6.930   5.376
 5162SOL    HW116385   0.328   6.851   5.315
 5162SOL    HW216386   0.385   7.001   5.342
 5163SOL     OW16387   3.305   0.153   1.864
 5163SOL    HW116388   3.223   0.183   1.816
 5163SOL    HW216389   3.343   0.230   1.915
 5164SOL     OW16390   2.366   4.058   0.477
 5164SOL    HW116391   2.359   4.104   0.388
 5164SOL    HW216392   2.281   4.070   0.528
 5165SOL     OW16393   1.471   4.552   5.854
 5165SOL    HW116394   1.513   4.550   5.763
 5165SOL    HW216395   1.469   4.459   5.892
 5166SOL     OW16396   0.348   4.713   0.127
 5166SOL    HW116397   0.321   4.745   0.217
 5166SOL    HW216398   0.397   4.626   0.136
 5167SOL     OW16399   5.287   3.305   5.399
 5167SOL    HW116400   5.259   3.213   5.427
 5167SOL    HW216401   5.235   3.333   5.318
 5168SOL     OW16402   4.242   1.932   3.338
 5168SOL    HW116403   4.153   1.976   3.339
 5168SOL    HW216404   4.231   1.834   3.319
 5169SOL     OW16405   5.270   5.557   4.433
 5169SOL    HW116406   5.261   5.474   4.488
 5169SOL    HW216407   5.285   5.532   4.337
 5170SOL     OW16408   2.272   4.070   6.357
 5170SOL    HW116409   2.266   4.145   6.423
 5170SOL    HW216410   2.331   4.097   6.281
 5171SOL     OW16411   2.211   6.563   5.893
 5171SOL    HW116412   2.235   6.618   5.813
 5171SOL    HW216413   2.111   6.555   5.899
 5172SOL     OW16414   5.901   5.806   5.993
 5172SOL    HW116415   5.896   5.906   5.990
 5172SOL    HW216416   5.930   5.777   6.083
 5173SOL     OW16417   4.674   5.754   5.055
 5173SOL    HW116418   4.630   5.728   5.142
 5173SOL    HW216419   4.739   5.682   5.028
 5174SOL     OW16420   2.057   0.003   2.949
 5174SOL    HW116421   2.091   7.010   3.043
 5174SOL    HW216422   2.026   6.929   2.917
 5175SOL     OW16423   2.560   2.859   6.229
 5175SOL    HW116424   2.581   2.924   6.301
 5175SOL    HW216425   2.596   2.769   6.253
 5176SOL     OW16426   6.292   5.620   6.730
 5176SOL    HW116427   6.294   5.521   6.715
 5176SOL    HW216428   6.236   5.663   6.659
 5177SOL     OW16429   6.258   6.639   0.748
 5177SOL    HW116430   6.284   6.580   0.824
 5177SOL    HW216431   6.316   6.618   0.669
 5178SOL     OW16432   0.750   4.345   1.443
 5178SOL    HW116433   0.679   4.327   1.511
 5178SOL    HW216434   0.723   4.423   1.387
 5179SOL     OW16435   5.198   6.142   3.311
 5179SOL    HW116436   5.251   6.079   3.255
 5179SOL    HW216437   5.102   6.140   3.283
 5180SOL     OW16438   1.182   4.207   2.394
 5180SOL    HW116439   1.187   4.110   2.421
 5180SOL    HW216440   1.159   4.213   2.297
 5181SOL     OW16441   6.351   1.005   5.533
 5181SOL    HW116442   6.311   0.924   5.490
 5181SOL    HW216443   6.280   1.055   5.582
 5182SOL     OW16444   2.330   6.542   2.771
 5182SOL    HW116445   2.300   6.465   2.828
 5182SOL    HW216446   2.265   6.555   2.697
 5183SOL     OW16447   4.368   2.374   3.671
 5183SOL    HW116448   4.399   2.449   3.613
 5183SOL    HW216449   4.346   2.295   3.614
 5184SOL     OW16450   1.550   1.063   3.222
 5184SOL    HW116451   1.453   1.042   3.233
 5184SOL    HW216452   1.562   1.137   3.156
 5185SOL     OW16453   6.882   0.375   2.873
 5185SOL    HW116454   6.964   0.413   2.832
 5185SOL    HW216455   6.889   0.377   2.973
 5186SOL     OW16456   6.352   3.024   6.586
 5186SOL    HW116457   6.326   2.978   6.671
 5186SOL    HW216458   6.394   2.958   6.525
 5187SOL     OW16459   1.201   4.762   4.935
 5187SOL    HW116460   1.264   4.696   4.976
 5187SOL    HW216461   1.168   4.825   5.005
 5188SOL     OW16462   6.633   0.275   2.831
 5188SOL    HW116463   6.717   0.329   2.827
 5188SOL    HW216464   6.646   0.198   2.893
 5189SOL     OW16465   4.623   6.155   6.955
 5189SOL    HW116466   4.652   6.152   6.859
 5189SOL    HW216467   4.604   6.062   6.987
 5190SOL     OW16468   1.889   4.552   0.245
 5190SOL    HW116469   1.965   4.487   0.239
 5190SOL    HW216470   1.902   4.625   0.178
 5191SOL     OW16471   2.473   4.442   1.899
 5191SOL    HW116472   2.533   4.488   1.833
 5191SOL    HW216473   2.456   4.502   1.977
 5192SOL     OW16474   0.903   5.182   2.353
 5192SOL    HW116475   0.916   5.281   2.353
 5192SOL    HW216476   0.891   5.150   2.259
 5193SOL     OW16477   5.061   0.780   5.500
 5193SOL    HW116478   5.031   0.692   5.536
 5193SOL    HW216479   5.104   0.767   5.411
 5194SOL     OW16480   4.718   1.363   5.317
 5194SOL    HW116481   4.642   1.313   5.276
 5194SOL    HW216482   4.764   1.304   5.383
 5195SOL     OW16483   0.736   0.442   5.476
 5195SOL    HW116484   0.719   0.349   5.509
 5195SOL    HW216485   0.652   0.496   5.482
 5196SOL     OW16486   5.067   6.682   3.487
 5196SOL    HW116487   5.117   6.603   3.523
 5196SOL    HW216488   5.119   6.725   3.414
 5197SOL     OW16489   1.061   2.763   4.911
 5197SOL    HW116490   1.159   2.752   4.925
 5197SOL    HW216491   1.015   2.772   5.000
 5198SOL     OW16492   5.786   5.371   3.036
 5198SOL    HW116493   5.705   5.351   2.982
 5198SOL    HW216494   5.764   5.439   3.106
 5199SOL     OW16495   0.104   4.793   0.862
 5199SOL    HW116496   0.115   4.878   0.811
 5199SOL    HW216497   0.174   4.727   0.834
 5200SOL     OW16498   6.516   3.690   5.307
 5200SOL    HW116499   6.594   3.668   5.366
 5200SOL    HW216500   6.433   3.650   5.346
 5201SOL     OW16501   0.252   5.839   4.452
 5201SOL    HW116502   0.337   5.807   4.410
 5201SOL    HW216503   0.273   5.912   4.518
 5202SOL     OW16504   0.965   4.525   1.772
 5202SOL    HW116505   1.017   4.554   1.692
 5202SOL    HW216506   0.993   4.432   1.799
 5203SOL     OW16507   6.275   2.775   6.747
 5203SOL    HW116508   6.331   2.745   6.670
 5203SOL    HW216509   6.193   2.718   6.752
 5204SOL     OW16510   4.843   4.662   6.407
 5204SOL    HW116511   4.768   4.710   6.452
 5204SOL    HW216512   4.919   4.726   6.393
 5205SOL     OW16513   1.428   0.021   6.935
 5205SOL    HW116514   1.396   6.977   6.861
 5205SOL    HW216515   1.436   6.983   0.004
 5206SOL     OW16516   0.504   3.831   5.313
 5206SOL    HW116517   0.498   3.819   5.214
 5206SOL    HW216518   0.599   3.821   5.342
 5207SOL     OW16519   2.034   4.384   3.498
 5207SOL    HW116520   1.985   4.391   3.585
 5207SOL    HW216521   2.034   4.289   3.467
 5208SOL     OW16522   4.773   0.676   6.880
 5208SOL    HW116523   4.869   0.702   6.885
 5208SOL    HW216524   4.726   0.735   6.815
 5209SOL     OW16525   6.433   5.792   3.397
 5209SOL    HW116526   6.491   5.868   3.425
 5209SOL    HW216527   6.431   5.785   3.298
 5210SOL     OW16528   4.918   4.026   2.941
 5210SOL    HW116529   4.944   3.986   2.853
 5210SOL    HW216530   4.998   4.066   2.985
 5211SOL     OW16531   3.514   4.002   2.228
 5211SOL    HW116532   3.443   4.072   2.227
 5211SOL    HW216533   3.598   4.039   2.268
 5212SOL     OW16534   1.256   0.474   0.360
 5212SOL    HW116535   1.341   0.511   0.397
 5212SOL    HW216536   1.186   0.474   0.431
 5213SOL     OW16537   4.314   2.555   6.261
 5213SOL    HW116538   4.267   2.501   6.330
 5213SOL    HW216539   4.308   2.509   6.172
 5214SOL     OW16540   5.293   1.850   0.024
 5214SOL    HW116541   5.219   1.843   6.972
 5214SOL    HW216542   5.278   1.931   0.081
 5215SOL     OW16543   5.646   5.171   2.815
 5215SOL    HW116544   5.648   5.075   2.840
 5215SOL    HW216545   5.558   5.211   2.843
 5216SOL     OW16546   4.687   5.671   1.248
 5216SOL    HW116547   4.776   5.717   1.256
 5216SOL    HW216548   4.615   5.740   1.236
 5217SOL     OW16549   2.858   5.027   3.830
 5217SOL    HW116550   2.863   4.977   3.743
 5217SOL    HW216551   2.848   4.961   3.905
 5218SOL     OW16552   1.923   0.231   4.460
 5218SOL    HW116553   1.880   0.143   4.481
 5218SOL    HW216554   1.956   0.230   4.365
 5219SOL     OW16555   2.573   6.102   0.919
 5219SOL    HW116556   2.512   6.035   0.961
 5219SOL    HW216557   2.549   6.194   0.951
 5220SOL     OW16558   1.417   0.210   1.764
 5220SOL    HW116559   1.418   0.245   1.858
 5220SOL    HW216560   1.430   0.285   1.700
 5221SOL     OW16561   4.643   1.507   5.691
 5221SOL    HW116562   4.641   1.593   5.742
 5221SOL    HW216563   4.738   1.481   5.672
 5222SOL     OW16564   0.604   0.048   3.038
 5222SOL    HW116565   0.685   0.001   3.073
 5222SOL    HW216566   0.610   0.053   2.938
 5223SOL     OW16567   4.991   6.820   0.910
 5223SOL    HW116568   5.091   6.820   0.919
 5223SOL    HW216569   4.966   6.838   0.814
 5224SOL     OW16570   5.294   1.325   3.208
 5224SOL    HW116571   5.246   1.239   3.192
 5224SOL    HW216572   5.384   1.322   3.163
 5225SOL     OW16573   6.200   6.502   5.716
 5225SOL    HW116574   6.255   6.442   5.774
 5225SOL    HW216575   6.114   6.456   5.692
 5226SOL     OW16576   2.301   6.707   3.900
 5226SOL    HW116577   2.362   6.781   3.868
 5226SOL    HW216578   2.249   6.671   3.822
 5227SOL     OW16579   5.246   3.362   3.483
 5227SOL    HW116580   5.154   3.372   3.520
 5227SOL    HW216581   5.249   3.397   3.390
 5228SOL     OW16582   5.351   0.657   0.985
 5228SOL    HW116583   5.331   0.570   0.940
 5228SOL    HW216584   5.388   0.640   1.076
 5229SOL     OW16585   0.932   4.581   4.030
 5229SOL    HW116586   0.992   4.524   4.086
 5229SOL    HW216587   0.894   4.655   4.085
 5230SOL     OW16588   1.309   6.235   6.229
 5230SOL    HW116589   1.256   6.288   6.163
 5230SOL    HW216590   1.332   6.292   6.308
 5231SOL     OW16591   3.730   3.235   3.323
 5231SOL    HW116592   3.828   3.239   3.307
 5231SOL    HW216593   3.693   3.327   3.329
 5232SOL     OW16594   4.916   3.005   5.208
 5232SOL    HW116595   4.953   2.915   5.186
 5232SOL    HW216596   4.962   3.075   5.154
 5233SOL     OW16597   0.432   0.444   2.926
 5233SOL    HW116598   0.422   0.382   2.848
 5233SOL    HW216599   0.500   0.408   2.990
 5234SOL     OW16600   4.174   5.812   1.334
 5234SOL    HW116601   4.108   5.873   1.290
 5234SOL    HW216602   4.244   5.866   1.380
 5235SOL     OW16603   1.066   3.495   1.018
 5235SOL    HW116604   1.153   3.524   1.059
 5235SOL    HW216605   1.069   3.398   0.997
 5236SOL     OW16606   5.573   3.157   1.013
 5236SOL    HW116607   5.595   3.255   1.015
 5236SOL    HW216608   5.538   3.132   0.923
 5237SOL     OW16609   2.267   1.880   4.085
 5237SOL    HW116610   2.214   1.804   4.048
 5237SOL    HW216611   2.216   1.923   4.159
 5238SOL     OW16612   2.099   3.948   1.056
 5238SOL    HW116613   2.003   3.931   1.038
 5238SOL    HW216614   2.129   3.892   1.133
 5239SOL     OW16615   3.220   3.420   5.180
 5239SOL    HW116616   3.259   3.332   5.208
 5239SOL    HW216617   3.121   3.412   5.174
 5240SOL     OW16618   2.598   1.754   5.030
 5240SOL    HW116619   2.692   1.762   4.997
 5240SOL    HW216620   2.583   1.823   5.101
 5241SOL     OW16621   2.917   5.866   5.861
 5241SOL    HW116622   2.951   5.886   5.952
 5241SOL    HW216623   2.956   5.780   5.828
 5242SOL     OW16624   4.450   0.621   5.604
 5242SOL    HW116625   4.400   0.622   5.691
 5242SOL    HW216626   4.463   0.527   5.574
 5243SOL     OW16627   0.700   3.946   0.615
 5243SOL    HW116628   0.695   3.901   0.705
 5243SOL    HW216629   0.654   4.034   0.619
 5244SOL     OW16630   5.811   3.512   6.822
 5244SOL    HW116631   5.860   3.572   6.758
 5244SOL    HW216632   5.813   3.418   6.788
 5245SOL     OW16633   4.540   4.349   6.669
 5245SOL    HW116634   4.624   4.295   6.672
 5245SOL    HW216635   4.545   4.414   6.592
 5246SOL     OW16636   0.850   3.469   2.817
 5246SOL    HW116637   0.916   3.420   2.760
 5246SOL    HW216638   0.892   3.492   2.904
 5247SOL     OW16639   0.166   5.176   0.744
 5247SOL    HW116640   0.195   5.191   0.839
 5247SOL    HW216641   0.066   5.167   0.742
 5248SOL     OW16642   4.799   0.264   6.843
 5248SOL    HW116643   4.848   0.318   6.911
 5248SOL    HW216644   4.785   0.319   6.760
 5249SOL     OW16645   1.079   5.549   5.639
 5249SOL    HW116646   1.108   5.610   5.713
 5249SOL    HW216647   1.007   5.594   5.586
 5250SOL     OW16648   0.798   1.495   5.888
 5250SOL    HW116649   0.729   1.425   5.870
 5250SOL    HW216650   0.783   1.574   5.828
 5251SOL     OW16651   0.755   2.653   1.419
 5251SOL    HW116652   0.732   2.559   1.396
 5251SOL    HW216653   0.678   2.695   1.468
 5252SOL     OW16654   4.325   6.732   0.989
 5252SOL    HW116655   4.253   6.797   1.012
 5252SOL    HW216656   4.299   6.681   0.907
 5253SOL     OW16657   5.997   2.716   3.123
 5253SOL    HW116658   6.021   2.698   3.028
 5253SOL    HW216659   5.898   2.719   3.133
 5254SOL     OW16660   4.351   1.087   4.417
 5254SOL    HW116661   4.283   1.131   4.476
 5254SOL    HW216662   4.441   1.126   4.435
 5255SOL     OW16663   3.366   6.545   4.593
 5255SOL    HW116664   3.325   6.636   4.601
 5255SOL    HW216665   3.393   6.513   4.684
 5256SOL     OW16666   5.454   6.916   1.962
 5256SOL    HW116667   5.435   7.008   1.997
 5256SOL    HW216668   5.530   6.876   2.012
 5257SOL     OW16669   3.607   0.874   2.842
 5257SOL    HW116670   3.538   0.805   2.867
 5257SOL    HW216671   3.615   0.941   2.916
 5258SOL     OW16672   5.996   2.124   1.691
 5258SOL    HW116673   5.967   2.069   1.770
 5258SOL    HW216674   5.974   2.220   1.708
 5259SOL     OW16675   5.583   4.317   1.770
 5259SOL    HW116676   5.531   4.283   1.691
 5259SOL    HW216677   5.617   4.240   1.824
 5260SOL     OW16678   5.247   3.322   2.068
 5260SOL    HW116679   5.336   3.369   2.068
 5260SOL    HW216680   5.174   3.390   2.073
 5261SOL     OW16681   2.534   2.479   4.881
 5261SOL    HW116682   2.518   2.499   4.978
 5261SOL    HW216683   2.611   2.416   4.872
 5262SOL     OW16684   2.076   0.284   2.243
 5262SOL    HW116685   2.130   0.348   2.297
 5262SOL    HW216686   1.984   0.278   2.280
 5263SOL     OW16687   0.626   6.229   0.772
 5263SOL    HW116688   0.679   6.313   0.769
 5263SOL    HW216689   0.622   6.189   0.680
 5264SOL     OW16690   0.616   2.111   0.816
 5264SOL    HW116691   0.672   2.194   0.806
 5264SOL    HW216692   0.662   2.035   0.771
 5265SOL     OW16693   5.885   5.238   2.736
 5265SOL    HW116694   5.807   5.220   2.794
 5265SOL    HW216695   5.951   5.163   2.742
 5266SOL     OW16696   1.243   6.498   1.431
 5266SOL    HW116697   1.310   6.498   1.506
 5266SOL    HW216698   1.215   6.592   1.411
 5267SOL     OW16699   5.138   3.962   4.890
 5267SOL    HW116700   5.115   4.047   4.937
 5267SOL    HW216701   5.055   3.913   4.864
 5268SOL     OW16702   5.883   5.294   5.573
 5268SOL    HW116703   5.936   5.210   5.584
 5268SOL    HW216704   5.928   5.354   5.508
 5269SOL     OW16705   1.255   4.442   5.571
 5269SOL    HW116706   1.277   4.383   5.494
 5269SOL    HW216707   1.326   4.512   5.580
 5270SOL     OW16708   6.840   3.076   3.022
 5270SOL    HW116709   6.817   3.163   3.066
 5270SOL    HW216710   6.757   3.033   2.986
 5271SOL     OW16711   5.062   4.168   5.044
 5271SOL    HW116712   4.981   4.211   5.004
 5271SOL    HW216713   5.043   4.147   5.140
 5272SOL     OW16714   1.773   1.307   4.190
 5272SOL    HW116715   1.775   1.323   4.091
 5272SOL    HW216716   1.724   1.382   4.235
 5273SOL     OW16717   0.885   0.633   4.960
 5273SOL    HW116718   0.892   0.571   5.038
 5273SOL    HW216719   0.968   0.626   4.904
 5274SOL     OW16720   6.895   5.546   4.656
 5274SOL    HW116721   6.909   5.518   4.751
 5274SOL    HW216722   6.907   5.645   4.648
 5275SOL     OW16723   1.924   6.236   6.655
 5275SOL    HW116724   1.854   6.220   6.585
 5275SOL    HW216725   2.007   6.269   6.611
 5276SOL     OW16726   0.159   0.219   0.760
 5276SOL    HW116727   0.234   0.280   0.786
 5276SOL    HW216728   0.113   0.186   0.842
 5277SOL     OW16729   1.375   1.678   2.566
 5277SOL    HW116730   1.450   1.678   2.633
 5277SOL    HW216731   1.296   1.726   2.605
 5278SOL     OW16732   0.537   4.040   6.536
 5278SOL    HW116733   0.594   3.959   6.525
 5278SOL    HW216734   0.442   4.012   6.550
 5279SOL     OW16735   2.115   6.707   6.325
 5279SOL    HW116736   2.052   6.751   6.260
 5279SOL    HW216737   2.061   6.657   6.392
 5280SOL     OW16738   4.825   6.595   5.331
 5280SOL    HW116739   4.766   6.662   5.375
 5280SOL    HW216740   4.779   6.559   5.250
 5281SOL     OW16741   2.399   0.010   5.440
 5281SOL    HW116742   2.475   6.999   5.381
 5281SOL    HW216743   2.433   0.033   5.531
 5282SOL     OW16744   0.738   6.623   1.305
 5282SOL    HW116745   0.643   6.649   1.290
 5282SOL    HW216746   0.779   6.593   1.219
 5283SOL     OW16747   0.974   0.896   3.743
 5283SOL    HW116748   1.010   0.854   3.826
 5283SOL    HW216749   0.982   0.831   3.667
 5284SOL     OW16750   4.643   2.845   1.650
 5284SOL    HW116751   4.609   2.901   1.725
 5284SOL    HW216752   4.722   2.792   1.681
 5285SOL     OW16753   1.346   1.955   4.074
 5285SOL    HW116754   1.360   2.054   4.078
 5285SOL    HW216755   1.434   1.909   4.068
 5286SOL     OW16756   5.925   3.305   1.208
 5286SOL    HW116757   5.931   3.397   1.245
 5286SOL    HW216758   5.885   3.244   1.277
 5287SOL     OW16759   2.090   4.881   0.928
 5287SOL    HW116760   2.067   4.783   0.929
 5287SOL    HW216761   2.023   4.929   0.871
 5288SOL     OW16762   4.402   0.851   1.295
 5288SOL    HW116763   4.328   0.873   1.359
 5288SOL    HW216764   4.364   0.807   1.214
 5289SOL     OW16765   2.317   4.800   6.066
 5289SOL    HW116766   2.315   4.710   6.108
 5289SOL    HW216767   2.404   4.812   6.018
 5290SOL     OW16768   1.848   3.261   4.465
 5290SOL    HW116769   1.820   3.203   4.542
 5290SOL    HW216770   1.776   3.328   4.446
 5291SOL     OW16771   2.845   4.773   4.498
 5291SOL    HW116772   2.800   4.858   4.472
 5291SOL    HW216773   2.809   4.742   4.586
 5292SOL     OW16774   0.333   3.728   5.505
 5292SOL    HW116775   0.406   3.753   5.441
 5292SOL    HW216776   0.256   3.791   5.493
 5293SOL     OW16777   2.128   0.501   4.209
 5293SOL    HW116778   2.184   0.466   4.284
 5293SOL    HW216779   2.033   0.471   4.221
 5294SOL     OW16780   4.071   0.171   4.990
 5294SOL    HW116781   4.157   0.220   5.008
 5294SOL    HW216782   4.073   0.133   4.898
 5295SOL     OW16783   2.852   1.638   2.619
 5295SOL    HW116784   2.921   1.699   2.580
 5295SOL    HW216785   2.807   1.684   2.696
 5296SOL     OW16786   4.633   4.731   1.274
 5296SOL    HW116787   4.641   4.669   1.352
 5296SOL    HW216788   4.672   4.820   1.298
 5297SOL     OW16789   3.045   5.332   6.514
 5297SOL    HW116790   2.963   5.384   6.489
 5297SOL    HW216791   3.022   5.234   6.520
 5298SOL     OW16792   2.111   0.576   0.485
 5298SOL    HW116793   2.055   0.658   0.475
 5298SOL    HW216794   2.075   0.504   0.425
 5299SOL     OW16795   2.641   1.411   1.594
 5299SOL    HW116796   2.549   1.379   1.618
 5299SOL    HW216797   2.709   1.362   1.649
 5300SOL     OW16798   3.062   4.820   6.556
 5300SOL    HW116799   3.081   4.786   6.464
 5300SOL    HW216800   3.078   4.919   6.558
 5301SOL     OW16801   5.946   0.082   5.892
 5301SOL    HW116802   5.895   0.081   5.806
 5301SOL    HW216803   5.910   0.153   5.952
 5302SOL     OW16804   5.678   6.259   3.086
 5302SOL    HW116805   5.684   6.190   3.159
 5302SOL    HW216806   5.757   6.251   3.026
 5303SOL     OW16807   0.981   5.303   5.955
 5303SOL    HW116808   1.003   5.206   5.967
 5303SOL    HW216809   1.061   5.351   5.919
 5304SOL     OW16810   0.020   0.568   2.765
 5304SOL    HW116811   0.018   0.654   2.817
 5304SOL    HW216812   6.973   0.574   2.688
 5305SOL     OW16813   0.380   4.832   3.394
 5305SOL    HW116814   0.449   4.778   3.443
 5305SOL    HW216815   0.362   4.917   3.445
 5306SOL     OW16816   0.120   3.184   5.972
 5306SOL    HW116817   0.217   3.189   5.996
 5306SOL    HW216818   0.111   3.179   5.872
 5307SOL     OW16819   6.662   1.337   1.369
 5307SOL    HW116820   6.653   1.237   1.379
 5307SOL    HW216821   6.704   1.358   1.281
 5308SOL     OW16822   1.380   4.184   3.128
 5308SOL    HW116823   1.468   4.167   3.083
 5308SOL    HW216824   1.372   4.127   3.209
 5309SOL     OW16825   6.187   5.596   2.752
 5309SOL    HW116826   6.149   5.511   2.791
 5309SOL    HW216827   6.281   5.579   2.724
 5310SOL     OW16828   5.205   2.604   2.631
 5310SOL    HW116829   5.116   2.589   2.589
 5310SOL    HW216830   5.256   2.671   2.577
 5311SOL     OW16831   5.763   0.250   0.744
 5311SOL    HW116832   5.806   0.231   0.832
 5311SOL    HW216833   5.825   0.222   0.671
 5312SOL     OW16834   0.051   6.617   0.330
 5312SOL    HW116835   0.131   6.611   0.390
 5312SOL    HW216836   6.983   6.609   0.384
 5313SOL     OW16837   1.150   6.095   5.943
 5313SOL    HW116838   1.143   6.173   6.005
 5313SOL    HW216839   1.094   6.112   5.862
 5314SOL     OW16840   6.028   0.932   1.791
 5314SOL    HW116841   6.053   0.906   1.884
 5314SOL    HW216842   6.100   0.904   1.728
 5315SOL     OW16843   4.909   1.519   4.292
 5315SOL    HW116844   4.911   1.459   4.213
 5315SOL    HW216845   4.847   1.482   4.361
 5316SOL     OW16846   0.791   2.293   4.180
 5316SOL    HW116847   0.747   2.304   4.091
 5316SOL    HW216848   0.881   2.253   4.168
 5317SOL     OW16849   6.121   2.561   6.871
 5317SOL    HW116850   6.189   2.567   6.945
 5317SOL    HW216851   6.046   2.503   6.900
 5318SOL     OW16852   6.762   3.957   6.606
 5318SOL    HW116853   6.746   3.984   6.701
 5318SOL    HW216854   6.836   4.012   6.568
 5319SOL     OW16855   4.170   6.780   1.837
 5319SOL    HW116856   4.155   6.711   1.766
 5319SOL    HW216857   4.256   6.761   1.884
 5320SOL     OW16858   3.701   5.716   0.936
 5320SOL    HW116859   3.708   5.622   0.900
 5320SOL    HW216860   3.629   5.719   1.006
 5321SOL     OW16861   1.407   4.563   4.952
 5321SOL    HW116862   1.389   4.471   4.987
 5321SOL    HW216863   1.504   4.584   4.965
 5322SOL     OW16864   5.295   6.576   1.943
 5322SOL    HW116865   5.312   6.649   1.877
 5322SOL    HW216866   5.201   6.542   1.934
 5323SOL     OW16867   3.940   0.862   5.981
 5323SOL    HW116868   3.901   0.817   6.061
 5323SOL    HW216869   4.013   0.924   6.009
 5324SOL     OW16870   2.008   1.345   1.123
 5324SOL    HW116871   1.952   1.397   1.059
 5324SOL    HW216872   2.087   1.307   1.074
 5325SOL     OW16873   2.037   1.840   5.053
 5325SOL    HW116874   1.960   1.778   5.064
 5325SOL    HW216875   2.017   1.927   5.098
 5326SOL     OW16876   6.233   6.240   2.076
 5326SOL    HW116877   6.303   6.305   2.107
 5326SOL    HW216878   6.142   6.275   2.098
 5327SOL     OW16879   6.435   2.687   5.057
 5327SOL    HW116880   6.405   2.592   5.053
 5327SOL    HW216881   6.369   2.745   5.008
 5328SOL     OW16882   4.280   5.191   6.488
 5328SOL    HW116883   4.377   5.214   6.498
 5328SOL    HW216884   4.241   5.245   6.414
 5329SOL     OW16885   1.425   6.627   6.510
 5329SOL    HW116886   1.504   6.650   6.454
 5329SOL    HW216887   1.368   6.708   6.524
 5330SOL     OW16888   2.489   4.443   0.547
 5330SOL    HW116889   2.438   4.417   0.466
 5330SOL    HW216890   2.504   4.363   0.605
 5331SOL     OW16891   6.230   0.973   6.612
 5331SOL    HW116892   6.222   0.989   6.710
 5331SOL    HW216893   6.280   0.888   6.596
 5332SOL     OW16894   0.838   5.022   2.120
 5332SOL    HW116895   0.856   5.031   2.022
 5332SOL    HW216896   0.856   4.928   2.148
 5333SOL     OW16897   0.806   6.257   4.292
 5333SOL    HW116898   0.838   6.351   4.288
 5333SOL    HW216899   0.842   6.206   4.214
 5334SOL     OW16900   2.769   0.565   4.344
 5334SOL    HW116901   2.754   0.466   4.343
 5334SOL    HW216902   2.742   0.602   4.432
 5335SOL     OW16903   6.692   5.643   6.964
 5335SOL    HW116904   6.645   5.597   6.888
 5335SOL    HW216905   6.698   5.741   6.944
 5336SOL     OW16906   1.279   3.943   1.515
 5336SOL    HW116907   1.280   3.874   1.443
 5336SOL    HW216908   1.222   4.020   1.486
 5337SOL     OW16909   5.063   4.324   1.367
 5337SOL    HW116910   5.020   4.405   1.328
 5337SOL    HW216911   5.161   4.325   1.347
 5338SOL     OW16912   6.383   1.998   6.671
 5338SOL    HW116913   6.389   2.076   6.609
 5338SOL    HW216914   6.435   1.921   6.634
 5339SOL     OW16915   6.284   0.920   2.904
 5339SOL    HW116916   6.271   0.992   2.971
 5339SOL    HW216917   6.337   0.845   2.945
 5340SOL     OW16918   5.349   2.215   6.053
 5340SOL    HW116919   5.362   2.200   5.956
 5340SOL    HW216920   5.438   2.222   6.098
 5341SOL     OW16921   4.448   0.136   0.361
 5341SOL    HW116922   4.478   0.132   0.265
 5341SOL    HW216923   4.459   0.229   0.395
 5342SOL     OW16924   2.787   0.858   5.894
 5342SOL    HW116925   2.813   0.773   5.940
 5342SOL    HW216926   2.867   0.896   5.846
 5343SOL     OW16927   3.515   3.836   2.002
 5343SOL    HW116928   3.503   3.882   2.090
 5343SOL    HW216929   3.428   3.794   1.975
 5344SOL     OW16930   2.642   2.095   3.065
 5344SOL    HW116931   2.550   2.070   3.092
 5344SOL    HW216932   2.656   2.071   2.968
 5345SOL     OW16933   4.459   6.627   1.822
 5345SOL    HW116934   4.465   6.560   1.748
 5345SOL    HW216935   4.412   6.585   1.900
 5346SOL     OW16936   2.523   6.597   3.214
 5346SOL    HW116937   2.582   6.554   3.146
 5346SOL    HW216938   2.441   6.541   3.228
 5347SOL     OW16939   6.995   1.589   2.047
 5347SOL    HW116940   6.993   1.497   2.010
 5347SOL    HW216941   6.910   1.607   2.098
 5348SOL     OW16942   0.124   1.021   0.456
 5348SOL    HW116943   0.173   0.935   0.446
 5348SOL    HW216944   0.125   1.071   0.369
 5349SOL     OW16945   6.235   0.784   1.649
 5349SOL    HW116946   6.300   0.733   1.707
 5349SOL    HW216947   6.284   0.857   1.602
 5350SOL     OW16948   2.637   1.156   6.888
 5350SOL    HW116949   2.541   1.139   6.863
 5350SOL    HW216950   2.694   1.150   6.806
 5351SOL     OW16951   4.691   0.957   2.162
 5351SOL    HW116952   4.678   0.895   2.239
 5351SOL    HW216953   4.779   1.002   2.170
 5352SOL     OW16954   3.375   5.890   3.674
 5352SOL    HW116955   3.316   5.868   3.751
 5352SOL    HW216956   3.384   5.810   3.615
 5353SOL     OW16957   5.769   6.842   5.544
 5353SOL    HW116958   5.744   6.824   5.639
 5353SOL    HW216959   5.803   6.935   5.534
 5354SOL     OW16960   0.683   3.874   0.895
 5354SOL    HW116961   0.626   3.951   0.925
 5354SOL    HW216962   0.651   3.790   0.938
 5355SOL     OW16963   4.166   2.034   5.205
 5355SOL    HW116964   4.215   1.962   5.157
 5355SOL    HW216965   4.084   1.996   5.247
 5356SOL     OW16966   6.220   3.648   1.389
 5356SOL    HW116967   6.267   3.728   1.351
 5356SOL    HW216968   6.268   3.565   1.360
 5357SOL     OW16969   3.455   6.439   0.691
 5357SOL    HW116970   3.510   6.495   0.753
 5357SOL    HW216971   3.398   6.498   0.634
 5358SOL     OW16972   4.665   2.724   0.871
 5358SOL    HW116973   4.666   2.627   0.894
 5358SOL    HW216974   4.579   2.766   0.901
 5359SOL     OW16975   2.005   0.741   6.627
 5359SOL    HW116976   1.984   0.833   6.594
 5359SOL    HW216977   1.977   0.732   6.722
 5360SOL     OW16978   3.618   0.131   6.735
 5360SOL    HW116979   3.587   0.221   6.765
 5360SOL    HW216980   3.698   0.104   6.788
 5361SOL     OW16981   1.861   0.536   5.531
 5361SOL    HW116982   1.918   0.576   5.460
 5361SOL    HW216983   1.918   0.514   5.611
 5362SOL     OW16984   4.295   5.926   3.202
 5362SOL    HW116985   4.391   5.924   3.230
 5362SOL    HW216986   4.237   5.936   3.282
 5363SOL     OW16987   0.534   5.305   6.088
 5363SOL    HW116988   0.559   5.215   6.052
 5363SOL    HW216989   0.526   5.300   6.187
 5364SOL     OW16990   0.583   6.235   0.271
 5364SOL    HW116991   0.632   6.250   0.185
 5364SOL    HW216992   0.539   6.320   0.300
 5365SOL     OW16993   4.033   2.100   6.487
 5365SOL    HW116994   4.066   2.195   6.485
 5365SOL    HW216995   4.105   2.039   6.454
 5366SOL     OW16996   4.053   3.512   0.201
 5366SOL    HW116997   4.052   3.490   0.103
 5366SOL    HW216998   4.045   3.428   0.254
 5367SOL     OW16999   0.236   4.555   1.042
 5367SOL    HW117000   0.267   4.608   1.121
 5367SOL    HW217001   0.275   4.593   0.959
 5368SOL     OW17002   6.232   1.628   3.868
 5368SOL    HW117003   6.244   1.538   3.910
 5368SOL    HW217004   6.321   1.672   3.857
 5369SOL     OW17005   1.965   3.983   2.292
 5369SOL    HW117006   1.911   3.955   2.212
 5369SOL    HW217007   1.989   4.080   2.283
 5370SOL     OW17008   4.041   2.784   1.499
 5370SOL    HW117009   4.038   2.835   1.584
 5370SOL    HW217010   3.952   2.741   1.482
 5371SOL     OW17011   1.191   3.993   5.487
 5371SOL    HW117012   1.122   3.948   5.431
 5371SOL    HW217013   1.278   3.944   5.478
 5372SOL     OW17014   2.308   5.243   3.080
 5372SOL    HW117015   2.240   5.208   3.144
 5372SOL    HW217016   2.357   5.167   3.038
 5373SOL     OW17017   2.656   5.158   3.422
 5373SOL    HW117018   2.591   5.100   3.374
 5373SOL    HW217019   2.714   5.205   3.355
 5374SOL     OW17020   3.197   2.104   0.667
 5374SOL    HW117021   3.159   2.018   0.703
 5374SOL    HW217022   3.279   2.084   0.613
 5375SOL     OW17023   1.941   4.701   3.762
 5375SOL    HW117024   1.935   4.751   3.675
 5375SOL    HW217025   1.941   4.603   3.744
 5376SOL     OW17026   2.180   4.155   0.666
 5376SOL    HW117027   2.150   4.087   0.733
 5376SOL    HW217028   2.108   4.167   0.597
 5377SOL     OW17029   0.692   1.820   1.464
 5377SOL    HW117030   0.607   1.774   1.435
 5377SOL    HW217031   0.702   1.811   1.563
 5378SOL     OW17032   5.011   0.238   0.348
 5378SOL    HW117033   5.064   0.313   0.308
 5378SOL    HW217034   4.958   0.273   0.426
 5379SOL     OW17035   0.102   6.522   1.636
 5379SOL    HW117036   0.113   6.589   1.710
 5379SOL    HW217037   0.191   6.507   1.592
 5380SOL     OW17038   2.825   0.222   4.265
 5380SOL    HW117039   2.727   0.203   4.273
 5380SOL    HW217040   2.857   0.192   4.175
 5381SOL     OW17041   5.650   4.101   1.410
 5381SOL    HW117042   5.743   4.069   1.429
 5381SOL    HW217043   5.654   4.181   1.350
 5382SOL     OW17044   1.483   6.973   1.672
 5382SOL    HW117045   1.457   0.050   1.700
 5382SOL    HW217046   1.446   6.907   1.736
 5383SOL     OW17047   2.514   2.116   5.192
 5383SOL    HW117048   2.441   2.093   5.128
 5383SOL    HW217049   2.530   2.039   5.254
 5384SOL     OW17050   5.864   6.648   4.320
 5384SOL    HW117051   5.789   6.649   4.386
 5384SOL    HW217052   5.930   6.577   4.345
 5385SOL     OW17053   3.253   4.096   2.245
 5385SOL    HW117054   3.206   4.168   2.194
 5385SOL    HW217055   3.186   4.043   2.298
 5386SOL     OW17056   5.219   6.766   5.533
 5386SOL    HW117057   5.248   6.734   5.442
 5386SOL    HW217058   5.122   6.792   5.529
 5387SOL     OW17059   2.710   5.547   1.726
 5387SOL    HW117060   2.758   5.476   1.778
 5387SOL    HW217061   2.744   5.637   1.752
 5388SOL     OW17062   5.719   0.048   2.714
 5388SOL    HW117063   5.769   6.998   2.772
 5388SOL    HW217064   5.779   0.079   2.640
 5389SOL     OW17065   5.041   2.104   1.343
 5389SOL    HW117066   5.105   2.047   1.395
 5389SOL    HW217067   5.010   2.054   1.262
 5390SOL     OW17068   5.891   4.901   5.996
 5390SOL    HW117069   5.847   4.927   5.910
 5390SOL    HW217070   5.894   4.802   6.003
 5391SOL     OW17071   2.449   3.014   6.808
 5391SOL    HW117072   2.518   2.947   6.834
 5391SOL    HW217073   2.493   3.101   6.785
 5392SOL     OW17074   6.355   2.938   2.522
 5392SOL    HW117075   6.375   3.029   2.487
 5392SOL    HW217076   6.440   2.888   2.537
 5393SOL     OW17077   5.936   0.044   6.599
 5393SOL    HW117078   5.906   6.999   6.526
 5393SOL    HW217079   6.035   0.046   6.603
 5394SOL     OW17080   1.075   4.152   6.168
 5394SOL    HW117081   1.067   4.251   6.158
 5394SOL    HW217082   0.989   4.108   6.142
 5395SOL     OW17083   4.586   1.348   0.564
 5395SOL    HW117084   4.578   1.375   0.468
 5395SOL    HW217085   4.527   1.270   0.582
 5396SOL     OW17086   5.297   3.089   2.647
 5396SOL    HW117087   5.268   3.164   2.705
 5396SOL    HW217088   5.221   3.059   2.589
 5397SOL     OW17089   6.936   2.854   1.532
 5397SOL    HW117090   6.854   2.801   1.556
 5397SOL    HW217091   6.943   2.934   1.592
 5398SOL     OW17092   3.700   2.881   1.866
 5398SOL    HW117093   3.725   2.802   1.810
 5398SOL    HW217094   3.783   2.922   1.905
 5399SOL     OW17095   1.060   5.626   0.554
 5399SOL    HW117096   1.039   5.553   0.619
 5399SOL    HW217097   0.998   5.620   0.476
 5400SOL     OW17098   2.949   4.717   0.022
 5400SOL    HW117099   2.859   4.759   0.038
 5400SOL    HW217100   2.943   4.656   6.959
 5401SOL     OW17101   6.116   3.082   1.369
 5401SOL    HW117102   6.127   2.985   1.347
 5401SOL    HW217103   6.206   3.122   1.388
 5402SOL     OW17104   1.618   6.302   2.552
 5402SOL    HW117105   1.637   6.390   2.509
 5402SOL    HW217106   1.650   6.304   2.647
 5403SOL     OW17107   6.762   2.911   6.667
 5403SOL    HW117108   6.690   2.980   6.673
 5403SOL    HW217109   6.743   2.837   6.731
 5404SOL     OW17110   1.663   3.337   2.751
 5404SOL    HW117111   1.660   3.376   2.843
 5404SOL    HW217112   1.664   3.237   2.758
 5405SOL     OW17113   6.735   4.487   5.886
 5405SOL    HW117114   6.679   4.444   5.956
 5405SOL    HW217115   6.683   4.558   5.839
 5406SOL     OW17116   2.017   0.133   5.354
 5406SOL    HW117117   1.950   0.204   5.333
 5406SOL    HW217118   2.107   0.174   5.370
 5407SOL     OW17119   3.872   3.648   6.839
 5407SOL    HW117120   3.784   3.663   6.795
 5407SOL    HW217121   3.869   3.683   6.933
 5408SOL     OW17122   2.813   1.093   0.076
 5408SOL    HW117123   2.737   1.112   0.013
 5408SOL    HW217124   2.880   1.034   0.030
 5409SOL     OW17125   3.846   1.092   2.890
 5409SOL    HW117126   3.784   1.015   2.905
 5409SOL    HW217127   3.879   1.090   2.795
 5410SOL     OW17128   2.163   2.236   2.203
 5410SOL    HW117129   2.095   2.216   2.273
 5410SOL    HW217130   2.254   2.238   2.244
 5411SOL     OW17131   0.718   5.182   4.719
 5411SOL    HW117132   0.686   5.088   4.711
 5411SOL    HW217133   0.656   5.234   4.778
 5412SOL     OW17134   6.011   2.755   1.092
 5412SOL    HW117135   6.046   2.694   1.021
 5412SOL    HW217136   6.087   2.793   1.144
 5413SOL     OW17137   2.239   0.122   1.784
 5413SOL    HW117138   2.232   0.127   1.884
 5413SOL    HW217139   2.274   0.209   1.749
 5414SOL     OW17140   3.727   0.923   5.808
 5414SOL    HW117141   3.745   1.015   5.771
 5414SOL    HW217142   3.805   0.895   5.864
 5415SOL     OW17143   5.896   5.015   2.132
 5415SOL    HW117144   5.983   4.992   2.176
 5415SOL    HW217145   5.823   5.010   2.200
 5416SOL     OW17146   4.367   5.567   4.453
 5416SOL    HW117147   4.412   5.633   4.393
 5416SOL    HW217148   4.429   5.539   4.525
 5417SOL     OW17149   3.082   6.706   5.333
 5417SOL    HW117150   3.072   6.801   5.363
 5417SOL    HW217151   3.090   6.704   5.234
 5418SOL     OW17152   3.749   0.233   3.067
 5418SOL    HW117153   3.815   0.289   3.117
 5418SOL    HW217154   3.759   0.137   3.094
 5419SOL     OW17155   3.036   3.854   6.648
 5419SOL    HW117156   3.076   3.946   6.642
 5419SOL    HW217157   2.938   3.860   6.628
 5420SOL     OW17158   1.308   1.528   2.914
 5420SOL    HW117159   1.344   1.620   2.899
 5420SOL    HW217160   1.243   1.505   2.842
 5421SOL     OW17161   1.281   3.612   1.562
 5421SOL    HW117162   1.247   3.702   1.590
 5421SOL    HW217163   1.379   3.605   1.583
 5422SOL     OW17164   2.139   3.736   0.747
 5422SOL    HW117165   2.061   3.698   0.797
 5422SOL    HW217166   2.161   3.827   0.784
 5423SOL     OW17167   6.078   3.987   6.357
 5423SOL    HW117168   6.001   3.964   6.297
 5423SOL    HW217169   6.050   4.059   6.420
 5424SOL     OW17170   5.515   4.239   5.277
 5424SOL    HW117171   5.603   4.216   5.318
 5424SOL    HW217172   5.454   4.160   5.281
 5425SOL     OW17173   5.156   0.399   4.638
 5425SOL    HW117174   5.073   0.434   4.594
 5425SOL    HW217175   5.197   0.328   4.581
 5426SOL     OW17176   6.560   0.254   5.572
 5426SOL    HW117177   6.537   0.218   5.481
 5426SOL    HW217178   6.484   0.236   5.635
 5427SOL     OW17179   4.261   6.003   6.861
 5427SOL    HW117180   4.284   6.099   6.843
 5427SOL    HW217181   4.258   5.953   6.774
 5428SOL     OW17182   1.150   0.696   6.723
 5428SOL    HW117183   1.163   0.603   6.757
 5428SOL    HW217184   1.235   0.729   6.682
 5429SOL     OW17185   1.688   2.641   6.861
 5429SOL    HW117186   1.616   2.604   6.802
 5429SOL    HW217187   1.672   2.613   6.955
 5430SOL     OW17188   2.477   2.444   5.648
 5430SOL    HW117189   2.397   2.494   5.613
 5430SOL    HW217190   2.560   2.497   5.631
 5431SOL     OW17191   3.688   5.904   4.515
 5431SOL    HW117192   3.753   5.947   4.577
 5431SOL    HW217193   3.624   5.973   4.480
 5432SOL     OW17194   5.427   6.426   1.230
 5432SOL    HW117195   5.394   6.358   1.165
 5432SOL    HW217196   5.412   6.393   1.324
 5433SOL     OW17197   0.150   1.776   4.124
 5433SOL    HW117198   0.149   1.738   4.216
 5433SOL    HW217199   0.220   1.847   4.117
 5434SOL     OW17200   2.901   6.860   5.656
 5434SOL    HW117201   2.981   6.818   5.701
 5434SOL    HW217202   2.930   6.899   5.568
 5435SOL     OW17203   4.430   1.154   2.192
 5435SOL    HW117204   4.451   1.209   2.110
 5435SOL    HW217205   4.503   1.089   2.209
 5436SOL     OW17206   5.444   4.106   2.408
 5436SOL    HW117207   5.437   4.177   2.338
 5436SOL    HW217208   5.501   4.138   2.483
 5437SOL     OW17209   3.097   3.472   6.734
 5437SOL    HW117210   3.128   3.489   6.828
 5437SOL    HW217211   3.156   3.404   6.691
 5438SOL     OW17212   6.510   1.867   1.353
 5438SOL    HW117213   6.439   1.926   1.392
 5438SOL    HW217214   6.502   1.865   1.254
 5439SOL     OW17215   1.270   2.398   1.623
 5439SOL    HW117216   1.325   2.477   1.593
 5439SOL    HW217217   1.293   2.376   1.717
 5440SOL     OW17218   1.432   1.883   0.661
 5440SOL    HW117219   1.497   1.957   0.649
 5440SOL    HW217220   1.479   1.802   0.697
 5441SOL     OW17221   3.740   1.707   4.046
 5441SOL    HW117222   3.730   1.677   3.952
 5441SOL    HW217223   3.651   1.706   4.092
 5442SOL     OW17224   3.897   0.633   2.868
 5442SOL    HW117225   3.886   0.550   2.922
 5442SOL    HW217226   3.992   0.640   2.836
 5443SOL     OW17227   3.197   6.690   5.040
 5443SOL    HW117228   3.220   6.595   5.059
 5443SOL    HW217229   3.177   6.702   4.943
 5444SOL     OW17230   7.014   7.012   3.359
 5444SOL    HW117231   0.007   6.946   3.434
 5444SOL    HW217232   0.036   6.973   3.276
 5445SOL     OW17233   5.383   3.859   2.292
 5445SOL    HW117234   5.389   3.944   2.344
 5445SOL    HW217235   5.390   3.781   2.354
 5446SOL     OW17236   6.482   5.378   5.637
 5446SOL    HW117237   6.510   5.418   5.724
 5446SOL    HW217238   6.538   5.298   5.617
 5447SOL     OW17239   3.347   1.893   0.520
 5447SOL    HW117240   3.366   1.848   0.607
 5447SOL    HW217241   3.299   1.830   0.459
 5448SOL     OW17242   5.661   2.367   5.568
 5448SOL    HW117243   5.592   2.436   5.587
 5448SOL    HW217244   5.752   2.406   5.582
 5449SOL     OW17245   0.637   3.604   6.650
 5449SOL    HW117246   0.546   3.580   6.683
 5449SOL    HW217247   0.635   3.694   6.607
 5450SOL     OW17248   1.923   6.992   0.775
 5450SOL    HW117249   2.018   7.002   0.747
 5450SOL    HW217250   1.916   6.922   0.847
 5451SOL     OW17251   1.412   0.310   2.459
 5451SOL    HW117252   1.420   0.215   2.489
 5451SOL    HW217253   1.424   0.371   2.537
 5452SOL     OW17254   2.814   3.932   5.894
 5452SOL    HW117255   2.838   3.835   5.893
 5452SOL    HW217256   2.834   3.973   5.805
 5453SOL     OW17257   6.156   4.993   6.822
 5453SOL    HW117258   6.171   4.961   6.728
 5453SOL    HW217259   6.073   4.950   6.859
 5454SOL     OW17260   0.113   4.391   6.657
 5454SOL    HW117261   0.184   4.321   6.651
 5454SOL    HW217262   0.048   4.380   6.582
 5455SOL     OW17263   6.353   3.173   1.455
 5455SOL    HW117264   6.328   3.150   1.549
 5455SOL    HW217265   6.443   3.135   1.434
 5456SOL     OW17266   3.670   6.664   0.789
 5456SOL    HW117267   3.709   6.668   0.697
 5456SOL    HW217268   3.621   6.749   0.808
 5457SOL     OW17269   6.188   3.733   0.427
 5457SOL    HW117270   6.203   3.635   0.435
 5457SOL    HW217271   6.202   3.761   0.332
 5458SOL     OW17272   2.518   4.207   6.840
 5458SOL    HW117273   2.478   4.152   6.767
 5458SOL    HW217274   2.516   4.155   6.926
 5459SOL     OW17275   2.220   5.050   5.956
 5459SOL    HW117276   2.272   4.969   5.984
 5459SOL    HW217277   2.262   5.131   5.997
 5460SOL     OW17278   3.366   0.524   1.155
 5460SOL    HW117279   3.375   0.603   1.216
 5460SOL    HW217280   3.434   0.530   1.082
 5461SOL     OW17281   4.349   6.941   5.110
 5461SOL    HW117282   4.332   0.019   5.141
 5461SOL    HW217283   4.264   6.902   5.075
 5462SOL     OW17284   1.165   0.294   1.182
 5462SOL    HW117285   1.260   0.266   1.169
 5462SOL    HW217286   1.117   0.291   1.094
 5463SOL     OW17287   0.039   2.755   0.659
 5463SOL    HW117288   0.088   2.792   0.580
 5463SOL    HW217289   0.002   2.831   0.713
 5464SOL     OW17290   2.073   0.185   4.237
 5464SOL    HW117291   2.064   0.234   4.150
 5464SOL    HW217292   2.162   0.140   4.241
 5465SOL     OW17293   2.675   6.754   5.735
 5465SOL    HW117294   2.754   6.797   5.692
 5465SOL    HW217295   2.703   6.675   5.788
 5466SOL     OW17296   4.717   4.218   4.474
 5466SOL    HW117297   4.686   4.308   4.506
 5466SOL    HW217298   4.739   4.223   4.377
 5467SOL     OW17299   5.927   1.950   1.894
 5467SOL    HW117300   5.857   1.900   1.843
 5467SOL    HW217301   6.014   1.900   1.889
 5468SOL     OW17302   4.333   1.524   5.489
 5468SOL    HW117303   4.432   1.521   5.500
 5468SOL    HW217304   4.309   1.592   5.420
 5469SOL     OW17305   4.302   4.533   6.494
 5469SOL    HW117306   4.370   4.505   6.426
 5469SOL    HW217307   4.329   4.620   6.535
 5470SOL     OW17308   1.445   5.667   3.332
 5470SOL    HW117309   1.383   5.745   3.336
 5470SOL    HW217310   1.530   5.694   3.288
 5471SOL     OW17311   6.104   5.400   2.131
 5471SOL    HW117312   6.089   5.332   2.059
 5471SOL    HW217313   6.066   5.368   2.217
 5472SOL     OW17314   3.858   5.042   5.360
 5472SOL    HW117315   3.845   5.076   5.453
 5472SOL    HW217316   3.955   5.039   5.338
 5473SOL     OW17317   1.274   3.307   3.610
 5473SOL    HW117318   1.346   3.268   3.667
 5473SOL    HW217319   1.224   3.234   3.563
 5474SOL     OW17320   2.332   6.183   3.293
 5474SOL    HW117321   2.423   6.223   3.305
 5474SOL    HW217322   2.334   6.117   3.217
 5475SOL     OW17323   3.104   2.414   1.445
 5475SOL    HW117324   3.105   2.406   1.545
 5475SOL    HW217325   3.197   2.408   1.410
 5476SOL     OW17326   1.006   3.509   5.935
 5476SOL    HW117327   1.103   3.528   5.952
 5476SOL    HW217328   0.994   3.413   5.912
 5477SOL     OW17329   2.174   3.058   2.327
 5477SOL    HW117330   2.139   3.105   2.408
 5477SOL    HW217331   2.233   2.982   2.356
 5478SOL     OW17332   6.807   6.106   6.118
 5478SOL    HW117333   6.828   6.060   6.205
 5478SOL    HW217334   6.794   6.038   6.047
 5479SOL     OW17335   4.544   0.669   4.738
 5479SOL    HW117336   4.629   0.619   4.754
 5479SOL    HW217337   4.551   0.720   4.652
 5480SOL     OW17338   0.079   3.616   4.507
 5480SOL    HW117339   0.053   3.711   4.486
 5480SOL    HW217340   0.178   3.606   4.499
 5481SOL     OW17341   4.750   6.689   4.329
 5481SOL    HW117342   4.779   6.595   4.349
 5481SOL    HW217343   4.707   6.692   4.239
 5482SOL     OW17344   1.519   4.403   1.481
 5482SOL    HW117345   1.460   4.460   1.538
 5482SOL    HW217346   1.465   4.360   1.409
 5483SOL     OW17347   0.480   2.872   6.054
 5483SOL    HW117348   0.503   2.832   5.965
 5483SOL    HW217349   0.394   2.833   6.086
 5484SOL     OW17350   4.582   0.315   4.970
 5484SOL    HW117351   4.632   0.402   4.962
 5484SOL    HW217352   4.648   0.240   4.974
 5485SOL     OW17353   2.912   0.313   4.763
 5485SOL    HW117354   2.886   0.218   4.780
 5485SOL    HW217355   2.957   0.320   4.674
 5486SOL     OW17356   2.476   5.761   5.141
 5486SOL    HW117357   2.377   5.762   5.132
 5486SOL    HW217358   2.513   5.676   5.101
 5487SOL     OW17359   3.087   5.292   5.463
 5487SOL    HW117360   3.097   5.240   5.548
 5487SOL    HW217361   3.155   5.365   5.461
 5488SOL     OW17362   5.409   2.410   0.864
 5488SOL    HW117363   5.507   2.422   0.880
 5488SOL    HW217364   5.376   2.484   0.805
 5489SOL     OW17365   6.620   3.864   3.238
 5489SOL    HW117366   6.571   3.785   3.199
 5489SOL    HW217367   6.689   3.832   3.302
 5490SOL     OW17368   1.569   6.056   3.089
 5490SOL    HW117369   1.630   6.006   3.027
 5490SOL    HW217370   1.488   6.087   3.038
 5491SOL     OW17371   6.580   4.256   0.745
 5491SOL    HW117372   6.618   4.325   0.807
 5491SOL    HW217373   6.552   4.300   0.660
 5492SOL     OW17374   6.908   1.932   5.971
 5492SOL    HW117375   6.888   1.882   5.886
 5492SOL    HW217376   6.981   1.999   5.954
 5493SOL     OW17377   3.734   3.932   0.852
 5493SOL    HW117378   3.709   3.881   0.770
 5493SOL    HW217379   3.709   3.879   0.933
 5494SOL     OW17380   6.108   3.727   5.724
 5494SOL    HW117381   6.094   3.810   5.671
 5494SOL    HW217382   6.139   3.750   5.816
 5495SOL     OW17383   5.830   6.770   0.403
 5495SOL    HW117384   5.767   6.805   0.334
 5495SOL    HW217385   5.781   6.757   0.489
 5496SOL     OW17386   3.831   0.243   4.157
 5496SOL    HW117387   3.813   0.199   4.069
 5496SOL    HW217388   3.869   0.334   4.141
 5497SOL     OW17389   1.071   0.505   5.384
 5497SOL    HW117390   1.093   0.588   5.435
 5497SOL    HW217391   0.985   0.467   5.417
 5498SOL     OW17392   0.574   5.748   1.035
 5498SOL    HW117393   0.548   5.791   0.949
 5498SOL    HW217394   0.668   5.716   1.029
 5499SOL     OW17395   1.787   0.001   4.596
 5499SOL    HW117396   1.877   6.984   4.626
 5499SOL    HW217397   1.750   6.955   4.527
 5500SOL     OW17398   2.734   0.461   0.967
 5500SOL    HW117399   2.823   0.430   1.002
 5500SOL    HW217400   2.679   0.382   0.941
 5501SOL     OW17401   3.319   3.990   6.849
 5501SOL    HW117402   3.230   3.990   6.895
 5501SOL    HW217403   3.342   3.896   6.824
 5502SOL     OW17404   4.477   3.017   0.092
 5502SOL    HW117405   4.483   2.924   0.054
 5502SOL    HW217406   4.567   3.046   0.124
 5503SOL     OW17407   6.215   3.492   0.970
 5503SOL    HW117408   6.211   3.407   1.022
 5503SOL    HW217409   6.215   3.470   0.872
 5504SOL     OW17410   3.797   1.690   0.229
 5504SOL    HW117411   3.882   1.743   0.229
 5504SOL    HW217412   3.721   1.748   0.199
 5505SOL     OW17413   3.226   4.873   3.476
 5505SOL    HW117414   3.138   4.912   3.507
 5505SOL    HW217415   3.289   4.869   3.554
 5506SOL     OW17416   0.141   3.216   5.683
 5506SOL    HW117417   0.157   3.140   5.620
 5506SOL    HW217418   0.192   3.296   5.652
 5507SOL     OW17419   3.304   0.247   6.569
 5507SOL    HW117420   3.268   0.222   6.479
 5507SOL    HW217421   3.402   0.228   6.571
 5508SOL     OW17422   6.862   0.827   6.337
 5508SOL    HW117423   6.882   0.815   6.240
 5508SOL    HW217424   6.772   0.789   6.358
 5509SOL     OW17425   6.388   4.761   0.683
 5509SOL    HW117426   6.320   4.691   0.707
 5509SOL    HW217427   6.357   4.811   0.602
 5510SOL     OW17428   4.770   5.273   6.919
 5510SOL    HW117429   4.688   5.297   6.971
 5510SOL    HW217430   4.840   5.236   6.981
 5511SOL     OW17431   0.549   2.488   5.988
 5511SOL    HW117432   0.453   2.514   6.000
 5511SOL    HW217433   0.553   2.397   5.946
 5512SOL     OW17434   2.457   0.575   2.481
 5512SOL    HW117435   2.533   0.594   2.419
 5512SOL    HW217436   2.430   0.659   2.528
 5513SOL     OW17437   3.603   3.958   0.452
 5513SOL    HW117438   3.576   3.863   0.469
 5513SOL    HW217439   3.641   3.965   0.359
 5514SOL     OW17440   3.166   1.183   0.273
 5514SOL    HW117441   3.195   1.191   0.369
 5514SOL    HW217442   3.085   1.240   0.258
 5515SOL     OW17443   2.852   5.475   2.557
 5515SOL    HW117444   2.865   5.563   2.512
 5515SOL    HW217445   2.899   5.476   2.646
 5516SOL     OW17446   2.276   1.987   5.272
 5516SOL    HW117447   2.325   1.990   5.184
 5516SOL    HW217448   2.343   1.989   5.347
 5517SOL     OW17449   1.434   2.273   3.252
 5517SOL    HW117450   1.468   2.365   3.274
 5517SOL    HW217451   1.447   2.256   3.154
 5518SOL     OW17452   4.798   5.100   6.680
 5518SOL    HW117453   4.888   5.113   6.639
 5518SOL    HW217454   4.782   5.172   6.748
 5519SOL     OW17455   5.166   2.693   4.330
 5519SOL    HW117456   5.191   2.747   4.411
 5519SOL    HW217457   5.249   2.654   4.290
 5520SOL     OW17458   4.950   0.586   1.278
 5520SOL    HW117459   4.922   0.629   1.364
 5520SOL    HW217460   4.879   0.600   1.209
 5521SOL     OW17461   4.733   6.693   2.634
 5521SOL    HW117462   4.723   6.609   2.688
 5521SOL    HW217463   4.810   6.683   2.571
 5522SOL     OW17464   6.169   5.781   1.075
 5522SOL    HW117465   6.219   5.785   1.162
 5522SOL    HW217466   6.219   5.723   1.011
 5523SOL     OW17467   5.394   1.955   0.389
 5523SOL    HW117468   5.393   1.877   0.451
 5523SOL    HW217469   5.473   2.013   0.410
 5524SOL     OW17470   2.643   1.310   3.754
 5524SOL    HW117471   2.588   1.342   3.831
 5524SOL    HW217472   2.737   1.292   3.785
 5525SOL     OW17473   6.255   1.181   1.501
 5525SOL    HW117474   6.251   1.226   1.412
 5525SOL    HW217475   6.199   1.231   1.567
 5526SOL     OW17476   5.440   5.312   3.776
 5526SOL    HW117477   5.483   5.329   3.865
 5526SOL    HW217478   5.370   5.241   3.786
 5527SOL     OW17479   5.892   0.507   3.681
 5527SOL    HW117480   5.950   0.436   3.642
 5527SOL    HW217481   5.824   0.536   3.614
 5528SOL     OW17482   0.987   1.604   6.846
 5528SOL    HW117483   1.069   1.640   6.892
 5528SOL    HW217484   0.924   1.567   6.915
 5529SOL     OW17485   3.723   0.628   2.360
 5529SOL    HW117486   3.666   0.631   2.442
 5529SOL    HW217487   3.758   0.536   2.347
 5530SOL     OW17488   6.879   1.901   1.206
 5530SOL    HW117489   6.825   1.879   1.287
 5530SOL    HW217490   6.976   1.881   1.225
 5531SOL     OW17491   2.040   4.201   1.548
 5531SOL    HW117492   2.027   4.170   1.642
 5531SOL    HW217493   2.128   4.168   1.513
 5532SOL     OW17494   0.827   2.477   6.814
 5532SOL    HW117495   0.815   2.433   6.903
 5532SOL    HW217496   0.772   2.560   6.810
 5533SOL     OW17497   3.448   1.636   2.511
 5533SOL    HW117498   3.504   1.696   2.455
 5533SOL    HW217499   3.457   1.662   2.607
 5534SOL     OW17500   1.514   0.381   4.528
 5534SOL    HW117501   1.514   0.343   4.436
 5534SOL    HW217502   1.554   0.314   4.591
 5535SOL     OW17503   6.900   1.548   2.705
 5535SOL    HW117504   6.913   1.590   2.795
 5535SOL    HW217505   6.808   1.510   2.699
 5536SOL     OW17506   4.416   6.162   4.456
 5536SOL    HW117507   4.363   6.247   4.464
 5536SOL    HW217508   4.484   6.158   4.530
 5537SOL     OW17509   3.007   2.231   3.823
 5537SOL    HW117510   2.954   2.148   3.806
 5537SOL    HW217511   2.990   2.263   3.917
 5538SOL     OW17512   4.860   4.798   4.500
 5538SOL    HW117513   4.821   4.857   4.572
 5538SOL    HW217514   4.865   4.704   4.534
 5539SOL     OW17515   2.678   4.792   0.019
 5539SOL    HW117516   2.659   4.871   0.078
 5539SOL    HW217517   2.608   4.722   0.033
 5540SOL     OW17518   4.628   5.227   2.479
 5540SOL    HW117519   4.598   5.295   2.545
 5540SOL    HW217520   4.547   5.180   2.442
 5541SOL     OW17521   4.618   1.351   6.007
 5541SOL    HW117522   4.584   1.287   5.938
 5541SOL    HW217523   4.555   1.352   6.085
 5542SOL     OW17524   5.319   4.354   6.839
 5542SOL    HW117525   5.305   4.322   6.745
 5542SOL    HW217526   5.300   4.452   6.844
 5543SOL     OW17527   7.007   2.050   5.595
 5543SOL    HW117528   0.071   2.057   5.535
 5543SOL    HW217529   6.929   2.095   5.552
 5544SOL     OW17530   6.003   0.745   6.790
 5544SOL    HW117531   6.047   0.831   6.815
 5544SOL    HW217532   6.069   0.670   6.797
 5545SOL     OW17533   2.779   2.556   1.730
 5545SOL    HW117534   2.833   2.480   1.765
 5545SOL    HW217535   2.839   2.635   1.716
 5546SOL     OW17536   3.988   4.678   5.765
 5546SOL    HW117537   3.914   4.622   5.728
 5546SOL    HW217538   4.069   4.670   5.707
 5547SOL     OW17539   3.481   5.560   4.026
 5547SOL    HW117540   3.467   5.599   4.117
 5547SOL    HW217541   3.524   5.627   3.966
 5548SOL     OW17542   0.486   2.471   4.462
 5548SOL    HW117543   0.399   2.450   4.418
 5548SOL    HW217544   0.471   2.537   4.536
 5549SOL     OW17545   3.688   4.975   0.125
 5549SOL    HW117546   3.703   4.931   0.036
 5549SOL    HW217547   3.627   4.918   0.180
 5550SOL     OW17548   2.791   6.531   2.419
 5550SOL    HW117549   2.764   6.612   2.471
 5550SOL    HW217550   2.866   6.484   2.467
 5551SOL     OW17551   0.768   1.013   2.967
 5551SOL    HW117552   0.727   0.922   2.962
 5551SOL    HW217553   0.802   1.029   3.060
 5552SOL     OW17554   0.939   2.319   2.187
 5552SOL    HW117555   0.899   2.373   2.261
 5552SOL    HW217556   1.029   2.357   2.164
 5553SOL     OW17557   4.721   6.373   6.670
 5553SOL    HW117558   4.743   6.441   6.739
 5553SOL    HW217559   4.755   6.403   6.581
 5554SOL     OW17560   3.449   1.137   4.234
 5554SOL    HW117561   3.499   1.072   4.178
 5554SOL    HW217562   3.471   1.230   4.205
 5555SOL     OW17563   0.869   5.916   1.751
 5555SOL    HW117564   0.868   5.818   1.769
 5555SOL    HW217565   0.822   5.964   1.825
 5556SOL     OW17566   0.850   0.910   4.573
 5556SOL    HW117567   0.900   0.960   4.501
 5556SOL    HW217568   0.906   0.834   4.606
 5557SOL     OW17569   2.416   0.266   2.877
 5557SOL    HW117570   2.377   0.295   2.964
 5557SOL    HW217571   2.430   0.167   2.877
 5558SOL     OW17572   4.836   2.609   5.443
 5558SOL    HW117573   4.806   2.696   5.403
 5558SOL    HW217574   4.788   2.594   5.530
 5559SOL     OW17575   2.175   0.670   1.666
 5559SOL    HW117576   2.197   0.627   1.753
 5559SOL    HW217577   2.082   0.647   1.640
 5560SOL     OW17578   6.779   1.208   4.592
 5560SOL    HW117579   6.720   1.210   4.673
 5560SOL    HW217580   6.873   1.227   4.618
 5561SOL     OW17581   1.679   3.682   2.386
 5561SOL    HW117582   1.705   3.687   2.289
 5561SOL    HW217583   1.635   3.768   2.413
 5562SOL     OW17584   2.914   1.754   6.900
 5562SOL    HW117585   2.992   1.802   6.859
 5562SOL    HW217586   2.886   1.680   6.839
 5563SOL     OW17587   4.234   4.063   1.465
 5563SOL    HW117588   4.291   4.096   1.390
 5563SOL    HW217589   4.170   4.134   1.493
 5564SOL     OW17590   5.457   2.338   1.437
 5564SOL    HW117591   5.434   2.398   1.360
 5564SOL    HW217592   5.549   2.358   1.469
 5565SOL     OW17593   2.776   2.734   5.343
 5565SOL    HW117594   2.709   2.795   5.302
 5565SOL    HW217595   2.867   2.774   5.333
 5566SOL     OW17596   2.110   4.511   0.516
 5566SOL    HW117597   2.127   4.533   0.612
 5566SOL    HW217598   2.049   4.580   0.476
 5567SOL     OW17599   1.870   5.515   2.624
 5567SOL    HW117600   1.932   5.593   2.610
 5567SOL    HW217601   1.923   5.436   2.655
 5568SOL     OW17602   3.887   2.549   0.505
 5568SOL    HW117603   3.826   2.545   0.583
 5568SOL    HW217604   3.854   2.617   0.439
 5569SOL     OW17605   5.072   1.916   6.259
 5569SOL    HW117606   5.032   1.896   6.348
 5569SOL    HW217607   5.056   1.839   6.197
 5570SOL     OW17608   1.196   3.306   5.182
 5570SOL    HW117609   1.279   3.325   5.235
 5570SOL    HW217610   1.160   3.392   5.144
 5571SOL     OW17611   6.420   4.438   6.915
 5571SOL    HW117612   6.439   4.350   6.872
 5571SOL    HW217613   6.497   4.464   6.973
 5572SOL     OW17614   6.957   3.394   4.827
 5572SOL    HW117615   0.037   3.419   4.844
 5572SOL    HW217616   6.927   3.329   4.896
 5573SOL     OW17617   0.051   4.008   6.756
 5573SOL    HW117618   0.066   4.093   6.806
 5573SOL    HW217619   0.037   4.029   6.659
 5574SOL     OW17620   0.935   6.908   4.264
 5574SOL    HW117621   0.988   6.975   4.213
 5574SOL    HW217622   0.842   6.942   4.277
 5575SOL     OW17623   0.899   1.402   1.767
 5575SOL    HW117624   0.921   1.439   1.857
 5575SOL    HW217625   0.924   1.305   1.765
 5576SOL     OW17626   5.359   6.233   5.806
 5576SOL    HW117627   5.396   6.266   5.892
 5576SOL    HW217628   5.277   6.286   5.782
 5577SOL     OW17629   2.334   4.358   4.509
 5577SOL    HW117630   2.246   4.323   4.543
 5577SOL    HW217631   2.338   4.457   4.525
 5578SOL     OW17632   3.453   2.008   6.403
 5578SOL    HW117633   3.507   1.930   6.372
 5578SOL    HW217634   3.495   2.047   6.484
 5579SOL     OW17635   4.984   5.157   1.913
 5579SOL    HW117636   5.021   5.250   1.905
 5579SOL    HW217637   4.896   5.161   1.960
 5580SOL     OW17638   5.393   1.349   1.176
 5580SOL    HW117639   5.478   1.379   1.220
 5580SOL    HW217640   5.317   1.408   1.205
 5581SOL     OW17641   2.751   2.434   0.680
 5581SOL    HW117642   2.669   2.390   0.643
 5581SOL    HW217643   2.831   2.404   0.628
 5582SOL     OW17644   3.434   2.943   3.606
 5582SOL    HW117645   3.425   2.926   3.704
 5582SOL    HW217646   3.345   2.936   3.562
 5583SOL     OW17647   4.546   0.523   6.923
 5583SOL    HW117648   4.465   0.573   6.893
 5583SOL    HW217649   4.628   0.573   6.895
 5584SOL     OW17650   4.939   3.382   3.189
 5584SOL    HW117651   4.938   3.457   3.255
 5584SOL    HW217652   4.903   3.299   3.233
 5585SOL     OW17653   0.473   0.200   4.907
 5585SOL    HW117654   0.465   0.186   4.809
 5585SOL    HW217655   0.487   0.112   4.952
 5586SOL     OW17656   2.885   1.039   6.478
 5586SOL    HW117657   2.788   1.059   6.467
 5586SOL    HW217658   2.909   1.042   6.575
 5587SOL     OW17659   3.668   6.408   4.116
 5587SOL    HW117660   3.611   6.357   4.051
 5587SOL    HW217661   3.614   6.433   4.195
 5588SOL     OW17662   4.938   6.790   6.145
 5588SOL    HW117663   4.859   6.737   6.174
 5588SOL    HW217664   4.910   6.860   6.079
 5589SOL     OW17665   2.521   3.850   0.264
 5589SOL    HW117666   2.510   3.895   0.352
 5589SOL    HW217667   2.592   3.898   0.211
 5590SOL     OW17668   6.776   0.179   3.644
 5590SOL    HW117669   6.692   0.133   3.615
 5590SOL    HW217670   6.755   0.271   3.677
 5591SOL     OW17671   5.377   0.310   0.569
 5591SOL    HW117672   5.434   0.340   0.493
 5591SOL    HW217673   5.434   0.291   0.649
 5592SOL     OW17674   1.254   2.491   2.544
 5592SOL    HW117675   1.211   2.533   2.464
 5592SOL    HW217676   1.280   2.397   2.523
 5593SOL     OW17677   2.156   4.363   4.754
 5593SOL    HW117678   2.207   4.406   4.828
 5593SOL    HW217679   2.069   4.411   4.741
 5594SOL     OW17680   2.785   1.545   6.556
 5594SOL    HW117681   2.761   1.637   6.524
 5594SOL    HW217682   2.853   1.552   6.629
 5595SOL     OW17683   0.605   2.812   6.522
 5595SOL    HW117684   0.584   2.858   6.436
 5595SOL    HW217685   0.693   2.844   6.556
 5596SOL     OW17686   4.714   2.785   4.579
 5596SOL    HW117687   4.782   2.723   4.620
 5596SOL    HW217688   4.715   2.772   4.479
 5597SOL     OW17689   6.788   1.943   6.640
 5597SOL    HW117690   6.710   1.883   6.620
 5597SOL    HW217691   6.838   1.908   6.718
 5598SOL     OW17692   6.402   1.900   3.614
 5598SOL    HW117693   6.471   1.882   3.543
 5598SOL    HW217694   6.441   1.882   3.704
 5599SOL     OW17695   5.399   2.589   2.997
 5599SOL    HW117696   5.464   2.627   3.063
 5599SOL    HW217697   5.351   2.663   2.950
 5600SOL     OW17698   2.027   2.906   2.148
 5600SOL    HW117699   2.044   2.978   2.215
 5600SOL    HW217700   2.026   2.817   2.193
 5601SOL     OW17701   5.695   3.196   5.958
 5601SOL    HW117702   5.619   3.145   5.918
 5601SOL    HW217703   5.662   3.286   5.987
 5602SOL     OW17704   6.244   2.227   3.020
 5602SOL    HW117705   6.291   2.297   3.075
 5602SOL    HW217706   6.146   2.248   3.017
 5603SOL     OW17707   3.561   2.333   6.157
 5603SOL    HW117708   3.637   2.290   6.204
 5603SOL    HW217709   3.475   2.304   6.199
 5604SOL     OW17710   0.961   6.081   3.770
 5604SOL    HW117711   1.026   6.033   3.711
 5604SOL    HW217712   0.965   6.179   3.749
 5605SOL     OW17713   4.337   0.541   4.044
 5605SOL    HW117714   4.306   0.578   4.132
 5605SOL    HW217715   4.266   0.480   4.006
 5606SOL     OW17716   4.813   3.141   1.003
 5606SOL    HW117717   4.733   3.144   1.062
 5606SOL    HW217718   4.854   3.049   1.007
 5607SOL     OW17719   6.852   2.651   3.437
 5607SOL    HW117720   6.903   2.617   3.358
 5607SOL    HW217721   6.756   2.625   3.428
 5608SOL     OW17722   5.197   0.619   3.999
 5608SOL    HW117723   5.233   0.699   4.047
 5608SOL    HW217724   5.269   0.550   3.989
 5609SOL     OW17725   6.498   0.994   0.286
 5609SOL    HW117726   6.566   1.063   0.309
 5609SOL    HW217727   6.477   0.939   0.367
 5610SOL     OW17728   5.451   5.829   6.020
 5610SOL    HW117729   5.382   5.886   5.974
 5610SOL    HW217730   5.537   5.879   6.024
 5611SOL     OW17731   6.362   3.946   2.046
 5611SOL    HW117732   6.367   3.847   2.032
 5611SOL    HW217733   6.386   3.993   1.961
 5612SOL     OW17734   4.231   1.912   0.850
 5612SOL    HW117735   4.155   1.961   0.808
 5612SOL    HW217736   4.309   1.974   0.861
 5613SOL     OW17737   6.179   5.391   6.083
 5613SOL    HW117738   6.214   5.408   5.991
 5613SOL    HW217739   6.088   5.433   6.091
 5614SOL     OW17740   4.697   1.838   5.035
 5614SOL    HW117741   4.656   1.903   4.970
 5614SOL    HW217742   4.778   1.880   5.076
 5615SOL     OW17743   0.834   3.069   3.529
 5615SOL    HW117744   0.882   3.095   3.613
 5615SOL    HW217745   0.828   2.969   3.524
 5616SOL     OW17746   1.742   3.377   2.209
 5616SOL    HW117747   1.739   3.280   2.185
 5616SOL    HW217748   1.734   3.386   2.309
 5617SOL     OW17749   1.047   5.053   6.042
 5617SOL    HW117750   1.054   4.990   5.965
 5617SOL    HW217751   1.114   5.027   6.112
 5618SOL     OW17752   4.402   6.992   2.707
 5618SOL    HW117753   4.436   6.947   2.624
 5618SOL    HW217754   4.464   0.052   2.731
 5619SOL     OW17755   3.171   2.952   3.308
 5619SOL    HW117756   3.267   2.936   3.283
 5619SOL    HW217757   3.114   2.947   3.226
 5620SOL     OW17758   4.920   4.325   4.750
 5620SOL    HW117759   4.835   4.378   4.747
 5620SOL    HW217760   4.899   4.228   4.756
 5621SOL     OW17761   1.022   2.421   6.644
 5621SOL    HW117762   1.000   2.475   6.563
 5621SOL    HW217763   0.955   2.441   6.716
 5622SOL     OW17764   4.834   5.624   4.022
 5622SOL    HW117765   4.810   5.530   4.047
 5622SOL    HW217766   4.900   5.660   4.088
 5623SOL     OW17767   4.875   4.849   4.058
 5623SOL    HW117768   4.881   4.929   3.999
 5623SOL    HW217769   4.810   4.783   4.019
 5624SOL     OW17770   4.787   3.976   3.455
 5624SOL    HW117771   4.867   3.916   3.456
 5624SOL    HW217772   4.741   3.969   3.366
 5625SOL     OW17773   2.886   6.563   6.261
 5625SOL    HW117774   2.877   6.581   6.163
 5625SOL    HW217775   2.845   6.474   6.282
 5626SOL     OW17776   1.008   4.943   6.326
 5626SOL    HW117777   1.084   5.007   6.317
 5626SOL    HW217778   0.926   4.983   6.286
 5627SOL     OW17779   1.420   5.400   0.862
 5627SOL    HW117780   1.442   5.493   0.834
 5627SOL    HW217781   1.371   5.354   0.789
 5628SOL     OW17782   1.533   3.358   0.252
 5628SOL    HW117783   1.572   3.417   0.181
 5628SOL    HW217784   1.563   3.390   0.342
 5629SOL     OW17785   6.591   3.458   3.725
 5629SOL    HW117786   6.651   3.385   3.693
 5629SOL    HW217787   6.554   3.434   3.815
 5630SOL     OW17788   1.057   3.686   0.343
 5630SOL    HW117789   1.050   3.762   0.409
 5630SOL    HW217790   1.153   3.663   0.329
 5631SOL     OW17791   3.712   0.640   1.327
 5631SOL    HW117792   3.758   0.563   1.284
 5631SOL    HW217793   3.633   0.607   1.379
 5632SOL     OW17794   4.090   5.939   6.664
 5632SOL    HW117795   4.129   5.902   6.580
 5632SOL    HW217796   4.090   6.038   6.660
 5633SOL     OW17797   1.083   5.756   5.350
 5633SOL    HW117798   1.101   5.669   5.304
 5633SOL    HW217799   0.998   5.750   5.402
 5634SOL     OW17800   2.665   1.078   1.275
 5634SOL    HW117801   2.663   1.009   1.347
 5634SOL    HW217802   2.642   1.035   1.187
 5635SOL     OW17803   3.637   0.917   2.024
 5635SOL    HW117804   3.575   0.963   2.088
 5635SOL    HW217805   3.725   0.965   2.022
 5636SOL     OW17806   5.647   0.411   5.576
 5636SOL    HW117807   5.639   0.332   5.514
 5636SOL    HW217808   5.613   0.493   5.531
 5637SOL     OW17809   5.498   6.987   4.883
 5637SOL    HW117810   5.468   6.964   4.790
 5637SOL    HW217811   5.471   0.065   4.904
 5638SOL     OW17812   6.582   5.084   0.481
 5638SOL    HW117813   6.602   5.163   0.423
 5638SOL    HW217814   6.501   5.101   0.536
 5639SOL     OW17815   3.634   0.706   1.769
 5639SOL    HW117816   3.582   0.726   1.852
 5639SOL    HW217817   3.689   0.623   1.783
 5640SOL     OW17818   2.722   6.997   3.664
 5640SOL    HW117819   2.801   6.953   3.707
 5640SOL    HW217820   2.752   0.065   3.617
 5641SOL     OW17821   6.831   4.327   3.789
 5641SOL    HW117822   6.780   4.243   3.769
 5641SOL    HW217823   6.912   4.332   3.730
 5642SOL     OW17824   1.995   3.056   6.323
 5642SOL    HW117825   2.057   3.094   6.391
 5642SOL    HW217826   1.972   3.127   6.256
 5643SOL     OW17827   6.076   2.348   4.214
 5643SOL    HW117828   6.111   2.439   4.235
 5643SOL    HW217829   6.085   2.331   4.116
 5644SOL     OW17830   3.967   0.467   5.630
 5644SOL    HW117831   4.038   0.398   5.616
 5644SOL    HW217832   3.887   0.424   5.671
 5645SOL     OW17833   5.910   6.647   3.511
 5645SOL    HW117834   5.817   6.664   3.543
 5645SOL    HW217835   5.946   6.565   3.557
 5646SOL     OW17836   6.433   6.421   3.988
 5646SOL    HW117837   6.340   6.386   3.990
 5646SOL    HW217838   6.491   6.356   3.938
 5647SOL     OW17839   6.996   4.363   6.423
 5647SOL    HW117840   6.998   4.303   6.343
 5647SOL    HW217841   6.915   4.421   6.419
 5648SOL     OW17842   2.771   1.264   4.385
 5648SOL    HW117843   2.834   1.231   4.454
 5648SOL    HW217844   2.741   1.357   4.409
 5649SOL     OW17845   1.084   0.439   6.159
 5649SOL    HW117846   1.009   0.377   6.137
 5649SOL    HW217847   1.110   0.427   6.255
 5650SOL     OW17848   0.096   4.716   5.543
 5650SOL    HW117849   0.194   4.724   5.531
 5650SOL    HW217850   0.069   4.620   5.537
 5651SOL     OW17851   5.594   1.582   2.248
 5651SOL    HW117852   5.644   1.669   2.246
 5651SOL    HW217853   5.502   1.596   2.211
 5652SOL     OW17854   5.758   4.191   0.248
 5652SOL    HW117855   5.686   4.223   0.310
 5652SOL    HW217856   5.734   4.216   0.154
 5653SOL     OW17857   2.358   6.051   6.851
 5653SOL    HW117858   2.284   5.995   6.889
 5653SOL    HW217859   2.436   6.050   6.913
 5654SOL     OW17860   1.843   6.000   6.818
 5654SOL    HW117861   1.851   6.095   6.790
 5654SOL    HW217862   1.818   5.944   6.739
 5655SOL     OW17863   6.617   5.267   2.863
 5655SOL    HW117864   6.699   5.229   2.821
 5655SOL    HW217865   6.643   5.336   2.930
 5656SOL     OW17866   3.409   5.560   6.435
 5656SOL    HW117867   3.499   5.541   6.473
 5656SOL    HW217868   3.377   5.481   6.382
 5657SOL     OW17869   4.511   5.570   1.774
 5657SOL    HW117870   4.600   5.612   1.754
 5657SOL    HW217871   4.438   5.631   1.744
 5658SOL     OW17872   5.477   6.492   5.841
 5658SOL    HW117873   5.420   6.506   5.760
 5658SOL    HW217874   5.444   6.551   5.915
 5659SOL     OW17875   2.961   3.250   2.968
 5659SOL    HW117876   2.969   3.301   3.054
 5659SOL    HW217877   3.029   3.177   2.966
 5660SOL     OW17878   6.476   6.355   1.466
 5660SOL    HW117879   6.566   6.328   1.502
 5660SOL    HW217880   6.452   6.445   1.501
 5661SOL     OW17881   6.348   5.930   4.261
 5661SOL    HW117882   6.387   5.995   4.195
 5661SOL    HW217883   6.323   5.846   4.213
 5662SOL     OW17884   2.299   4.707   4.787
 5662SOL    HW117885   2.331   4.613   4.769
 5662SOL    HW217886   2.328   4.766   4.712
 5663SOL     OW17887   2.627   4.386   1.206
 5663SOL    HW117888   2.570   4.394   1.124
 5663SOL    HW217889   2.609   4.464   1.267
 5664SOL     OW17890   6.882   6.174   2.175
 5664SOL    HW117891   6.894   6.075   2.163
 5664SOL    HW217892   6.918   6.222   2.095
 5665SOL     OW17893   1.011   1.430   6.059
 5665SOL    HW117894   0.993   1.512   6.114
 5665SOL    HW217895   0.950   1.429   5.980
 5666SOL     OW17896   5.875   5.653   0.331
 5666SOL    HW117897   5.931   5.579   0.292
 5666SOL    HW217898   5.820   5.616   0.406
 5667SOL     OW17899   6.437   5.109   3.004
 5667SOL    HW117900   6.357   5.132   2.949
 5667SOL    HW217901   6.513   5.168   2.978
 5668SOL     OW17902   6.068   3.120   5.962
 5668SOL    HW117903   6.042   3.171   5.881
 5668SOL    HW217904   5.992   3.118   6.027
 5669SOL     OW17905   6.993   3.178   4.588
 5669SOL    HW117906   0.021   3.236   4.520
 5669SOL    HW217907   6.972   3.231   4.671
 5670SOL     OW17908   1.537   3.911   2.395
 5670SOL    HW117909   1.555   3.983   2.462
 5670SOL    HW217910   1.516   3.951   2.307
 5671SOL     OW17911   1.114   0.749   5.555
 5671SOL    HW117912   1.101   0.847   5.541
 5671SOL    HW217913   1.211   0.729   5.565
 5672SOL     OW17914   5.157   3.829   5.901
 5672SOL    HW117915   5.146   3.773   5.819
 5672SOL    HW217916   5.069   3.871   5.925
 5673SOL     OW17917   1.370   6.937   0.752
 5673SOL    HW117918   1.335   6.999   0.682
 5673SOL    HW217919   1.414   6.989   0.825
 5674SOL     OW17920   6.581   3.275   1.099
 5674SOL    HW117921   6.584   3.208   1.173
 5674SOL    HW217922   6.562   3.229   1.012
 5675SOL     OW17923   3.344   0.932   6.681
 5675SOL    HW117924   3.353   0.888   6.771
 5675SOL    HW217925   3.328   0.863   6.611
 5676SOL     OW17926   3.162   0.069   1.461
 5676SOL    HW117927   3.162   6.985   1.471
 5676SOL    HW217928   3.115   0.094   1.376
 5677SOL     OW17929   6.708   0.928   3.795
 5677SOL    HW117930   6.712   0.904   3.698
 5677SOL    HW217931   6.789   0.892   3.841
 5678SOL     OW17932   1.815   5.626   3.616
 5678SOL    HW117933   1.868   5.674   3.687
 5678SOL    HW217934   1.724   5.605   3.651
 5679SOL     OW17935   3.191   5.369   5.172
 5679SOL    HW117936   3.211   5.290   5.230
 5679SOL    HW217937   3.277   5.407   5.137
 5680SOL     OW17938   1.872   0.127   6.649
 5680SOL    HW117939   1.855   0.159   6.742
 5680SOL    HW217940   1.941   0.054   6.651
 5681SOL     OW17941   2.732   3.981   0.096
 5681SOL    HW117942   2.744   3.936   0.008
 5681SOL    HW217943   2.693   4.072   0.082
 5682SOL     OW17944   1.288   4.062   4.034
 5682SOL    HW117945   1.365   4.113   3.996
 5682SOL    HW217946   1.208   4.073   3.975
 5683SOL     OW17947   4.158   3.539   4.932
 5683SOL    HW117948   4.194   3.618   4.882
 5683SOL    HW217949   4.166   3.555   5.030
 5684SOL     OW17950   2.985   3.428   3.164
 5684SOL    HW117951   3.023   3.468   3.080
 5684SOL    HW217952   2.926   3.495   3.209
 5685SOL     OW17953   0.117   5.988   1.917
 5685SOL    HW117954   0.069   6.045   1.850
 5685SOL    HW217955   0.211   6.019   1.926
 5686SOL     OW17956   3.445   4.537   0.219
 5686SOL    HW117957   3.491   4.625   0.231
 5686SOL    HW217958   3.477   4.473   0.289
 5687SOL     OW17959   3.886   5.220   6.243
 5687SOL    HW117960   3.907   5.138   6.190
 5687SOL    HW217961   3.955   5.290   6.225
 5688SOL     OW17962   5.613   1.879   2.006
 5688SOL    HW117963   5.534   1.940   2.012
 5688SOL    HW217964   5.675   1.897   2.082
 5689SOL     OW17965   4.460   3.218   6.177
 5689SOL    HW117966   4.470   3.155   6.254
 5689SOL    HW217967   4.371   3.264   6.183
 5690SOL     OW17968   4.352   6.586   2.597
 5690SOL    HW117969   4.399   6.578   2.685
 5690SOL    HW217970   4.372   6.675   2.556
 5691SOL     OW17971   2.485   0.153   3.738
 5691SOL    HW117972   2.536   0.096   3.674
 5691SOL    HW217973   2.538   0.236   3.758
 5692SOL     OW17974   5.752   2.886   6.519
 5692SOL    HW117975   5.785   2.842   6.602
 5692SOL    HW217976   5.793   2.977   6.511
 5693SOL     OW17977   4.909   2.060   2.584
 5693SOL    HW117978   4.975   1.985   2.585
 5693SOL    HW217979   4.898   2.096   2.676
 5694SOL     OW17980   1.255   1.548   3.968
 5694SOL    HW117981   1.288   1.455   3.952
 5694SOL    HW217982   1.188   1.548   4.042
 5695SOL     OW17983   1.935   3.965   3.634
 5695SOL    HW117984   1.889   3.877   3.627
 5695SOL    HW217985   1.986   3.970   3.720
 5696SOL     OW17986   3.374   0.285   5.941
 5696SOL    HW117987   3.336   0.312   6.030
 5696SOL    HW217988   3.431   0.359   5.906
 5697SOL     OW17989   6.472   3.491   0.078
 5697SOL    HW117990   6.518   3.410   0.043
 5697SOL    HW217991   6.517   3.521   0.162
 5698SOL     OW17992   0.919   4.316   3.274
 5698SOL    HW117993   0.990   4.280   3.213
 5698SOL    HW217994   0.866   4.240   3.311
 5699SOL     OW17995   6.629   2.310   4.890
 5699SOL    HW117996   6.621   2.229   4.833
 5699SOL    HW217997   6.635   2.392   4.832
 5700SOL     OW17998   1.140   5.846   3.165
 5700SOL    HW117999   1.182   5.875   3.251
 5700SOL    HW218000   1.059   5.791   3.185
 5701SOL     OW18001   5.649   4.381   2.256
 5701SOL    HW118002   5.630   4.429   2.342
 5701SOL    HW218003   5.615   4.436   2.180
 5702SOL     OW18004   2.420   0.439   0.013
 5702SOL    HW118005   2.456   0.395   0.096
 5702SOL    HW218006   2.427   0.539   0.023
 5703SOL     OW18007   4.857   4.443   1.810
 5703SOL    HW118008   4.825   4.351   1.833
 5703SOL    HW218009   4.815   4.510   1.871
 5704SOL     OW18010   4.626   4.244   3.172
 5704SOL    HW118011   4.621   4.145   3.181
 5704SOL    HW218012   4.695   4.268   3.103
 5705SOL     OW18013   6.171   1.911   3.319
 5705SOL    HW118014   6.205   1.985   3.376
 5705SOL    HW218015   6.240   1.839   3.313
 5706SOL     OW18016   1.620   1.339   6.947
 5706SOL    HW118017   1.538   1.318   7.000
 5706SOL    HW218018   1.627   1.277   6.869
 5707SOL     OW18019   2.985   1.513   6.736
 5707SOL    HW118020   3.022   1.481   6.649
 5707SOL    HW218021   3.050   1.494   6.809
 5708SOL     OW18022   6.876   6.982   1.682
 5708SOL    HW118023   6.912   6.895   1.649
 5708SOL    HW218024   6.888   0.036   1.611
 5709SOL     OW18025   1.155   1.908   1.833
 5709SOL    HW118026   1.209   1.908   1.749
 5709SOL    HW218027   1.057   1.905   1.810
 5710SOL     OW18028   3.413   4.356   6.356
 5710SOL    HW118029   3.445   4.355   6.262
 5710SOL    HW218030   3.326   4.404   6.361
 5711SOL     OW18031   4.785   0.945   4.497
 5711SOL    HW118032   4.699   0.905   4.529
 5711SOL    HW218033   4.768   1.003   4.418
 5712SOL     OW18034   6.508   6.318   6.940
 5712SOL    HW118035   6.557   6.378   7.004
 5712SOL    HW218036   6.565   6.239   6.920
 5713SOL     OW18037   0.269   2.450   2.492
 5713SOL    HW118038   0.254   2.450   2.591
 5713SOL    HW218039   0.346   2.390   2.471
 5714SOL     OW18040   2.079   0.859   6.140
 5714SOL    HW118041   2.087   0.932   6.208
 5714SOL    HW218042   2.163   0.805   6.139
 5715SOL     OW18043   0.979   6.625   3.610
 5715SOL    HW118044   0.883   6.655   3.612
 5715SOL    HW218045   1.004   6.603   3.516
 5716SOL     OW18046   2.206   2.248   5.008
 5716SOL    HW118047   2.258   2.283   5.085
 5716SOL    HW218048   2.197   2.319   4.938
 5717SOL     OW18049   0.574   3.453   6.970
 5717SOL    HW118050   0.672   3.459   6.950
 5717SOL    HW218051   0.531   3.389   6.905
 5718SOL     OW18052   2.290   5.135   5.216
 5718SOL    HW118053   2.257   5.209   5.157
 5718SOL    HW218054   2.383   5.109   5.188
 5719SOL     OW18055   2.575   0.392   0.224
 5719SOL    HW118056   2.578   0.492   0.226
 5719SOL    HW218057   2.668   0.355   0.216
 5720SOL     OW18058   1.804   6.057   3.824
 5720SOL    HW118059   1.773   6.060   3.919
 5720SOL    HW218060   1.743   6.113   3.767
 5721SOL     OW18061   6.818   4.502   0.877
 5721SOL    HW118062   6.869   4.509   0.791
 5721SOL    HW218063   6.876   4.458   0.946
 5722SOL     OW18064   5.449   1.386   3.773
 5722SOL    HW118065   5.433   1.462   3.836
 5722SOL    HW218066   5.510   1.416   3.700
 5723SOL     OW18067   1.237   3.793   0.865
 5723SOL    HW118068   1.285   3.732   0.928
 5723SOL    HW218069   1.143   3.807   0.896
 5724SOL     OW18070   4.966   2.381   6.048
 5724SOL    HW118071   4.878   2.334   6.059
 5724SOL    HW218072   5.034   2.337   6.107
 5725SOL     OW18073   5.112   5.863   5.687
 5725SOL    HW118074   5.192   5.805   5.705
 5725SOL    HW218075   5.119   5.904   5.597
 5726SOL     OW18076   4.478   4.008   5.346
 5726SOL    HW118077   4.482   3.908   5.342
 5726SOL    HW218078   4.571   4.046   5.341
 5727SOL     OW18079   6.045   2.124   3.656
 5727SOL    HW118080   6.010   2.037   3.621
 5727SOL    HW218081   6.032   2.128   3.755
 5728SOL     OW18082   4.762   0.555   5.864
 5728SOL    HW118083   4.778   0.497   5.944
 5728SOL    HW218084   4.721   0.642   5.893
 5729SOL     OW18085   1.334   3.088   4.681
 5729SOL    HW118086   1.332   3.027   4.761
 5729SOL    HW218087   1.400   3.161   4.696
 5730SOL     OW18088   4.222   5.257   0.673
 5730SOL    HW118089   4.129   5.236   0.705
 5730SOL    HW218090   4.286   5.192   0.714
 5731SOL     OW18091   4.291   1.524   5.108
 5731SOL    HW118092   4.238   1.578   5.173
 5731SOL    HW218093   4.384   1.560   5.103
 5732SOL     OW18094   5.343   4.403   4.091
 5732SOL    HW118095   5.351   4.337   4.016
 5732SOL    HW218096   5.272   4.372   4.155
 5733SOL     OW18097   2.498   6.858   1.438
 5733SOL    HW118098   2.595   6.881   1.437
 5733SOL    HW218099   2.459   6.882   1.528
 5734SOL     OW18100   1.369   6.367   6.475
 5734SOL    HW118101   1.441   6.333   6.536
 5734SOL    HW218102   1.358   6.466   6.488
 5735SOL     OW18103   5.265   1.057   2.118
 5735SOL    HW118104   5.254   1.132   2.184
 5735SOL    HW218105   5.326   1.086   2.045
 5736SOL     OW18106   6.145   4.276   6.520
 5736SOL    HW118107   6.234   4.232   6.517
 5736SOL    HW218108   6.078   4.214   6.560
 5737SOL     OW18109   4.948   5.472   2.246
 5737SOL    HW118110   4.921   5.499   2.339
 5737SOL    HW218111   4.883   5.406   2.210
 5738SOL     OW18112   2.246   0.440   0.751
 5738SOL    HW118113   2.265   0.394   0.665
 5738SOL    HW218114   2.304   0.522   0.759
 5739SOL     OW18115   2.146   1.173   5.822
 5739SOL    HW118116   2.086   1.225   5.882
 5739SOL    HW218117   2.225   1.141   5.874
 5740SOL     OW18118   4.932   3.480   2.765
 5740SOL    HW118119   4.960   3.389   2.797
 5740SOL    HW218120   4.909   3.537   2.844
 5741SOL     OW18121   1.307   3.774   4.126
 5741SOL    HW118122   1.236   3.743   4.062
 5741SOL    HW218123   1.319   3.873   4.117
 5742SOL     OW18124   6.032   6.869   3.348
 5742SOL    HW118125   6.121   6.897   3.314
 5742SOL    HW218126   6.042   6.832   3.441
 5743SOL     OW18127   3.448   5.625   0.035
 5743SOL    HW118128   3.513   5.597   6.979
 5743SOL    HW218129   3.357   5.589   0.014
 5744SOL     OW18130   5.044   6.367   3.345
 5744SOL    HW118131   5.056   6.452   3.295
 5744SOL    HW218132   5.014   6.295   3.282
 5745SOL     OW18133   1.129   3.143   2.163
 5745SOL    HW118134   1.057   3.205   2.134
 5745SOL    HW218135   1.121   3.056   2.114
 5746SOL     OW18136   5.253   7.010   2.878
 5746SOL    HW118137   5.328   0.025   2.820
 5746SOL    HW218138   5.225   0.069   2.939
 5747SOL     OW18139   1.574   6.526   1.064
 5747SOL    HW118140   1.518   6.446   1.085
 5747SOL    HW218141   1.581   6.585   1.144
 5748SOL     OW18142   6.895   6.196   0.544
 5748SOL    HW118143   6.832   6.143   0.486
 5748SOL    HW218144   6.850   6.220   0.629
 5749SOL     OW18145   1.848   5.639   6.312
 5749SOL    HW118146   1.834   5.542   6.330
 5749SOL    HW218147   1.884   5.651   6.219
 5750SOL     OW18148   0.199   3.023   4.359
 5750SOL    HW118149   0.135   3.099   4.349
 5750SOL    HW218150   0.234   3.022   4.453
 5751SOL     OW18151   1.025   3.983   4.506
 5751SOL    HW118152   1.112   4.032   4.513
 5751SOL    HW218153   1.041   3.885   4.521
 5752SOL     OW18154   5.366   0.880   0.302
 5752SOL    HW118155   5.411   0.933   0.230
 5752SOL    HW218156   5.361   0.936   0.385
 5753SOL     OW18157   3.525   4.168   4.627
 5753SOL    HW118158   3.619   4.176   4.659
 5753SOL    HW218159   3.462   4.182   4.704
 5754SOL     OW18160   0.472   5.850   1.460
 5754SOL    HW118161   0.381   5.857   1.502
 5754SOL    HW218162   0.466   5.795   1.377
 5755SOL     OW18163   0.752   3.153   6.158
 5755SOL    HW118164   0.723   3.241   6.120
 5755SOL    HW218165   0.851   3.148   6.160
 5756SOL     OW18166   5.891   6.064   2.007
 5756SOL    HW118167   5.925   6.147   2.051
 5756SOL    HW218168   5.870   6.084   1.911
 5757SOL     OW18169   0.108   1.155   3.821
 5757SOL    HW118170   0.062   1.124   3.904
 5757SOL    HW218171   0.169   1.083   3.788
 5758SOL     OW18172   6.076   6.685   2.823
 5758SOL    HW118173   6.105   6.634   2.904
 5758SOL    HW218174   5.994   6.642   2.784
 5759SOL     OW18175   3.358   0.386   1.617
 5759SOL    HW118176   3.362   0.319   1.544
 5759SOL    HW218177   3.409   0.353   1.696
 5760SOL     OW18178   1.747   2.680   0.355
 5760SOL    HW118179   1.705   2.628   0.280
 5760SOL    HW218180   1.680   2.743   0.393
 5761SOL     OW18181   6.773   6.939   4.773
 5761SOL    HW118182   6.822   0.007   4.800
 5761SOL    HW218183   6.773   6.932   4.674
 5762SOL     OW18184   0.681   5.606   6.469
 5762SOL    HW118185   0.713   5.538   6.403
 5762SOL    HW218186   0.619   5.670   6.423
 5763SOL     OW18187   5.633   0.236   0.439
 5763SOL    HW118188   5.730   0.228   0.460
 5763SOL    HW218189   5.591   0.145   0.444
 5764SOL     OW18190   4.633   6.230   3.964
 5764SOL    HW118191   4.620   6.181   4.051
 5764SOL    HW218192   4.603   6.325   3.975
 5765SOL     OW18193   6.419   4.929   2.673
 5765SOL    HW118194   6.453   4.856   2.614
 5765SOL    HW218195   6.399   4.892   2.764
 5766SOL     OW18196   0.375   1.265   4.279
 5766SOL    HW118197   0.310   1.329   4.239
 5766SOL    HW218198   0.338   1.173   4.275
 5767SOL     OW18199   4.010   6.746   6.871
 5767SOL    HW118200   3.985   6.721   6.965
 5767SOL    HW218201   3.999   6.667   6.811
 5768SOL     OW18202   0.845   0.963   5.261
 5768SOL    HW118203   0.911   0.900   5.304
 5768SOL    HW218204   0.789   1.006   5.332
 5769SOL     OW18205   1.538   3.750   5.731
 5769SOL    HW118206   1.635   3.750   5.708
 5769SOL    HW218207   1.502   3.843   5.726
 5770SOL     OW18208   2.077   3.865   2.029
 5770SOL    HW118209   2.149   3.916   2.075
 5770SOL    HW218210   2.040   3.795   2.091
 5771SOL     OW18211   3.422   4.927   4.095
 5771SOL    HW118212   3.510   4.927   4.047
 5771SOL    HW218213   3.398   5.021   4.120
 5772SOL     OW18214   3.263   6.992   2.374
 5772SOL    HW118215   3.344   0.034   2.364
 5772SOL    HW218216   3.198   0.020   2.436
 5773SOL     OW18217   5.537   1.133   2.454
 5773SOL    HW118218   5.484   1.056   2.417
 5773SOL    HW218219   5.558   1.116   2.550
 5774SOL     OW18220   0.821   6.505   2.551
 5774SOL    HW118221   0.852   6.480   2.459
 5774SOL    HW218222   0.825   6.604   2.562
 5775SOL     OW18223   6.323   5.251   1.526
 5775SOL    HW118224   6.265   5.313   1.473
 5775SOL    HW218225   6.353   5.175   1.467
 5776SOL     OW18226   2.426   1.024   3.864
 5776SOL    HW118227   2.412   1.062   3.955
 5776SOL    HW218228   2.505   0.962   3.865
 5777SOL     OW18229   1.929   6.823   1.861
 5777SOL    HW118230   1.871   6.898   1.896
 5777SOL    HW218231   2.004   6.862   1.807
 5778SOL     OW18232   0.447   0.980   0.804
 5778SOL    HW118233   0.470   1.077   0.806
 5778SOL    HW218234   0.448   0.944   0.898
 5779SOL     OW18235   5.961   0.880   6.070
 5779SOL    HW118236   5.902   0.832   6.135
 5779SOL    HW218237   5.936   0.854   5.977
 5780SOL     OW18238   5.380   5.195   4.247
 5780SOL    HW118239   5.335   5.107   4.231
 5780SOL    HW218240   5.477   5.181   4.262
 5781SOL     OW18241   1.444   5.208   5.953
 5781SOL    HW118242   1.496   5.177   5.874
 5781SOL    HW218243   1.358   5.249   5.923
 5782SOL     OW18244   0.528   0.694   0.239
 5782SOL    HW118245   0.499   0.773   0.186
 5782SOL    HW218246   0.571   0.627   0.179
 5783SOL     OW18247   2.304   2.449   0.610
 5783SOL    HW118248   2.301   2.497   0.698
 5783SOL    HW218249   2.318   2.516   0.536
 5784SOL     OW18250   6.558   6.020   6.808
 5784SOL    HW118251   6.652   6.050   6.793
 5784SOL    HW218252   6.495   6.088   6.771
 5785SOL     OW18253   0.892   1.195   0.710
 5785SOL    HW118254   0.835   1.251   0.770
 5785SOL    HW218255   0.988   1.208   0.733
 5786SOL     OW18256   5.667   5.297   1.705
 5786SOL    HW118257   5.753   5.321   1.660
 5786SOL    HW218258   5.647   5.364   1.778
 5787SOL     OW18259   2.461   2.726   6.603
 5787SOL    HW118260   2.481   2.628   6.595
 5787SOL    HW218261   2.534   2.771   6.655
 5788SOL     OW18262   2.974   0.561   3.310
 5788SOL    HW118263   2.923   0.627   3.365
 5788SOL    HW218264   2.928   0.548   3.222
 5789SOL     OW18265   3.759   4.676   6.018
 5789SOL    HW118266   3.725   4.769   6.003
 5789SOL    HW218267   3.731   4.644   6.109
 5790SOL     OW18268   1.529   3.605   3.304
 5790SOL    HW118269   1.446   3.610   3.248
 5790SOL    HW218270   1.561   3.698   3.324
 5791SOL     OW18271   1.552   0.883   2.928
 5791SOL    HW118272   1.508   0.972   2.940
 5791SOL    HW218273   1.626   0.892   2.861
 5792SOL     OW18274   6.732   2.171   2.670
 5792SOL    HW118275   6.785   2.178   2.755
 5792SOL    HW218276   6.793   2.142   2.596
 5793SOL     OW18277   0.309   0.879   4.013
 5793SOL    HW118278   0.275   0.792   4.049
 5793SOL    HW218279   0.281   0.890   3.918
 5794SOL     OW18280   5.137   4.448   6.317
 5794SOL    HW118281   5.143   4.352   6.344
 5794SOL    HW218282   5.053   4.461   6.263
 5795SOL     OW18283   5.712   4.225   6.637
 5795SOL    HW118284   5.680   4.300   6.579
 5795SOL    HW218285   5.633   4.179   6.677
 5796SOL     OW18286   3.702   2.389   0.720
 5796SOL    HW118287   3.674   2.293   0.710
 5796SOL    HW218288   3.626   2.448   0.693
 5797SOL     OW18289   3.311   2.499   6.129
 5797SOL    HW118290   3.395   2.474   6.178
 5797SOL    HW218291   3.232   2.478   6.186
 5798SOL     OW18292   6.516   5.632   4.254
 5798SOL    HW118293   6.595   5.600   4.307
 5798SOL    HW218294   6.548   5.669   4.167
 5799SOL     OW18295   5.359   0.691   3.618
 5799SOL    HW118296   5.366   0.597   3.653
 5799SOL    HW218297   5.330   0.752   3.691
 5800SOL     OW18298   5.698   5.193   0.666
 5800SOL    HW118299   5.778   5.143   0.699
 5800SOL    HW218300   5.626   5.128   0.640
 5801SOL     OW18301   2.623   1.027   2.997
 5801SOL    HW118302   2.648   1.030   2.900
 5801SOL    HW218303   2.689   0.971   3.046
 5802SOL     OW18304   0.432   2.672   4.680
 5802SOL    HW118305   0.440   2.657   4.779
 5802SOL    HW218306   0.341   2.705   4.659
 5803SOL     OW18307   1.886   4.724   0.457
 5803SOL    HW118308   1.817   4.694   0.523
 5803SOL    HW218309   1.871   4.678   0.370
 5804SOL     OW18310   6.464   3.280   5.313
 5804SOL    HW118311   6.398   3.246   5.246
 5804SOL    HW218312   6.415   3.309   5.395
 5805SOL     OW18313   5.666   3.098   0.103
 5805SOL    HW118314   5.618   3.067   0.185
 5805SOL    HW218315   5.748   3.149   0.128
 5806SOL     OW18316   0.501   6.847   0.058
 5806SOL    HW118317   0.490   6.755   0.020
 5806SOL    HW218318   0.590   6.854   0.103
 5807SOL     OW18319   2.092   3.666   1.821
 5807SOL    HW118320   2.067   3.722   1.900
 5807SOL    HW218321   2.146   3.588   1.851
 5808SOL     OW18322   6.487   3.118   3.542
 5808SOL    HW118323   6.543   3.057   3.487
 5808SOL    HW218324   6.472   3.077   3.633
 5809SOL     OW18325   6.651   3.391   4.002
 5809SOL    HW118326   6.656   3.291   4.013
 5809SOL    HW218327   6.580   3.427   4.061
 5810SOL     OW18328   2.681   2.304   2.495
 5810SOL    HW118329   2.618   2.240   2.541
 5810SOL    HW218330   2.730   2.257   2.422
 5811SOL     OW18331   2.643   1.242   3.148
 5811SOL    HW118332   2.636   1.175   3.075
 5811SOL    HW218333   2.579   1.317   3.132
 5812SOL     OW18334   3.851   0.672   4.884
 5812SOL    HW118335   3.763   0.640   4.919
 5812SOL    HW218336   3.836   0.735   4.808
 5813SOL     OW18337   1.560   1.019   5.404
 5813SOL    HW118338   1.622   0.947   5.434
 5813SOL    HW218339   1.541   1.007   5.306
 5814SOL     OW18340   0.555   5.124   1.211
 5814SOL    HW118341   0.501   5.054   1.164
 5814SOL    HW218342   0.627   5.157   1.150
 5815SOL     OW18343   3.500   1.575   3.176
 5815SOL    HW118344   3.456   1.656   3.216
 5815SOL    HW218345   3.450   1.493   3.202
 5816SOL     OW18346   5.063   6.609   1.137
 5816SOL    HW118347   5.003   6.687   1.120
 5816SOL    HW218348   5.064   6.550   1.056
 5817SOL     OW18349   4.999   1.760   5.130
 5817SOL    HW118350   4.933   1.687   5.146
 5817SOL    HW218351   5.053   1.738   5.049
 5818SOL     OW18352   5.874   6.072   5.981
 5818SOL    HW118353   5.973   6.082   5.971
 5818SOL    HW218354   5.827   6.133   5.917
 5819SOL     OW18355   6.033   0.399   0.885
 5819SOL    HW118356   6.006   0.494   0.869
 5819SOL    HW218357   6.024   0.378   0.983
 5820SOL     OW18358   6.140   6.314   3.038
 5820SOL    HW118359   6.189   6.230   3.061
 5820SOL    HW218360   6.188   6.392   3.077
 5821SOL     OW18361   3.540   0.572   1.546
 5821SOL    HW118362   3.465   0.518   1.584
 5821SOL    HW218363   3.582   0.627   1.618
 5822SOL     OW18364   0.522   1.317   2.218
 5822SOL    HW118365   0.621   1.303   2.218
 5822SOL    HW218366   0.480   1.258   2.148
 5823SOL     OW18367   2.524   2.422   4.195
 5823SOL    HW118368   2.476   2.474   4.124
 5823SOL    HW218369   2.465   2.349   4.228
 5824SOL     OW18370   4.667   0.532   3.685
 5824SOL    HW118371   4.574   0.511   3.715
 5824SOL    HW218372   4.704   0.607   3.739
 5825SOL     OW18373   2.850   0.763   0.880
 5825SOL    HW118374   2.780   0.720   0.823
 5825SOL    HW218375   2.903   0.827   0.825
 5826SOL     OW18376   6.341   0.911   4.871
 5826SOL    HW118377   6.352   0.969   4.790
 5826SOL    HW218378   6.315   0.969   4.949
 5827SOL     OW18379   1.087   5.227   5.224
 5827SOL    HW118380   1.055   5.287   5.298
 5827SOL    HW218381   1.016   5.160   5.203
 5828SOL     OW18382   6.942   3.118   1.694
 5828SOL    HW118383   6.844   3.128   1.707
 5828SOL    HW218384   6.989   3.200   1.729
 5829SOL     OW18385   1.600   1.025   1.885
 5829SOL    HW118386   1.612   0.931   1.917
 5829SOL    HW218387   1.648   1.088   1.946
 5830SOL     OW18388   1.687   1.292   5.770
 5830SOL    HW118389   1.687   1.199   5.808
 5830SOL    HW218390   1.593   1.324   5.760
 5831SOL     OW18391   5.633   6.533   3.107
 5831SOL    HW118392   5.729   6.555   3.126
 5831SOL    HW218393   5.619   6.435   3.117
 5832SOL     OW18394   3.534   3.759   5.169
 5832SOL    HW118395   3.606   3.733   5.105
 5832SOL    HW218396   3.570   3.760   5.263
 5833SOL     OW18397   3.659   3.298   5.027
 5833SOL    HW118398   3.635   3.207   4.995
 5833SOL    HW218399   3.731   3.336   4.969
 5834SOL     OW18400   5.892   0.845   0.453
 5834SOL    HW118401   5.864   0.879   0.543
 5834SOL    HW218402   5.960   0.907   0.414
 5835SOL     OW18403   5.267   2.297   4.003
 5835SOL    HW118404   5.203   2.303   3.927
 5835SOL    HW218405   5.231   2.235   4.073
 5836SOL     OW18406   3.512   6.095   2.496
 5836SOL    HW118407   3.460   6.110   2.411
 5836SOL    HW218408   3.562   6.009   2.489
 5837SOL     OW18409   4.887   4.551   6.157
 5837SOL    HW118410   4.839   4.468   6.130
 5837SOL    HW218411   4.870   4.570   6.254
 5838SOL     OW18412   0.510   2.044   5.599
 5838SOL    HW118413   0.572   2.098   5.657
 5838SOL    HW218414   0.459   1.980   5.657
 5839SOL     OW18415   0.012   3.161   2.663
 5839SOL    HW118416   0.102   3.197   2.637
 5839SOL    HW218417   0.019   3.118   2.753
 5840SOL     OW18418   1.943   5.171   6.674
 5840SOL    HW118419   1.866   5.214   6.720
 5840SOL    HW218420   1.978   5.233   6.603
 5841SOL     OW18421   6.811   2.508   3.001
 5841SOL    HW118422   6.834   2.448   3.077
 5841SOL    HW218423   6.727   2.475   2.957
 5842SOL     OW18424   3.967   2.978   0.765
 5842SOL    HW118425   3.889   2.929   0.727
 5842SOL    HW218426   3.953   2.994   0.862
 5843SOL     OW18427   1.346   3.444   1.776
 5843SOL    HW118428   1.297   3.416   1.693
 5843SOL    HW218429   1.295   3.517   1.822
 5844SOL     OW18430   1.185   6.178   0.463
 5844SOL    HW118431   1.246   6.101   0.445
 5844SOL    HW218432   1.167   6.226   0.377
 5845SOL     OW18433   1.173   2.377   4.519
 5845SOL    HW118434   1.125   2.313   4.459
 5845SOL    HW218435   1.115   2.455   4.539
 5846SOL     OW18436   0.014   2.970   6.176
 5846SOL    HW118437   7.006   3.012   6.263
 5846SOL    HW218438   0.026   3.041   6.106
 5847SOL     OW18439   2.026   2.777   3.239
 5847SOL    HW118440   2.091   2.701   3.246
 5847SOL    HW218441   2.075   2.864   3.251
 5848SOL     OW18442   1.428   4.995   3.878
 5848SOL    HW118443   1.360   4.940   3.927
 5848SOL    HW218444   1.460   5.068   3.938
 5849SOL     OW18445   3.091   6.748   5.820
 5849SOL    HW118446   3.179   6.766   5.863
 5849SOL    HW218447   3.045   6.673   5.868
 5850SOL     OW18448   0.823   4.337   2.982
 5850SOL    HW118449   0.802   4.335   3.079
 5850SOL    HW218450   0.739   4.319   2.929
 5851SOL     OW18451   5.986   3.232   1.936
 5851SOL    HW118452   6.007   3.328   1.954
 5851SOL    HW218453   5.916   3.226   1.865
 5852SOL     OW18454   3.730   5.735   2.834
 5852SOL    HW118455   3.727   5.832   2.812
 5852SOL    HW218456   3.787   5.721   2.915
 5853SOL     OW18457   3.935   4.191   5.906
 5853SOL    HW118458   3.866   4.118   5.903
 5853SOL    HW218459   3.893   4.275   5.941
 5854SOL     OW18460   0.128   1.086   6.481
 5854SOL    HW118461   0.182   1.015   6.434
 5854SOL    HW218462   0.163   1.176   6.456
 5855SOL     OW18463   1.625   0.990   4.843
 5855SOL    HW118464   1.716   0.960   4.816
 5855SOL    HW218465   1.557   0.922   4.814
 5856SOL     OW18466   2.196   4.971   3.995
 5856SOL    HW118467   2.291   5.002   3.999
 5856SOL    HW218468   2.193   4.876   3.964
 5857SOL     OW18469   6.882   2.682   5.887
 5857SOL    HW118470   6.786   2.666   5.863
 5857SOL    HW218471   6.907   2.776   5.864
 5858SOL     OW18472   3.406   0.248   2.633
 5858SOL    HW118473   3.398   0.336   2.586
 5858SOL    HW218474   3.493   0.244   2.682
 5859SOL     OW18475   6.491   5.691   1.539
 5859SOL    HW118476   6.504   5.741   1.624
 5859SOL    HW218477   6.462   5.598   1.559
 5860SOL     OW18478   1.823   3.940   1.159
 5860SOL    HW118479   1.855   3.895   1.242
 5860SOL    HW218480   1.732   3.978   1.176
 5861SOL     OW18481   6.286   2.225   3.999
 5861SOL    HW118482   6.199   2.237   3.951
 5861SOL    HW218483   6.291   2.132   4.036
 5862SOL     OW18484   5.026   4.487   3.239
 5862SOL    HW118485   5.080   4.541   3.173
 5862SOL    HW218486   5.086   4.423   3.286
 5863SOL     OW18487   2.189   0.955   0.386
 5863SOL    HW118488   2.160   0.928   0.294
 5863SOL    HW218489   2.280   0.918   0.405
 5864SOL     OW18490   4.630   4.726   0.758
 5864SOL    HW118491   4.536   4.760   0.752
 5864SOL    HW218492   4.640   4.669   0.840
 5865SOL     OW18493   4.053   0.842   3.303
 5865SOL    HW118494   3.955   0.863   3.313
 5865SOL    HW218495   4.068   0.745   3.324
 5866SOL     OW18496   4.219   0.188   6.448
 5866SOL    HW118497   4.251   0.281   6.427
 5866SOL    HW218498   4.151   0.160   6.381
 5867SOL     OW18499   0.188   2.392   0.878
 5867SOL    HW118500   0.233   2.458   0.818
 5867SOL    HW218501   0.126   2.334   0.825
 5868SOL     OW18502   1.358   0.088   5.037
 5868SOL    HW118503   1.430   0.036   4.992
 5868SOL    HW218504   1.345   0.175   4.990
 5869SOL     OW18505   2.999   4.992   3.560
 5869SOL    HW118506   3.025   5.087   3.540
 5869SOL    HW218507   2.900   4.982   3.549
 5870SOL     OW18508   5.521   4.943   4.586
 5870SOL    HW118509   5.594   4.909   4.646
 5870SOL    HW218510   5.523   5.043   4.584
 5871SOL     OW18511   2.752   2.813   6.534
 5871SOL    HW118512   2.756   2.729   6.480
 5871SOL    HW218513   2.844   2.842   6.558
 5872SOL     OW18514   3.724   5.622   4.522
 5872SOL    HW118515   3.645   5.562   4.536
 5872SOL    HW218516   3.694   5.717   4.523
 5873SOL     OW18517   2.593   3.588   0.133
 5873SOL    HW118518   2.507   3.539   0.124
 5873SOL    HW218519   2.576   3.681   0.164
 5874SOL     OW18520   1.621   4.087   0.600
 5874SOL    HW118521   1.572   4.162   0.556
 5874SOL    HW218522   1.609   4.003   0.547
 5875SOL     OW18523   4.396   1.902   0.299
 5875SOL    HW118524   4.397   1.825   0.363
 5875SOL    HW218525   4.306   1.947   0.301
 5876SOL     OW18526   3.692   4.289   6.192
 5876SOL    HW118527   3.741   4.340   6.121
 5876SOL    HW218528   3.594   4.289   6.171
 5877SOL     OW18529   6.595   6.849   2.493
 5877SOL    HW118530   6.569   6.837   2.588
 5877SOL    HW218531   6.520   6.893   2.443
 5878SOL     OW18532   5.256   4.748   2.420
 5878SOL    HW118533   5.207   4.663   2.440
 5878SOL    HW218534   5.280   4.750   2.323
 5879SOL     OW18535   3.758   3.305   5.550
 5879SOL    HW118536   3.746   3.334   5.454
 5879SOL    HW218537   3.855   3.295   5.569
 5880SOL     OW18538   5.868   2.607   5.851
 5880SOL    HW118539   5.958   2.638   5.820
 5880SOL    HW218540   5.822   2.682   5.898
 5881SOL     OW18541   1.445   6.117   2.460
 5881SOL    HW118542   1.454   6.032   2.511
 5881SOL    HW218543   1.504   6.187   2.499
 5882SOL     OW18544   1.673   4.930   5.442
 5882SOL    HW118545   1.726   4.926   5.526
 5882SOL    HW218546   1.730   4.903   5.365
 5883SOL     OW18547   6.460   4.788   0.022
 5883SOL    HW118548   6.454   4.771   6.939
 5883SOL    HW218549   6.479   4.885   0.039
 5884SOL     OW18550   6.287   2.028   2.808
 5884SOL    HW118551   6.251   1.944   2.849
 5884SOL    HW218552   6.273   2.104   2.871
 5885SOL     OW18553   6.586   5.487   0.565
 5885SOL    HW118554   6.496   5.447   0.546
 5885SOL    HW218555   6.604   5.484   0.663
 5886SOL     OW18556   2.011   4.123   3.437
 5886SOL    HW118557   2.079   4.079   3.378
 5886SOL    HW218558   1.971   4.054   3.498
 5887SOL     OW18559   2.486   2.771   0.942
 5887SOL    HW118560   2.412   2.732   0.887
 5887SOL    HW218561   2.463   2.763   1.039
 5888SOL     OW18562   3.149   6.568   1.748
 5888SOL    HW118563   3.110   6.477   1.738
 5888SOL    HW218564   3.106   6.614   1.826
 5889SOL     OW18565   5.840   1.638   2.008
 5889SOL    HW118566   5.875   1.563   2.065
 5889SOL    HW218567   5.874   1.626   1.915
 5890SOL     OW18568   1.772   5.326   3.064
 5890SOL    HW118569   1.711   5.264   3.114
 5890SOL    HW218570   1.723   5.411   3.045
 5891SOL     OW18571   2.557   3.665   6.774
 5891SOL    HW118572   2.517   3.583   6.816
 5891SOL    HW218573   2.538   3.665   6.676
 5892SOL     OW18574   0.833   2.951   0.096
 5892SOL    HW118575   0.793   2.934   0.006
 5892SOL    HW218576   0.932   2.953   0.088
 5893SOL     OW18577   0.736   6.482   0.779
 5893SOL    HW118578   0.705   6.577   0.786
 5893SOL    HW218579   0.835   6.481   0.763
 5894SOL     OW18580   2.201   5.547   6.629
 5894SOL    HW118581   2.281   5.532   6.687
 5894SOL    HW218582   2.215   5.629   6.573
 5895SOL     OW18583   5.045   3.825   3.501
 5895SOL    HW118584   5.098   3.837   3.417
 5895SOL    HW218585   5.085   3.751   3.555
 5896SOL     OW18586   5.833   2.995   2.206
 5896SOL    HW118587   5.911   2.939   2.177
 5896SOL    HW218588   5.796   2.958   2.292
 5897SOL     OW18589   3.781   2.104   0.563
 5897SOL    HW118590   3.707   2.058   0.514
 5897SOL    HW218591   3.822   2.174   0.504
 5898SOL     OW18592   1.941   1.294   6.576
 5898SOL    HW118593   1.964   1.318   6.482
 5898SOL    HW218594   1.985   1.357   6.639
 5899SOL     OW18595   0.442   6.407   6.484
 5899SOL    HW118596   0.420   6.312   6.503
 5899SOL    HW218597   0.372   6.446   6.424
 5900SOL     OW18598   5.895   6.623   3.186
 5900SOL    HW118599   5.964   6.557   3.213
 5900SOL    HW218600   5.913   6.711   3.230
 5901SOL     OW18601   2.308   0.620   4.847
 5901SOL    HW118602   2.315   0.676   4.765
 5901SOL    HW218603   2.225   0.643   4.897
 5902SOL     OW18604   4.540   3.776   5.945
 5902SOL    HW118605   4.600   3.792   5.866
 5902SOL    HW218606   4.596   3.765   6.027
 5903SOL     OW18607   6.324   1.840   5.193
 5903SOL    HW118608   6.284   1.925   5.157
 5903SOL    HW218609   6.251   1.780   5.224
 5904SOL     OW18610   0.782   4.863   1.716
 5904SOL    HW118611   0.720   4.863   1.637
 5904SOL    HW218612   0.759   4.786   1.775
 5905SOL     OW18613   5.955   1.671   4.435
 5905SOL    HW118614   5.900   1.754   4.429
 5905SOL    HW218615   5.896   1.591   4.444
 5906SOL     OW18616   4.545   1.045   5.484
 5906SOL    HW118617   4.457   1.094   5.483
 5906SOL    HW218618   4.618   1.108   5.508
 5907SOL     OW18619   1.480   3.886   5.427
 5907SOL    HW118620   1.527   3.821   5.486
 5907SOL    HW218621   1.545   3.925   5.362
 5908SOL     OW18622   4.705   3.764   6.217
 5908SOL    HW118623   4.768   3.804   6.284
 5908SOL    HW218624   4.651   3.692   6.261
 5909SOL     OW18625   6.414   4.809   3.850
 5909SOL    HW118626   6.380   4.834   3.759
 5909SOL    HW218627   6.419   4.709   3.858
 5910SOL     OW18628   3.326   4.793   0.904
 5910SOL    HW118629   3.289   4.791   0.997
 5910SOL    HW218630   3.342   4.699   0.874
 5911SOL     OW18631   5.818   6.533   0.212
 5911SOL    HW118632   5.903   6.580   0.234
 5911SOL    HW218633   5.770   6.509   0.296
 5912SOL     OW18634   0.522   3.536   5.144
 5912SOL    HW118635   0.611   3.506   5.108
 5912SOL    HW218636   0.519   3.520   5.242
 5913SOL     OW18637   1.305   1.967   5.131
 5913SOL    HW118638   1.255   1.937   5.050
 5913SOL    HW218639   1.249   1.952   5.212
 5914SOL     OW18640   1.929   5.697   0.728
 5914SOL    HW118641   1.855   5.629   0.724
 5914SOL    HW218642   2.010   5.655   0.768
 5915SOL     OW18643   5.517   3.095   3.880
 5915SOL    HW118644   5.541   3.150   3.800
 5915SOL    HW218645   5.548   3.141   3.963
 5916SOL     OW18646   3.245   7.010   6.123
 5916SOL    HW118647   3.198   6.998   6.035
 5916SOL    HW218648   3.276   6.921   6.156
 5917SOL     OW18649   3.856   3.913   2.708
 5917SOL    HW118650   3.762   3.941   2.729
 5917SOL    HW218651   3.893   3.859   2.785
 5918SOL     OW18652   2.531   2.578   3.630
 5918SOL    HW118653   2.565   2.577   3.536
 5918SOL    HW218654   2.586   2.516   3.686
 5919SOL     OW18655   1.341   2.519   0.037
 5919SOL    HW118656   1.297   2.520   6.963
 5919SOL    HW218657   1.286   2.463   0.100
 5920SOL     OW18658   2.808   5.597   0.062
 5920SOL    HW118659   2.797   5.498   0.054
 5920SOL    HW218660   2.728   5.636   0.109
 5921SOL     OW18661   3.590   5.205   5.763
 5921SOL    HW118662   3.586   5.286   5.822
 5921SOL    HW218663   3.677   5.204   5.714
 5922SOL     OW18664   6.158   4.329   1.543
 5922SOL    HW118665   6.181   4.416   1.586
 5922SOL    HW218666   6.069   4.298   1.577
 5923SOL     OW18667   6.837   0.572   3.943
 5923SOL    HW118668   6.906   0.610   4.005
 5923SOL    HW218669   6.750   0.620   3.955
 5924SOL     OW18670   5.792   1.897   4.717
 5924SOL    HW118671   5.730   1.912   4.795
 5924SOL    HW218672   5.878   1.946   4.733
 5925SOL     OW18673   6.270   5.547   0.885
 5925SOL    HW118674   6.307   5.598   0.807
 5925SOL    HW218675   6.198   5.486   0.855
 5926SOL     OW18676   3.755   4.897   2.296
 5926SOL    HW118677   3.768   4.996   2.285
 5926SOL    HW218678   3.698   4.863   2.221
 5927SOL     OW18679   2.385   5.205   2.213
 5927SOL    HW118680   2.451   5.132   2.229
 5927SOL    HW218681   2.300   5.166   2.177
 5928SOL     OW18682   0.862   6.655   1.654
 5928SOL    HW118683   0.935   6.715   1.623
 5928SOL    HW218684   0.774   6.690   1.622
 5929SOL     OW18685   1.346   0.054   5.628
 5929SOL    HW118686   1.325   0.122   5.558
 5929SOL    HW218687   1.362   0.100   5.715
 5930SOL     OW18688   0.024   1.192   5.183
 5930SOL    HW118689   0.032   1.281   5.229
 5930SOL    HW218690   7.007   1.123   5.247
 5931SOL     OW18691   5.950   5.375   1.546
 5931SOL    HW118692   5.972   5.397   1.642
 5931SOL    HW218693   6.033   5.379   1.491
 5932SOL     OW18694   2.363   7.009   7.014
 5932SOL    HW118695   2.292   6.971   0.057
 5932SOL    HW218696   2.340   0.088   6.991
 5933SOL     OW18697   6.159   3.615   2.649
 5933SOL    HW118698   6.109   3.541   2.695
 5933SOL    HW218699   6.232   3.647   2.709
 5934SOL     OW18700   3.119   3.899   2.365
 5934SOL    HW118701   3.081   3.842   2.438
 5934SOL    HW218702   3.177   3.844   2.306
 5935SOL     OW18703   4.013   3.465   2.948
 5935SOL    HW118704   4.033   3.476   2.850
 5935SOL    HW218705   4.019   3.368   2.972
 5936SOL     OW18706   5.636   6.016   6.114
 5936SOL    HW118707   5.636   6.114   6.132
 5936SOL    HW218708   5.721   5.991   6.067
 5937SOL     OW18709   0.960   4.127   0.249
 5937SOL    HW118710   0.983   4.106   0.154
 5937SOL    HW218711   1.032   4.091   0.309
 5938SOL     OW18712   1.952   4.395   1.386
 5938SOL    HW118713   1.868   4.438   1.420
 5938SOL    HW218714   1.973   4.315   1.442
 5939SOL     OW18715   2.405   1.105   2.752
 5939SOL    HW118716   2.426   1.162   2.831
 5939SOL    HW218717   2.331   1.042   2.774
 5940SOL     OW18718   4.017   5.432   3.678
 5940SOL    HW118719   4.109   5.438   3.640
 5940SOL    HW218720   3.988   5.336   3.678
 5941SOL     OW18721   6.439   4.115   2.598
 5941SOL    HW118722   6.522   4.064   2.576
 5941SOL    HW218723   6.448   4.209   2.565
 5942SOL     OW18724   6.056   1.927   5.141
 5942SOL    HW118725   5.997   1.926   5.222
 5942SOL    HW218726   6.060   2.020   5.103
 5943SOL     OW18727   0.785   5.103   0.454
 5943SOL    HW118728   0.882   5.078   0.458
 5943SOL    HW218729   0.774   5.187   0.402
 5944SOL     OW18730   4.595   1.930   2.895
 5944SOL    HW118731   4.554   2.017   2.867
 5944SOL    HW218732   4.533   1.883   2.958
 5945SOL     OW18733   0.017   5.023   5.824
 5945SOL    HW118734   0.047   4.935   5.860
 5945SOL    HW218735   0.083   5.094   5.850
 5946SOL     OW18736   3.992   2.804   5.264
 5946SOL    HW118737   3.981   2.855   5.178
 5946SOL    HW218738   4.049   2.724   5.247
 5947SOL     OW18739   4.273   3.619   1.590
 5947SOL    HW118740   4.237   3.684   1.657
 5947SOL    HW218741   4.373   3.624   1.589
 5948SOL     OW18742   3.627   5.594   3.273
 5948SOL    HW118743   3.583   5.620   3.359
 5948SOL    HW218744   3.566   5.533   3.222
 5949SOL     OW18745   4.485   4.702   2.409
 5949SOL    HW118746   4.458   4.635   2.478
 5949SOL    HW218747   4.580   4.729   2.424
 5950SOL     OW18748   6.725   2.325   3.603
 5950SOL    HW118749   6.696   2.398   3.541
 5950SOL    HW218750   6.662   2.248   3.596
 5951SOL     OW18751   1.871   6.648   3.781
 5951SOL    HW118752   1.799   6.583   3.805
 5951SOL    HW218753   1.833   6.720   3.724
 5952SOL     OW18754   6.912   6.604   4.966
 5952SOL    HW118755   6.965   6.644   4.891
 5952SOL    HW218756   6.820   6.643   4.966
 5953SOL     OW18757   0.437   3.149   5.994
 5953SOL    HW118758   0.460   3.066   6.044
 5953SOL    HW218759   0.500   3.223   6.020
 5954SOL     OW18760   1.284   4.857   6.738
 5954SOL    HW118761   1.205   4.855   6.677
 5954SOL    HW218762   1.273   4.929   6.806
 5955SOL     OW18763   5.062   5.465   3.009
 5955SOL    HW118764   5.103   5.392   3.063
 5955SOL    HW218765   5.104   5.553   3.033
 5956SOL     OW18766   5.978   2.298   6.834
 5956SOL    HW118767   5.935   2.327   6.920
 5956SOL    HW218768   6.036   2.218   6.851
 5957SOL     OW18769   4.642   6.788   5.418
 5957SOL    HW118770   4.602   6.776   5.327
 5957SOL    HW218771   4.570   6.818   5.481
 5958SOL     OW18772   1.241   5.735   2.368
 5958SOL    HW118773   1.257   5.639   2.348
 5958SOL    HW218774   1.327   5.780   2.392
 5959SOL     OW18775   1.674   1.240   6.586
 5959SOL    HW118776   1.771   1.261   6.576
 5959SOL    HW218777   1.660   1.189   6.671
 5960SOL     OW18778   3.316   0.090   4.898
 5960SOL    HW118779   3.260   0.173   4.907
 5960SOL    HW218780   3.413   0.113   4.904
 5961SOL     OW18781   2.432   1.290   6.216
 5961SOL    HW118782   2.448   1.215   6.279
 5961SOL    HW218783   2.358   1.348   6.251
 5962SOL     OW18784   5.350   5.546   2.702
 5962SOL    HW118785   5.382   5.542   2.797
 5962SOL    HW218786   5.355   5.454   2.662
 5963SOL     OW18787   3.963   3.925   2.017
 5963SOL    HW118788   3.974   3.894   2.112
 5963SOL    HW218789   3.970   4.024   2.014
 5964SOL     OW18790   1.216   4.289   5.822
 5964SOL    HW118791   1.297   4.291   5.880
 5964SOL    HW218792   1.236   4.335   5.736
 5965SOL     OW18793   2.413   1.624   4.148
 5965SOL    HW118794   2.322   1.586   4.130
 5965SOL    HW218795   2.406   1.723   4.158
 5966SOL     OW18796   1.579   6.729   4.142
 5966SOL    HW118797   1.539   6.684   4.222
 5966SOL    HW218798   1.548   6.823   4.137
 5967SOL     OW18799   4.440   6.871   1.972
 5967SOL    HW118800   4.462   6.785   1.927
 5967SOL    HW218801   4.500   6.943   1.937
 5968SOL     OW18802   0.411   2.316   4.165
 5968SOL    HW118803   0.459   2.367   4.236
 5968SOL    HW218804   0.419   2.364   4.078
 5969SOL     OW18805   5.958   3.164   2.865
 5969SOL    HW118806   5.969   3.113   2.950
 5969SOL    HW218807   5.862   3.192   2.855
 5970SOL     OW18808   2.096   2.841   3.926
 5970SOL    HW118809   2.056   2.920   3.972
 5970SOL    HW218810   2.161   2.796   3.986
 5971SOL     OW18811   2.425   0.015   3.023
 5971SOL    HW118812   2.523   7.013   3.014
 5971SOL    HW218813   2.379   7.009   2.936
 5972SOL     OW18814   4.847   6.569   1.525
 5972SOL    HW118815   4.910   6.498   1.494
 5972SOL    HW218816   4.811   6.619   1.447
 5973SOL     OW18817   0.766   4.821   3.802
 5973SOL    HW118818   0.789   4.802   3.707
 5973SOL    HW218819   0.846   4.806   3.860
 5974SOL     OW18820   1.205   3.897   6.485
 5974SOL    HW118821   1.281   3.951   6.522
 5974SOL    HW218822   1.240   3.810   6.449
 5975SOL     OW18823   1.710   3.255   6.884
 5975SOL    HW118824   1.799   3.224   6.918
 5975SOL    HW218825   1.647   3.178   6.881
 5976SOL     OW18826   3.424   3.632   4.795
 5976SOL    HW118827   3.499   3.613   4.731
 5976SOL    HW218828   3.409   3.552   4.853
 5977SOL     OW18829   1.087   3.341   3.180
 5977SOL    HW118830   1.090   3.263   3.242
 5977SOL    HW218831   1.172   3.346   3.128
 5978SOL     OW18832   5.445   5.335   3.001
 5978SOL    HW118833   5.406   5.329   3.093
 5978SOL    HW218834   5.486   5.425   2.988
 5979SOL     OW18835   0.422   0.803   2.610
 5979SOL    HW118836   0.463   0.894   2.602
 5979SOL    HW218837   0.401   0.784   2.706
 5980SOL     OW18838   6.088   3.633   6.167
 5980SOL    HW118839   6.032   3.551   6.179
 5980SOL    HW218840   6.146   3.646   6.248
 5981SOL     OW18841   3.802   2.027   1.157
 5981SOL    HW118842   3.889   2.000   1.114
 5981SOL    HW218843   3.791   2.126   1.151
 5982SOL     OW18844   5.839   2.504   6.676
 5982SOL    HW118845   5.820   2.505   6.578
 5982SOL    HW218846   5.856   2.410   6.706
 5983SOL     OW18847   0.927   1.372   4.708
 5983SOL    HW118848   0.964   1.443   4.767
 5983SOL    HW218849   0.928   1.404   4.613
 5984SOL     OW18850   0.614   0.191   5.513
 5984SOL    HW118851   0.662   0.120   5.566
 5984SOL    HW218852   0.523   0.205   5.553
 5985SOL     OW18853   4.811   3.036   4.459
 5985SOL    HW118854   4.861   3.102   4.516
 5985SOL    HW218855   4.782   2.959   4.515
 5986SOL     OW18856   3.721   3.175   2.183
 5986SOL    HW118857   3.814   3.196   2.151
 5986SOL    HW218858   3.692   3.245   2.248
 5987SOL     OW18859   4.307   6.866   5.424
 5987SOL    HW118860   4.250   6.784   5.420
 5987SOL    HW218861   4.343   6.887   5.334
 5988SOL     OW18862   4.008   0.771   4.163
 5988SOL    HW118863   4.016   0.798   4.067
 5988SOL    HW218864   4.023   0.850   4.222
 5989SOL     OW18865   2.479   0.633   6.372
 5989SOL    HW118866   2.494   0.545   6.418
 5989SOL    HW218867   2.535   0.703   6.415
 5990SOL     OW18868   3.067   5.087   2.134
 5990SOL    HW118869   3.111   4.998   2.146
 5990SOL    HW218870   3.134   5.159   2.147
 5991SOL     OW18871   3.318   5.238   3.824
 5991SOL    HW118872   3.226   5.274   3.842
 5991SOL    HW218873   3.310   5.145   3.788
 5992SOL     OW18874   4.492   1.306   4.314
 5992SOL    HW118875   4.493   1.261   4.225
 5992SOL    HW218876   4.411   1.363   4.321
 5993SOL     OW18877   3.647   5.353   4.133
 5993SOL    HW118878   3.731   5.404   4.148
 5993SOL    HW218879   3.585   5.406   4.075
 5994SOL     OW18880   6.734   2.475   2.047
 5994SOL    HW118881   6.649   2.503   2.091
 5994SOL    HW218882   6.729   2.377   2.024
 5995SOL     OW18883   0.561   4.597   1.246
 5995SOL    HW118884   0.473   4.645   1.247
 5995SOL    HW218885   0.626   4.648   1.303
 5996SOL     OW18886   0.822   5.066   6.139
 5996SOL    HW118887   0.771   5.118   6.070
 5996SOL    HW218888   0.919   5.067   6.116
 5997SOL     OW18889   0.750   0.396   1.930
 5997SOL    HW118890   0.776   0.300   1.933
 5997SOL    HW218891   0.693   0.413   1.850
 5998SOL     OW18892   4.217   1.965   3.787
 5998SOL    HW118893   4.268   1.932   3.707
 5998SOL    HW218894   4.211   1.892   3.855
 5999SOL     OW18895   2.171   2.053   2.919
 5999SOL    HW118896   2.100   2.114   2.884
 5999SOL    HW218897   2.139   2.009   3.003
 6000SOL     OW18898   4.431   6.579   2.857
 6000SOL    HW118899   4.403   6.567   2.953
 6000SOL    HW218900   4.475   6.668   2.846
 6001SOL     OW18901   6.214   1.837   0.150
 6001SOL    HW118902   6.119   1.854   0.177
 6001SOL    HW218903   6.249   1.916   0.100
 6002SOL     OW18904   1.758   7.002   1.967
 6002SOL    HW118905   1.804   7.007   2.056
 6002SOL    HW218906   1.673   6.951   1.977
 6003SOL     OW18907   4.717   4.345   3.793
 6003SOL    HW118908   4.798   4.389   3.831
 6003SOL    HW218909   4.741   4.297   3.709
 6004SOL     OW18910   0.150   3.493   1.430
 6004SOL    HW118911   0.083   3.451   1.492
 6004SOL    HW218912   0.115   3.581   1.399
 6005SOL     OW18913   2.838   5.898   2.313
 6005SOL    HW118914   2.821   5.988   2.273
 6005SOL    HW218915   2.851   5.908   2.412
 6006SOL     OW18916   2.399   5.596   6.793
 6006SOL    HW118917   2.372   5.601   6.890
 6006SOL    HW218918   2.464   5.669   6.773
 6007SOL     OW18919   5.534   2.260   3.894
 6007SOL    HW118920   5.545   2.162   3.879
 6007SOL    HW218921   5.443   2.277   3.931
 6008SOL     OW18922   4.169   5.057   6.886
 6008SOL    HW118923   4.145   4.966   6.855
 6008SOL    HW218924   4.268   5.070   6.879
 6009SOL     OW18925   3.252   1.584   4.151
 6009SOL    HW118926   3.324   1.647   4.179
 6009SOL    HW218927   3.162   1.625   4.169
 6010SOL     OW18928   1.492   2.760   3.646
 6010SOL    HW118929   1.557   2.752   3.722
 6010SOL    HW218930   1.535   2.813   3.572
 6011SOL     OW18931   0.103   2.767   2.317
 6011SOL    HW118932   0.100   2.863   2.346
 6011SOL    HW218933   0.010   2.729   2.317
 6012SOL     OW18934   0.081   3.245   0.890
 6012SOL    HW118935   0.071   3.269   0.987
 6012SOL    HW218936   0.061   3.148   0.878
 6013SOL     OW18937   5.711   0.534   2.483
 6013SOL    HW118938   5.669   0.498   2.567
 6013SOL    HW218939   5.808   0.550   2.499
 6014SOL     OW18940   5.434   0.335   1.131
 6014SOL    HW118941   5.404   0.258   1.186
 6014SOL    HW218942   5.394   0.419   1.166
 6015SOL     OW18943   4.874   1.447   4.871
 6015SOL    HW118944   4.970   1.424   4.883
 6015SOL    HW218945   4.866   1.543   4.843
 6016SOL     OW18946   1.848   6.935   5.351
 6016SOL    HW118947   1.760   6.966   5.386
 6016SOL    HW218948   1.911   7.013   5.347
 6017SOL     OW18949   6.666   3.989   2.555
 6017SOL    HW118950   6.735   4.015   2.623
 6017SOL    HW218951   6.700   4.010   2.463
 6018SOL     OW18952   2.610   5.294   0.893
 6018SOL    HW118953   2.672   5.225   0.857
 6018SOL    HW218954   2.619   5.298   0.993
 6019SOL     OW18955   5.240   6.822   3.705
 6019SOL    HW118956   5.161   6.773   3.668
 6019SOL    HW218957   5.312   6.757   3.729
 6020SOL     OW18958   3.241   0.401   2.207
 6020SOL    HW118959   3.268   0.490   2.242
 6020SOL    HW218960   3.143   0.387   2.224
 6021SOL     OW18961   4.386   0.714   3.228
 6021SOL    HW118962   4.315   0.673   3.171
 6021SOL    HW218963   4.402   0.656   3.308
 6022SOL     OW18964   4.126   1.432   5.937
 6022SOL    HW118965   4.152   1.490   5.861
 6022SOL    HW218966   4.026   1.422   5.939
 6023SOL     OW18967   7.007   1.735   2.521
 6023SOL    HW118968   6.967   1.678   2.593
 6023SOL    HW218969   0.042   1.677   2.457
 6024SOL     OW18970   0.602   5.370   2.210
 6024SOL    HW118971   0.591   5.361   2.309
 6024SOL    HW218972   0.595   5.280   2.167
 6025SOL     OW18973   3.987   2.148   2.300
 6025SOL    HW118974   3.986   2.061   2.249
 6025SOL    HW218975   4.047   2.139   2.379
 6026SOL     OW18976   0.795   4.688   5.676
 6026SOL    HW118977   0.775   4.685   5.578
 6026SOL    HW218978   0.885   4.648   5.693
 6027SOL     OW18979   3.036   3.483   1.093
 6027SOL    HW118980   3.050   3.502   1.190
 6027SOL    HW218981   3.015   3.568   1.045
 6028SOL     OW18982   1.236   4.372   0.088
 6028SOL    HW118983   1.172   4.406   0.157
 6028SOL    HW218984   1.210   4.407   7.014
 6029SOL     OW18985   1.437   5.334   1.593
 6029SOL    HW118986   1.530   5.299   1.576
 6029SOL    HW218987   1.393   5.355   1.506
 6030SOL     OW18988   1.896   6.625   1.378
 6030SOL    HW118989   1.878   6.614   1.476
 6030SOL    HW218990   1.981   6.675   1.365
 6031SOL     OW18991   5.244   0.187   4.912
 6031SOL    HW118992   5.191   0.141   4.983
 6031SOL    HW218993   5.279   0.273   4.948
 6032SOL     OW18994   0.314   3.544   2.904
 6032SOL    HW118995   0.374   3.607   2.854
 6032SOL    HW218996   0.357   3.520   2.991
 6033SOL     OW18997   0.459   0.563   4.505
 6033SOL    HW118998   0.546   0.607   4.528
 6033SOL    HW218999   0.468   0.464   4.518
 6034SOL     OW19000   2.183   4.101   4.720
 6034SOL    HW119001   2.253   4.079   4.788
 6034SOL    HW219002   2.153   4.196   4.732
 6035SOL     OW19003   5.667   0.511   4.159
 6035SOL    HW119004   5.597   0.541   4.224
 6035SOL    HW219005   5.754   0.554   4.181
 6036SOL     OW19006   0.735   1.152   3.965
 6036SOL    HW119007   0.711   1.059   3.992
 6036SOL    HW219008   0.674   1.182   3.891
 6037SOL     OW19009   6.824   5.408   5.064
 6037SOL    HW119010   6.728   5.385   5.049
 6037SOL    HW219011   6.830   5.501   5.101
 6038SOL     OW19012   5.034   4.196   6.216
 6038SOL    HW119013   4.937   4.214   6.199
 6038SOL    HW219014   5.042   4.128   6.289
 6039SOL     OW19015   3.434   3.365   3.760
 6039SOL    HW119016   3.465   3.297   3.826
 6039SOL    HW219017   3.500   3.441   3.757
 6040SOL     OW19018   1.144   1.450   0.279
 6040SOL    HW119019   1.104   1.389   0.348
 6040SOL    HW219020   1.083   1.527   0.263
 6041SOL     OW19021   0.770   2.666   0.268
 6041SOL    HW119022   0.702   2.689   0.337
 6041SOL    HW219023   0.776   2.740   0.202
 6042SOL     OW19024   5.876   5.130   4.562
 6042SOL    HW119025   5.971   5.144   4.535
 6042SOL    HW219026   5.862   5.035   4.589
 6043SOL     OW19027   0.440   5.049   4.011
 6043SOL    HW119028   0.523   5.105   4.007
 6043SOL    HW219029   0.459   4.967   4.065
 6044SOL     OW19030   1.162   0.505   1.335
 6044SOL    HW119031   1.141   0.418   1.289
 6044SOL    HW219032   1.244   0.545   1.293
 6045SOL     OW19033   0.191   3.587   0.850
 6045SOL    HW119034   0.196   3.646   0.769
 6045SOL    HW219035   0.193   3.491   0.820
 6046SOL     OW19036   2.694   2.835   0.356
 6046SOL    HW119037   2.651   2.907   0.301
 6046SOL    HW219038   2.700   2.865   0.451
 6047SOL     OW19039   0.472   6.325   4.724
 6047SOL    HW119040   0.478   6.362   4.632
 6047SOL    HW219041   0.422   6.389   4.782
 6048SOL     OW19042   5.111   6.043   5.038
 6048SOL    HW119043   5.054   5.961   5.039
 6048SOL    HW219044   5.201   6.021   4.999
 6049SOL     OW19045   6.177   5.443   1.392
 6049SOL    HW119046   6.181   5.540   1.417
 6049SOL    HW219047   6.212   5.432   1.299
 6050SOL     OW19048   5.069   4.665   5.325
 6050SOL    HW119049   5.129   4.706   5.393
 6050SOL    HW219050   5.122   4.605   5.265
 6051SOL     OW19051   2.343   2.108   3.543
 6051SOL    HW119052   2.353   2.206   3.557
 6051SOL    HW219053   2.248   2.082   3.560
 6052SOL     OW19054   6.692   1.144   0.355
 6052SOL    HW119055   6.768   1.181   0.301
 6052SOL    HW219056   6.728   1.092   0.432
 6053SOL     OW19057   1.884   0.341   5.980
 6053SOL    HW119058   1.966   0.298   6.016
 6053SOL    HW219059   1.813   0.342   6.051
 6054SOL     OW19060   2.489   4.649   6.603
 6054SOL    HW119061   2.464   4.741   6.573
 6054SOL    HW219062   2.588   4.638   6.598
 6055SOL     OW19063   4.783   0.726   3.841
 6055SOL    HW119064   4.815   0.743   3.935
 6055SOL    HW219065   4.736   0.808   3.808
 6056SOL     OW19066   4.954   2.876   6.498
 6056SOL    HW119067   5.015   2.799   6.517
 6056SOL    HW219068   4.947   2.935   6.579
 6057SOL     OW19069   3.262   0.346   6.163
 6057SOL    HW119070   3.345   0.360   6.218
 6057SOL    HW219071   3.189   0.311   6.221
 6058SOL     OW19072   5.663   1.678   4.112
 6058SOL    HW119073   5.663   1.582   4.081
 6058SOL    HW219074   5.635   1.682   4.207
 6059SOL     OW19075   6.788   6.085   6.434
 6059SOL    HW119076   6.705   6.128   6.399
 6059SOL    HW219077   6.765   6.009   6.494
 6060SOL     OW19078   3.563   6.383   6.405
 6060SOL    HW119079   3.516   6.469   6.427
 6060SOL    HW219080   3.632   6.400   6.334
 6061SOL     OW19081   2.042   1.673   6.475
 6061SOL    HW119082   2.107   1.599   6.488
 6061SOL    HW219083   2.016   1.679   6.378
 6062SOL     OW19084   1.907   0.713   4.460
 6062SOL    HW119085   1.996   0.685   4.495
 6062SOL    HW219086   1.863   0.635   4.416
 6063SOL     OW19087   4.690   6.836   0.473
 6063SOL    HW119088   4.653   6.780   0.399
 6063SOL    HW219089   4.763   6.894   0.437
 6064SOL     OW19090   0.534   5.888   3.573
 6064SOL    HW119091   0.455   5.893   3.513
 6064SOL    HW219092   0.542   5.796   3.611
 6065SOL     OW19093   6.310   0.143   0.933
 6065SOL    HW119094   6.321   0.048   0.905
 6065SOL    HW219095   6.334   0.203   0.856
 6066SOL     OW19096   4.343   2.197   6.626
 6066SOL    HW119097   4.287   2.181   6.708
 6066SOL    HW219098   4.420   2.256   6.649
 6067SOL     OW19099   5.655   1.951   6.660
 6067SOL    HW119100   5.683   2.035   6.614
 6067SOL    HW219101   5.556   1.956   6.678
 6068SOL     OW19102   4.919   2.012   5.052
 6068SOL    HW119103   4.911   2.085   5.121
 6068SOL    HW219104   4.949   1.928   5.096
 6069SOL     OW19105   5.945   4.213   4.126
 6069SOL    HW119106   5.870   4.201   4.191
 6069SOL    HW219107   5.931   4.152   4.048
 6070SOL     OW19108   3.514   2.518   6.943
 6070SOL    HW119109   3.534   2.608   6.982
 6070SOL    HW219110   3.451   2.527   6.867
 6071SOL     OW19111   4.731   6.419   5.103
 6071SOL    HW119112   4.667   6.344   5.124
 6071SOL    HW219113   4.824   6.383   5.096
 6072SOL     OW19114   6.866   1.577   1.155
 6072SOL    HW119115   6.947   1.636   1.147
 6072SOL    HW219116   6.795   1.609   1.093
 6073SOL     OW19117   6.634   2.189   1.573
 6073SOL    HW119118   6.715   2.202   1.630
 6073SOL    HW219119   6.656   2.212   1.478
 6074SOL     OW19120   0.706   0.546   4.715
 6074SOL    HW119121   0.752   0.475   4.661
 6074SOL    HW219122   0.681   0.509   4.804
 6075SOL     OW19123   4.748   4.164   6.642
 6075SOL    HW119124   4.718   4.073   6.671
 6075SOL    HW219125   4.828   4.192   6.695
 6076SOL     OW19126   2.200   6.888   3.521
 6076SOL    HW119127   2.213   6.969   3.577
 6076SOL    HW219128   2.208   6.806   3.579
 6077SOL     OW19129   5.606   5.701   2.503
 6077SOL    HW119130   5.606   5.669   2.408
 6077SOL    HW219131   5.640   5.628   2.563
 6078SOL     OW19132   2.507   4.965   3.312
 6078SOL    HW119133   2.412   4.951   3.342
 6078SOL    HW219134   2.529   4.898   3.241
 6079SOL     OW19135   1.857   1.400   0.430
 6079SOL    HW119136   1.818   1.480   0.384
 6079SOL    HW219137   1.949   1.383   0.396
 6080SOL     OW19138   5.851   2.079   2.841
 6080SOL    HW119139   5.866   2.030   2.927
 6080SOL    HW219140   5.823   2.015   2.770
 6081SOL     OW19141   0.465   3.752   2.755
 6081SOL    HW119142   0.499   3.721   2.666
 6081SOL    HW219143   0.521   3.713   2.828
 6082SOL     OW19144   3.825   1.755   4.744
 6082SOL    HW119145   3.842   1.706   4.829
 6082SOL    HW219146   3.807   1.689   4.671
 6083SOL     OW19147   2.144   6.913   0.463
 6083SOL    HW119148   2.087   6.851   0.408
 6083SOL    HW219149   2.161   6.872   0.552
 6084SOL     OW19150   0.261   4.952   6.211
 6084SOL    HW119151   0.318   4.869   6.218
 6084SOL    HW219152   0.297   5.011   6.139
 6085SOL     OW19153   5.058   4.311   1.644
 6085SOL    HW119154   4.975   4.358   1.674
 6085SOL    HW219155   5.049   4.286   1.548
 6086SOL     OW19156   2.707   1.686   3.157
 6086SOL    HW119157   2.743   1.751   3.225
 6086SOL    HW219158   2.616   1.657   3.185
 6087SOL     OW19159   4.326   6.927   0.485
 6087SOL    HW119160   4.344   6.972   0.572
 6087SOL    HW219161   4.391   6.960   0.416
 6088SOL     OW19162   6.949   0.254   5.449
 6088SOL    HW119163   6.974   0.176   5.392
 6088SOL    HW219164   6.885   0.313   5.399
 6089SOL     OW19165   6.856   3.286   0.274
 6089SOL    HW119166   6.912   3.355   0.320
 6089SOL    HW219167   6.768   3.279   0.321
 6090SOL     OW19168   0.273   5.697   3.692
 6090SOL    HW119169   0.266   5.796   3.682
 6090SOL    HW219170   0.317   5.675   3.779
 6091SOL     OW19171   5.874   1.861   1.604
 6091SOL    HW119172   5.796   1.865   1.667
 6091SOL    HW219173   5.914   1.952   1.594
 6092SOL     OW19174   1.542   2.700   0.788
 6092SOL    HW119175   1.588   2.688   0.877
 6092SOL    HW219176   1.487   2.619   0.769
 6093SOL     OW19177   1.343   3.412   0.823
 6093SOL    HW119178   1.260   3.424   0.769
 6093SOL    HW219179   1.350   3.316   0.853
 6094SOL     OW19180   0.693   0.647   0.990
 6094SOL    HW119181   0.676   0.664   0.893
 6094SOL    HW219182   0.787   0.614   1.002
 6095SOL     OW19183   6.476   4.030   5.443
 6095SOL    HW119184   6.522   4.085   5.513
 6095SOL    HW219185   6.532   4.026   5.361
 6096SOL     OW19186   3.778   1.710   3.178
 6096SOL    HW119187   3.707   1.662   3.228
 6096SOL    HW219188   3.740   1.793   3.137
 6097SOL     OW19189   3.224   1.858   1.693
 6097SOL    HW119190   3.252   1.813   1.608
 6097SOL    HW219191   3.159   1.800   1.741
 6098SOL     OW19192   1.375   1.294   6.088
 6098SOL    HW119193   1.399   1.348   6.169
 6098SOL    HW219194   1.386   1.350   6.006
 6099SOL     OW19195   6.003   5.093   4.864
 6099SOL    HW119196   6.015   5.045   4.951
 6099SOL    HW219197   6.085   5.082   4.808
 6100SOL     OW19198   6.522   2.290   0.407
 6100SOL    HW119199   6.535   2.191   0.412
 6100SOL    HW219200   6.601   2.336   0.448
 6101SOL     OW19201   5.644   1.378   4.251
 6101SOL    HW119202   5.551   1.341   4.257
 6101SOL    HW219203   5.695   1.329   4.180
 6102SOL     OW19204   3.050   0.742   5.107
 6102SOL    HW119205   2.984   0.668   5.121
 6102SOL    HW219206   3.019   0.801   5.033
 6103SOL     OW19207   6.227   0.771   5.433
 6103SOL    HW119208   6.271   0.745   5.347
 6103SOL    HW219209   6.238   0.697   5.500
 6104SOL     OW19210   1.606   3.256   0.761
 6104SOL    HW119211   1.663   3.225   0.685
 6104SOL    HW219212   1.534   3.189   0.778
 6105SOL     OW19213   3.049   5.407   4.583
 6105SOL    HW119214   2.958   5.444   4.563
 6105SOL    HW219215   3.048   5.308   4.571
 6106SOL     OW19216   3.379   5.211   4.616
 6106SOL    HW119217   3.324   5.146   4.563
 6106SOL    HW219218   3.323   5.248   4.691
 6107SOL     OW19219   2.357   5.450   5.424
 6107SOL    HW119220   2.338   5.533   5.477
 6107SOL    HW219221   2.286   5.438   5.355
 6108SOL     OW19222   6.752   1.690   4.070
 6108SOL    HW119223   6.784   1.618   4.131
 6108SOL    HW219224   6.829   1.732   4.023
 6109SOL     OW19225   6.567   4.343   1.764
 6109SOL    HW119226   6.532   4.322   1.673
 6109SOL    HW219227   6.667   4.341   1.762
 6110SOL     OW19228   3.571   2.018   3.885
 6110SOL    HW119229   3.654   2.049   3.838
 6110SOL    HW219230   3.491   2.055   3.839
 6111SOL     OW19231   0.522   4.797   2.851
 6111SOL    HW119232   0.578   4.814   2.770
 6111SOL    HW219233   0.543   4.864   2.922
 6112SOL     OW19234   1.329   2.179   2.038
 6112SOL    HW119235   1.275   2.099   2.065
 6112SOL    HW219236   1.270   2.246   1.993
 6113SOL     OW19237   2.223   5.943   5.004
 6113SOL    HW119238   2.268   5.954   5.092
 6113SOL    HW219239   2.201   5.847   4.989
 6114SOL     OW19240   5.247   5.487   1.016
 6114SOL    HW119241   5.210   5.402   0.978
 6114SOL    HW219242   5.199   5.565   0.975
 6115SOL     OW19243   6.279   4.800   2.874
 6115SOL    HW119244   6.225   4.733   2.823
 6115SOL    HW219245   6.354   4.753   2.921
 6116SOL     OW19246   3.382   2.326   0.803
 6116SOL    HW119247   3.382   2.226   0.808
 6116SOL    HW219248   3.330   2.362   0.881
 6117SOL     OW19249   5.619   6.464   4.121
 6117SOL    HW119250   5.626   6.542   4.182
 6117SOL    HW219251   5.639   6.380   4.171
 6118SOL     OW19252   6.126   0.191   2.733
 6118SOL    HW119253   6.051   0.233   2.682
 6118SOL    HW219254   6.111   0.204   2.831
 6119SOL     OW19255   6.372   5.437   3.585
 6119SOL    HW119256   6.348   5.384   3.504
 6119SOL    HW219257   6.448   5.393   3.633
 6120SOL     OW19258   2.511   0.759   3.353
 6120SOL    HW119259   2.532   0.747   3.450
 6120SOL    HW219260   2.591   0.795   3.305
 6121SOL     OW19261   6.713   1.874   4.293
 6121SOL    HW119262   6.762   1.850   4.210
 6121SOL    HW219263   6.669   1.963   4.281
 6122SOL     OW19264   4.404   6.030   3.879
 6122SOL    HW119265   4.435   5.950   3.931
 6122SOL    HW219266   4.472   6.102   3.884
 6123SOL     OW19267   6.933   1.300   1.865
 6123SOL    HW119268   6.881   1.384   1.847
 6123SOL    HW219269   6.894   1.224   1.813
 6124SOL     OW19270   2.820   0.593   5.271
 6124SOL    HW119271   2.875   0.594   5.355
 6124SOL    HW219272   2.757   0.671   5.272
 6125SOL     OW19273   1.799   4.909   2.321
 6125SOL    HW119274   1.851   4.937   2.240
 6125SOL    HW219275   1.756   4.821   2.304
 6126SOL     OW19276   4.784   5.338   2.093
 6126SOL    HW119277   4.738   5.263   2.142
 6126SOL    HW219278   4.720   5.378   2.028
 6127SOL     OW19279   2.197   3.870   2.443
 6127SOL    HW119280   2.144   3.914   2.371
 6127SOL    HW219281   2.290   3.852   2.409
 6128SOL     OW19282   5.160   2.279   1.160
 6128SOL    HW119283   5.142   2.225   1.243
 6128SOL    HW219284   5.213   2.360   1.184
 6129SOL     OW19285   5.710   4.253   3.542
 6129SOL    HW119286   5.682   4.163   3.576
 6129SOL    HW219287   5.722   4.315   3.618
 6130SOL     OW19288   5.562   4.331   2.825
 6130SOL    HW119289   5.546   4.336   2.726
 6130SOL    HW219290   5.623   4.255   2.844
 6131SOL     OW19291   6.590   0.838   4.955
 6131SOL    HW119292   6.500   0.865   4.921
 6131SOL    HW219293   6.604   0.875   5.047
 6132SOL     OW19294   6.202   2.134   0.431
 6132SOL    HW119295   6.184   2.062   0.499
 6132SOL    HW219296   6.210   2.222   0.478
 6133SOL     OW19297   1.579   4.637   0.373
 6133SOL    HW119298   1.546   4.559   0.319
 6133SOL    HW219299   1.604   4.606   0.465
 6134SOL     OW19300   4.666   3.100   0.269
 6134SOL    HW119301   4.674   3.021   0.330
 6134SOL    HW219302   4.597   3.163   0.304
 6135SOL     OW19303   5.489   0.388   2.072
 6135SOL    HW119304   5.430   0.433   2.139
 6135SOL    HW219305   5.457   0.410   1.980
 6136SOL     OW19306   0.117   1.281   2.182
 6136SOL    HW119307   0.173   1.352   2.139
 6136SOL    HW219308   0.177   1.212   2.223
 6137SOL     OW19309   2.850   6.433   5.599
 6137SOL    HW119310   2.875   6.484   5.682
 6137SOL    HW219311   2.875   6.486   5.518
 6138SOL     OW19312   4.051   6.965   3.062
 6138SOL    HW119313   4.006   6.923   2.984
 6138SOL    HW219314   4.067   6.896   3.133
 6139SOL     OW19315   2.032   5.297   4.495
 6139SOL    HW119316   1.970   5.373   4.476
 6139SOL    HW219317   2.054   5.250   4.410
 6140SOL     OW19318   2.198   6.382   1.182
 6140SOL    HW119319   2.225   6.286   1.190
 6140SOL    HW219320   2.234   6.434   1.259
 6141SOL     OW19321   6.736   6.298   5.583
 6141SOL    HW119322   6.820   6.347   5.562
 6141SOL    HW219323   6.662   6.332   5.525
 6142SOL     OW19324   0.480   4.047   2.739
 6142SOL    HW119325   0.523   4.073   2.652
 6142SOL    HW219326   0.484   3.948   2.750
 6143SOL     OW19327   6.555   4.417   6.596
 6143SOL    HW119328   6.638   4.459   6.634
 6143SOL    HW219329   6.529   4.338   6.652
 6144SOL     OW19330   0.228   5.083   4.198
 6144SOL    HW119331   0.148   5.134   4.167
 6144SOL    HW219332   0.288   5.065   4.120
 6145SOL     OW19333   4.854   5.921   3.717
 6145SOL    HW119334   4.952   5.931   3.734
 6145SOL    HW219335   4.831   5.966   3.631
 6146SOL     OW19336   5.594   1.050   3.548
 6146SOL    HW119337   5.583   1.040   3.449
 6146SOL    HW219338   5.575   0.963   3.593
 6147SOL     OW19339   1.084   3.827   3.086
 6147SOL    HW119340   1.074   3.905   3.024
 6147SOL    HW219341   1.023   3.839   3.165
 6148SOL     OW19342   5.634   5.948   3.807
 6148SOL    HW119343   5.668   6.015   3.872
 6148SOL    HW219344   5.593   5.871   3.856
 6149SOL     OW19345   2.140   0.381   4.546
 6149SOL    HW119346   2.100   0.413   4.631
 6149SOL    HW219347   2.086   0.304   4.511
 6150SOL     OW19348   4.157   5.624   5.736
 6150SOL    HW119349   4.060   5.636   5.719
 6150SOL    HW219350   4.180   5.655   5.828
 6151SOL     OW19351   4.511   0.987   5.841
 6151SOL    HW119352   4.485   1.030   5.755
 6151SOL    HW219353   4.606   1.010   5.862
 6152SOL     OW19354   6.770   5.042   5.892
 6152SOL    HW119355   6.869   5.038   5.879
 6152SOL    HW219356   6.748   5.029   5.989
 6153SOL     OW19357   4.896   4.002   0.025
 6153SOL    HW119358   4.819   4.046   0.070
 6153SOL    HW219359   4.864   3.925   6.985
 6154SOL     OW19360   4.812   2.982   2.916
 6154SOL    HW119361   4.793   3.041   2.994
 6154SOL    HW219362   4.911   2.970   2.907
 6155SOL     OW19363   1.527   3.372   4.046
 6155SOL    HW119364   1.542   3.453   4.104
 6155SOL    HW219365   1.589   3.299   4.075
 6156SOL     OW19366   6.238   0.572   4.147
 6156SOL    HW119367   6.143   0.549   4.169
 6156SOL    HW219368   6.289   0.587   4.232
 6157SOL     OW19369   1.548   1.314   3.452
 6157SOL    HW119370   1.456   1.333   3.485
 6157SOL    HW219371   1.606   1.395   3.467
 6158SOL     OW19372   4.441   0.660   0.588
 6158SOL    HW119373   4.531   0.672   0.547
 6158SOL    HW219374   4.384   0.740   0.568
 6159SOL     OW19375   5.560   3.155   6.886
 6159SOL    HW119376   5.605   3.118   6.967
 6159SOL    HW219377   5.500   3.231   6.912
 6160SOL     OW19378   6.624   4.913   1.560
 6160SOL    HW119379   6.556   4.848   1.593
 6160SOL    HW219380   6.612   5.001   1.606
 6161SOL     OW19381   5.785   0.494   6.561
 6161SOL    HW119382   5.800   0.586   6.527
 6161SOL    HW219383   5.866   0.463   6.612
 6162SOL     OW19384   6.194   5.101   3.917
 6162SOL    HW119385   6.098   5.084   3.939
 6162SOL    HW219386   6.203   5.117   3.819
 6163SOL     OW19387   0.020   3.811   1.964
 6163SOL    HW119388   6.953   3.811   2.020
 6163SOL    HW219389   0.099   3.794   2.022
 6164SOL     OW19390   5.132   2.581   0.464
 6164SOL    HW119391   5.074   2.556   0.541
 6164SOL    HW219392   5.082   2.570   0.378
 6165SOL     OW19393   4.650   6.401   0.401
 6165SOL    HW119394   4.660   6.393   0.302
 6165SOL    HW219395   4.728   6.358   0.446
 6166SOL     OW19396   3.840   1.473   6.868
 6166SOL    HW119397   3.867   1.469   6.964
 6166SOL    HW219398   3.741   1.477   6.861
 6167SOL     OW19399   0.075   4.768   2.959
 6167SOL    HW119400   0.108   4.673   2.962
 6167SOL    HW219401   0.052   4.797   3.052
 6168SOL     OW19402   0.389   2.529   1.857
 6168SOL    HW119403   0.425   2.538   1.950
 6168SOL    HW219404   0.452   2.474   1.802
 6169SOL     OW19405   1.972   4.243   2.090
 6169SOL    HW119406   1.973   4.277   1.996
 6169SOL    HW219407   1.940   4.149   2.092
 6170SOL     OW19408   6.960   2.207   3.536
 6170SOL    HW119409   6.877   2.254   3.564
 6170SOL    HW219410   7.014   2.183   3.617
 6171SOL     OW19411   6.742   0.589   6.547
 6171SOL    HW119412   6.838   0.566   6.536
 6171SOL    HW219413   6.685   0.518   6.506
 6172SOL     OW19414   1.110   4.416   4.186
 6172SOL    HW119415   1.095   4.388   4.281
 6172SOL    HW219416   1.208   4.412   4.166
 6173SOL     OW19417   5.915   6.305   3.264
 6173SOL    HW119418   5.933   6.247   3.184
 6173SOL    HW219419   5.993   6.366   3.279
 6174SOL     OW19420   5.961   2.666   1.927
 6174SOL    HW119421   5.927   2.572   1.922
 6174SOL    HW219422   6.057   2.665   1.952
 6175SOL     OW19423   3.810   2.216   6.244
 6175SOL    HW119424   3.844   2.158   6.319
 6175SOL    HW219425   3.795   2.160   6.163
 6176SOL     OW19426   3.584   4.043   6.318
 6176SOL    HW119427   3.655   4.111   6.301
 6176SOL    HW219428   3.524   4.075   6.391
 6177SOL     OW19429   5.888   6.671   1.282
 6177SOL    HW119430   5.853   6.759   1.313
 6177SOL    HW219431   5.954   6.686   1.208
 6178SOL     OW19432   4.171   4.735   1.503
 6178SOL    HW119433   4.131   4.755   1.414
 6178SOL    HW219434   4.157   4.639   1.526
 6179SOL     OW19435   5.748   4.972   4.805
 6179SOL    HW119436   5.775   4.894   4.861
 6179SOL    HW219437   5.829   5.026   4.782
 6180SOL     OW19438   2.906   4.859   6.766
 6180SOL    HW119439   2.933   4.872   6.861
 6180SOL    HW219440   2.984   4.825   6.714
 6181SOL     OW19441   6.112   6.459   0.214
 6181SOL    HW119442   6.162   6.527   0.268
 6181SOL    HW219443   6.165   6.437   0.132
 6182SOL     OW19444   3.085   2.496   0.161
 6182SOL    HW119445   3.179   2.483   0.128
 6182SOL    HW219446   3.033   2.412   0.150
 6183SOL     OW19447   6.984   6.551   0.702
 6183SOL    HW119448   6.918   6.567   0.629
 6183SOL    HW219449   0.044   6.495   0.668
 6184SOL     OW19450   3.453   6.336   5.386
 6184SOL    HW119451   3.407   6.250   5.405
 6184SOL    HW219452   3.403   6.411   5.430
 6185SOL     OW19453   3.892   3.568   5.178
 6185SOL    HW119454   3.833   3.610   5.109
 6185SOL    HW219455   3.973   3.626   5.192
 6186SOL     OW19456   1.171   1.618   2.143
 6186SOL    HW119457   1.117   1.669   2.211
 6186SOL    HW219458   1.219   1.683   2.084
 6187SOL     OW19459   3.345   1.461   6.324
 6187SOL    HW119460   3.340   1.371   6.279
 6187SOL    HW219461   3.441   1.482   6.344
 6188SOL     OW19462   1.916   1.482   4.920
 6188SOL    HW119463   1.895   1.567   4.969
 6188SOL    HW219464   1.869   1.405   4.963
 6189SOL     OW19465   6.614   5.476   0.837
 6189SOL    HW119466   6.557   5.515   0.909
 6189SOL    HW219467   6.596   5.379   0.828
 6190SOL     OW19468   0.765   3.167   4.180
 6190SOL    HW119469   0.676   3.140   4.216
 6190SOL    HW219470   0.790   3.257   4.215
 6191SOL     OW19471   3.307   3.495   0.342
 6191SOL    HW119472   3.351   3.520   0.429
 6191SOL    HW219473   3.219   3.541   0.335
 6192SOL     OW19474   2.846   1.658   0.947
 6192SOL    HW119475   2.764   1.688   0.996
 6192SOL    HW219476   2.921   1.649   1.012
 6193SOL     OW19477   4.279   5.645   6.792
 6193SOL    HW119478   4.277   5.694   6.879
 6193SOL    HW219479   4.256   5.549   6.808
 6194SOL     OW19480   5.444   0.010   6.846
 6194SOL    HW119481   5.368   6.973   6.808
 6194SOL    HW219482   5.520   6.963   6.869
 6195SOL     OW19483   5.718   6.152   6.564
 6195SOL    HW119484   5.670   6.146   6.652
 6195SOL    HW219485   5.684   6.080   6.502
 6196SOL     OW19486   5.962   3.623   3.087
 6196SOL    HW119487   6.058   3.643   3.108
 6196SOL    HW219488   5.930   3.685   3.015
 6197SOL     OW19489   0.748   5.482   0.956
 6197SOL    HW119490   0.842   5.489   0.924
 6197SOL    HW219491   0.704   5.402   0.917
 6198SOL     OW19492   5.612   1.523   6.515
 6198SOL    HW119493   5.636   1.586   6.441
 6198SOL    HW219494   5.696   1.484   6.554
 6199SOL     OW19495   2.047   6.938   5.998
 6199SOL    HW119496   2.128   6.995   6.008
 6199SOL    HW219497   2.030   6.921   5.901
 6200SOL     OW19498   1.579   0.448   1.135
 6200SOL    HW119499   1.585   0.380   1.207
 6200SOL    HW219500   1.670   0.467   1.098
 6201SOL     OW19501   0.461   4.529   2.840
 6201SOL    HW119502   0.416   4.501   2.756
 6201SOL    HW219503   0.460   4.629   2.846
 6202SOL     OW19504   5.867   1.133   2.632
 6202SOL    HW119505   5.885   1.065   2.703
 6202SOL    HW219506   5.928   1.211   2.645
 6203SOL     OW19507   6.178   0.165   2.117
 6203SOL    HW119508   6.265   0.215   2.123
 6203SOL    HW219509   6.188   0.089   2.054
 6204SOL     OW19510   1.281   6.228   4.909
 6204SOL    HW119511   1.256   6.252   4.815
 6204SOL    HW219512   1.353   6.289   4.941
 6205SOL     OW19513   5.374   4.620   3.744
 6205SOL    HW119514   5.333   4.642   3.655
 6205SOL    HW219515   5.379   4.704   3.800
 6206SOL     OW19516   5.500   2.001   3.461
 6206SOL    HW119517   5.503   1.903   3.443
 6206SOL    HW219518   5.408   2.026   3.493
 6207SOL     OW19519   0.688   5.839   4.307
 6207SOL    HW119520   0.667   5.922   4.358
 6207SOL    HW219521   0.783   5.842   4.276
 6208SOL     OW19522   4.471   3.980   5.616
 6208SOL    HW119523   4.462   3.977   5.517
 6208SOL    HW219524   4.551   3.925   5.644
 6209SOL     OW19525   3.491   2.208   1.477
 6209SOL    HW119526   3.590   2.214   1.461
 6209SOL    HW219527   3.460   2.115   1.459
 6210SOL     OW19528   5.542   1.724   4.382
 6210SOL    HW119529   5.478   1.791   4.419
 6210SOL    HW219530   5.635   1.759   4.388
 6211SOL     OW19531   5.873   3.978   5.120
 6211SOL    HW119532   5.786   3.955   5.164
 6211SOL    HW219533   5.879   4.077   5.109
 6212SOL     OW19534   5.434   4.469   4.708
 6212SOL    HW119535   5.393   4.413   4.779
 6212SOL    HW219536   5.415   4.430   4.618
 6213SOL     OW19537   4.052   5.779   0.524
 6213SOL    HW119538   3.991   5.750   0.450
 6213SOL    HW219539   4.022   5.867   0.559
 6214SOL     OW19540   5.886   6.874   0.107
 6214SOL    HW119541   5.879   6.942   0.033
 6214SOL    HW219542   5.961   6.898   0.168
 6215SOL     OW19543   5.801   2.263   5.080
 6215SOL    HW119544   5.722   2.212   5.115
 6215SOL    HW219545   5.824   2.336   5.145
 6216SOL     OW19546   4.395   1.397   4.650
 6216SOL    HW119547   4.356   1.435   4.566
 6216SOL    HW219548   4.484   1.357   4.629
 6217SOL     OW19549   0.620   4.091   2.508
 6217SOL    HW119550   0.636   4.013   2.449
 6217SOL    HW219551   0.702   4.148   2.513
 6218SOL     OW19552   4.499   6.029   0.213
 6218SOL    HW119553   4.487   6.005   0.309
 6218SOL    HW219554   4.553   6.113   0.206
 6219SOL     OW19555   2.176   1.125   6.852
 6219SOL    HW119556   2.129   1.077   6.927
 6219SOL    HW219557   2.139   1.217   6.844
 6220SOL     OW19558   3.230   6.103   0.920
 6220SOL    HW119559   3.152   6.052   0.885
 6220SOL    HW219560   3.233   6.098   1.019
 6221SOL     OW19561   5.049   5.773   6.199
 6221SOL    HW119562   5.107   5.853   6.181
 6221SOL    HW219563   5.082   5.726   6.281
 6222SOL     OW19564   6.735   1.648   2.161
 6222SOL    HW119565   6.748   1.715   2.234
 6222SOL    HW219566   6.660   1.677   2.102
 6223SOL     OW19567   7.015   5.251   4.071
 6223SOL    HW119568   6.957   5.239   3.991
 6223SOL    HW219569   6.992   5.338   4.116
 6224SOL     OW19570   3.916   6.908   0.111
 6224SOL    HW119571   4.013   6.927   0.131
 6224SOL    HW219572   3.898   6.811   0.127
 6225SOL     OW19573   5.136   6.029   6.409
 6225SOL    HW119574   5.201   5.973   6.461
 6225SOL    HW219575   5.166   6.035   6.314
 6226SOL     OW19576   0.616   1.033   4.284
 6226SOL    HW119577   0.517   1.038   4.271
 6226SOL    HW219578   0.657   0.982   4.209
 6227SOL     OW19579   2.820   4.686   5.724
 6227SOL    HW119580   2.827   4.783   5.702
 6227SOL    HW219581   2.880   4.633   5.663
 6228SOL     OW19582   1.245   3.051   3.797
 6228SOL    HW119583   1.340   3.081   3.801
 6228SOL    HW219584   1.214   3.026   3.889
 6229SOL     OW19585   0.463   3.476   3.959
 6229SOL    HW119586   0.450   3.458   4.056
 6229SOL    HW219587   0.412   3.409   3.905
 6230SOL     OW19588   0.509   1.121   1.356
 6230SOL    HW119589   0.583   1.061   1.387
 6230SOL    HW219590   0.426   1.098   1.405
 6231SOL     OW19591   2.133   5.538   5.599
 6231SOL    HW119592   2.175   5.562   5.687
 6231SOL    HW219593   2.103   5.443   5.602
 6232SOL     OW19594   4.307   0.441   6.353
 6232SOL    HW119595   4.386   0.414   6.298
 6232SOL    HW219596   4.267   0.524   6.315
 6233SOL     OW19597   6.693   3.381   1.334
 6233SOL    HW119598   6.627   3.382   1.260
 6233SOL    HW219599   6.648   3.406   1.420
 6234SOL     OW19600   5.120   4.847   4.467
 6234SOL    HW119601   5.022   4.861   4.478
 6234SOL    HW219602   5.143   4.751   4.485
 6235SOL     OW19603   6.958   0.501   2.338
 6235SOL    HW119604   6.979   0.585   2.286
 6235SOL    HW219605   0.023   0.472   2.388
 6236SOL     OW19606   6.954   5.807   1.557
 6236SOL    HW119607   6.897   5.886   1.532
 6236SOL    HW219608   6.925   5.728   1.503
 6237SOL     OW19609   3.197   1.557   2.544
 6237SOL    HW119610   3.129   1.627   2.523
 6237SOL    HW219611   3.288   1.591   2.519
 6238SOL     OW19612   2.132   0.958   3.519
 6238SOL    HW119613   2.151   0.916   3.430
 6238SOL    HW219614   2.213   1.005   3.552
 6239SOL     OW19615   4.834   1.406   4.520
 6239SOL    HW119616   4.862   1.313   4.497
 6239SOL    HW219617   4.902   1.447   4.581
 6240SOL     OW19618   3.927   3.392   3.899
 6240SOL    HW119619   3.993   3.466   3.883
 6240SOL    HW219620   3.899   3.393   3.995
 6241SOL     OW19621   3.704   6.860   3.622
 6241SOL    HW119622   3.667   6.935   3.678
 6241SOL    HW219623   3.683   6.773   3.666
 6242SOL     OW19624   2.948   2.312   3.562
 6242SOL    HW119625   3.041   2.310   3.527
 6242SOL    HW219626   2.949   2.289   3.660
 6243SOL     OW19627   4.345   1.781   6.960
 6243SOL    HW119628   4.276   1.759   0.012
 6243SOL    HW219629   4.303   1.787   6.869
 6244SOL     OW19630   4.589   2.560   2.045
 6244SOL    HW119631   4.493   2.542   2.023
 6244SOL    HW219632   4.609   2.528   2.137
 6245SOL     OW19633   0.077   5.312   2.269
 6245SOL    HW119634   0.095   5.310   2.367
 6245SOL    HW219635   0.164   5.310   2.219
 6246SOL     OW19636   6.984   6.747   4.736
 6246SOL    HW119637   6.920   6.823   4.752
 6246SOL    HW219638   6.955   6.695   4.656
 6247SOL     OW19639   6.606   5.964   3.527
 6247SOL    HW119640   6.554   6.048   3.513
 6247SOL    HW219641   6.697   5.986   3.561
 6248SOL     OW19642   3.982   3.214   5.121
 6248SOL    HW119643   3.963   3.297   5.172
 6248SOL    HW219644   4.048   3.158   5.171
 6249SOL     OW19645   5.699   3.548   2.419
 6249SOL    HW119646   5.655   3.638   2.431
 6249SOL    HW219647   5.629   3.480   2.398
 6250SOL     OW19648   5.385   6.836   6.416
 6250SOL    HW119649   5.368   6.934   6.426
 6250SOL    HW219650   5.453   6.822   6.344
 6251SOL     OW19651   2.502   1.223   4.528
 6251SOL    HW119652   2.481   1.274   4.611
 6251SOL    HW219653   2.515   1.288   4.452
 6252SOL     OW19654   3.325   5.245   0.004
 6252SOL    HW119655   3.274   5.319   0.047
 6252SOL    HW219656   3.409   5.228   0.056
 6253SOL     OW19657   3.710   5.860   4.047
 6253SOL    HW119658   3.771   5.936   4.023
 6253SOL    HW219659   3.648   5.842   3.970
 6254SOL     OW19660   0.589   0.084   1.694
 6254SOL    HW119661   0.631   0.100   1.605
 6254SOL    HW219662   0.560   7.005   1.701
 6255SOL     OW19663   0.995   1.496   0.679
 6255SOL    HW119664   0.948   1.519   0.594
 6255SOL    HW219665   1.059   1.421   0.662
 6256SOL     OW19666   5.780   5.667   2.181
 6256SOL    HW119667   5.695   5.718   2.167
 6256SOL    HW219668   5.850   5.700   2.119
 6257SOL     OW19669   3.613   4.722   0.697
 6257SOL    HW119670   3.530   4.677   0.663
 6257SOL    HW219671   3.690   4.659   0.691
 6258SOL     OW19672   4.139   5.396   4.951
 6258SOL    HW119673   4.114   5.485   4.987
 6258SOL    HW219674   4.058   5.336   4.950
 6259SOL     OW19675   4.177   0.983   5.274
 6259SOL    HW119676   4.172   0.960   5.177
 6259SOL    HW219677   4.222   0.909   5.324
 6260SOL     OW19678   2.271   1.321   0.796
 6260SOL    HW119679   2.226   1.389   0.738
 6260SOL    HW219680   2.364   1.351   0.817
 6261SOL     OW19681   3.494   0.183   0.706
 6261SOL    HW119682   3.508   0.087   0.683
 6261SOL    HW219683   3.398   0.198   0.729
 6262SOL     OW19684   5.758   0.883   2.404
 6262SOL    HW119685   5.793   0.838   2.486
 6262SOL    HW219686   5.778   0.981   2.409
 6263SOL     OW19687   6.247   5.845   6.076
 6263SOL    HW119688   6.210   5.921   6.023
 6263SOL    HW219689   6.248   5.869   6.173
 6264SOL     OW19690   2.445   5.877   0.136
 6264SOL    HW119691   2.440   5.935   0.218
 6264SOL    HW219692   2.505   5.919   0.069
 6265SOL     OW19693   4.320   6.381   6.431
 6265SOL    HW119694   4.286   6.453   6.371
 6265SOL    HW219695   4.408   6.347   6.395
 6266SOL     OW19696   3.355   5.185   2.818
 6266SOL    HW119697   3.397   5.103   2.779
 6266SOL    HW219698   3.317   5.241   2.744
 6267SOL     OW19699   1.009   6.379   4.761
 6267SOL    HW119700   0.921   6.383   4.808
 6267SOL    HW219701   1.070   6.448   4.800
 6268SOL     OW19702   3.294   1.697   1.056
 6268SOL    HW119703   3.224   1.629   1.033
 6268SOL    HW219704   3.370   1.651   1.102
 6269SOL     OW19705   6.937   5.786   6.373
 6269SOL    HW119706   6.904   5.822   6.461
 6269SOL    HW219707   0.019   5.767   6.379
 6270SOL     OW19708   1.921   6.222   0.738
 6270SOL    HW119709   1.978   6.246   0.816
 6270SOL    HW219710   1.896   6.125   0.743
 6271SOL     OW19711   6.625   3.106   5.837
 6271SOL    HW119712   6.671   3.081   5.922
 6271SOL    HW219713   6.694   3.126   5.767
 6272SOL     OW19714   0.224   0.887   6.710
 6272SOL    HW119715   0.168   0.941   6.647
 6272SOL    HW219716   0.195   0.904   6.804
 6273SOL     OW19717   0.569   6.651   2.871
 6273SOL    HW119718   0.508   6.646   2.792
 6273SOL    HW219719   0.652   6.701   2.847
 6274SOL     OW19720   2.856   5.676   3.727
 6274SOL    HW119721   2.877   5.618   3.806
 6274SOL    HW219722   2.777   5.734   3.748
 6275SOL     OW19723   3.092   5.995   6.499
 6275SOL    HW119724   3.166   6.025   6.560
 6275SOL    HW219725   3.126   5.923   6.438
 6276SOL     OW19726   1.380   5.563   2.644
 6276SOL    HW119727   1.450   5.513   2.696
 6276SOL    HW219728   1.423   5.636   2.592
 6277SOL     OW19729   5.226   2.732   1.440
 6277SOL    HW119730   5.212   2.759   1.535
 6277SOL    HW219731   5.164   2.783   1.381
 6278SOL     OW19732   4.430   2.109   0.823
 6278SOL    HW119733   4.428   2.198   0.867
 6278SOL    HW219734   4.410   2.119   0.725
 6279SOL     OW19735   3.035   6.795   1.464
 6279SOL    HW119736   3.032   6.712   1.409
 6279SOL    HW219737   2.991   6.777   1.553
 6280SOL     OW19738   5.029   2.188   6.440
 6280SOL    HW119739   5.056   2.093   6.454
 6280SOL    HW219740   5.049   2.214   6.346
 6281SOL     OW19741   5.136   4.591   5.952
 6281SOL    HW119742   5.040   4.595   5.980
 6281SOL    HW219743   5.153   4.661   5.883
 6282SOL     OW19744   0.631   3.794   6.161
 6282SOL    HW119745   0.546   3.746   6.180
 6282SOL    HW219746   0.697   3.730   6.121
 6283SOL     OW19747   2.481   6.675   4.679
 6283SOL    HW119748   2.461   6.645   4.585
 6283SOL    HW219749   2.466   6.600   4.742
 6284SOL     OW19750   1.844   3.211   5.506
 6284SOL    HW119751   1.818   3.308   5.505
 6284SOL    HW219752   1.788   3.162   5.440
 6285SOL     OW19753   1.309   3.337   3.007
 6285SOL    HW119754   1.308   3.419   2.950
 6285SOL    HW219755   1.379   3.347   3.078
 6286SOL     OW19756   0.767   2.041   6.531
 6286SOL    HW119757   0.678   1.996   6.541
 6286SOL    HW219758   0.753   2.137   6.508
 6287SOL     OW19759   4.467   4.978   4.896
 6287SOL    HW119760   4.464   5.078   4.901
 6287SOL    HW219761   4.553   4.949   4.855
 6288SOL     OW19762   2.495   3.834   5.590
 6288SOL    HW119763   2.404   3.820   5.550
 6288SOL    HW219764   2.517   3.931   5.590
 6289SOL     OW19765   2.026   4.722   4.888
 6289SOL    HW119766   2.122   4.739   4.870
 6289SOL    HW219767   1.979   4.700   4.802
 6290SOL     OW19768   5.833   0.070   4.049
 6290SOL    HW119769   5.746   0.085   4.001
 6290SOL    HW219770   5.909   0.096   3.989
 6291SOL     OW19771   3.616   3.584   2.085
 6291SOL    HW119772   3.599   3.534   2.000
 6291SOL    HW219773   3.617   3.682   2.066
 6292SOL     OW19774   1.620   4.911   4.786
 6292SOL    HW119775   1.638   4.929   4.883
 6292SOL    HW219776   1.646   4.817   4.764
 6293SOL     OW19777   3.036   1.752   6.443
 6293SOL    HW119778   3.107   1.792   6.501
 6293SOL    HW219779   3.077   1.719   6.358
 6294SOL     OW19780   2.151   1.278   2.077
 6294SOL    HW119781   2.165   1.181   2.097
 6294SOL    HW219782   2.053   1.298   2.076
 6295SOL     OW19783   4.412   3.685   6.326
 6295SOL    HW119784   4.418   3.664   6.228
 6295SOL    HW219785   4.329   3.643   6.364
 6296SOL     OW19786   0.503   2.568   6.609
 6296SOL    HW119787   0.583   2.513   6.632
 6296SOL    HW219788   0.533   2.655   6.570
 6297SOL     OW19789   6.608   1.242   3.905
 6297SOL    HW119790   6.639   1.262   3.813
 6297SOL    HW219791   6.684   1.252   3.970
 6298SOL     OW19792   0.439   6.462   0.807
 6298SOL    HW119793   0.470   6.500   0.720
 6298SOL    HW219794   0.515   6.413   0.851
 6299SOL     OW19795   3.838   1.510   4.359
 6299SOL    HW119796   3.823   1.413   4.379
 6299SOL    HW219797   3.870   1.520   4.264
 6300SOL     OW19798   2.907   2.115   0.407
 6300SOL    HW119799   2.918   2.032   0.462
 6300SOL    HW219800   2.811   2.123   0.379
 6301SOL     OW19801   4.098   6.218   6.589
 6301SOL    HW119802   4.143   6.219   6.678
 6301SOL    HW219803   4.139   6.287   6.530
 6302SOL     OW19804   1.265   3.194   7.008
 6302SOL    HW119805   1.287   3.290   6.989
 6302SOL    HW219806   1.342   3.136   6.980
 6303SOL     OW19807   0.555   5.093   4.427
 6303SOL    HW119808   0.609   5.073   4.509
 6303SOL    HW219809   0.469   5.136   4.455
 6304SOL     OW19810   2.913   0.741   3.989
 6304SOL    HW119811   2.965   0.826   3.984
 6304SOL    HW219812   2.834   0.754   4.049
 6305SOL     OW19813   0.713   5.905   5.743
 6305SOL    HW119814   0.735   5.896   5.646
 6305SOL    HW219815   0.615   5.891   5.756
 6306SOL     OW19816   0.428   4.276   4.771
 6306SOL    HW119817   0.373   4.357   4.747
 6306SOL    HW219818   0.496   4.260   4.700
 6307SOL     OW19819   3.732   2.928   2.376
 6307SOL    HW119820   3.713   2.910   2.279
 6307SOL    HW219821   3.739   3.027   2.391
 6308SOL     OW19822   0.920   1.888   0.459
 6308SOL    HW119823   0.938   1.985   0.444
 6308SOL    HW219824   1.003   1.843   0.491
 6309SOL     OW19825   1.972   6.343   4.676
 6309SOL    HW119826   1.873   6.327   4.683
 6309SOL    HW219827   2.019   6.256   4.663
 6310SOL     OW19828   0.980   0.009   3.853
 6310SOL    HW119829   0.892   0.009   3.900
 6310SOL    HW219830   1.005   0.104   3.830
 6311SOL     OW19831   6.505   1.353   6.319
 6311SOL    HW119832   6.434   1.422   6.306
 6311SOL    HW219833   6.587   1.395   6.357
 6312SOL     OW19834   3.056   5.646   0.283
 6312SOL    HW119835   3.096   5.648   0.375
 6312SOL    HW219836   2.956   5.652   0.291
 6313SOL     OW19837   6.203   4.361   3.814
 6313SOL    HW119838   6.226   4.419   3.736
 6313SOL    HW219839   6.157   4.416   3.884
 6314SOL     OW19840   1.818   6.126   2.728
 6314SOL    HW119841   1.747   6.081   2.782
 6314SOL    HW219842   1.818   6.089   2.635
 6315SOL     OW19843   2.079   1.795   3.626
 6315SOL    HW119844   2.159   1.810   3.684
 6315SOL    HW219845   2.030   1.714   3.656
 6316SOL     OW19846   4.332   0.576   4.931
 6316SOL    HW119847   4.340   0.599   5.028
 6316SOL    HW219848   4.417   0.602   4.885
 6317SOL     OW19849   5.024   4.458   2.911
 6317SOL    HW119850   5.055   4.508   2.830
 6317SOL    HW219851   5.103   4.418   2.957
 6318SOL     OW19852   6.390   6.930   6.909
 6318SOL    HW119853   6.374   6.920   6.811
 6318SOL    HW219854   6.321   6.879   6.959
 6319SOL     OW19855   4.779   1.981   4.421
 6319SOL    HW119856   4.746   2.043   4.350
 6319SOL    HW219857   4.776   1.887   4.388
 6320SOL     OW19858   6.484   1.421   5.275
 6320SOL    HW119859   6.404   1.427   5.334
 6320SOL    HW219860   6.549   1.356   5.313
 6321SOL     OW19861   0.475   2.585   0.336
 6321SOL    HW119862   0.451   2.662   0.394
 6321SOL    HW219863   0.471   2.612   0.240
 6322SOL     OW19864   1.454   1.333   3.057
 6322SOL    HW119865   1.503   1.390   3.123
 6322SOL    HW219866   1.406   1.391   2.991
 6323SOL     OW19867   2.340   4.925   0.839
 6323SOL    HW119868   2.244   4.918   0.865
 6323SOL    HW219869   2.346   4.959   0.745
 6324SOL     OW19870   4.706   3.536   1.484
 6324SOL    HW119871   4.797   3.577   1.474
 6324SOL    HW219872   4.688   3.474   1.408
 6325SOL     OW19873   1.994   3.114   4.006
 6325SOL    HW119874   2.002   3.085   4.101
 6325SOL    HW219875   1.989   3.214   4.001
 6326SOL     OW19876   5.394   5.505   5.366
 6326SOL    HW119877   5.483   5.464   5.388
 6326SOL    HW219878   5.375   5.494   5.269
 6327SOL     OW19879   0.794   1.053   3.243
 6327SOL    HW119880   0.841   1.033   3.329
 6327SOL    HW219881   0.709   1.102   3.261
 6328SOL     OW19882   4.862   3.794   5.248
 6328SOL    HW119883   4.773   3.754   5.228
 6328SOL    HW219884   4.934   3.740   5.204
 6329SOL     OW19885   1.059   2.330   5.969
 6329SOL    HW119886   1.139   2.328   5.909
 6329SOL    HW219887   1.025   2.236   5.982
 6330SOL     OW19888   4.524   1.621   4.119
 6330SOL    HW119889   4.515   1.691   4.048
 6330SOL    HW219890   4.581   1.546   4.085
 6331SOL     OW19891   1.168   3.566   3.619
 6331SOL    HW119892   1.239   3.610   3.674
 6331SOL    HW219893   1.196   3.472   3.598
 6332SOL     OW19894   3.356   1.727   6.940
 6332SOL    HW119895   3.274   1.703   6.993
 6332SOL    HW219896   3.331   1.742   6.845
 6333SOL     OW19897   5.577   0.773   0.882
 6333SOL    HW119898   5.487   0.737   0.905
 6333SOL    HW219899   5.635   0.698   0.847
 6334SOL     OW19900   1.628   0.969   1.617
 6334SOL    HW119901   1.668   1.035   1.554
 6334SOL    HW219902   1.622   1.010   1.708
 6335SOL     OW19903   7.010   3.424   5.984
 6335SOL    HW119904   6.946   3.399   5.911
 6335SOL    HW219905   0.033   3.341   6.024
 6336SOL     OW19906   0.360   4.031   5.439
 6336SOL    HW119907   0.351   4.000   5.533
 6336SOL    HW219908   0.411   3.962   5.386
 6337SOL     OW19909   5.619   0.241   5.149
 6337SOL    HW119910   5.558   0.320   5.150
 6337SOL    HW219911   5.652   0.226   5.056
 6338SOL     OW19912   1.044   0.848   3.047
 6338SOL    HW119913   1.120   0.796   3.009
 6338SOL    HW219914   1.045   0.940   3.008
 6339SOL     OW19915   0.327   3.273   3.147
 6339SOL    HW119916   0.250   3.243   3.204
 6339SOL    HW219917   0.410   3.274   3.202
 6340SOL     OW19918   2.649   4.756   0.385
 6340SOL    HW119919   2.595   4.728   0.464
 6340SOL    HW219920   2.619   4.847   0.355
 6341SOL     OW19921   6.831   5.630   1.984
 6341SOL    HW119922   6.890   5.678   1.919
 6341SOL    HW219923   6.784   5.555   1.938
 6342SOL     OW19924   2.226   0.854   2.021
 6342SOL    HW119925   2.222   0.761   2.058
 6342SOL    HW219926   2.132   0.888   2.007
 6343SOL     OW19927   1.206   5.373   0.380
 6343SOL    HW119928   1.271   5.399   0.309
 6343SOL    HW219929   1.121   5.425   0.368
 6344SOL     OW19930   1.491   1.427   4.401
 6344SOL    HW119931   1.476   1.437   4.303
 6344SOL    HW219932   1.505   1.517   4.442
 6345SOL     OW19933   5.987   2.650   2.830
 6345SOL    HW119934   6.024   2.733   2.790
 6345SOL    HW219935   5.892   2.639   2.801
 6346SOL     OW19936   0.068   4.143   4.901
 6346SOL    HW119937   0.105   4.100   4.819
 6346SOL    HW219938   6.991   4.176   4.883
 6347SOL     OW19939   1.883   2.538   3.682
 6347SOL    HW119940   1.921   2.626   3.654
 6347SOL    HW219941   1.823   2.503   3.610
 6348SOL     OW19942   0.891   2.902   6.588
 6348SOL    HW119943   0.965   2.835   6.588
 6348SOL    HW219944   0.924   2.989   6.550
 6349SOL     OW19945   5.929   0.897   0.996
 6349SOL    HW119946   5.860   0.917   1.065
 6349SOL    HW219947   6.018   0.932   1.027
 6350SOL     OW19948   1.060   6.326   1.320
 6350SOL    HW119949   1.124   6.391   1.360
 6350SOL    HW219950   0.976   6.324   1.374
 6351SOL     OW19951   5.697   3.659   1.291
 6351SOL    HW119952   5.606   3.628   1.265
 6351SOL    HW219953   5.691   3.738   1.352
 6352SOL     OW19954   3.771   0.768   4.655
 6352SOL    HW119955   3.680   0.734   4.676
 6352SOL    HW219956   3.807   0.720   4.575
 6353SOL     OW19957   3.696   6.002   5.248
 6353SOL    HW119958   3.681   5.924   5.187
 6353SOL    HW219959   3.634   6.076   5.223
 6354SOL     OW19960   4.943   4.978   2.586
 6354SOL    HW119961   4.903   5.046   2.648
 6354SOL    HW219962   5.021   5.019   2.537
 6355SOL     OW19963   3.474   5.643   1.133
 6355SOL    HW119964   3.441   5.549   1.144
 6355SOL    HW219965   3.403   5.707   1.165
 6356SOL     OW19966   0.223   6.206   6.586
 6356SOL    HW119967   0.205   6.272   6.659
 6356SOL    HW219968   0.145   6.203   6.523
 6357SOL     OW19969   4.798   1.135   3.236
 6357SOL    HW119970   4.882   1.089   3.206
 6357SOL    HW219971   4.816   1.232   3.250
 6358SOL     OW19972   1.118   1.980   4.493
 6358SOL    HW119973   1.088   1.888   4.520
 6358SOL    HW219974   1.195   2.009   4.550
 6359SOL     OW19975   5.414   6.038   1.987
 6359SOL    HW119976   5.394   5.940   1.979
 6359SOL    HW219977   5.507   6.050   2.020
 6360SOL     OW19978   1.705   2.031   1.039
 6360SOL    HW119979   1.737   1.978   0.961
 6360SOL    HW219980   1.769   2.106   1.057
 6361SOL     OW19981   0.553   1.374   1.318
 6361SOL    HW119982   0.540   1.276   1.331
 6361SOL    HW219983   0.508   1.424   1.393
 6362SOL     OW19984   1.784   5.386   0.309
 6362SOL    HW119985   1.687   5.360   0.315
 6362SOL    HW219986   1.836   5.334   0.376
 6363SOL     OW19987   1.601   3.470   1.909
 6363SOL    HW119988   1.520   3.467   1.850
 6363SOL    HW219989   1.676   3.420   1.865
 6364SOL     OW19990   2.653   1.732   3.802
 6364SOL    HW119991   2.713   1.696   3.730
 6364SOL    HW219992   2.582   1.789   3.760
 6365SOL     OW19993   6.072   0.101   3.021
 6365SOL    HW119994   6.115   0.015   2.993
 6365SOL    HW219995   5.976   0.084   3.046
 6366SOL     OW19996   5.652   0.767   5.236
 6366SOL    HW119997   5.558   0.801   5.231
 6366SOL    HW219998   5.706   0.809   5.163
 6367SOL     OW19999   1.101   2.239   3.623
 6367SOL    HW120000   1.200   2.240   3.626
 6367SOL    HW220001   1.070   2.270   3.533
 6368SOL     OW20002   4.984   3.515   4.787
 6368SOL    HW120003   5.078   3.499   4.816
 6368SOL    HW220004   4.926   3.530   4.867
 6369SOL     OW20005   4.369   4.533   0.374
 6369SOL    HW120006   4.376   4.513   0.472
 6369SOL    HW220007   4.456   4.513   0.330
 6370SOL     OW20008   5.737   4.727   4.450
 6370SOL    HW120009   5.764   4.634   4.477
 6370SOL    HW220010   5.647   4.723   4.406
 6371SOL     OW20011   5.604   4.863   0.896
 6371SOL    HW120012   5.661   4.853   0.978
 6371SOL    HW220013   5.585   4.960   0.880
 6372SOL     OW20014   6.625   1.532   1.546
 6372SOL    HW120015   6.650   1.462   1.479
 6372SOL    HW220016   6.526   1.528   1.563
 6373SOL     OW20017   4.932   3.162   2.336
 6373SOL    HW120018   4.857   3.110   2.295
 6373SOL    HW220019   5.008   3.170   2.271
 6374SOL     OW20020   4.913   3.228   6.443
 6374SOL    HW120021   4.889   3.136   6.413
 6374SOL    HW220022   4.836   3.268   6.492
 6375SOL     OW20023   4.944   1.094   2.167
 6375SOL    HW120024   4.906   1.184   2.190
 6375SOL    HW220025   5.039   1.090   2.197
 6376SOL     OW20026   2.834   0.099   0.354
 6376SOL    HW120027   2.836   0.156   0.436
 6376SOL    HW220028   2.901   0.133   0.288
 6377SOL     OW20029   0.371   0.736   6.994
 6377SOL    HW120030   0.291   0.722   0.038
 6377SOL    HW220031   0.413   0.824   7.015
 6378SOL     OW20032   5.797   4.636   2.548
 6378SOL    HW120033   5.829   4.681   2.632
 6378SOL    HW220034   5.714   4.683   2.516
 6379SOL     OW20035   1.735   5.267   6.118
 6379SOL    HW120036   1.734   5.321   6.033
 6379SOL    HW220037   1.777   5.320   6.191
 6380SOL     OW20038   1.438   3.323   5.319
 6380SOL    HW120039   1.478   3.282   5.237
 6380SOL    HW220040   1.487   3.407   5.341
 6381SOL     OW20041   3.945   4.023   0.457
 6381SOL    HW120042   3.900   4.087   0.518
 6381SOL    HW220043   3.911   4.036   0.364
 6382SOL     OW20044   1.733   1.254   0.662
 6382SOL    HW120045   1.796   1.312   0.715
 6382SOL    HW220046   1.727   1.290   0.569
 6383SOL     OW20047   2.515   2.556   2.165
 6383SOL    HW120048   2.586   2.495   2.129
 6383SOL    HW220049   2.503   2.538   2.263
 6384SOL     OW20050   6.383   2.928   1.916
 6384SOL    HW120051   6.339   2.972   1.838
 6384SOL    HW220052   6.358   2.831   1.919
 6385SOL     OW20053   6.648   3.597   0.290
 6385SOL    HW120054   6.637   3.672   0.355
 6385SOL    HW220055   6.646   3.510   0.338
 6386SOL     OW20056   3.064   3.124   0.235
 6386SOL    HW120057   3.059   3.128   0.335
 6386SOL    HW220058   3.095   3.033   0.207
 6387SOL     OW20059   6.842   7.004   6.804
 6387SOL    HW120060   6.792   6.946   6.740
 6387SOL    HW220061   6.872   0.071   6.757
 6388SOL     OW20062   5.436   5.146   2.034
 6388SOL    HW120063   5.480   5.217   2.089
 6388SOL    HW220064   5.474   5.057   2.058
 6389SOL     OW20065   6.827   6.604   0.452
 6389SOL    HW120066   6.793   6.551   0.374
 6389SOL    HW220067   6.806   6.701   0.438
 6390SOL     OW20068   5.570   0.172   0.021
 6390SOL    HW120069   5.503   0.238   0.055
 6390SOL    HW220070   5.523   0.102   6.982
 6391SOL     OW20071   1.583   2.173   4.688
 6391SOL    HW120072   1.611   2.247   4.749
 6391SOL    HW220073   1.658   2.107   4.679
 6392SOL     OW20074   4.611   0.062   4.186
 6392SOL    HW120075   4.619   0.082   4.283
 6392SOL    HW220076   4.574   0.141   4.138
 6393SOL     OW20077   1.686   4.613   0.636
 6393SOL    HW120078   1.754   4.585   0.704
 6393SOL    HW220079   1.647   4.701   0.662
 6394SOL     OW20080   1.946   4.978   1.432
 6394SOL    HW120081   2.030   5.029   1.449
 6394SOL    HW220082   1.967   4.880   1.426
 6395SOL     OW20083   2.029   4.262   4.076
 6395SOL    HW120084   2.090   4.200   4.124
 6395SOL    HW220085   2.028   4.351   4.123
 6396SOL     OW20086   1.995   2.764   5.420
 6396SOL    HW120087   2.032   2.850   5.453
 6396SOL    HW220088   2.003   2.760   5.320
 6397SOL     OW20089   6.105   3.596   4.897
 6397SOL    HW120090   6.053   3.679   4.878
 6397SOL    HW220091   6.105   3.578   4.995
 6398SOL     OW20092   2.074   0.400   2.652
 6398SOL    HW120093   2.156   0.389   2.596
 6398SOL    HW220094   2.090   0.360   2.742
 6399SOL     OW20095   3.498   6.903   0.147
 6399SOL    HW120096   3.530   6.853   0.228
 6399SOL    HW220097   3.547   6.870   0.067
 6400SOL     OW20098   0.373   6.925   2.728
 6400SOL    HW120099   0.282   6.941   2.767
 6400SOL    HW220100   0.383   6.828   2.705
 6401SOL     OW20101   4.060   5.165   2.850
 6401SOL    HW120102   3.969   5.159   2.811
 6401SOL    HW220103   4.108   5.244   2.812
 6402SOL     OW20104   3.024   4.535   5.526
 6402SOL    HW120105   3.088   4.548   5.451
 6402SOL    HW220106   2.941   4.492   5.492
 6403SOL     OW20107   5.150   5.283   5.543
 6403SOL    HW120108   5.179   5.376   5.522
 6403SOL    HW220109   5.082   5.254   5.476
 6404SOL     OW20110   4.822   6.066   0.390
 6404SOL    HW120111   4.817   6.115   0.477
 6404SOL    HW220112   4.901   6.097   0.338
 6405SOL     OW20113   4.195   1.331   2.839
 6405SOL    HW120114   4.248   1.392   2.781
 6405SOL    HW220115   4.246   1.313   2.924
 6406SOL     OW20116   0.262   3.175   2.902
 6406SOL    HW120117   0.294   3.205   2.992
 6406SOL    HW220118   0.190   3.107   2.913
 6407SOL     OW20119   0.455   6.818   2.437
 6407SOL    HW120120   0.529   6.802   2.372
 6407SOL    HW220121   0.372   6.846   2.388
 6408SOL     OW20122   0.102   1.103   1.891
 6408SOL    HW120123   0.052   1.188   1.904
 6408SOL    HW220124   0.190   1.108   1.938
 6409SOL     OW20125   5.286   4.650   3.451
 6409SOL    HW120126   5.246   4.561   3.430
 6409SOL    HW220127   5.218   4.722   3.434
 6410SOL     OW20128   1.790   1.170   0.294
 6410SOL    HW120129   1.822   1.245   0.352
 6410SOL    HW220130   1.702   1.196   0.253
 6411SOL     OW20131   0.453   2.883   2.260
 6411SOL    HW120132   0.495   2.965   2.298
 6411SOL    HW220133   0.425   2.822   2.335
 6412SOL     OW20134   3.850   0.622   6.685
 6412SOL    HW120135   3.798   0.687   6.630
 6412SOL    HW220136   3.859   0.536   6.634
 6413SOL     OW20137   4.741   6.498   3.295
 6413SOL    HW120138   4.808   6.424   3.294
 6413SOL    HW220139   4.723   6.529   3.202
 6414SOL     OW20140   2.703   0.566   0.712
 6414SOL    HW120141   2.723   0.482   0.661
 6414SOL    HW220142   2.704   0.547   0.810
 6415SOL     OW20143   1.081   1.570   3.618
 6415SOL    HW120144   1.004   1.578   3.554
 6415SOL    HW220145   1.131   1.656   3.621
 6416SOL     OW20146   3.271   5.030   0.294
 6416SOL    HW120147   3.222   4.973   0.228
 6416SOL    HW220148   3.216   5.111   0.315
 6417SOL     OW20149   4.071   2.693   6.844
 6417SOL    HW120150   4.112   2.727   6.928
 6417SOL    HW220151   4.070   2.765   6.775
 6418SOL     OW20152   5.027   5.034   0.289
 6418SOL    HW120153   4.968   5.011   0.366
 6418SOL    HW220154   5.059   5.128   0.298
 6419SOL     OW20155   0.992   6.512   6.679
 6419SOL    HW120156   1.079   6.561   6.678
 6419SOL    HW220157   0.918   6.575   6.656
 6420SOL     OW20158   2.726   4.708   3.778
 6420SOL    HW120159   2.720   4.756   3.691
 6420SOL    HW220160   2.740   4.775   3.852
 6421SOL     OW20161   4.794   0.001   1.650
 6421SOL    HW120162   4.699   7.006   1.679
 6421SOL    HW220163   4.799   7.003   1.551
 6422SOL     OW20164   6.569   3.230   4.977
 6422SOL    HW120165   6.583   3.131   4.990
 6422SOL    HW220166   6.617   3.280   5.049
 6423SOL     OW20167   1.002   4.589   4.852
 6423SOL    HW120168   1.097   4.621   4.858
 6423SOL    HW220169   0.966   4.572   4.944
 6424SOL     OW20170   6.849   4.710   6.124
 6424SOL    HW120171   6.915   4.672   6.059
 6424SOL    HW220172   6.856   4.661   6.211
 6425SOL     OW20173   0.049   6.103   4.145
 6425SOL    HW120174   0.012   6.105   4.238
 6425SOL    HW220175   0.134   6.156   4.141
 6426SOL     OW20176   4.820   5.157   4.524
 6426SOL    HW120177   4.739   5.159   4.467
 6426SOL    HW220178   4.895   5.112   4.475
 6427SOL     OW20179   4.010   3.279   3.290
 6427SOL    HW120180   4.048   3.370   3.279
 6427SOL    HW220181   4.005   3.233   3.201
 6428SOL     OW20182   5.593   2.710   0.361
 6428SOL    HW120183   5.560   2.796   0.321
 6428SOL    HW220184   5.602   2.641   0.289
 6429SOL     OW20185   2.449   1.563   5.312
 6429SOL    HW120186   2.533   1.613   5.332
 6429SOL    HW220187   2.381   1.584   5.383
 6430SOL     OW20188   6.261   1.035   5.130
 6430SOL    HW120189   6.303   0.974   5.197
 6430SOL    HW220190   6.184   1.083   5.172
 6431SOL     OW20191   3.547   5.340   2.423
 6431SOL    HW120192   3.476   5.280   2.459
 6431SOL    HW220193   3.630   5.286   2.406
 6432SOL     OW20194   4.918   3.183   5.620
 6432SOL    HW120195   4.866   3.226   5.545
 6432SOL    HW220196   4.855   3.134   5.680
 6433SOL     OW20197   3.693   4.553   5.706
 6433SOL    HW120198   3.596   4.549   5.731
 6433SOL    HW220199   3.702   4.583   5.611
 6434SOL     OW20200   5.234   5.518   5.987
 6434SOL    HW120201   5.241   5.459   5.906
 6434SOL    HW220202   5.321   5.520   6.035
 6435SOL     OW20203   4.748   1.027   0.880
 6435SOL    HW120204   4.655   1.049   0.909
 6435SOL    HW220205   4.794   0.977   0.953
 6436SOL     OW20206   0.343   3.522   3.586
 6436SOL    HW120207   0.309   3.528   3.680
 6436SOL    HW220208   0.293   3.586   3.528
 6437SOL     OW20209   1.449   2.822   5.840
 6437SOL    HW120210   1.395   2.744   5.809
 6437SOL    HW220211   1.467   2.883   5.763
 6438SOL     OW20212   0.437   5.564   6.951
 6438SOL    HW120213   0.346   5.596   6.925
 6438SOL    HW220214   0.461   5.602   0.024
 6439SOL     OW20215   5.646   6.958   2.402
 6439SOL    HW120216   5.593   6.890   2.452
 6439SOL    HW220217   5.653   0.026   2.457
 6440SOL     OW20218   2.719   1.445   6.278
 6440SOL    HW120219   2.751   1.488   6.363
 6440SOL    HW220220   2.634   1.490   6.249
 6441SOL     OW20221   0.271   2.064   2.056
 6441SOL    HW120222   0.360   2.030   2.026
 6441SOL    HW220223   0.214   2.085   1.976
 6442SOL     OW20224   2.571   2.112   4.692
 6442SOL    HW120225   2.638   2.165   4.744
 6442SOL    HW220226   2.546   2.030   4.743
 6443SOL     OW20227   3.410   2.985   6.448
 6443SOL    HW120228   3.464   2.992   6.364
 6443SOL    HW220229   3.433   3.060   6.509
 6444SOL     OW20230   6.914   4.246   4.568
 6444SOL    HW120231   6.889   4.229   4.472
 6444SOL    HW220232   6.926   4.158   4.615
 6445SOL     OW20233   3.153   3.172   3.486
 6445SOL    HW120234   3.068   3.208   3.447
 6445SOL    HW220235   3.186   3.096   3.430
 6446SOL     OW20236   1.437   0.932   0.541
 6446SOL    HW120237   1.532   0.901   0.546
 6446SOL    HW220238   1.408   0.934   0.446
 6447SOL     OW20239   5.422   3.712   2.056
 6447SOL    HW120240   5.438   3.777   1.982
 6447SOL    HW220241   5.404   3.762   2.141
 6448SOL     OW20242   4.376   4.575   1.001
 6448SOL    HW120243   4.456   4.522   1.030
 6448SOL    HW220244   4.390   4.609   0.908
 6449SOL     OW20245   3.331   5.026   0.725
 6449SOL    HW120246   3.341   4.959   0.798
 6449SOL    HW220247   3.251   5.003   0.669
 6450SOL     OW20248   6.182   3.819   6.815
 6450SOL    HW120249   6.084   3.817   6.834
 6450SOL    HW220250   6.208   3.740   6.761
 6451SOL     OW20251   4.230   2.615   1.711
 6451SOL    HW120252   4.174   2.687   1.753
 6451SOL    HW220253   4.290   2.656   1.641
 6452SOL     OW20254   3.694   1.995   4.855
 6452SOL    HW120255   3.742   2.057   4.917
 6452SOL    HW220256   3.750   1.913   4.840
 6453SOL     OW20257   1.714   0.112   2.791
 6453SOL    HW120258   1.712   0.106   2.891
 6453SOL    HW220259   1.798   0.071   2.757
 6454SOL     OW20260   5.122   2.847   4.100
 6454SOL    HW120261   5.165   2.937   4.104
 6454SOL    HW220262   5.142   2.797   4.185
 6455SOL     OW20263   6.903   3.199   3.989
 6455SOL    HW120264   6.928   3.166   4.080
 6455SOL    HW220265   6.960   3.278   3.965
 6456SOL     OW20266   6.329   2.059   2.082
 6456SOL    HW120267   6.400   2.011   2.134
 6456SOL    HW220268   6.242   2.011   2.092
 6457SOL     OW20269   2.785   6.349   2.703
 6457SOL    HW120270   2.824   6.432   2.743
 6457SOL    HW220271   2.686   6.348   2.721
 6458SOL     OW20272   0.217   6.743   4.820
 6458SOL    HW120273   0.257   6.826   4.858
 6458SOL    HW220274   0.125   6.762   4.786
 6459SOL     OW20275   0.823   3.289   3.180
 6459SOL    HW120276   0.805   3.342   3.263
 6459SOL    HW220277   0.916   3.307   3.149
 6460SOL     OW20278   1.203   5.382   6.696
 6460SOL    HW120279   1.132   5.343   6.637
 6460SOL    HW220280   1.166   5.396   6.788
 6461SOL     OW20281   0.951   6.234   0.863
 6461SOL    HW120282   0.938   6.261   0.768
 6461SOL    HW220283   1.046   6.250   0.890
 6462SOL     OW20284   2.022   3.938   5.319
 6462SOL    HW120285   2.098   3.972   5.373
 6462SOL    HW220286   2.054   3.864   5.260
 6463SOL     OW20287   5.083   3.157   1.272
 6463SOL    HW120288   5.068   3.181   1.176
 6463SOL    HW220289   5.179   3.133   1.286
 6464SOL     OW20290   0.553   4.253   3.812
 6464SOL    HW120291   0.481   4.228   3.876
 6464SOL    HW220292   0.584   4.346   3.829
 6465SOL     OW20293   2.909   0.892   3.669
 6465SOL    HW120294   2.979   0.962   3.682
 6465SOL    HW220295   2.875   0.862   3.758
 6466SOL     OW20296   0.029   4.924   6.773
 6466SOL    HW120297   6.954   4.965   6.765
 6466SOL    HW220298   0.025   4.828   6.746
 6467SOL     OW20299   1.930   2.002   6.372
 6467SOL    HW120300   1.971   1.943   6.442
 6467SOL    HW220301   2.000   2.062   6.334
 6468SOL     OW20302   1.961   0.223   1.258
 6468SOL    HW120303   1.956   0.313   1.302
 6468SOL    HW220304   1.892   0.163   1.299
 6469SOL     OW20305   2.180   1.045   1.796
 6469SOL    HW120306   2.233   1.106   1.856
 6469SOL    HW220307   2.239   0.972   1.763
 6470SOL     OW20308   6.290   1.591   0.061
 6470SOL    HW120309   6.255   1.684   0.069
 6470SOL    HW220310   6.376   1.584   0.111
 6471SOL     OW20311   0.319   6.494   5.921
 6471SOL    HW120312   0.319   6.593   5.934
 6471SOL    HW220313   0.408   6.457   5.947
 6472SOL     OW20314   6.960   6.314   2.640
 6472SOL    HW120315   6.973   6.281   2.546
 6472SOL    HW220316   6.895   6.254   2.687
 6473SOL     OW20317   2.365   0.972   3.074
 6473SOL    HW120318   2.449   1.026   3.065
 6473SOL    HW220319   2.290   1.032   3.101
 6474SOL     OW20320   3.920   6.418   4.082
 6474SOL    HW120321   3.948   6.328   4.114
 6474SOL    HW220322   3.820   6.424   4.084
 6475SOL     OW20323   5.540   5.584   2.901
 6475SOL    HW120324   5.609   5.581   2.828
 6475SOL    HW220325   5.533   5.677   2.936
 6476SOL     OW20326   4.448   3.051   6.388
 6476SOL    HW120327   4.534   3.001   6.394
 6476SOL    HW220328   4.416   3.073   6.480
 6477SOL     OW20329   0.394   6.418   1.184
 6477SOL    HW120330   0.323   6.448   1.122
 6477SOL    HW220331   0.480   6.404   1.134
 6478SOL     OW20332   2.502   5.779   1.175
 6478SOL    HW120333   2.426   5.833   1.212
 6478SOL    HW220334   2.527   5.814   1.085
 6479SOL     OW20335   4.654   6.103   3.135
 6479SOL    HW120336   4.599   6.168   3.188
 6479SOL    HW220337   4.643   6.011   3.173
 6480SOL     OW20338   3.722   1.538   6.153
 6480SOL    HW120339   3.666   1.479   6.211
 6480SOL    HW220340   3.668   1.569   6.075
 6481SOL     OW20341   4.154   3.155   1.915
 6481SOL    HW120342   4.079   3.173   1.852
 6481SOL    HW220343   4.236   3.130   1.864
 6482SOL     OW20344   4.823   3.615   5.649
 6482SOL    HW120345   4.826   3.601   5.550
 6482SOL    HW220346   4.748   3.561   5.688
 6483SOL     OW20347   1.797   5.976   4.762
 6483SOL    HW120348   1.728   6.001   4.830
 6483SOL    HW220349   1.861   5.910   4.803
 6484SOL     OW20350   3.758   1.247   3.356
 6484SOL    HW120351   3.856   1.230   3.347
 6484SOL    HW220352   3.727   1.309   3.283
 6485SOL     OW20353   2.633   5.950   4.980
 6485SOL    HW120354   2.717   5.940   5.033
 6485SOL    HW220355   2.563   5.889   5.017
 6486SOL     OW20356   7.010   4.710   2.578
 6486SOL    HW120357   7.015   4.635   2.644
 6486SOL    HW220358   6.943   4.777   2.610
 6487SOL     OW20359   6.570   5.319   3.738
 6487SOL    HW120360   6.589   5.352   3.831
 6487SOL    HW220361   6.648   5.341   3.679
 6488SOL     OW20362   3.433   5.185   4.176
 6488SOL    HW120363   3.481   5.210   4.260
 6488SOL    HW220364   3.471   5.236   4.099
 6489SOL     OW20365   5.421   3.144   4.614
 6489SOL    HW120366   5.352   3.175   4.549
 6489SOL    HW220367   5.394   3.055   4.651
 6490SOL     OW20368   2.258   2.403   0.247
 6490SOL    HW120369   2.179   2.378   0.192
 6490SOL    HW220370   2.231   2.470   0.316
 6491SOL     OW20371   1.717   6.557   1.698
 6491SOL    HW120372   1.680   6.477   1.744
 6491SOL    HW220373   1.769   6.612   1.763
 6492SOL     OW20374   4.133   3.699   4.136
 6492SOL    HW120375   4.070   3.775   4.117
 6492SOL    HW220376   4.192   3.684   4.056
 6493SOL     OW20377   1.376   4.424   4.141
 6493SOL    HW120378   1.439   4.468   4.205
 6493SOL    HW220379   1.410   4.434   4.048
 6494SOL     OW20380   6.716   1.073   1.372
 6494SOL    HW120381   6.806   1.035   1.393
 6494SOL    HW220382   6.671   1.016   1.302
 6495SOL     OW20383   6.803   6.839   3.325
 6495SOL    HW120384   6.873   6.906   3.352
 6495SOL    HW220385   6.833   6.792   3.242
 6496SOL     OW20386   3.305   2.060   1.832
 6496SOL    HW120387   3.292   1.973   1.783
 6496SOL    HW220388   3.373   2.048   1.904
 6497SOL     OW20389   6.991   1.364   0.779
 6497SOL    HW120390   7.000   1.312   0.864
 6497SOL    HW220391   0.062   1.360   0.729
 6498SOL     OW20392   2.349   4.216   4.299
 6498SOL    HW120393   2.359   4.268   4.385
 6498SOL    HW220394   2.395   4.265   4.226
 6499SOL     OW20395   4.638   2.325   3.370
 6499SOL    HW120396   4.712   2.260   3.356
 6499SOL    HW220397   4.647   2.367   3.460
 6500SOL     OW20398   1.199   3.830   3.655
 6500SOL    HW120399   1.207   3.886   3.572
 6500SOL    HW220400   1.152   3.745   3.634
 6501SOL     OW20401   6.135   1.425   3.187
 6501SOL    HW120402   6.090   1.341   3.155
 6501SOL    HW220403   6.074   1.473   3.250
 6502SOL     OW20404   0.368   3.405   1.741
 6502SOL    HW120405   0.302   3.481   1.740
 6502SOL    HW220406   0.329   3.327   1.693
 6503SOL     OW20407   6.636   3.378   5.639
 6503SOL    HW120408   6.664   3.337   5.553
 6503SOL    HW220409   6.551   3.430   5.625
 6504SOL     OW20410   3.431   0.099   6.312
 6504SOL    HW120411   3.457   0.019   6.366
 6504SOL    HW220412   3.362   0.073   6.244
 6505SOL     OW20413   0.184   6.544   0.936
 6505SOL    HW120414   0.244   6.506   0.866
 6505SOL    HW220415   0.103   6.583   0.893
 6506SOL     OW20416   0.614   3.668   2.138
 6506SOL    HW120417   0.690   3.728   2.114
 6506SOL    HW220418   0.647   3.593   2.194
 6507SOL     OW20419   3.997   5.420   1.025
 6507SOL    HW120420   4.083   5.446   0.981
 6507SOL    HW220421   4.015   5.399   1.122
 6508SOL     OW20422   7.008   1.068   3.587
 6508SOL    HW120423   0.043   1.111   3.663
 6508SOL    HW220424   7.006   0.969   3.601
 6509SOL     OW20425   2.667   1.883   0.165
 6509SOL    HW120426   2.626   1.795   0.186
 6509SOL    HW220427   2.659   1.901   0.067
 6510SOL     OW20428   3.217   5.377   4.796
 6510SOL    HW120429   3.155   5.387   4.718
 6510SOL    HW220430   3.267   5.463   4.810
 6511SOL     OW20431   2.931   2.259   0.159
 6511SOL    HW120432   2.938   2.177   0.102
 6511SOL    HW220433   2.932   2.232   0.256
 6512SOL     OW20434   4.824   0.638   0.163
 6512SOL    HW120435   4.870   0.605   0.245
 6512SOL    HW220436   4.885   0.628   0.084
 6513SOL     OW20437   2.594   4.654   2.840
 6513SOL    HW120438   2.505   4.662   2.795
 6513SOL    HW220439   2.645   4.578   2.800
 6514SOL     OW20440   5.068   6.299   5.535
 6514SOL    HW120441   5.079   6.202   5.516
 6514SOL    HW220442   5.051   6.348   5.450
 6515SOL     OW20443   0.830   4.861   2.896
 6515SOL    HW120444   0.829   4.791   2.967
 6515SOL    HW220445   0.760   4.930   2.916
 6516SOL     OW20446   6.624   2.439   2.645
 6516SOL    HW120447   6.585   2.449   2.736
 6516SOL    HW220448   6.639   2.342   2.625
 6517SOL     OW20449   6.492   3.875   0.275
 6517SOL    HW120450   6.555   3.836   0.342
 6517SOL    HW220451   6.439   3.947   0.317
 6518SOL     OW20452   1.032   0.863   1.907
 6518SOL    HW120453   1.098   0.937   1.920
 6518SOL    HW220454   1.036   0.801   1.985
 6519SOL     OW20455   1.410   1.119   2.911
 6519SOL    HW120456   1.310   1.109   2.909
 6519SOL    HW220457   1.434   1.210   2.946
 6520SOL     OW20458   6.641   5.313   0.329
 6520SOL    HW120459   6.652   5.354   0.420
 6520SOL    HW220460   6.709   5.354   0.266
 6521SOL     OW20461   1.802   4.829   3.998
 6521SOL    HW120462   1.847   4.785   3.921
 6521SOL    HW220463   1.705   4.806   3.998
 6522SOL     OW20464   2.670   3.006   5.316
 6522SOL    HW120465   2.640   3.042   5.405
 6522SOL    HW220466   2.606   3.035   5.245
 6523SOL     OW20467   6.360   6.508   0.956
 6523SOL    HW120468   6.333   6.416   0.987
 6523SOL    HW220469   6.445   6.534   1.002
 6524SOL     OW20470   2.982   3.047   1.290
 6524SOL    HW120471   2.928   2.965   1.311
 6524SOL    HW220472   2.931   3.103   1.224
 6525SOL     OW20473   1.349   4.770   3.616
 6525SOL    HW120474   1.443   4.805   3.621
 6525SOL    HW220475   1.317   4.748   3.708
 6526SOL     OW20476   0.119   6.324   0.585
 6526SOL    HW120477   0.128   6.279   0.674
 6526SOL    HW220478   0.037   6.289   0.539
 6527SOL     OW20479   6.274   1.551   1.078
 6527SOL    HW120480   6.224   1.469   1.049
 6527SOL    HW220481   6.319   1.534   1.165
 6528SOL     OW20482   4.434   6.527   0.305
 6528SOL    HW120483   4.378   6.455   0.263
 6528SOL    HW220484   4.514   6.486   0.347
 6529SOL     OW20485   4.702   0.431   2.099
 6529SOL    HW120486   4.633   0.458   2.167
 6529SOL    HW220487   4.763   0.508   2.082
 6530SOL     OW20488   0.595   2.535   3.453
 6530SOL    HW120489   0.555   2.479   3.525
 6530SOL    HW220490   0.522   2.578   3.399
 6531SOL     OW20491   3.904   3.863   4.092
 6531SOL    HW120492   3.865   3.953   4.073
 6531SOL    HW220493   3.838   3.809   4.146
 6532SOL     OW20494   0.934   6.279   0.585
 6532SOL    HW120495   0.858   6.221   0.558
 6532SOL    HW220496   1.021   6.236   0.558
 6533SOL     OW20497   4.705   4.677   1.588
 6533SOL    HW120498   4.734   4.586   1.559
 6533SOL    HW220499   4.784   4.729   1.620
 6534SOL     OW20500   0.020   4.459   3.070
 6534SOL    HW120501   0.116   4.481   3.088
 6534SOL    HW220502   6.983   4.467   3.154
 6535SOL     OW20503   5.151   4.122   5.445
 6535SOL    HW120504   5.106   4.032   5.452
 6535SOL    HW220505   5.169   4.157   5.537
 6536SOL     OW20506   0.328   4.462   5.749
 6536SOL    HW120507   0.312   4.489   5.844
 6536SOL    HW220508   0.421   4.488   5.722
 6537SOL     OW20509   6.996   5.490   3.601
 6537SOL    HW120510   7.013   5.510   3.698
 6537SOL    HW220511   6.900   5.466   3.588
 6538SOL     OW20512   0.749   2.530   4.354
 6538SOL    HW120513   0.781   2.466   4.284
 6538SOL    HW220514   0.667   2.494   4.398
 6539SOL     OW20515   4.303   6.631   6.303
 6539SOL    HW120516   4.377   6.656   6.241
 6539SOL    HW220517   4.255   6.713   6.333
 6540SOL     OW20518   0.048   2.510   5.797
 6540SOL    HW120519   0.014   2.445   5.865
 6540SOL    HW220520   0.002   2.598   5.808
 6541SOL     OW20521   4.717   1.756   5.532
 6541SOL    HW120522   4.672   1.702   5.461
 6541SOL    HW220523   4.720   1.703   5.617
 6542SOL     OW20524   1.815   3.940   2.698
 6542SOL    HW120525   1.812   3.884   2.615
 6542SOL    HW220526   1.821   4.037   2.672
 6543SOL     OW20527   3.687   1.420   4.772
 6543SOL    HW120528   3.700   1.475   4.854
 6543SOL    HW220529   3.767   1.362   4.757
 6544SOL     OW20530   0.652   0.292   0.617
 6544SOL    HW120531   0.661   0.203   0.572
 6544SOL    HW220532   0.633   0.363   0.549
 6545SOL     OW20533   5.102   6.181   1.334
 6545SOL    HW120534   5.144   6.133   1.411
 6545SOL    HW220535   5.045   6.118   1.282
 6546SOL     OW20536   4.969   4.977   5.851
 6546SOL    HW120537   5.065   4.988   5.875
 6546SOL    HW220538   4.931   4.899   5.901
 6547SOL     OW20539   0.924   6.117   5.352
 6547SOL    HW120540   0.905   6.098   5.256
 6547SOL    HW220541   0.978   6.201   5.359
 6548SOL     OW20542   0.710   1.843   5.968
 6548SOL    HW120543   0.747   1.806   5.883
 6548SOL    HW220544   0.620   1.803   5.986
 6549SOL     OW20545   3.909   1.860   2.862
 6549SOL    HW120546   3.919   1.952   2.823
 6549SOL    HW220547   3.999   1.826   2.890
 6550SOL     OW20548   6.074   6.419   2.400
 6550SOL    HW120549   6.156   6.456   2.445
 6550SOL    HW220550   6.052   6.476   2.320
 6551SOL     OW20551   2.780   4.744   0.838
 6551SOL    HW120552   2.788   4.657   0.887
 6551SOL    HW220553   2.863   4.761   0.786
 6552SOL     OW20554   1.890   4.791   7.013
 6552SOL    HW120555   1.875   4.792   6.914
 6552SOL    HW220556   1.811   4.750   0.042
 6553SOL     OW20557   0.645   2.003   3.500
 6553SOL    HW120558   0.662   1.966   3.591
 6553SOL    HW220559   0.669   1.935   3.431
 6554SOL     OW20560   1.504   2.678   4.097
 6554SOL    HW120561   1.483   2.623   4.178
 6554SOL    HW220562   1.444   2.758   4.096
 6555SOL     OW20563   1.062   3.630   4.669
 6555SOL    HW120564   1.060   3.554   4.734
 6555SOL    HW220565   1.068   3.716   4.719
 6556SOL     OW20566   4.595   2.580   2.631
 6556SOL    HW120567   4.593   2.652   2.701
 6556SOL    HW220568   4.638   2.616   2.548
 6557SOL     OW20569   2.382   1.062   2.046
 6557SOL    HW120570   2.329   0.979   2.025
 6557SOL    HW220571   2.419   1.055   2.138
 6558SOL     OW20572   5.464   5.961   0.773
 6558SOL    HW120573   5.544   5.913   0.739
 6558SOL    HW220574   5.479   6.060   0.765
 6559SOL     OW20575   6.944   2.420   6.079
 6559SOL    HW120576   6.914   2.421   6.175
 6559SOL    HW220577   6.866   2.397   6.020
 6560SOL     OW20578   6.237   4.620   6.833
 6560SOL    HW120579   6.301   4.553   6.872
 6560SOL    HW220580   6.211   4.592   6.741
 6561SOL     OW20581   2.667   4.045   0.483
 6561SOL    HW120582   2.692   3.990   0.563
 6561SOL    HW220583   2.573   4.078   0.493
 6562SOL     OW20584   4.848   2.704   1.736
 6562SOL    HW120585   4.825   2.716   1.832
 6562SOL    HW220586   4.948   2.705   1.725
 6563SOL     OW20587   6.474   5.164   5.403
 6563SOL    HW120588   6.530   5.179   5.485
 6563SOL    HW220589   6.465   5.066   5.387
 6564SOL     OW20590   5.548   3.329   2.365
 6564SOL    HW120591   5.560   3.260   2.436
 6564SOL    HW220592   5.510   3.287   2.283
 6565SOL     OW20593   5.213   6.839   2.342
 6565SOL    HW120594   5.231   6.931   2.308
 6565SOL    HW220595   5.259   6.826   2.430
 6566SOL     OW20596   5.128   5.543   4.020
 6566SOL    HW120597   5.078   5.512   4.101
 6566SOL    HW220598   5.094   5.497   3.939
 6567SOL     OW20599   3.809   0.380   2.305
 6567SOL    HW120600   3.885   0.360   2.367
 6567SOL    HW220601   3.812   0.319   2.226
 6568SOL     OW20602   4.941   1.150   0.744
 6568SOL    HW120603   4.851   1.119   0.775
 6568SOL    HW220604   5.011   1.088   0.781
 6569SOL     OW20605   1.236   5.007   4.157
 6569SOL    HW120606   1.153   5.028   4.210
 6569SOL    HW220607   1.245   4.908   4.147
 6570SOL     OW20608   4.359   0.266   2.361
 6570SOL    HW120609   4.326   0.221   2.277
 6570SOL    HW220610   4.280   0.296   2.415
 6571SOL     OW20611   3.203   6.296   3.419
 6571SOL    HW120612   3.254   6.377   3.391
 6571SOL    HW220613   3.126   6.323   3.477
 6572SOL     OW20614   2.056   6.045   3.708
 6572SOL    HW120615   2.098   6.096   3.783
 6572SOL    HW220616   1.957   6.060   3.708
 6573SOL     OW20617   6.934   2.035   3.312
 6573SOL    HW120618   6.836   2.021   3.300
 6573SOL    HW220619   6.950   2.095   3.390
 6574SOL     OW20620   1.409   4.475   1.994
 6574SOL    HW120621   1.495   4.507   1.954
 6574SOL    HW220622   1.427   4.399   2.056
 6575SOL     OW20623   6.962   1.487   3.477
 6575SOL    HW120624   6.896   1.444   3.539
 6575SOL    HW220625   0.001   1.416   3.432
 6576SOL     OW20626   4.113   0.147   1.534
 6576SOL    HW120627   4.118   0.244   1.558
 6576SOL    HW220628   4.041   0.132   1.467
 6577SOL     OW20629   3.597   1.122   4.464
 6577SOL    HW120630   3.575   1.068   4.546
 6577SOL    HW220631   3.518   1.124   4.403
 6578SOL     OW20632   1.440   4.741   1.015
 6578SOL    HW120633   1.530   4.710   0.982
 6578SOL    HW220634   1.416   4.690   1.098
 6579SOL     OW20635   1.341   1.128   3.606
 6579SOL    HW120636   1.345   1.228   3.603
 6579SOL    HW220637   1.329   1.098   3.701
 6580SOL     OW20638   2.658   2.107   0.330
 6580SOL    HW120639   2.654   2.032   0.265
 6580SOL    HW220640   2.610   2.187   0.292
 6581SOL     OW20641   0.836   2.282   0.879
 6581SOL    HW120642   0.839   2.190   0.919
 6581SOL    HW220643   0.927   2.323   0.885
 6582SOL     OW20644   5.507   0.808   3.110
 6582SOL    HW120645   5.449   0.808   3.192
 6582SOL    HW220646   5.459   0.764   3.035
 6583SOL     OW20647   2.986   4.193   0.371
 6583SOL    HW120648   3.062   4.258   0.370
 6583SOL    HW220649   2.904   4.239   0.406
 6584SOL     OW20650   4.269   1.948   6.496
 6584SOL    HW120651   4.329   1.915   6.423
 6584SOL    HW220652   4.314   2.024   6.544
 6585SOL     OW20653   5.791   0.213   1.873
 6585SOL    HW120654   5.785   0.282   1.801
 6585SOL    HW220655   5.788   0.259   1.963
 6586SOL     OW20656   6.695   1.204   6.513
 6586SOL    HW120657   6.701   1.286   6.455
 6586SOL    HW220658   6.777   1.198   6.571
 6587SOL     OW20659   2.803   5.019   4.748
 6587SOL    HW120660   2.765   4.955   4.814
 6587SOL    HW220661   2.895   5.045   4.776
 6588SOL     OW20662   0.702   1.799   0.321
 6588SOL    HW120663   0.789   1.824   0.364
 6588SOL    HW220664   0.679   1.865   0.250
 6589SOL     OW20665   6.762   6.644   1.744
 6589SOL    HW120666   6.669   6.681   1.744
 6589SOL    HW220667   6.775   6.587   1.663
 6590SOL     OW20668   1.337   6.303   4.610
 6590SOL    HW120669   1.397   6.375   4.644
 6590SOL    HW220670   1.258   6.345   4.565
 6591SOL     OW20671   6.316   3.261   3.817
 6591SOL    HW120672   6.310   3.270   3.717
 6591SOL    HW220673   6.403   3.220   3.842
 6592SOL     OW20674   6.354   0.170   3.896
 6592SOL    HW120675   6.423   0.220   3.949
 6592SOL    HW220676   6.267   0.171   3.944
 6593SOL     OW20677   2.330   1.412   1.942
 6593SOL    HW120678   2.407   1.448   1.995
 6593SOL    HW220679   2.264   1.370   2.003
 6594SOL     OW20680   5.137   6.672   0.072
 6594SOL    HW120681   5.186   6.615   0.137
 6594SOL    HW220682   5.089   6.745   0.121
 6595SOL     OW20683   1.050   1.814   5.121
 6595SOL    HW120684   0.997   1.895   5.097
 6595SOL    HW220685   1.127   1.804   5.058
 6596SOL     OW20686   5.145   1.147   2.382
 6596SOL    HW120687   5.228   1.095   2.364
 6596SOL    HW220688   5.136   1.163   2.481
 6597SOL     OW20689   0.952   4.548   1.099
 6597SOL    HW120690   1.020   4.499   1.046
 6597SOL    HW220691   0.860   4.518   1.073
 6598SOL     OW20692   1.332   5.185   3.399
 6598SOL    HW120693   1.421   5.172   3.357
 6598SOL    HW220694   1.343   5.191   3.498
 6599SOL     OW20695   0.332   5.712   6.136
 6599SOL    HW120696   0.261   5.780   6.115
 6599SOL    HW220697   0.422   5.753   6.121
 6600SOL     OW20698   4.629   0.025   5.111
 6600SOL    HW120699   4.563   6.975   5.147
 6600SOL    HW220700   4.699   6.993   5.058
 6601SOL     OW20701   1.372   2.487   1.902
 6601SOL    HW120702   1.371   2.554   1.976
 6601SOL    HW220703   1.441   2.418   1.920
 6602SOL     OW20704   6.948   5.613   1.332
 6602SOL    HW120705   6.947   5.516   1.307
 6602SOL    HW220706   7.013   5.661   1.273
 6603SOL     OW20707   0.277   4.494   1.984
 6603SOL    HW120708   0.197   4.489   2.042
 6603SOL    HW220709   0.358   4.467   2.036
 6604SOL     OW20710   1.840   5.534   3.371
 6604SOL    HW120711   1.828   5.588   3.454
 6604SOL    HW220712   1.937   5.534   3.345
 6605SOL     OW20713   0.030   5.450   0.937
 6605SOL    HW120714   7.011   5.417   1.024
 6605SOL    HW220715   7.002   5.399   0.862
 6606SOL     OW20716   1.623   3.897   2.869
 6606SOL    HW120717   1.637   3.839   2.949
 6606SOL    HW220718   1.711   3.908   2.821
 6607SOL     OW20719   6.449   3.024   4.153
 6607SOL    HW120720   6.523   2.985   4.207
 6607SOL    HW220721   6.395   3.085   4.211
 6608SOL     OW20722   1.264   0.135   5.887
 6608SOL    HW120723   1.194   0.162   5.821
 6608SOL    HW220724   1.291   0.215   5.942
 6609SOL     OW20725   3.816   2.312   6.759
 6609SOL    HW120726   3.796   2.233   6.701
 6609SOL    HW220727   3.752   2.386   6.737
 6610SOL     OW20728   3.057   5.896   1.091
 6610SOL    HW120729   3.054   5.897   0.991
 6610SOL    HW220730   3.000   5.971   1.126
 6611SOL     OW20731   2.964   1.915   4.719
 6611SOL    HW120732   2.911   1.902   4.635
 6611SOL    HW220733   3.000   1.827   4.749
 6612SOL     OW20734   0.990   0.134   0.101
 6612SOL    HW120735   1.072   0.147   0.156
 6612SOL    HW220736   1.008   0.163   0.007
 6613SOL     OW20737   4.845   6.280   0.592
 6613SOL    HW120738   4.785   6.313   0.665
 6613SOL    HW220739   4.922   6.343   0.581
 6614SOL     OW20740   4.087   4.853   0.997
 6614SOL    HW120741   4.036   4.939   1.002
 6614SOL    HW220742   4.185   4.874   0.988
 6615SOL     OW20743   3.618   5.579   5.777
 6615SOL    HW120744   3.617   5.511   5.850
 6615SOL    HW220745   3.639   5.535   5.690
 6616SOL     OW20746   4.124   1.011   6.944
 6616SOL    HW120747   4.065   1.044   0.002
 6616SOL    HW220748   4.176   1.088   6.906
 6617SOL     OW20749   3.406   0.620   3.774
 6617SOL    HW120750   3.386   0.657   3.683
 6617SOL    HW220751   3.469   0.681   3.821
 6618SOL     OW20752   5.999   2.002   4.458
 6618SOL    HW120753   6.050   2.032   4.378
 6618SOL    HW220754   5.902   1.996   4.436
 6619SOL     OW20755   5.083   5.236   3.993
 6619SOL    HW120756   5.041   5.271   4.077
 6619SOL    HW220757   5.039   5.278   3.914
 6620SOL     OW20758   1.117   2.742   3.379
 6620SOL    HW120759   1.146   2.797   3.458
 6620SOL    HW220760   1.048   2.792   3.326
 6621SOL     OW20761   3.011   3.464   4.072
 6621SOL    HW120762   2.962   3.508   4.147
 6621SOL    HW220763   2.960   3.383   4.042
 6622SOL     OW20764   6.941   5.033   0.932
 6622SOL    HW120765   6.862   5.053   0.991
 6622SOL    HW220766   0.005   5.014   0.989
 6623SOL     OW20767   3.284   4.161   3.991
 6623SOL    HW120768   3.292   4.207   4.079
 6623SOL    HW220769   3.269   4.063   4.006
 6624SOL     OW20770   2.648   2.453   2.728
 6624SOL    HW120771   2.669   2.392   2.651
 6624SOL    HW220772   2.701   2.424   2.808
 6625SOL     OW20773   6.849   3.996   5.696
 6625SOL    HW120774   6.896   3.914   5.729
 6625SOL    HW220775   6.892   4.077   5.734
 6626SOL     OW20776   3.366   5.559   5.355
 6626SOL    HW120777   3.406   5.647   5.380
 6626SOL    HW220778   3.374   5.545   5.257
 6627SOL     OW20779   2.498   6.261   4.364
 6627SOL    HW120780   2.585   6.221   4.392
 6627SOL    HW220781   2.441   6.277   4.444
 6628SOL     OW20782   3.850   6.895   3.405
 6628SOL    HW120783   3.891   6.986   3.416
 6628SOL    HW220784   3.808   6.866   3.491
 6629SOL     OW20785   5.080   5.407   5.134
 6629SOL    HW120786   5.082   5.491   5.188
 6629SOL    HW220787   5.174   5.378   5.114
 6630SOL     OW20788   1.672   0.825   0.458
 6630SOL    HW120789   1.750   0.860   0.406
 6630SOL    HW220790   1.704   0.777   0.539
 6631SOL     OW20791   2.237   2.979   5.880
 6631SOL    HW120792   2.285   2.936   5.803
 6631SOL    HW220793   2.304   3.023   5.940
 6632SOL     OW20794   1.344   0.374   6.611
 6632SOL    HW120795   1.434   0.341   6.639
 6632SOL    HW220796   1.283   0.375   6.690
 6633SOL     OW20797   4.295   5.694   6.243
 6633SOL    HW120798   4.287   5.794   6.243
 6633SOL    HW220799   4.367   5.666   6.179
 6634SOL     OW20800   3.709   2.142   4.140
 6634SOL    HW120801   3.769   2.131   4.061
 6634SOL    HW220802   3.623   2.183   4.111
 6635SOL     OW20803   5.337   5.255   5.226
 6635SOL    HW120804   5.374   5.298   5.144
 6635SOL    HW220805   5.406   5.257   5.298
 6636SOL     OW20806   4.425   1.093   6.855
 6636SOL    HW120807   4.524   1.094   6.841
 6636SOL    HW220808   4.398   1.004   6.892
 6637SOL     OW20809   6.997   2.236   6.907
 6637SOL    HW120810   6.902   2.207   6.905
 6637SOL    HW220811   0.011   2.259   6.814
 6638SOL     OW20812   3.070   3.879   3.683
 6638SOL    HW120813   3.043   3.854   3.777
 6638SOL    HW220814   3.157   3.835   3.660
 6639SOL     OW20815   5.245   2.361   1.623
 6639SOL    HW120816   5.304   2.365   1.543
 6639SOL    HW220817   5.275   2.428   1.690
 6640SOL     OW20818   1.506   4.225   4.835
 6640SOL    HW120819   1.516   4.143   4.891
 6640SOL    HW220820   1.410   4.235   4.809
 6641SOL     OW20821   5.829   2.363   0.054
 6641SOL    HW120822   5.779   2.431   0.000
 6641SOL    HW220823   5.841   2.396   0.147
 6642SOL     OW20824   1.560   5.824   0.069
 6642SOL    HW120825   1.483   5.887   0.063
 6642SOL    HW220826   1.554   5.772   0.154
 6643SOL     OW20827   3.362   6.196   6.400
 6643SOL    HW120828   3.286   6.214   6.464
 6643SOL    HW220829   3.435   6.263   6.415
 6644SOL     OW20830   2.495   6.905   3.855
 6644SOL    HW120831   2.548   6.909   3.940
 6644SOL    HW220832   2.480   6.997   3.821
 6645SOL     OW20833   5.203   2.629   5.925
 6645SOL    HW120834   5.142   2.707   5.912
 6645SOL    HW220835   5.228   2.622   6.022
 6646SOL     OW20836   3.874   6.723   5.285
 6646SOL    HW120837   3.878   6.822   5.290
 6646SOL    HW220838   3.784   6.691   5.313
 6647SOL     OW20839   3.979   4.667   0.433
 6647SOL    HW120840   3.957   4.713   0.347
 6647SOL    HW220841   3.997   4.735   0.504
 6648SOL     OW20842   2.994   5.556   5.071
 6648SOL    HW120843   3.050   5.483   5.110
 6648SOL    HW220844   2.908   5.517   5.038
 6649SOL     OW20845   4.661   2.653   6.173
 6649SOL    HW120846   4.700   2.639   6.082
 6649SOL    HW220847   4.710   2.728   6.219
 6650SOL     OW20848   1.664   1.289   5.498
 6650SOL    HW120849   1.678   1.289   5.597
 6650SOL    HW220850   1.658   1.195   5.465
 6651SOL     OW20851   6.970   1.792   5.736
 6651SOL    HW120852   6.994   1.840   5.651
 6651SOL    HW220853   6.887   1.738   5.721
 6652SOL     OW20854   0.008   4.676   0.180
 6652SOL    HW120855   6.978   4.685   0.269
 6652SOL    HW220856   0.031   4.766   0.144
 6653SOL     OW20857   5.811   4.439   6.823
 6653SOL    HW120858   5.826   4.515   6.760
 6653SOL    HW220859   5.784   4.358   6.771
 6654SOL     OW20860   6.353   3.327   3.540
 6654SOL    HW120861   6.410   3.246   3.527
 6654SOL    HW220862   6.408   3.409   3.527
 6655SOL     OW20863   0.159   6.147   1.686
 6655SOL    HW120864   0.060   6.160   1.696
 6655SOL    HW220865   0.202   6.234   1.665
 6656SOL     OW20866   4.039   1.410   3.157
 6656SOL    HW120867   3.985   1.329   3.132
 6656SOL    HW220868   4.026   1.481   3.088
 6657SOL     OW20869   5.408   1.228   4.653
 6657SOL    HW120870   5.397   1.168   4.574
 6657SOL    HW220871   5.333   1.295   4.654
 6658SOL     OW20872   6.766   6.013   5.489
 6658SOL    HW120873   6.704   6.071   5.541
 6658SOL    HW220874   6.805   6.065   5.413
 6659SOL     OW20875   0.749   5.449   1.238
 6659SOL    HW120876   0.721   5.446   1.143
 6659SOL    HW220877   0.671   5.429   1.298
 6660SOL     OW20878   0.151   0.045   4.708
 6660SOL    HW120879   0.228   0.066   4.647
 6660SOL    HW220880   0.172   0.076   4.801
 6661SOL     OW20881   4.180   5.775   3.758
 6661SOL    HW120882   4.197   5.873   3.757
 6661SOL    HW220883   4.092   5.756   3.802
 6662SOL     OW20884   3.642   6.530   2.614
 6662SOL    HW120885   3.660   6.628   2.614
 6662SOL    HW220886   3.543   6.514   2.623
 6663SOL     OW20887   1.064   4.424   6.063
 6663SOL    HW120888   1.137   4.485   6.092
 6663SOL    HW220889   1.085   4.388   5.972
 6664SOL     OW20890   3.109   0.464   1.584
 6664SOL    HW120891   3.207   0.465   1.603
 6664SOL    HW220892   3.066   0.390   1.636
 6665SOL     OW20893   2.771   0.642   6.824
 6665SOL    HW120894   2.840   0.656   6.753
 6665SOL    HW220895   2.732   0.550   6.816
 6666SOL     OW20896   4.013   6.064   4.990
 6666SOL    HW120897   3.970   6.078   5.079
 6666SOL    HW220898   3.984   5.977   4.952
 6667SOL     OW20899   1.111   5.779   6.358
 6667SOL    HW120900   1.096   5.878   6.352
 6667SOL    HW220901   1.200   5.757   6.318
 6668SOL     OW20902   0.215   4.158   0.259
 6668SOL    HW120903   0.176   4.067   0.248
 6668SOL    HW220904   0.279   4.157   0.336
 6669SOL     OW20905   1.849   2.250   3.352
 6669SOL    HW120906   1.946   2.263   3.333
 6669SOL    HW220907   1.807   2.339   3.370
 6670SOL     OW20908   3.656   3.409   0.252
 6670SOL    HW120909   3.710   3.431   0.333
 6670SOL    HW220910   3.661   3.485   0.187
 6671SOL     OW20911   4.626   5.072   0.056
 6671SOL    HW120912   4.725   5.067   0.054
 6671SOL    HW220913   4.588   4.984   0.084
 6672SOL     OW20914   1.308   2.133   1.519
 6672SOL    HW120915   1.327   2.218   1.569
 6672SOL    HW220916   1.241   2.150   1.447
 6673SOL     OW20917   6.421   2.684   4.005
 6673SOL    HW120918   6.360   2.606   4.021
 6673SOL    HW220919   6.379   2.767   4.042
 6674SOL     OW20920   0.221   1.073   0.727
 6674SOL    HW120921   0.321   1.075   0.721
 6674SOL    HW220922   0.182   1.068   0.635
 6675SOL     OW20923   4.969   0.371   7.007
 6675SOL    HW120924   4.995   0.424   0.072
 6675SOL    HW220925   5.051   0.345   6.956
 6676SOL     OW20926   0.742   3.811   4.525
 6676SOL    HW120927   0.717   3.901   4.489
 6676SOL    HW220928   0.715   3.804   4.621
 6677SOL     OW20929   0.534   1.746   6.303
 6677SOL    HW120930   0.626   1.716   6.280
 6677SOL    HW220931   0.536   1.800   6.387
 6678SOL     OW20932   3.177   4.504   6.374
 6678SOL    HW120933   3.122   4.569   6.322
 6678SOL    HW220934   3.207   4.545   6.460
 6679SOL     OW20935   1.688   0.386   3.882
 6679SOL    HW120936   1.742   0.433   3.811
 6679SOL    HW220937   1.658   0.297   3.847
 6680SOL     OW20938   6.598   5.512   1.208
 6680SOL    HW120939   6.608   5.549   1.301
 6680SOL    HW220940   6.579   5.586   1.144
 6681SOL     OW20941   3.086   6.062   1.771
 6681SOL    HW120942   3.090   6.005   1.853
 6681SOL    HW220943   3.050   6.008   1.695
 6682SOL     OW20944   3.305   5.559   5.623
 6682SOL    HW120945   3.333   5.644   5.666
 6682SOL    HW220946   3.340   5.555   5.529
 6683SOL     OW20947   6.893   5.247   5.620
 6683SOL    HW120948   6.857   5.281   5.707
 6683SOL    HW220949   6.993   5.249   5.622
 6684SOL     OW20950   2.711   5.831   6.851
 6684SOL    HW120951   2.775   5.764   6.890
 6684SOL    HW220952   2.758   5.885   6.781
 6685SOL     OW20953   4.889   2.859   1.023
 6685SOL    HW120954   4.964   2.796   1.045
 6685SOL    HW220955   4.806   2.807   1.004
 6686SOL     OW20956   5.076   4.984   4.925
 6686SOL    HW120957   5.061   4.941   5.014
 6686SOL    HW220958   4.996   5.039   4.901
 6687SOL     OW20959   0.104   1.316   1.599
 6687SOL    HW120960   0.152   1.395   1.638
 6687SOL    HW220961   0.019   1.301   1.649
 6688SOL     OW20962   4.117   5.061   0.177
 6688SOL    HW120963   4.201   5.075   0.229
 6688SOL    HW220964   4.135   5.081   0.080
 6689SOL     OW20965   2.898   4.052   5.663
 6689SOL    HW120966   2.990   4.033   5.628
 6689SOL    HW220967   2.852   4.117   5.603
 6690SOL     OW20968   0.741   0.587   6.884
 6690SOL    HW120969   0.756   0.631   6.795
 6690SOL    HW220970   0.643   0.573   6.897
 6691SOL     OW20971   2.911   1.823   2.280
 6691SOL    HW120972   2.986   1.805   2.216
 6691SOL    HW220973   2.846   1.886   2.239
 6692SOL     OW20974   4.291   5.588   2.605
 6692SOL    HW120975   4.243   5.500   2.616
 6692SOL    HW220976   4.232   5.662   2.638
 6693SOL     OW20977   3.392   1.063   5.542
 6693SOL    HW120978   3.308   1.109   5.513
 6693SOL    HW220979   3.413   0.988   5.480
 6694SOL     OW20980   4.324   4.046   1.171
 6694SOL    HW120981   4.269   4.119   1.132
 6694SOL    HW220982   4.412   4.082   1.201
 6695SOL     OW20983   2.526   2.301   0.567
 6695SOL    HW120984   2.528   2.302   0.467
 6695SOL    HW220985   2.438   2.335   0.599
 6696SOL     OW20986   4.115   3.397   4.446
 6696SOL    HW120987   4.105   3.494   4.423
 6696SOL    HW220988   4.114   3.342   4.363
 6697SOL     OW20989   4.618   2.174   2.202
 6697SOL    HW120990   4.540   2.236   2.212
 6697SOL    HW220991   4.586   2.084   2.173
 6698SOL     OW20992   3.898   4.337   1.545
 6698SOL    HW120993   3.856   4.246   1.548
 6698SOL    HW220994   3.861   4.394   1.619
 6699SOL     OW20995   1.343   3.262   5.832
 6699SOL    HW120996   1.441   3.284   5.831
 6699SOL    HW220997   1.298   3.309   5.756
 6700SOL     OW20998   5.806   0.034   0.999
 6700SOL    HW120999   5.751   0.115   1.022
 6700SOL    HW221000   5.752   6.967   1.015
 6701SOL     OW21001   6.158   6.730   1.807
 6701SOL    HW121002   6.098   6.652   1.792
 6701SOL    HW221003   6.252   6.705   1.783
 6702SOL     OW21004   3.633   3.017   0.888
 6702SOL    HW121005   3.722   3.020   0.934
 6702SOL    HW221006   3.640   2.960   0.806
 6703SOL     OW21007   0.210   1.234   0.268
 6703SOL    HW121008   0.245   1.283   0.188
 6703SOL    HW221009   0.261   1.262   0.350
 6704SOL     OW21010   3.385   6.793   5.619
 6704SOL    HW121011   3.393   6.782   5.718
 6704SOL    HW221012   3.332   6.717   5.581
 6705SOL     OW21013   0.230   4.400   2.358
 6705SOL    HW121014   0.167   4.345   2.412
 6705SOL    HW221015   0.312   4.347   2.339
 6706SOL     OW21016   0.448   6.704   1.320
 6706SOL    HW121017   0.459   6.677   1.224
 6706SOL    HW221018   0.425   6.801   1.325
 6707SOL     OW21019   4.131   1.271   2.535
 6707SOL    HW121020   4.184   1.327   2.472
 6707SOL    HW221021   4.073   1.330   2.592
 6708SOL     OW21022   0.821   3.235   0.054
 6708SOL    HW121023   0.740   3.294   0.062
 6708SOL    HW221024   0.814   3.160   0.119
 6709SOL     OW21025   2.445   4.406   2.401
 6709SOL    HW121026   2.374   4.455   2.351
 6709SOL    HW221027   2.533   4.420   2.356
 6710SOL     OW21028   4.621   1.369   1.065
 6710SOL    HW121029   4.522   1.376   1.055
 6710SOL    HW221030   4.664   1.365   0.974
 6711SOL     OW21031   3.367   6.006   6.186
 6711SOL    HW121032   3.318   5.942   6.246
 6711SOL    HW221033   3.392   6.088   6.238
 6712SOL     OW21034   5.389   4.716   1.194
 6712SOL    HW121035   5.326   4.706   1.271
 6712SOL    HW221036   5.483   4.704   1.226
 6713SOL     OW21037   1.265   4.987   4.566
 6713SOL    HW121038   1.351   5.037   4.555
 6713SOL    HW221039   1.201   5.016   4.495
 6714SOL     OW21040   5.506   1.197   1.583
 6714SOL    HW121041   5.529   1.116   1.529
 6714SOL    HW221042   5.542   1.188   1.675
 6715SOL     OW21043   1.732   0.330   6.212
 6715SOL    HW121044   1.657   0.392   6.234
 6715SOL    HW221045   1.732   0.254   6.277
 6716SOL     OW21046   0.439   5.991   2.130
 6716SOL    HW121047   0.488   6.030   2.208
 6716SOL    HW221048   0.400   5.902   2.157
 6717SOL     OW21049   5.897   1.737   5.805
 6717SOL    HW121050   5.906   1.642   5.838
 6717SOL    HW221051   5.985   1.783   5.814
 6718SOL     OW21052   4.931   1.287   1.036
 6718SOL    HW121053   4.928   1.230   0.954
 6718SOL    HW221054   4.888   1.375   1.017
 6719SOL     OW21055   1.786   1.604   0.219
 6719SOL    HW121056   1.702   1.622   0.168
 6719SOL    HW221057   1.849   1.550   0.162
 6720SOL     OW21058   1.277   0.956   6.145
 6720SOL    HW121059   1.225   1.018   6.085
 6720SOL    HW221060   1.217   0.881   6.174
 6721SOL     OW21061   6.228   6.774   1.204
 6721SOL    HW121062   6.253   6.855   1.151
 6721SOL    HW221063   6.183   6.707   1.144
 6722SOL     OW21064   5.502   3.454   0.040
 6722SOL    HW121065   5.503   3.508   6.972
 6722SOL    HW221066   5.584   3.473   0.093
 6723SOL     OW21067   0.949   3.253   5.836
 6723SOL    HW121068   1.013   3.180   5.812
 6723SOL    HW221069   0.857   3.214   5.848
 6724SOL     OW21070   2.165   3.585   4.212
 6724SOL    HW121071   2.165   3.594   4.113
 6724SOL    HW221072   2.141   3.492   4.238
 6725SOL     OW21073   5.426   2.775   3.613
 6725SOL    HW121074   5.522   2.765   3.639
 6725SOL    HW221075   5.403   2.706   3.545
 6726SOL     OW21076   0.569   0.700   6.137
 6726SOL    HW121077   0.532   0.642   6.210
 6726SOL    HW221078   0.494   0.751   6.094
 6727SOL     OW21079   1.576   5.200   5.425
 6727SOL    HW121080   1.487   5.211   5.380
 6727SOL    HW221081   1.611   5.108   5.408
 6728SOL     OW21082   3.848   1.324   3.677
 6728SOL    HW121083   3.874   1.322   3.580
 6728SOL    HW221084   3.904   1.259   3.728
 6729SOL     OW21085   4.114   1.013   2.464
 6729SOL    HW121086   4.117   0.991   2.366
 6729SOL    HW221087   4.129   1.112   2.476
 6730SOL     OW21088   6.999   1.807   0.888
 6730SOL    HW121089   0.029   1.894   0.866
 6730SOL    HW221090   0.051   1.740   0.918
 6731SOL     OW21091   3.830   0.337   5.992
 6731SOL    HW121092   3.900   0.265   5.984
 6731SOL    HW221093   3.866   0.412   6.048
 6732SOL     OW21094   6.914   4.908   5.596
 6732SOL    HW121095   6.992   4.845   5.598
 6732SOL    HW221096   6.930   4.983   5.661
 6733SOL     OW21097   4.763   4.877   5.257
 6733SOL    HW121098   4.763   4.901   5.354
 6733SOL    HW221099   4.855   4.887   5.220
 6734SOL     OW21100   6.166   1.844   4.589
 6734SOL    HW121101   6.099   1.918   4.583
 6734SOL    HW221102   6.136   1.767   4.532
 6735SOL     OW21103   6.498   2.465   3.214
 6735SOL    HW121104   6.416   2.522   3.219
 6735SOL    HW221105   6.578   2.519   3.241
 6736SOL     OW21106   3.884   3.610   0.872
 6736SOL    HW121107   3.923   3.520   0.851
 6736SOL    HW221108   3.800   3.623   0.819
 6737SOL     OW21109   6.654   3.819   0.486
 6737SOL    HW121110   6.738   3.868   0.510
 6737SOL    HW221111   6.637   3.747   0.553
 6738SOL     OW21112   1.743   5.738   4.139
 6738SOL    HW121113   1.779   5.825   4.173
 6738SOL    HW221114   1.797   5.662   4.176
 6739SOL     OW21115   0.210   0.359   5.443
 6739SOL    HW121116   0.130   0.301   5.457
 6739SOL    HW221117   0.216   0.386   5.347
 6740SOL     OW21118   0.135   7.001   2.834
 6740SOL    HW121119   0.103   0.008   2.742
 6740SOL    HW221120   0.057   6.993   2.896
 6741SOL     OW21121   3.603   1.903   0.397
 6741SOL    HW121122   3.510   1.924   0.428
 6741SOL    HW221123   3.600   1.832   0.327
 6742SOL     OW21124   5.643   4.329   3.287
 6742SOL    HW121125   5.624   4.427   3.291
 6742SOL    HW221126   5.684   4.300   3.374
 6743SOL     OW21127   3.963   3.729   0.564
 6743SOL    HW121128   3.951   3.811   0.509
 6743SOL    HW221129   3.938   3.748   0.659
 6744SOL     OW21130   6.064   6.661   6.125
 6744SOL    HW121131   6.086   6.664   6.223
 6744SOL    HW221132   6.041   6.567   6.099
 6745SOL     OW21133   0.190   4.303   5.103
 6745SOL    HW121134   0.153   4.258   5.184
 6745SOL    HW221135   0.125   4.293   5.027
 6746SOL     OW21136   1.094   2.402   2.780
 6746SOL    HW121137   1.158   2.464   2.734
 6746SOL    HW221138   1.032   2.362   2.713
 6747SOL     OW21139   0.992   6.115   5.717
 6747SOL    HW121140   0.953   6.192   5.666
 6747SOL    HW221141   0.920   6.050   5.739
 6748SOL     OW21142   1.873   0.828   4.813
 6748SOL    HW121143   1.895   0.781   4.898
 6748SOL    HW221144   1.955   0.830   4.754
 6749SOL     OW21145   4.458   4.984   2.137
 6749SOL    HW121146   4.405   5.066   2.115
 6749SOL    HW221147   4.399   4.916   2.181
 6750SOL     OW21148   3.437   1.030   5.158
 6750SOL    HW121149   3.530   1.031   5.120
 6750SOL    HW221150   3.428   0.955   5.223
 6751SOL     OW21151   4.313   0.172   4.646
 6751SOL    HW121152   4.346   0.265   4.634
 6751SOL    HW221153   4.302   0.153   4.744
 6752SOL     OW21154   1.844   4.520   2.386
 6752SOL    HW121155   1.860   4.453   2.459
 6752SOL    HW221156   1.755   4.503   2.344
 6753SOL     OW21157   4.007   3.087   6.449
 6753SOL    HW121158   4.012   3.167   6.510
 6753SOL    HW221159   4.098   3.067   6.413
 6754SOL     OW21160   6.101   1.584   0.482
 6754SOL    HW121161   6.094   1.683   0.477
 6754SOL    HW221162   6.102   1.545   0.390
 6755SOL     OW21163   2.895   5.843   6.331
 6755SOL    HW121164   2.969   5.805   6.387
 6755SOL    HW221165   2.808   5.830   6.378
 6756SOL     OW21166   3.645   2.558   6.546
 6756SOL    HW121167   3.662   2.629   6.615
 6756SOL    HW221168   3.730   2.537   6.498
 6757SOL     OW21169   4.105   0.550   1.196
 6757SOL    HW121170   4.023   0.493   1.190
 6757SOL    HW221171   4.156   0.544   1.111
 6758SOL     OW21172   5.380   2.381   3.161
 6758SOL    HW121173   5.396   2.412   3.254
 6758SOL    HW221174   5.408   2.452   3.097
 6759SOL     OW21175   0.714   1.710   2.667
 6759SOL    HW121176   0.623   1.701   2.625
 6759SOL    HW221177   0.713   1.785   2.733
 6760SOL     OW21178   5.339   2.110   4.642
 6760SOL    HW121179   5.273   2.165   4.590
 6760SOL    HW221180   5.420   2.165   4.661
 6761SOL     OW21181   3.247   1.512   5.078
 6761SOL    HW121182   3.306   1.550   5.150
 6761SOL    HW221183   3.219   1.420   5.103
 6762SOL     OW21184   6.853   5.295   4.483
 6762SOL    HW121185   6.937   5.241   4.495
 6762SOL    HW221186   6.846   5.361   4.558
 6763SOL     OW21187   5.970   6.199   4.788
 6763SOL    HW121188   5.873   6.204   4.765
 6763SOL    HW221189   6.000   6.285   4.828
 6764SOL     OW21190   0.797   4.832   1.141
 6764SOL    HW121191   0.772   4.908   1.202
 6764SOL    HW221192   0.848   4.763   1.193
 6765SOL     OW21193   0.164   3.838   2.783
 6765SOL    HW121194   0.090   3.830   2.715
 6765SOL    HW221195   0.250   3.807   2.743
 6766SOL     OW21196   5.638   0.543   1.452
 6766SOL    HW121197   5.669   0.592   1.371
 6766SOL    HW221198   5.674   0.450   1.452
 6767SOL     OW21199   3.040   0.305   0.664
 6767SOL    HW121200   3.046   0.395   0.707
 6767SOL    HW221201   2.961   0.256   0.700
 6768SOL     OW21202   1.660   0.694   0.148
 6768SOL    HW121203   1.652   0.606   0.102
 6768SOL    HW221204   1.729   0.689   0.220
 6769SOL     OW21205   4.406   2.731   1.547
 6769SOL    HW121206   4.438   2.636   1.542
 6769SOL    HW221207   4.480   2.789   1.583
 6770SOL     OW21208   0.076   0.916   1.673
 6770SOL    HW121209   0.077   0.973   1.755
 6770SOL    HW221210   6.999   0.886   1.654
 6771SOL     OW21211   4.695   1.619   3.260
 6771SOL    HW121212   4.611   1.606   3.208
 6771SOL    HW221213   4.770   1.641   3.197
 6772SOL     OW21214   3.273   1.453   3.732
 6772SOL    HW121215   3.202   1.436   3.801
 6772SOL    HW221216   3.349   1.503   3.773
 6773SOL     OW21217   0.414   3.882   1.122
 6773SOL    HW121218   0.493   3.873   1.182
 6773SOL    HW221219   0.356   3.800   1.130
 6774SOL     OW21220   0.493   2.303   6.373
 6774SOL    HW121221   0.429   2.230   6.349
 6774SOL    HW221222   0.443   2.387   6.391
 6775SOL     OW21223   2.208   4.693   6.995
 6775SOL    HW121224   2.278   4.714   0.049
 6775SOL    HW221225   2.126   4.748   7.013
 6776SOL     OW21226   5.790   5.622   0.008
 6776SOL    HW121227   5.834   5.628   6.934
 6776SOL    HW221228   5.795   5.529   0.042
 6777SOL     OW21229   5.025   5.150   6.472
 6777SOL    HW121230   5.000   5.071   6.417
 6777SOL    HW221231   5.125   5.154   6.481
 6778SOL     OW21232   0.135   5.920   2.864
 6778SOL    HW121233   0.073   5.968   2.926
 6778SOL    HW221234   0.092   5.910   2.775
 6779SOL     OW21235   0.432   4.468   0.225
 6779SOL    HW121236   0.367   4.447   0.298
 6779SOL    HW221237   0.417   4.406   0.148
 6780SOL     OW21238   0.514   2.665   2.081
 6780SOL    HW121239   0.586   2.707   2.026
 6780SOL    HW221240   0.478   2.732   2.145
 6781SOL     OW21241   6.151   4.810   5.905
 6781SOL    HW121242   6.226   4.788   5.843
 6781SOL    HW221243   6.123   4.905   5.890
 6782SOL     OW21244   6.118   1.611   2.499
 6782SOL    HW121245   6.156   1.703   2.502
 6782SOL    HW221246   6.172   1.554   2.437
 6783SOL     OW21247   0.484   6.113   6.919
 6783SOL    HW121248   0.428   6.170   6.979
 6783SOL    HW221249   0.448   6.020   6.919
 6784SOL     OW21250   3.615   3.207   0.089
 6784SOL    HW121251   3.628   3.275   0.161
 6784SOL    HW221252   3.552   3.136   0.121
 6785SOL     OW21253   5.744   6.362   1.940
 6785SOL    HW121254   5.651   6.396   1.959
 6785SOL    HW221255   5.741   6.299   1.862
 6786SOL     OW21256   1.796   3.024   6.481
 6786SOL    HW121257   1.808   3.086   6.559
 6786SOL    HW221258   1.880   3.021   6.427
 6787SOL     OW21259   1.220   3.665   1.884
 6787SOL    HW121260   1.182   3.634   1.971
 6787SOL    HW221261   1.310   3.705   1.900
 6788SOL     OW21262   2.762   4.523   0.996
 6788SOL    HW121263   2.847   4.560   1.034
 6788SOL    HW221264   2.715   4.469   1.066
 6789SOL     OW21265   0.062   6.594   3.263
 6789SOL    HW121266   0.139   6.583   3.201
 6789SOL    HW221267   0.058   6.516   3.325
 6790SOL     OW21268   1.709   3.447   0.059
 6790SOL    HW121269   1.696   3.363   0.006
 6790SOL    HW221270   1.727   3.523   7.011
 6791SOL     OW21271   3.913   3.618   6.458
 6791SOL    HW121272   3.844   3.551   6.487
 6791SOL    HW221273   3.873   3.681   6.391
 6792SOL     OW21274   0.309   4.978   0.576
 6792SOL    HW121275   0.241   5.045   0.607
 6792SOL    HW221276   0.384   5.025   0.530
 6793SOL     OW21277   6.308   1.741   0.896
 6793SOL    HW121278   6.295   1.657   0.948
 6793SOL    HW221279   6.221   1.771   0.859
 6794SOL     OW21280   4.570   1.091   5.046
 6794SOL    HW121281   4.635   1.136   4.985
 6794SOL    HW221282   4.516   1.160   5.094
 6795SOL     OW21283   2.849   6.129   0.100
 6795SOL    HW121284   2.891   6.215   0.128
 6795SOL    HW221285   2.853   6.063   0.175
 6796SOL     OW21286   4.318   2.180   3.021
 6796SOL    HW121287   4.240   2.183   3.084
 6796SOL    HW221288   4.291   2.138   2.935
 6797SOL     OW21289   6.896   3.297   2.421
 6797SOL    HW121290   6.806   3.339   2.433
 6797SOL    HW221291   6.925   3.255   2.507
 6798SOL     OW21292   6.255   6.541   2.104
 6798SOL    HW121293   6.187   6.520   2.033
 6798SOL    HW221294   6.246   6.637   2.131
 6799SOL     OW21295   5.347   6.124   1.703
 6799SOL    HW121296   5.398   6.052   1.657
 6799SOL    HW221297   5.367   6.121   1.801
 6800SOL     OW21298   3.201   4.738   6.873
 6800SOL    HW121299   3.221   4.640   6.882
 6800SOL    HW221300   3.197   4.779   6.964
 6801SOL     OW21301   1.753   1.999   2.706
 6801SOL    HW121302   1.815   1.936   2.753
 6801SOL    HW221303   1.771   2.093   2.736
 6802SOL     OW21304   2.183   5.526   2.502
 6802SOL    HW121305   2.170   5.493   2.409
 6802SOL    HW221306   2.231   5.456   2.555
 6803SOL     OW21307   5.200   2.845   0.461
 6803SOL    HW121308   5.169   2.888   0.545
 6803SOL    HW221309   5.184   2.746   0.466
 6804SOL     OW21310   1.396   0.058   4.031
 6804SOL    HW121311   1.329   7.010   3.992
 6804SOL    HW221312   1.364   0.152   4.019
 6805SOL     OW21313   5.447   0.572   4.316
 6805SOL    HW121314   5.390   0.490   4.308
 6805SOL    HW221315   5.411   0.631   4.388
 6806SOL     OW21316   4.495   0.355   5.573
 6806SOL    HW121317   4.522   0.339   5.668
 6806SOL    HW221318   4.556   0.305   5.512
 6807SOL     OW21319   3.173   2.907   0.114
 6807SOL    HW121320   3.208   2.907   0.020
 6807SOL    HW221321   3.116   2.826   0.128
 6808SOL     OW21322   2.000   3.119   4.919
 6808SOL    HW121323   2.032   3.150   5.008
 6808SOL    HW221324   2.079   3.095   4.862
 6809SOL     OW21325   1.680   3.857   6.787
 6809SOL    HW121326   1.645   3.863   6.881
 6809SOL    HW221327   1.605   3.873   6.723
 6810SOL     OW21328   5.660   1.508   2.553
 6810SOL    HW121329   5.659   1.607   2.543
 6810SOL    HW221330   5.723   1.469   2.485
 6811SOL     OW21331   4.986   5.444   1.484
 6811SOL    HW121332   5.062   5.380   1.501
 6811SOL    HW221333   4.923   5.403   1.418
 6812SOL     OW21334   3.480   2.841   2.494
 6812SOL    HW121335   3.552   2.799   2.439
 6812SOL    HW221336   3.447   2.923   2.447
 6813SOL     OW21337   4.515   3.876   1.336
 6813SOL    HW121338   4.419   3.897   1.317
 6813SOL    HW221339   4.538   3.905   1.429
 6814SOL     OW21340   2.360   4.180   0.239
 6814SOL    HW121341   2.349   4.110   0.169
 6814SOL    HW221342   2.425   4.249   0.208
 6815SOL     OW21343   2.223   6.906   2.216
 6815SOL    HW121344   2.219   6.965   2.136
 6815SOL    HW221345   2.183   6.953   2.295
 6816SOL     OW21346   6.442   4.260   1.482
 6816SOL    HW121347   6.344   4.242   1.476
 6816SOL    HW221348   6.471   4.310   1.400
 6817SOL     OW21349   0.183   1.810   5.912
 6817SOL    HW121350   0.098   1.776   5.872
 6817SOL    HW221351   0.238   1.734   5.944
 6818SOL     OW21352   3.161   5.836   2.589
 6818SOL    HW121353   3.164   5.931   2.558
 6818SOL    HW221354   3.068   5.801   2.581
 6819SOL     OW21355   2.974   1.037   3.931
 6819SOL    HW121356   2.989   1.068   4.026
 6819SOL    HW221357   2.975   1.116   3.870
 6820SOL     OW21358   1.057   4.089   3.888
 6820SOL    HW121359   1.056   4.006   3.833
 6820SOL    HW221360   1.022   4.165   3.833
 6821SOL     OW21361   2.202   1.950   4.703
 6821SOL    HW121362   2.161   1.902   4.626
 6821SOL    HW221363   2.223   1.885   4.776
 6822SOL     OW21364   4.924   2.410   5.735
 6822SOL    HW121365   4.951   2.367   5.821
 6822SOL    HW221366   4.827   2.435   5.739
 6823SOL     OW21367   3.203   2.903   1.917
 6823SOL    HW121368   3.143   2.852   1.855
 6823SOL    HW221369   3.296   2.904   1.881
 6824SOL     OW21370   1.411   4.391   6.358
 6824SOL    HW121371   1.444   4.449   6.433
 6824SOL    HW221372   1.380   4.448   6.283
 6825SOL     OW21373   4.813   0.027   3.959
 6825SOL    HW121374   4.737   0.041   4.022
 6825SOL    HW221375   4.803   6.954   3.913
 6826SOL     OW21376   1.370   3.082   2.938
 6826SOL    HW121377   1.352   3.173   2.975
 6826SOL    HW221378   1.425   3.030   3.002
 6827SOL     OW21379   5.675   6.271   4.838
 6827SOL    HW121380   5.668   6.212   4.919
 6827SOL    HW221381   5.707   6.361   4.866
 6828SOL     OW21382   1.484   2.463   1.376
 6828SOL    HW121383   1.422   2.425   1.308
 6828SOL    HW221384   1.577   2.430   1.359
 6829SOL     OW21385   4.682   5.403   3.838
 6829SOL    HW121386   4.670   5.492   3.793
 6829SOL    HW221387   4.598   5.350   3.830
 6830SOL     OW21388   5.503   1.981   3.883
 6830SOL    HW121389   5.547   1.893   3.865
 6830SOL    HW221390   5.403   1.968   3.883
 6831SOL     OW21391   0.255   1.187   6.070
 6831SOL    HW121392   0.227   1.134   5.990
 6831SOL    HW221393   0.333   1.245   6.045
 6832SOL     OW21394   3.052   5.026   2.451
 6832SOL    HW121395   2.994   5.082   2.392
 6832SOL    HW221396   3.091   4.951   2.398
 6833SOL     OW21397   3.793   5.405   0.347
 6833SOL    HW121398   3.827   5.313   0.326
 6833SOL    HW221399   3.724   5.400   0.419
 6834SOL     OW21400   3.967   5.120   2.499
 6834SOL    HW121401   3.901   5.093   2.428
 6834SOL    HW221402   4.044   5.056   2.499
 6835SOL     OW21403   4.026   6.530   4.674
 6835SOL    HW121404   3.935   6.567   4.656
 6835SOL    HW221405   4.020   6.457   4.742
 6836SOL     OW21406   3.349   5.917   6.879
 6836SOL    HW121407   3.416   5.927   6.952
 6836SOL    HW221408   3.353   5.824   6.843
 6837SOL     OW21409   1.109   2.904   2.048
 6837SOL    HW121410   1.209   2.899   2.048
 6837SOL    HW221411   1.071   2.817   2.016
 6838SOL     OW21412   2.382   1.705   7.004
 6838SOL    HW121413   2.404   1.664   0.077
 6838SOL    HW221414   2.384   1.805   7.011
 6839SOL     OW21415   4.026   0.853   1.084
 6839SOL    HW121416   4.064   0.781   1.142
 6839SOL    HW221417   3.968   0.812   1.013
 6840SOL     OW21418   1.078   1.775   6.416
 6840SOL    HW121419   1.102   1.763   6.319
 6840SOL    HW221420   1.046   1.869   6.430
 6841SOL     OW21421   6.619   3.887   6.381
 6841SOL    HW121422   6.638   3.904   6.478
 6841SOL    HW221423   6.701   3.907   6.327
 6842SOL     OW21424   1.932   4.467   2.952
 6842SOL    HW121425   1.968   4.452   3.045
 6842SOL    HW221426   1.837   4.495   2.958
 6843SOL     OW21427   4.140   6.484   7.001
 6843SOL    HW121428   4.106   6.423   0.057
 6843SOL    HW221429   4.191   6.559   0.027
 6844SOL     OW21430   5.148   0.381   5.638
 6844SOL    HW121431   5.117   0.456   5.696
 6844SOL    HW221432   5.164   0.299   5.693
 6845SOL     OW21433   5.277   1.749   2.175
 6845SOL    HW121434   5.316   1.834   2.210
 6845SOL    HW221435   5.243   1.764   2.083
 6846SOL     OW21436   2.322   3.778   0.090
 6846SOL    HW121437   2.399   3.799   0.150
 6846SOL    HW221438   2.237   3.785   0.142
 6847SOL     OW21439   6.830   3.581   3.945
 6847SOL    HW121440   6.759   3.514   3.965
 6847SOL    HW221441   6.789   3.663   3.906
 6848SOL     OW21442   6.086   4.300   3.296
 6848SOL    HW121443   6.110   4.388   3.337
 6848SOL    HW221444   6.024   4.316   3.219
 6849SOL     OW21445   2.639   4.090   6.547
 6849SOL    HW121446   2.602   4.118   6.459
 6849SOL    HW221447   2.571   4.035   6.596
 6850SOL     OW21448   4.269   1.435   4.381
 6850SOL    HW121449   4.191   1.459   4.438
 6850SOL    HW221450   4.241   1.432   4.285
 6851SOL     OW21451   2.141   3.301   3.332
 6851SOL    HW121452   2.140   3.398   3.358
 6851SOL    HW221453   2.144   3.244   3.414
 6852SOL     OW21454   2.895   4.368   0.059
 6852SOL    HW121455   2.804   4.333   0.082
 6852SOL    HW221456   2.909   4.456   0.105
 6853SOL     OW21457   4.944   3.842   6.401
 6853SOL    HW121458   5.012   3.914   6.402
 6853SOL    HW221459   4.989   3.753   6.398
 6854SOL     OW21460   5.562   6.002   6.395
 6854SOL    HW121461   5.587   5.982   6.300
 6854SOL    HW221462   5.563   5.918   6.449
 6855SOL     OW21463   4.190   5.016   3.657
 6855SOL    HW121464   4.259   5.082   3.628
 6855SOL    HW221465   4.226   4.923   3.649
 6856SOL     OW21466   0.162   1.882   6.214
 6856SOL    HW121467   0.132   1.934   6.134
 6856SOL    HW221468   0.124   1.789   6.209
 6857SOL     OW21469   1.025   3.812   5.355
 6857SOL    HW121470   1.026   3.837   5.258
 6857SOL    HW221471   1.089   3.737   5.371
 6858SOL     OW21472   2.368   3.692   1.681
 6858SOL    HW121473   2.344   3.629   1.755
 6858SOL    HW221474   2.284   3.725   1.638
 6859SOL     OW21475   1.834   1.601   2.518
 6859SOL    HW121476   1.932   1.614   2.506
 6859SOL    HW221477   1.785   1.668   2.462
 6860SOL     OW21478   0.760   6.522   1.852
 6860SOL    HW121479   0.805   6.433   1.840
 6860SOL    HW221480   0.782   6.580   1.774
 6861SOL     OW21481   6.107   2.967   5.695
 6861SOL    HW121482   6.199   2.951   5.659
 6861SOL    HW221483   6.113   2.995   5.791
 6862SOL     OW21484   0.606   4.291   4.555
 6862SOL    HW121485   0.598   4.383   4.517
 6862SOL    HW221486   0.689   4.247   4.520
 6863SOL     OW21487   5.983   0.934   5.426
 6863SOL    HW121488   6.034   0.850   5.441
 6863SOL    HW221489   5.998   0.967   5.333
 6864SOL     OW21490   1.189   3.883   5.863
 6864SOL    HW121491   1.126   3.955   5.835
 6864SOL    HW221492   1.165   3.850   5.954
 6865SOL     OW21493   2.363   0.294   3.511
 6865SOL    HW121494   2.363   0.357   3.589
 6865SOL    HW221495   2.449   0.305   3.460
 6866SOL     OW21496   1.513   5.022   0.497
 6866SOL    HW121497   1.588   4.973   0.454
 6866SOL    HW221498   1.440   4.958   0.520
 6867SOL     OW21499   2.197   3.594   6.602
 6867SOL    HW121500   2.204   3.647   6.687
 6867SOL    HW221501   2.103   3.565   6.588
 6868SOL     OW21502   2.749   5.269   3.818
 6868SOL    HW121503   2.742   5.289   3.720
 6868SOL    HW221504   2.785   5.177   3.831
 6869SOL     OW21505   3.439   0.972   6.230
 6869SOL    HW121506   3.512   0.936   6.173
 6869SOL    HW221507   3.478   1.014   6.312
 6870SOL     OW21508   5.900   2.175   0.485
 6870SOL    HW121509   5.906   2.253   0.548
 6870SOL    HW221510   5.874   2.207   0.394
 6871SOL     OW21511   6.687   3.460   2.434
 6871SOL    HW121512   6.672   3.476   2.531
 6871SOL    HW221513   6.654   3.539   2.382
 6872SOL     OW21514   1.878   3.962   0.746
 6872SOL    HW121515   1.780   3.985   0.745
 6872SOL    HW221516   1.898   3.900   0.670
 6873SOL     OW21517   0.568   4.353   3.408
 6873SOL    HW121518   0.594   4.279   3.345
 6873SOL    HW221519   0.495   4.321   3.468
 6874SOL     OW21520   5.472   6.708   3.376
 6874SOL    HW121521   5.435   6.619   3.349
 6874SOL    HW221522   5.407   6.780   3.352
 6875SOL     OW21523   2.532   1.303   0.460
 6875SOL    HW121524   2.523   1.300   0.361
 6875SOL    HW221525   2.454   1.256   0.502
 6876SOL     OW21526   4.934   5.286   3.545
 6876SOL    HW121527   4.964   5.211   3.486
 6876SOL    HW221528   4.916   5.367   3.489
 6877SOL     OW21529   0.955   3.311   1.538
 6877SOL    HW121530   0.921   3.217   1.531
 6877SOL    HW221531   0.996   3.326   1.628
 6878SOL     OW21532   2.163   0.662   4.530
 6878SOL    HW121533   2.164   0.563   4.542
 6878SOL    HW221534   2.257   0.696   4.531
 6879SOL     OW21535   1.734   0.947   0.904
 6879SOL    HW121536   1.769   0.990   0.821
 6879SOL    HW221537   1.652   0.996   0.934
 6880SOL     OW21538   1.526   5.349   0.024
 6880SOL    HW121539   1.461   5.401   0.079
 6880SOL    HW221540   1.599   5.315   0.083
 6881SOL     OW21541   0.670   2.860   0.681
 6881SOL    HW121542   0.756   2.843   0.729
 6881SOL    HW221543   0.685   2.848   0.582
 6882SOL     OW21544   2.282   6.413   6.836
 6882SOL    HW121545   2.196   6.372   6.867
 6882SOL    HW221546   2.306   6.374   6.747
 6883SOL     OW21547   4.810   0.179   1.206
 6883SOL    HW121548   4.822   0.187   1.107
 6883SOL    HW221549   4.717   0.148   1.225
 6884SOL     OW21550   1.868   4.161   3.120
 6884SOL    HW121551   1.874   4.076   3.172
 6884SOL    HW221552   1.925   4.155   3.039
 6885SOL     OW21553   6.138   5.224   4.514
 6885SOL    HW121554   6.189   5.191   4.594
 6885SOL    HW221555   6.167   5.318   4.493
 6886SOL     OW21556   4.736   2.354   0.079
 6886SOL    HW121557   4.685   2.434   0.109
 6886SOL    HW221558   4.715   2.277   0.140
 6887SOL     OW21559   5.696   5.540   5.949
 6887SOL    HW121560   5.723   5.571   5.857
 6887SOL    HW221561   5.716   5.442   5.958
 6888SOL     OW21562   6.169   4.760   6.472
 6888SOL    HW121563   6.237   4.833   6.482
 6888SOL    HW221564   6.209   4.673   6.502
 6889SOL     OW21565   6.741   2.661   6.328
 6889SOL    HW121566   6.786   2.580   6.367
 6889SOL    HW221567   6.789   2.690   6.246
 6890SOL     OW21568   4.532   4.436   3.535
 6890SOL    HW121569   4.440   4.399   3.525
 6890SOL    HW221570   4.598   4.360   3.541
 6891SOL     OW21571   1.748   1.148   1.444
 6891SOL    HW121572   1.707   1.233   1.412
 6891SOL    HW221573   1.836   1.133   1.399
 6892SOL     OW21574   3.260   0.958   4.328
 6892SOL    HW121575   3.330   1.020   4.292
 6892SOL    HW221576   3.227   0.899   4.254
 6893SOL     OW21577   6.486   3.067   0.917
 6893SOL    HW121578   6.424   3.107   0.984
 6893SOL    HW221579   6.460   2.972   0.899
 6894SOL     OW21580   6.099   5.049   0.643
 6894SOL    HW121581   6.052   5.032   0.556
 6894SOL    HW221582   6.032   5.069   0.714
 6895SOL     OW21583   0.699   6.762   2.264
 6895SOL    HW121584   0.636   6.806   2.201
 6895SOL    HW221585   0.719   6.669   2.232
 6896SOL     OW21586   4.733   1.208   4.868
 6896SOL    HW121587   4.798   1.133   4.882
 6896SOL    HW221588   4.782   1.295   4.872
 6897SOL     OW21589   4.912   2.788   4.870
 6897SOL    HW121590   4.817   2.799   4.898
 6897SOL    HW221591   4.927   2.695   4.837
 6898SOL     OW21592   1.702   6.298   1.438
 6898SOL    HW121593   1.738   6.223   1.495
 6898SOL    HW221594   1.735   6.288   1.345
 6899SOL     OW21595   6.218   5.965   2.102
 6899SOL    HW121596   6.281   5.912   2.045
 6899SOL    HW221597   6.227   6.062   2.079
 6900SOL     OW21598   6.555   3.787   4.899
 6900SOL    HW121599   6.580   3.883   4.889
 6900SOL    HW221600   6.478   3.779   4.962
 6901SOL     OW21601   5.045   4.874   6.942
 6901SOL    HW121602   5.006   4.830   0.008
 6901SOL    HW221603   5.145   4.866   6.945
 6902SOL     OW21604   0.462   5.877   5.806
 6902SOL    HW121605   0.496   5.783   5.817
 6902SOL    HW221606   0.375   5.886   5.855
 6903SOL     OW21607   1.092   5.728   4.465
 6903SOL    HW121608   1.134   5.648   4.508
 6903SOL    HW221609   1.030   5.772   4.531
 6904SOL     OW21610   6.750   0.115   6.319
 6904SOL    HW121611   6.842   0.091   6.289
 6904SOL    HW221612   6.685   0.046   6.287
 6905SOL     OW21613   5.037   6.359   6.059
 6905SOL    HW121614   4.967   6.301   6.102
 6905SOL    HW221615   5.040   6.339   5.961
 6906SOL     OW21616   3.334   1.116   3.768
 6906SOL    HW121617   3.425   1.155   3.756
 6906SOL    HW221618   3.292   1.155   3.850
 6907SOL     OW21619   5.657   2.529   0.915
 6907SOL    HW121620   5.727   2.464   0.888
 6907SOL    HW221621   5.699   2.616   0.941
 6908SOL     OW21622   3.106   5.237   0.367
 6908SOL    HW121623   3.160   5.313   0.402
 6908SOL    HW221624   3.010   5.264   0.360
 6909SOL     OW21625   5.866   4.814   1.932
 6909SOL    HW121626   5.860   4.912   1.955
 6909SOL    HW221627   5.787   4.789   1.876
 6910SOL     OW21628   1.116   2.821   2.741
 6910SOL    HW121629   1.133   2.864   2.830
 6910SOL    HW221630   1.033   2.860   2.701
 6911SOL     OW21631   1.534   6.318   5.552
 6911SOL    HW121632   1.562   6.276   5.638
 6911SOL    HW221633   1.496   6.248   5.491
 6912SOL     OW21634   2.743   3.841   6.884
 6912SOL    HW121635   2.837   3.808   6.896
 6912SOL    HW221636   2.681   3.763   6.883
 6913SOL     OW21637   4.760   6.278   5.960
 6913SOL    HW121638   4.788   6.195   5.911
 6913SOL    HW221639   4.793   6.359   5.911
 6914SOL     OW21640   5.772   2.627   2.207
 6914SOL    HW121641   5.845   2.692   2.186
 6914SOL    HW221642   5.684   2.675   2.211
 6915SOL     OW21643   6.480   3.573   3.512
 6915SOL    HW121644   6.425   3.647   3.551
 6915SOL    HW221645   6.547   3.542   3.581
 6916SOL     OW21646   4.975   6.201   6.546
 6916SOL    HW121647   4.997   6.156   6.633
 6916SOL    HW221648   5.021   6.152   6.472
 6917SOL     OW21649   3.946   6.673   1.961
 6917SOL    HW121650   4.037   6.704   1.932
 6917SOL    HW221651   3.926   6.709   2.051
 6918SOL     OW21652   2.411   3.378   0.551
 6918SOL    HW121653   2.382   3.461   0.599
 6918SOL    HW221654   2.437   3.308   0.618
 6919SOL     OW21655   5.319   6.056   3.547
 6919SOL    HW121656   5.273   6.074   3.460
 6919SOL    HW221657   5.385   5.982   3.535
 6920SOL     OW21658   6.286   0.976   6.095
 6920SOL    HW121659   6.189   0.952   6.099
 6920SOL    HW221660   6.311   1.028   6.176
 6921SOL     OW21661   4.245   0.084   4.412
 6921SOL    HW121662   4.229   7.001   4.410
 6921SOL    HW221663   4.277   0.110   4.503
 6922SOL     OW21664   1.832   4.830   6.118
 6922SOL    HW121665   1.809   4.907   6.058
 6922SOL    HW221666   1.783   4.749   6.088
 6923SOL     OW21667   5.994   6.957   2.224
 6923SOL    HW121668   6.013   7.012   2.143
 6923SOL    HW221669   5.930   6.884   2.201
 6924SOL     OW21670   3.215   5.886   2.141
 6924SOL    HW121671   3.217   5.802   2.195
 6924SOL    HW221672   3.270   5.956   2.186
 6925SOL     OW21673   5.806   6.722   5.302
 6925SOL    HW121674   5.791   6.760   5.393
 6925SOL    HW221675   5.720   6.723   5.250
 6926SOL     OW21676   3.325   2.396   0.099
 6926SOL    HW121677   3.396   2.434   0.041
 6926SOL    HW221678   3.327   2.296   0.095
 6927SOL     OW21679   4.642   0.448   0.664
 6927SOL    HW121680   4.644   0.509   0.585
 6927SOL    HW221681   4.548   0.439   0.697
 6928SOL     OW21682   3.875   5.162   0.238
 6928SOL    HW121683   3.972   5.142   0.221
 6928SOL    HW221684   3.819   5.095   0.189
 6929SOL     OW21685   5.588   4.923   2.181
 6929SOL    HW121686   5.494   4.892   2.193
 6929SOL    HW221687   5.651   4.850   2.209
 6930SOL     OW21688   0.225   6.819   1.465
 6930SOL    HW121689   0.253   6.811   1.560
 6930SOL    HW221690   0.254   6.737   1.414
 6931SOL     OW21691   2.913   3.274   0.971
 6931SOL    HW121692   2.974   3.334   1.023
 6931SOL    HW221693   2.846   3.330   0.921
 6932SOL     OW21694   3.942   6.590   6.510
 6932SOL    HW121695   4.017   6.649   6.481
 6932SOL    HW221696   3.961   6.553   6.601
 6933SOL     OW21697   3.315   5.550   6.107
 6933SOL    HW121698   3.337   5.453   6.116
 6933SOL    HW221699   3.394   5.599   6.070
 6934SOL     OW21700   4.983   4.679   6.747
 6934SOL    HW121701   4.997   4.756   6.810
 6934SOL    HW221702   4.980   4.713   6.653
 6935SOL     OW21703   4.207   5.986   1.710
 6935SOL    HW121704   4.168   6.026   1.627
 6935SOL    HW221705   4.135   5.971   1.777
 6936SOL     OW21706   0.271   1.806   5.345
 6936SOL    HW121707   0.265   1.899   5.382
 6936SOL    HW221708   0.339   1.803   5.272
 6937SOL     OW21709   5.342   5.346   0.055
 6937SOL    HW121710   5.371   5.276   0.120
 6937SOL    HW221711   5.273   5.309   7.009
 6938SOL     OW21712   2.612   1.460   4.841
 6938SOL    HW121713   2.519   1.423   4.845
 6938SOL    HW221714   2.676   1.386   4.818
 6939SOL     OW21715   5.811   3.061   3.336
 6939SOL    HW121716   5.767   3.117   3.406
 6939SOL    HW221717   5.766   3.076   3.248
 6940SOL     OW21718   2.793   6.050   1.023
 6940SOL    HW121719   2.771   5.985   1.096
 6940SOL    HW221720   2.712   6.066   0.967
 6941SOL     OW21721   3.651   3.635   2.832
 6941SOL    HW121722   3.679   3.547   2.793
 6941SOL    HW221723   3.580   3.676   2.775
 6942SOL     OW21724   5.986   5.600   2.355
 6942SOL    HW121725   5.928   5.627   2.278
 6942SOL    HW221726   6.042   5.678   2.383
 6943SOL     OW21727   4.416   4.534   6.205
 6943SOL    HW121728   4.340   4.476   6.176
 6943SOL    HW221729   4.455   4.580   6.125
 6944SOL     OW21730   1.216   4.253   4.773
 6944SOL    HW121731   1.149   4.298   4.714
 6944SOL    HW221732   1.186   4.258   4.868
 6945SOL     OW21733   5.254   1.795   1.106
 6945SOL    HW121734   5.292   1.816   1.015
 6945SOL    HW221735   5.326   1.757   1.164
 6946SOL     OW21736   4.992   6.594   3.069
 6946SOL    HW121737   4.893   6.582   3.059
 6946SOL    HW221738   5.036   6.580   2.980
 6947SOL     OW21739   6.300   4.457   4.772
 6947SOL    HW121740   6.335   4.511   4.848
 6947SOL    HW221741   6.200   4.451   4.778
 6948SOL     OW21742   0.179   4.556   6.933
 6948SOL    HW121743   0.099   4.592   6.885
 6948SOL    HW221744   0.173   4.578   0.014
 6949SOL     OW21745   2.696   2.057   3.666
 6949SOL    HW121746   2.786   2.023   3.638
 6949SOL    HW221747   2.626   1.994   3.634
 6950SOL     OW21748   0.265   1.105   4.513
 6950SOL    HW121749   0.337   1.174   4.526
 6950SOL    HW221750   0.306   1.014   4.510
 6951SOL     OW21751   0.834   4.382   0.102
 6951SOL    HW121752   0.802   4.316   0.035
 6951SOL    HW221753   0.789   4.470   0.086
 6952SOL     OW21754   4.950   5.852   4.206
 6952SOL    HW121755   4.883   5.873   4.134
 6952SOL    HW221756   4.962   5.932   4.264
 6953SOL     OW21757   6.513   1.830   1.086
 6953SOL    HW121758   6.609   1.818   1.060
 6953SOL    HW221759   6.454   1.794   1.013
 6954SOL     OW21760   6.749   4.535   6.775
 6954SOL    HW121761   6.845   4.519   6.799
 6954SOL    HW221762   6.695   4.546   6.859
 6955SOL     OW21763   4.699   6.528   3.016
 6955SOL    HW121764   4.643   6.609   2.999
 6955SOL    HW221765   4.695   6.467   2.937
 6956SOL     OW21766   5.699   5.274   2.531
 6956SOL    HW121767   5.604   5.281   2.563
 6956SOL    HW221768   5.758   5.249   2.608
 6957SOL     OW21769   6.105   5.663   5.564
 6957SOL    HW121770   6.056   5.586   5.524
 6957SOL    HW221771   6.040   5.722   5.612
 6958SOL     OW21772   3.229   3.643   3.120
 6958SOL    HW121773   3.139   3.615   3.089
 6958SOL    HW221774   3.299   3.588   3.074
 6959SOL     OW21775   1.630   4.174   2.979
 6959SOL    HW121776   1.718   4.207   3.011
 6959SOL    HW221777   1.631   4.074   2.976
 6960SOL     OW21778   3.906   4.210   0.197
 6960SOL    HW121779   3.908   4.127   0.141
 6960SOL    HW221780   3.995   4.224   0.240
 6961SOL     OW21781   4.727   2.368   5.049
 6961SOL    HW121782   4.634   2.346   5.021
 6961SOL    HW221783   4.756   2.306   5.122
 6962SOL     OW21784   2.253   6.596   6.548
 6962SOL    HW121785   2.248   6.663   6.473
 6962SOL    HW221786   2.205   6.513   6.521
 6963SOL     OW21787   6.284   5.738   0.390
 6963SOL    HW121788   6.211   5.806   0.376
 6963SOL    HW221789   6.325   5.716   0.301
 6964SOL     OW21790   1.767   1.533   5.408
 6964SOL    HW121791   1.730   1.454   5.457
 6964SOL    HW221792   1.866   1.521   5.396
 6965SOL     OW21793   1.164   1.258   0.720
 6965SOL    HW121794   1.253   1.212   0.724
 6965SOL    HW221795   1.151   1.313   0.803
 6966SOL     OW21796   1.159   6.382   1.017
 6966SOL    HW121797   1.195   6.346   1.103
 6966SOL    HW221798   1.137   6.479   1.029
 6967SOL     OW21799   4.216   0.843   6.507
 6967SOL    HW121800   4.264   0.805   6.587
 6967SOL    HW221801   4.249   0.936   6.490
 6968SOL     OW21802   3.933   6.538   2.988
 6968SOL    HW121803   3.966   6.486   3.068
 6968SOL    HW221804   3.961   6.633   2.997
 6969SOL     OW21805   2.195   1.998   2.066
 6969SOL    HW121806   2.160   2.068   2.128
 6969SOL    HW221807   2.136   1.991   1.986
 6970SOL     OW21808   3.709   5.121   4.928
 6970SOL    HW121809   3.685   5.078   4.841
 6970SOL    HW221810   3.680   5.061   5.003
 6971SOL     OW21811   6.340   4.047   0.398
 6971SOL    HW121812   6.346   4.082   0.492
 6971SOL    HW221813   6.261   4.089   0.353
 6972SOL     OW21814   5.330   4.342   1.306
 6972SOL    HW121815   5.402   4.410   1.321
 6972SOL    HW221816   5.341   4.301   1.216
 6973SOL     OW21817   1.678   2.195   3.092
 6973SOL    HW121818   1.725   2.212   3.005
 6973SOL    HW221819   1.705   2.264   3.159
 6974SOL     OW21820   4.020   3.761   2.922
 6974SOL    HW121821   3.981   3.672   2.945
 6974SOL    HW221822   4.115   3.748   2.891
 6975SOL     OW21823   2.837   5.512   4.405
 6975SOL    HW121824   2.791   5.450   4.342
 6975SOL    HW221825   2.904   5.567   4.356
 6976SOL     OW21826   4.628   4.061   6.066
 6976SOL    HW121827   4.547   4.109   6.034
 6976SOL    HW221828   4.607   4.014   6.152
 6977SOL     OW21829   4.823   5.121   2.298
 6977SOL    HW121830   4.805   5.025   2.319
 6977SOL    HW221831   4.782   5.179   2.368
 6978SOL     OW21832   0.073   3.405   1.102
 6978SOL    HW121833   0.026   3.446   1.181
 6978SOL    HW221834   0.095   3.477   1.036
 6979SOL     OW21835   1.399   3.686   2.547
 6979SOL    HW121836   1.443   3.772   2.518
 6979SOL    HW221837   1.468   3.614   2.554
 6980SOL     OW21838   2.019   5.319   2.726
 6980SOL    HW121839   1.991   5.223   2.727
 6980SOL    HW221840   2.116   5.325   2.750
 6981SOL     OW21841   4.061   2.440   6.737
 6981SOL    HW121842   3.971   2.398   6.750
 6981SOL    HW221843   4.058   2.535   6.768
 6982SOL     OW21844   1.405   0.549   2.636
 6982SOL    HW121845   1.397   0.639   2.680
 6982SOL    HW221846   1.330   0.536   2.572
 6983SOL     OW21847   5.947   1.074   4.081
 6983SOL    HW121848   5.990   0.984   4.086
 6983SOL    HW221849   6.003   1.142   4.128
 6984SOL     OW21850   1.509   2.942   3.141
 6984SOL    HW121851   1.606   2.949   3.165
 6984SOL    HW221852   1.472   2.856   3.178
 6985SOL     OW21853   5.685   3.704   6.578
 6985SOL    HW121854   5.659   3.767   6.505
 6985SOL    HW221855   5.650   3.612   6.556
 6986SOL     OW21856   4.773   4.630   5.441
 6986SOL    HW121857   4.821   4.628   5.353
 6986SOL    HW221858   4.836   4.602   5.514
 6987SOL     OW21859   0.509   0.929   6.755
 6987SOL    HW121860   0.413   0.918   6.782
 6987SOL    HW221861   0.519   0.902   6.659
 6988SOL     OW21862   2.691   1.319   6.675
 6988SOL    HW121863   2.718   1.401   6.625
 6988SOL    HW221864   2.675   1.342   6.771
 6989SOL     OW21865   0.578   4.272   2.869
 6989SOL    HW121866   0.549   4.223   2.787
 6989SOL    HW221867   0.530   4.360   2.874
 6990SOL     OW21868   3.556   3.674   0.438
 6990SOL    HW121869   3.567   3.589   0.386
 6990SOL    HW221870   3.463   3.677   0.476
 6991SOL     OW21871   6.661   2.921   2.376
 6991SOL    HW121872   6.635   2.944   2.282
 6991SOL    HW221873   6.665   2.821   2.386
 6992SOL     OW21874   0.874   5.733   0.141
 6992SOL    HW121875   0.842   5.828   0.145
 6992SOL    HW221876   0.827   5.685   0.068
 6993SOL     OW21877   4.273   2.108   1.727
 6993SOL    HW121878   4.213   2.159   1.789
 6993SOL    HW221879   4.364   2.149   1.728
 6994SOL     OW21880   2.884   1.203   3.434
 6994SOL    HW121881   2.811   1.135   3.435
 6994SOL    HW221882   2.950   1.183   3.506
 6995SOL     OW21883   6.880   4.019   0.831
 6995SOL    HW121884   6.909   4.018   0.927
 6995SOL    HW221885   6.786   3.984   0.824
 6996SOL     OW21886   0.673   1.107   6.580
 6996SOL    HW121887   0.640   1.132   6.671
 6996SOL    HW221888   0.694   1.009   6.579
 6997SOL     OW21889   6.143   6.085   6.008
 6997SOL    HW121890   6.213   6.135   6.060
 6997SOL    HW221891   6.154   6.106   5.910
 6998SOL     OW21892   6.936   1.272   0.287
 6998SOL    HW121893   6.926   1.312   0.378
 6998SOL    HW221894   0.016   1.249   0.272
 6999SOL     OW21895   6.938   3.356   6.425
 6999SOL    HW121896   6.852   3.374   6.473
 6999SOL    HW221897   6.949   3.257   6.413
 7000SOL     OW21898   0.366   5.713   3.228
 7000SOL    HW121899   0.387   5.807   3.254
 7000SOL    HW221900   0.295   5.677   3.287
 7001SOL     OW21901   6.950   1.847   3.938
 7001SOL    HW121902   6.999   1.910   3.998
 7001SOL    HW221903   7.015   1.806   3.874
 7002SOL     OW21904   0.873   5.537   2.719
 7002SOL    HW121905   0.832   5.599   2.652
 7002SOL    HW221906   0.968   5.519   2.693
 7003SOL     OW21907   0.213   4.240   0.695
 7003SOL    HW121908   0.223   4.207   0.789
 7003SOL    HW221909   0.117   4.241   0.670
 7004SOL     OW21910   1.750   6.899   0.328
 7004SOL    HW121911   1.734   6.913   0.426
 7004SOL    HW221912   1.811   6.822   0.315
 7005SOL     OW21913   1.295   5.302   0.638
 7005SOL    HW121914   1.332   5.209   0.644
 7005SOL    HW221915   1.286   5.327   0.541
 7006SOL     OW21916   0.484   0.221   3.879
 7006SOL    HW121917   0.496   0.232   3.780
 7006SOL    HW221918   0.409   0.158   3.896
 7007SOL     OW21919   2.139   0.493   6.232
 7007SOL    HW121920   2.126   0.394   6.239
 7007SOL    HW221921   2.051   0.536   6.212
 7008SOL     OW21922   5.587   3.473   3.178
 7008SOL    HW121923   5.499   3.516   3.196
 7008SOL    HW221924   5.578   3.412   3.099
 7009SOL     OW21925   5.040   6.001   2.631
 7009SOL    HW121926   5.109   5.958   2.690
 7009SOL    HW221927   4.977   5.932   2.598
 7010SOL     OW21928   5.032   3.598   2.299
 7010SOL    HW121929   5.055   3.543   2.218
 7010SOL    HW221930   4.953   3.557   2.345
 7011SOL     OW21931   3.004   6.818   6.288
 7011SOL    HW121932   2.952   6.734   6.305
 7011SOL    HW221933   3.087   6.817   6.344
 7012SOL     OW21934   6.772   2.825   0.098
 7012SOL    HW121935   6.687   2.798   0.054
 7012SOL    HW221936   6.848   2.773   0.058
 7013SOL     OW21937   3.424   3.031   0.169
 7013SOL    HW121938   3.336   3.011   0.126
 7013SOL    HW221939   3.409   3.073   0.258
 7014SOL     OW21940   5.331   3.276   0.518
 7014SOL    HW121941   5.430   3.285   0.509
 7014SOL    HW221942   5.286   3.346   0.463
 7015SOL     OW21943   5.948   6.465   1.466
 7015SOL    HW121944   5.911   6.544   1.418
 7015SOL    HW221945   5.952   6.483   1.564
 7016SOL     OW21946   3.429   5.088   1.066
 7016SOL    HW121947   3.489   5.015   1.033
 7016SOL    HW221948   3.432   5.165   1.002
 7017SOL     OW21949   5.965   4.564   5.606
 7017SOL    HW121950   5.926   4.622   5.677
 7017SOL    HW221951   5.912   4.479   5.600
 7018SOL     OW21952   5.389   3.602   4.596
 7018SOL    HW121953   5.333   3.579   4.517
 7018SOL    HW221954   5.382   3.700   4.614
 7019SOL     OW21955   4.345   5.463   2.091
 7019SOL    HW121956   4.371   5.495   2.182
 7019SOL    HW221957   4.426   5.425   2.045
 7020SOL     OW21958   0.742   2.305   6.506
 7020SOL    HW121959   0.652   2.329   6.469
 7020SOL    HW221960   0.802   2.385   6.502
 7021SOL     OW21961   0.557   2.233   4.571
 7021SOL    HW121962   0.609   2.194   4.495
 7021SOL    HW221963   0.512   2.317   4.541
 7022SOL     OW21964   2.959   2.467   0.874
 7022SOL    HW121965   2.907   2.551   0.881
 7022SOL    HW221966   2.952   2.430   0.781
 7023SOL     OW21967   0.279   1.424   0.674
 7023SOL    HW121968   0.344   1.500   0.678
 7023SOL    HW221969   0.311   1.356   0.608
 7024SOL     OW21970   3.236   3.766   4.573
 7024SOL    HW121971   3.253   3.698   4.502
 7024SOL    HW221972   3.275   3.734   4.660
 7025SOL     OW21973   2.912   0.297   1.082
 7025SOL    HW121974   2.969   0.379   1.090
 7025SOL    HW221975   2.891   0.262   1.173
 7026SOL     OW21976   3.360   2.766   1.116
 7026SOL    HW121977   3.366   2.845   1.054
 7026SOL    HW221978   3.270   2.723   1.108
 7027SOL     OW21979   2.994   5.115   2.709
 7027SOL    HW121980   2.902   5.152   2.724
 7027SOL    HW221981   3.000   5.079   2.616
 7028SOL     OW21982   3.493   6.854   3.443
 7028SOL    HW121983   3.566   6.846   3.511
 7028SOL    HW221984   3.506   6.937   3.390
 7029SOL     OW21985   3.392   3.847   3.773
 7029SOL    HW121986   3.339   3.932   3.773
 7029SOL    HW221987   3.455   3.847   3.695
 7030SOL     OW21988   6.829   0.775   4.664
 7030SOL    HW121989   6.773   0.833   4.606
 7030SOL    HW221990   6.918   0.819   4.681
 7031SOL     OW21991   5.059   6.421   0.653
 7031SOL    HW121992   5.065   6.464   0.744
 7031SOL    HW221993   5.136   6.450   0.597
 7032SOL     OW21994   4.630   5.162   4.320
 7032SOL    HW121995   4.536   5.156   4.286
 7032SOL    HW221996   4.676   5.074   4.309
 7033SOL     OW21997   1.888   1.848   5.455
 7033SOL    HW121998   1.891   1.912   5.378
 7033SOL    HW221999   1.970   1.790   5.453
 7034SOL     OW22000   6.308   0.870   2.635
 7034SOL    HW122001   6.364   0.788   2.626
 7034SOL    HW222002   6.297   0.893   2.731
 7035SOL     OW22003   2.105   0.564   0.994
 7035SOL    HW122004   2.117   0.598   1.087
 7035SOL    HW222005   2.157   0.480   0.982
 7036SOL     OW22006   6.546   1.463   2.222
 7036SOL    HW122007   6.631   1.514   2.213
 7036SOL    HW222008   6.540   1.394   2.150
 7037SOL     OW22009   1.327   0.378   6.027
 7037SOL    HW122010   1.251   0.414   6.081
 7037SOL    HW222011   1.413   0.411   6.064
 7038SOL     OW22012   1.322   3.635   0.264
 7038SOL    HW122013   1.422   3.640   0.266
 7038SOL    HW222014   1.290   3.654   0.171
 7039SOL     OW22015   0.228   6.914   2.289
 7039SOL    HW122016   0.204   6.857   2.211
 7039SOL    HW222017   0.248   7.007   2.258
 7040SOL     OW22018   5.697   2.733   4.795
 7040SOL    HW122019   5.792   2.732   4.762
 7040SOL    HW222020   5.693   2.687   4.884
 7041SOL     OW22021   1.124   6.764   4.376
 7041SOL    HW122022   1.148   6.694   4.309
 7041SOL    HW222023   1.056   6.826   4.336
 7042SOL     OW22024   5.520   6.019   5.249
 7042SOL    HW122025   5.432   6.062   5.268
 7042SOL    HW222026   5.530   5.938   5.307
 7043SOL     OW22027   2.059   5.502   0.912
 7043SOL    HW122028   1.990   5.521   0.982
 7043SOL    HW222029   2.067   5.403   0.900
 7044SOL     OW22030   6.086   6.684   4.883
 7044SOL    HW122031   6.028   6.727   4.952
 7044SOL    HW222032   6.098   6.587   4.905
 7045SOL     OW22033   6.286   5.364   1.864
 7045SOL    HW122034   6.237   5.439   1.908
 7045SOL    HW222035   6.368   5.399   1.819
 7046SOL     OW22036   1.745   1.352   3.928
 7046SOL    HW122037   1.666   1.412   3.938
 7046SOL    HW222038   1.747   1.314   3.835
 7047SOL     OW22039   1.347   6.334   0.638
 7047SOL    HW122040   1.363   6.417   0.584
 7047SOL    HW222041   1.293   6.270   0.583
 7048SOL     OW22042   0.533   6.285   4.096
 7048SOL    HW122043   0.628   6.315   4.092
 7048SOL    HW222044   0.503   6.279   4.191
 7049SOL     OW22045   3.701   1.333   4.040
 7049SOL    HW122046   3.700   1.264   3.969
 7049SOL    HW222047   3.770   1.403   4.018
 7050SOL     OW22048   3.802   4.276   0.549
 7050SOL    HW122049   3.709   4.250   0.577
 7050SOL    HW222050   3.841   4.337   0.618
 7051SOL     OW22051   1.379   1.376   2.024
 7051SOL    HW122052   1.330   1.351   2.108
 7051SOL    HW222053   1.313   1.401   1.953
 7052SOL     OW22054   4.308   1.327   3.214
 7052SOL    HW122055   4.296   1.245   3.270
 7052SOL    HW222056   4.228   1.386   3.225
 7053SOL     OW22057   1.403   3.913   3.240
 7053SOL    HW122058   1.478   3.893   3.303
 7053SOL    HW222059   1.394   3.837   3.175
 7054SOL     OW22060   5.509   1.127   6.687
 7054SOL    HW122061   5.539   1.042   6.731
 7054SOL    HW222062   5.579   1.197   6.699
 7055SOL     OW22063   2.757   0.346   0.537
 7055SOL    HW122064   2.683   0.342   0.470
 7055SOL    HW222065   2.748   0.271   0.602
 7056SOL     OW22066   6.679   5.010   1.070
 7056SOL    HW122067   6.623   4.977   0.994
 7056SOL    HW222068   6.671   4.947   1.148
 7057SOL     OW22069   3.019   5.693   4.835
 7057SOL    HW122070   2.980   5.659   4.921
 7057SOL    HW222071   2.982   5.639   4.759
 7058SOL     OW22072   5.944   2.615   6.238
 7058SOL    HW122073   5.992   2.647   6.156
 7058SOL    HW222074   6.012   2.585   6.306
 7059SOL     OW22075   1.794   6.872   5.054
 7059SOL    HW122076   1.834   6.909   5.138
 7059SOL    HW222077   1.866   6.838   4.995
 7060SOL     OW22078   3.313   1.998   1.063
 7060SOL    HW122079   3.263   1.918   1.094
 7060SOL    HW222080   3.292   2.076   1.122
 7061SOL     OW22081   0.965   1.099   1.509
 7061SOL    HW122082   0.886   1.160   1.506
 7061SOL    HW222083   1.035   1.138   1.568
 7062SOL     OW22084   3.322   0.368   3.809
 7062SOL    HW122085   3.347   0.465   3.798
 7062SOL    HW222086   3.302   0.350   3.905
 7063SOL     OW22087   0.046   0.978   1.099
 7063SOL    HW122088   6.978   1.018   1.061
 7063SOL    HW222089   0.033   0.961   1.197
 7064SOL     OW22090   3.062   1.213   5.008
 7064SOL    HW122091   2.994   1.268   5.056
 7064SOL    HW222092   3.145   1.205   5.063
 7065SOL     OW22093   4.072   5.363   5.273
 7065SOL    HW122094   4.086   5.269   5.241
 7065SOL    HW222095   3.997   5.404   5.221
 7066SOL     OW22096   3.633   0.399   0.767
 7066SOL    HW122097   3.590   0.310   0.757
 7066SOL    HW222098   3.583   0.453   0.835
 7067SOL     OW22099   1.805   3.909   6.349
 7067SOL    HW122100   1.820   3.831   6.409
 7067SOL    HW222101   1.884   3.922   6.289
 7068SOL     OW22102   5.464   4.046   4.458
 7068SOL    HW122103   5.423   4.120   4.513
 7068SOL    HW222104   5.550   4.078   4.417
 7069SOL     OW22105   5.068   0.788   6.018
 7069SOL    HW122106   4.990   0.796   5.956
 7069SOL    HW222107   5.038   0.805   6.112
 7070SOL     OW22108   0.468   0.014   5.851
 7070SOL    HW122109   0.459   6.951   5.912
 7070SOL    HW222110   0.564   0.028   5.827
 7071SOL     OW22111   4.737   5.929   6.777
 7071SOL    HW122112   4.730   5.836   6.743
 7071SOL    HW222113   4.688   5.991   6.716
 7072SOL     OW22114   0.655   3.799   6.467
 7072SOL    HW122115   0.648   3.801   6.367
 7072SOL    HW222116   0.750   3.812   6.494
 7073SOL     OW22117   4.913   1.799   3.879
 7073SOL    HW122118   4.919   1.849   3.966
 7073SOL    HW222119   4.911   1.865   3.804
 7074SOL     OW22120   5.303   3.890   2.953
 7074SOL    HW122121   5.349   3.964   2.903
 7074SOL    HW222122   5.253   3.929   3.031
 7075SOL     OW22123   2.429   5.488   3.180
 7075SOL    HW122124   2.403   5.413   3.119
 7075SOL    HW222125   2.529   5.500   3.177
 7076SOL     OW22126   5.488   2.663   1.447
 7076SOL    HW122127   5.401   2.712   1.456
 7076SOL    HW222128   5.502   2.637   1.351
 7077SOL     OW22129   3.789   6.051   1.683
 7077SOL    HW122130   3.767   5.954   1.683
 7077SOL    HW222131   3.871   6.067   1.628
 7078SOL     OW22132   6.653   0.681   6.834
 7078SOL    HW122133   6.656   0.659   6.737
 7078SOL    HW222134   6.649   0.596   6.887
 7079SOL     OW22135   1.448   5.737   4.830
 7079SOL    HW122136   1.512   5.736   4.753
 7079SOL    HW222137   1.432   5.832   4.858
 7080SOL     OW22138   3.829   2.020   6.038
 7080SOL    HW122139   3.744   2.040   5.989
 7080SOL    HW222140   3.904   2.070   5.996
 7081SOL     OW22141   2.804   6.717   0.627
 7081SOL    HW122142   2.811   6.617   0.634
 7081SOL    HW222143   2.761   6.753   0.709
 7082SOL     OW22144   0.535   3.803   2.347
 7082SOL    HW122145   0.448   3.852   2.341
 7082SOL    HW222146   0.551   3.754   2.262
 7083SOL     OW22147   5.016   2.564   3.036
 7083SOL    HW122148   4.953   2.570   2.958
 7083SOL    HW222149   5.058   2.474   3.038
 7084SOL     OW22150   1.152   5.471   6.974
 7084SOL    HW122151   1.163   5.381   7.015
 7084SOL    HW222152   1.054   5.494   6.970
 7085SOL     OW22153   0.685   4.046   2.129
 7085SOL    HW122154   0.719   3.964   2.083
 7085SOL    HW222155   0.605   4.081   2.080
 7086SOL     OW22156   5.332   0.906   3.799
 7086SOL    HW122157   5.333   0.993   3.749
 7086SOL    HW222158   5.239   0.886   3.829
 7087SOL     OW22159   4.797   2.858   3.274
 7087SOL    HW122160   4.770   2.880   3.368
 7087SOL    HW222161   4.756   2.771   3.248
 7088SOL     OW22162   6.061   2.186   5.026
 7088SOL    HW122163   6.121   2.243   5.082
 7088SOL    HW222164   5.966   2.209   5.046
 7089SOL     OW22165   2.586   5.439   1.497
 7089SOL    HW122166   2.593   5.493   1.413
 7089SOL    HW222167   2.646   5.478   1.567
 7090SOL     OW22168   4.248   3.209   1.329
 7090SOL    HW122169   4.175   3.277   1.336
 7090SOL    HW222170   4.330   3.244   1.373
 7091SOL     OW22171   0.452   6.810   0.536
 7091SOL    HW122172   0.459   6.910   0.528
 7091SOL    HW222173   0.356   6.783   0.538
 7092SOL     OW22174   4.359   6.820   6.571
 7092SOL    HW122175   4.430   6.752   6.557
 7092SOL    HW222176   4.350   6.840   6.669
 7093SOL     OW22177   3.338   2.975   0.960
 7093SOL    HW122178   3.426   3.021   0.947
 7093SOL    HW222179   3.264   3.041   0.953
 7094SOL     OW22180   3.731   0.393   5.739
 7094SOL    HW122181   3.764   0.410   5.832
 7094SOL    HW222182   3.707   0.296   5.729
 7095SOL     OW22183   2.530   4.926   4.752
 7095SOL    HW122184   2.598   4.855   4.766
 7095SOL    HW222185   2.536   4.959   4.657
 7096SOL     OW22186   6.905   0.361   1.277
 7096SOL    HW122187   6.889   0.269   1.312
 7096SOL    HW222188   6.829   0.387   1.216
 7097SOL     OW22189   4.831   1.388   2.550
 7097SOL    HW122190   4.876   1.327   2.614
 7097SOL    HW222191   4.732   1.379   2.559
 7098SOL     OW22192   0.762   0.721   3.406
 7098SOL    HW122193   0.820   0.685   3.333
 7098SOL    HW222194   0.807   0.801   3.447
 7099SOL     OW22195   3.469   1.828   4.663
 7099SOL    HW122196   3.515   1.740   4.670
 7099SOL    HW222197   3.461   1.870   4.753
 7100SOL     OW22198   6.919   4.024   1.432
 7100SOL    HW122199   6.846   4.035   1.500
 7100SOL    HW222200   6.920   3.930   1.400
 7101SOL     OW22201   2.561   6.237   4.958
 7101SOL    HW122202   2.645   6.289   4.942
 7101SOL    HW222203   2.584   6.141   4.976
 7102SOL     OW22204   5.470   1.356   2.341
 7102SOL    HW122205   5.521   1.287   2.393
 7102SOL    HW222206   5.533   1.427   2.309
 7103SOL     OW22207   4.913   3.577   3.360
 7103SOL    HW122208   4.943   3.670   3.382
 7103SOL    HW222209   4.917   3.521   3.443
 7104SOL     OW22210   4.821   3.161   4.214
 7104SOL    HW122211   4.817   3.105   4.296
 7104SOL    HW222212   4.732   3.162   4.169
 7105SOL     OW22213   2.874   3.634   3.269
 7105SOL    HW122214   2.899   3.724   3.233
 7105SOL    HW222215   2.878   3.636   3.369
 7106SOL     OW22216   3.464   1.953   2.391
 7106SOL    HW122217   3.530   2.010   2.342
 7106SOL    HW222218   3.372   1.991   2.377
 7107SOL     OW22219   3.948   0.566   6.145
 7107SOL    HW122220   3.903   0.647   6.183
 7107SOL    HW222221   3.992   0.590   6.059
 7108SOL     OW22222   4.280   0.501   1.984
 7108SOL    HW122223   4.204   0.513   2.048
 7108SOL    HW222224   4.297   0.587   1.936
 7109SOL     OW22225   2.920   5.583   6.684
 7109SOL    HW122226   2.866   5.531   6.751
 7109SOL    HW222227   3.015   5.554   6.688
 7110SOL     OW22228   3.149   6.723   4.771
 7110SOL    HW122229   3.105   6.634   4.762
 7110SOL    HW222230   3.080   6.795   4.772
 7111SOL     OW22231   6.804   0.659   4.909
 7111SOL    HW122232   6.862   0.685   4.832
 7111SOL    HW222233   6.743   0.735   4.932
 7112SOL     OW22234   1.061   4.906   5.177
 7112SOL    HW122235   1.064   4.944   5.270
 7112SOL    HW222236   1.000   4.962   5.120
 7113SOL     OW22237   3.478   6.477   4.869
 7113SOL    HW122238   3.405   6.468   4.936
 7113SOL    HW222239   3.562   6.438   4.906
 7114SOL     OW22240   6.005   3.900   1.152
 7114SOL    HW122241   5.937   3.922   1.082
 7114SOL    HW222242   5.965   3.913   1.243
 7115SOL     OW22243   5.771   3.564   6.249
 7115SOL    HW122244   5.699   3.549   6.317
 7115SOL    HW222245   5.854   3.517   6.279
 7116SOL     OW22246   6.908   3.939   4.615
 7116SOL    HW122247   6.810   3.932   4.595
 7116SOL    HW222248   6.960   3.932   4.530
 7117SOL     OW22249   5.258   0.008   3.275
 7117SOL    HW122250   5.205   6.939   3.279
 7117SOL    HW222251   5.297   0.027   3.365
 7118SOL     OW22252   4.211   4.366   6.067
 7118SOL    HW122253   4.161   4.410   6.142
 7118SOL    HW222254   4.182   4.270   6.059
 7119SOL     OW22255   3.483   6.398   5.781
 7119SOL    HW122256   3.443   6.332   5.718
 7119SOL    HW222257   3.518   6.477   5.731
 7120SOL     OW22258   4.379   1.233   0.772
 7120SOL    HW122259   4.409   1.148   0.816
 7120SOL    HW222260   4.397   1.310   0.833
 7121SOL     OW22261   1.475   5.553   2.205
 7121SOL    HW122262   1.559   5.539   2.258
 7121SOL    HW222263   1.465   5.650   2.183
 7122SOL     OW22264   3.550   1.948   6.877
 7122SOL    HW122265   3.479   1.890   6.918
 7122SOL    HW222266   3.630   1.951   6.938
 7123SOL     OW22267   5.963   5.163   6.059
 7123SOL    HW122268   6.009   5.195   6.142
 7123SOL    HW222269   5.948   5.064   6.065
 7124SOL     OW22270   1.551   2.924   1.090
 7124SOL    HW122271   1.617   2.854   1.116
 7124SOL    HW222272   1.556   2.940   0.991
 7125SOL     OW22273   0.289   6.398   2.354
 7125SOL    HW122274   0.362   6.418   2.420
 7125SOL    HW222275   0.201   6.430   2.391
 7126SOL     OW22276   3.659   5.299   1.248
 7126SOL    HW122277   3.709   5.386   1.250
 7126SOL    HW222278   3.570   5.314   1.205
 7127SOL     OW22279   2.592   6.373   6.496
 7127SOL    HW122280   2.607   6.289   6.548
 7127SOL    HW222281   2.614   6.452   6.554
 7128SOL     OW22282   3.065   4.364   6.844
 7128SOL    HW122283   3.003   4.380   6.767
 7128SOL    HW222284   3.012   4.337   6.924
 7129SOL     OW22285   0.504   0.236   0.132
 7129SOL    HW122286   0.453   0.160   0.092
 7129SOL    HW222287   0.590   0.248   0.081
 7130SOL     OW22288   3.480   6.613   4.036
 7130SOL    HW122289   3.460   6.535   4.096
 7130SOL    HW222290   3.558   6.664   4.072
 7131SOL     OW22291   2.371   1.333   1.672
 7131SOL    HW122292   2.368   1.403   1.743
 7131SOL    HW222293   2.279   1.315   1.639
 7132SOL     OW22294   4.980   4.108   0.891
 7132SOL    HW122295   4.957   4.038   0.959
 7132SOL    HW222296   4.954   4.198   0.926
 7133SOL     OW22297   4.958   6.242   2.758
 7133SOL    HW122298   5.028   6.238   2.829
 7133SOL    HW222299   4.992   6.201   2.674
 7134SOL     OW22300   4.998   5.565   0.066
 7134SOL    HW122301   4.981   5.560   6.984
 7134SOL    HW222302   5.097   5.566   0.083
 7135SOL     OW22303   1.762   3.666   1.389
 7135SOL    HW122304   1.772   3.755   1.434
 7135SOL    HW222305   1.851   3.622   1.381
 7136SOL     OW22306   1.169   2.466   2.174
 7136SOL    HW122307   1.263   2.476   2.206
 7136SOL    HW222308   1.158   2.513   2.087
 7137SOL     OW22309   2.942   1.099   1.265
 7137SOL    HW122310   2.993   1.087   1.350
 7137SOL    HW222311   2.844   1.091   1.284
 7138SOL     OW22312   0.440   2.841   0.464
 7138SOL    HW122313   0.528   2.886   0.450
 7138SOL    HW222314   0.379   2.901   0.516
 7139SOL     OW22315   5.989   6.338   1.087
 7139SOL    HW122316   6.033   6.292   1.163
 7139SOL    HW222317   5.891   6.319   1.087
 7140SOL     OW22318   6.746   4.246   0.050
 7140SOL    HW122319   6.779   4.259   6.972
 7140SOL    HW222320   6.781   4.319   0.108
 7141SOL     OW22321   3.210   0.348   0.929
 7141SOL    HW122322   3.157   0.432   0.938
 7141SOL    HW222323   3.268   0.336   1.009
 7142SOL     OW22324   4.013   0.044   4.747
 7142SOL    HW122325   4.052   6.975   4.711
 7142SOL    HW222326   3.914   0.034   4.757
 7143SOL     OW22327   2.670   3.285   6.439
 7143SOL    HW122328   2.738   3.332   6.383
 7143SOL    HW222329   2.580   3.326   6.423
 7144SOL     OW22330   6.699   1.059   6.235
 7144SOL    HW122331   6.629   1.099   6.294
 7144SOL    HW222332   6.658   0.989   6.176
 7145SOL     OW22333   5.617   1.461   6.114
 7145SOL    HW122334   5.693   1.439   6.175
 7145SOL    HW222335   5.544   1.394   6.125
 7146SOL     OW22336   1.128   2.335   5.582
 7146SOL    HW122337   1.041   2.285   5.584
 7146SOL    HW222338   1.170   2.333   5.672
 7147SOL     OW22339   6.322   6.237   1.692
 7147SOL    HW122340   6.376   6.274   1.767
 7147SOL    HW222341   6.342   6.288   1.608
 7148SOL     OW22342   6.800   6.805   1.355
 7148SOL    HW122343   6.714   6.759   1.375
 7148SOL    HW222344   6.872   6.768   1.415
 7149SOL     OW22345   5.632   4.456   5.531
 7149SOL    HW122346   5.535   4.437   5.545
 7149SOL    HW222347   5.654   4.448   5.433
 7150SOL     OW22348   2.921   2.566   6.970
 7150SOL    HW122349   3.000   2.540   0.010
 7150SOL    HW222350   2.864   2.631   0.004
 7151SOL     OW22351   5.366   1.210   0.112
 7151SOL    HW122352   5.360   1.225   0.210
 7151SOL    HW222353   5.426   1.279   0.071
 7152SOL     OW22354   5.049   0.507   6.048
 7152SOL    HW122355   5.131   0.470   6.091
 7152SOL    HW222356   5.061   0.604   6.030
 7153SOL     OW22357   3.478   5.480   0.282
 7153SOL    HW122358   3.450   5.537   0.205
 7153SOL    HW222359   3.515   5.393   0.248
 7154SOL     OW22360   4.200   1.480   2.323
 7154SOL    HW122361   4.200   1.415   2.247
 7154SOL    HW222362   4.123   1.543   2.313
 7155SOL     OW22363   1.479   0.604   2.226
 7155SOL    HW122364   1.570   0.582   2.263
 7155SOL    HW222365   1.417   0.529   2.247
 7156SOL     OW22366   6.697   3.373   5.169
 7156SOL    HW122367   6.620   3.356   5.229
 7156SOL    HW222368   6.697   3.469   5.140
 7157SOL     OW22369   0.453   4.310   6.074
 7157SOL    HW122370   0.515   4.385   6.098
 7157SOL    HW222371   0.506   4.227   6.057
 7158SOL     OW22372   5.065   6.785   4.109
 7158SOL    HW122373   5.066   6.885   4.103
 7158SOL    HW222374   5.065   6.746   4.017
 7159SOL     OW22375   0.532   6.385   3.023
 7159SOL    HW122376   0.582   6.465   2.992
 7159SOL    HW222377   0.440   6.411   3.050
 7160SOL     OW22378   6.019   0.285   3.584
 7160SOL    HW122379   6.109   0.268   3.624
 7160SOL    HW222380   6.028   0.292   3.485
 7161SOL     OW22381   3.747   3.754   2.262
 7161SOL    HW122382   3.733   3.666   2.218
 7161SOL    HW222383   3.793   3.741   2.350
 7162SOL     OW22384   0.819   6.400   1.457
 7162SOL    HW122385   0.738   6.439   1.412
 7162SOL    HW222386   0.848   6.460   1.531
 7163SOL     OW22387   0.025   0.710   0.608
 7163SOL    HW122388   6.955   0.762   0.602
 7163SOL    HW222389   0.072   0.733   0.693
 7164SOL     OW22390   1.355   1.079   6.834
 7164SOL    HW122391   1.351   0.986   6.796
 7164SOL    HW222392   1.312   1.143   6.770
 7165SOL     OW22393   5.782   2.091   6.960
 7165SOL    HW122394   5.831   2.153   0.006
 7165SOL    HW222395   5.737   2.144   6.888
 7166SOL     OW22396   6.757   5.928   5.873
 7166SOL    HW122397   6.771   5.840   5.827
 7166SOL    HW222398   6.828   5.992   5.844
 7167SOL     OW22399   0.113   3.171   5.145
 7167SOL    HW122400   0.177   3.247   5.153
 7167SOL    HW222401   0.160   3.085   5.166
 7168SOL     OW22402   1.789   1.800   2.342
 7168SOL    HW122403   1.801   1.786   2.244
 7168SOL    HW222404   1.796   1.897   2.363
 7169SOL     OW22405   2.082   4.614   5.463
 7169SOL    HW122406   2.164   4.557   5.472
 7169SOL    HW222407   2.110   4.710   5.456
 7170SOL     OW22408   3.579   1.372   1.315
 7170SOL    HW122409   3.665   1.321   1.321
 7170SOL    HW222410   3.506   1.311   1.284
 7171SOL     OW22411   0.104   3.903   0.722
 7171SOL    HW122412   0.019   3.951   0.743
 7171SOL    HW222413   0.176   3.933   0.784
 7172SOL     OW22414   0.301   2.617   3.800
 7172SOL    HW122415   0.233   2.554   3.761
 7172SOL    HW222416   0.318   2.691   3.736
 7173SOL     OW22417   4.744   5.387   6.097
 7173SOL    HW122418   4.834   5.418   6.128
 7173SOL    HW222419   4.751   5.294   6.061
 7174SOL     OW22420   6.553   4.315   2.137
 7174SOL    HW122421   6.542   4.245   2.208
 7174SOL    HW222422   6.465   4.357   2.117
 7175SOL     OW22423   6.604   3.866   5.679
 7175SOL    HW122424   6.690   3.912   5.697
 7175SOL    HW222425   6.604   3.829   5.586
 7176SOL     OW22426   0.042   1.019   6.182
 7176SOL    HW122427   0.036   0.970   6.096
 7176SOL    HW222428   0.122   1.080   6.181
 7177SOL     OW22429   1.322   6.069   3.664
 7177SOL    HW122430   1.301   6.112   3.576
 7177SOL    HW222431   1.285   6.126   3.738
 7178SOL     OW22432   1.579   0.007   4.906
 7178SOL    HW122433   1.619   0.073   4.841
 7178SOL    HW222434   1.652   6.965   4.942
 7179SOL     OW22435   4.040   4.675   6.064
 7179SOL    HW122436   4.098   4.692   5.983
 7179SOL    HW222437   3.945   4.667   6.035
 7180SOL     OW22438   1.826   2.915   1.916
 7180SOL    HW122439   1.830   2.841   1.849
 7180SOL    HW222440   1.911   2.917   1.968
 7181SOL     OW22441   1.884   1.408   0.021
 7181SOL    HW122442   1.793   1.370   0.004
 7181SOL    HW222443   1.895   1.493   6.986
 7182SOL     OW22444   1.686   1.214   3.690
 7182SOL    HW122445   1.641   1.258   3.612
 7182SOL    HW222446   1.781   1.194   3.666
 7183SOL     OW22447   1.549   6.884   2.178
 7183SOL    HW122448   1.450   6.879   2.184
 7183SOL    HW222449   1.583   6.950   2.244
 7184SOL     OW22450   6.488   0.999   3.914
 7184SOL    HW122451   6.508   1.093   3.888
 7184SOL    HW222452   6.567   0.941   3.894
 7185SOL     OW22453   4.138   0.361   4.040
 7185SOL    HW122454   4.075   0.410   4.100
 7185SOL    HW222455   4.179   0.285   4.090
 7186SOL     OW22456   6.395   0.721   6.939
 7186SOL    HW122457   6.404   0.714   0.023
 7186SOL    HW222458   6.486   0.729   6.899
 7187SOL     OW22459   3.707   3.629   4.029
 7187SOL    HW122460   3.799   3.596   4.046
 7187SOL    HW222461   3.641   3.570   4.076
 7188SOL     OW22462   4.383   4.538   6.828
 7188SOL    HW122463   4.431   4.453   6.805
 7188SOL    HW222464   4.356   4.536   6.924
 7189SOL     OW22465   6.403   2.792   5.806
 7189SOL    HW122466   6.414   2.850   5.886
 7189SOL    HW222467   6.402   2.848   5.723
 7190SOL     OW22468   5.821   5.120   6.792
 7190SOL    HW122469   5.796   5.210   6.756
 7190SOL    HW222470   5.865   5.131   6.881
 7191SOL     OW22471   6.815   4.845   2.690
 7191SOL    HW122472   6.760   4.762   2.679
 7191SOL    HW222473   6.795   4.887   2.778
 7192SOL     OW22474   2.414   4.146   6.108
 7192SOL    HW122475   2.478   4.137   6.032
 7192SOL    HW222476   2.321   4.152   6.072
 7193SOL     OW22477   3.265   1.723   3.334
 7193SOL    HW122478   3.213   1.697   3.253
 7193SOL    HW222479   3.230   1.674   3.414
 7194SOL     OW22480   3.135   2.633   5.961
 7194SOL    HW122481   3.187   2.577   6.025
 7194SOL    HW222482   3.166   2.728   5.968
 7195SOL     OW22483   0.834   4.340   5.392
 7195SOL    HW122484   0.758   4.311   5.334
 7195SOL    HW222485   0.825   4.298   5.483
 7196SOL     OW22486   3.586   4.193   1.940
 7196SOL    HW122487   3.670   4.161   1.897
 7196SOL    HW222488   3.603   4.210   2.037
 7197SOL     OW22489   3.270   4.594   6.609
 7197SOL    HW122490   3.212   4.670   6.636
 7197SOL    HW222491   3.345   4.584   6.676
 7198SOL     OW22492   0.933   1.132   1.818
 7198SOL    HW122493   0.925   1.067   1.742
 7198SOL    HW222494   1.025   1.128   1.855
 7199SOL     OW22495   5.961   1.461   2.174
 7199SOL    HW122496   6.044   1.515   2.183
 7199SOL    HW222497   5.927   1.435   2.265
 7200SOL     OW22498   1.024   2.654   0.192
 7200SOL    HW122499   1.009   2.665   0.094
 7200SOL    HW222500   0.937   2.639   0.238
 7201SOL     OW22501   6.317   5.496   3.932
 7201SOL    HW122502   6.356   5.568   3.874
 7201SOL    HW222503   6.343   5.407   3.897
 7202SOL     OW22504   4.580   6.687   5.799
 7202SOL    HW122505   4.550   6.620   5.867
 7202SOL    HW222506   4.500   6.725   5.753
 7203SOL     OW22507   0.208   1.445   1.068
 7203SOL    HW122508   0.299   1.465   1.032
 7203SOL    HW222509   0.165   1.375   1.012
 7204SOL     OW22510   6.731   0.471   2.468
 7204SOL    HW122511   6.819   0.481   2.421
 7204SOL    HW222512   6.675   0.552   2.451
 7205SOL     OW22513   2.787   2.045   4.297
 7205SOL    HW122514   2.790   2.083   4.205
 7205SOL    HW222515   2.837   2.106   4.360
 7206SOL     OW22516   1.578   3.855   0.033
 7206SOL    HW122517   1.573   3.928   0.102
 7206SOL    HW222518   1.486   3.822   0.013
 7207SOL     OW22519   1.806   1.195   3.333
 7207SOL    HW122520   1.706   1.192   3.338
 7207SOL    HW222521   1.845   1.160   3.418
 7208SOL     OW22522   2.814   0.516   3.899
 7208SOL    HW122523   2.842   0.591   3.959
 7208SOL    HW222524   2.895   0.466   3.869
 7209SOL     OW22525   3.485   1.070   1.750
 7209SOL    HW122526   3.579   1.086   1.721
 7209SOL    HW222527   3.483   0.998   1.819
 7210SOL     OW22528   3.365   1.155   3.229
 7210SOL    HW122529   3.272   1.130   3.202
 7210SOL    HW222530   3.362   1.230   3.295
 7211SOL     OW22531   4.427   6.575   5.433
 7211SOL    HW122532   4.512   6.522   5.441
 7211SOL    HW222533   4.377   6.572   5.520
 7212SOL     OW22534   0.512   4.879   5.706
 7212SOL    HW122535   0.600   4.837   5.731
 7212SOL    HW222536   0.465   4.821   5.640
 7213SOL     OW22537   4.000   1.893   6.971
 7213SOL    HW122538   4.008   1.870   6.874
 7213SOL    HW222539   4.035   1.818   0.011
 7214SOL     OW22540   6.173   0.178   6.548
 7214SOL    HW122541   6.244   0.148   6.612
 7214SOL    HW222542   6.213   0.188   6.457
 7215SOL     OW22543   6.159   1.807   2.901
 7215SOL    HW122544   6.125   1.850   2.985
 7215SOL    HW222545   6.173   1.709   2.917
 7216SOL     OW22546   4.304   6.478   3.111
 7216SOL    HW122547   4.304   6.400   3.174
 7216SOL    HW222548   4.236   6.545   3.141
 7217SOL     OW22549   0.916   3.016   2.953
 7217SOL    HW122550   0.908   3.071   3.037
 7217SOL    HW222551   0.856   2.937   2.960
 7218SOL     OW22552   6.450   2.620   4.346
 7218SOL    HW122553   6.356   2.598   4.321
 7218SOL    HW222554   6.452   2.662   4.437
 7219SOL     OW22555   3.113   6.255   2.767
 7219SOL    HW122556   3.023   6.297   2.765
 7219SOL    HW222557   3.172   6.306   2.830
 7220SOL     OW22558   6.529   4.520   3.548
 7220SOL    HW122559   6.432   4.521   3.570
 7220SOL    HW222560   6.554   4.430   3.510
 7221SOL     OW22561   4.079   5.438   3.933
 7221SOL    HW122562   4.054   5.449   3.837
 7221SOL    HW222563   4.098   5.528   3.973
 7222SOL     OW22564   6.513   5.939   4.476
 7222SOL    HW122565   6.496   5.860   4.535
 7222SOL    HW222566   6.439   5.949   4.411
 7223SOL     OW22567   0.230   4.207   1.517
 7223SOL    HW122568   0.242   4.300   1.484
 7223SOL    HW222569   0.136   4.195   1.549
 7224SOL     OW22570   4.331   2.038   2.764
 7224SOL    HW122571   4.389   2.017   2.685
 7224SOL    HW222572   4.240   2.065   2.732
 7225SOL     OW22573   1.759   5.505   0.603
 7225SOL    HW122574   1.697   5.440   0.647
 7225SOL    HW222575   1.763   5.487   0.505
 7226SOL     OW22576   6.989   6.342   0.280
 7226SOL    HW122577   0.045   6.275   0.300
 7226SOL    HW222578   0.005   6.434   0.304
 7227SOL     OW22579   1.873   1.286   2.140
 7227SOL    HW122580   1.785   1.307   2.096
 7227SOL    HW222581   1.868   1.310   2.237
 7228SOL     OW22582   6.335   3.291   2.047
 7228SOL    HW122583   6.271   3.299   2.124
 7228SOL    HW222584   6.284   3.293   1.961
 7229SOL     OW22585   6.479   1.200   5.047
 7229SOL    HW122586   6.478   1.128   5.117
 7229SOL    HW222587   6.480   1.289   5.091
 7230SOL     OW22588   2.075   5.132   4.872
 7230SOL    HW122589   2.006   5.086   4.817
 7230SOL    HW222590   2.154   5.072   4.885
 7231SOL     OW22591   4.439   2.910   5.790
 7231SOL    HW122592   4.516   2.848   5.773
 7231SOL    HW222593   4.441   2.940   5.885
 7232SOL     OW22594   4.857   6.508   3.616
 7232SOL    HW122595   4.874   6.411   3.636
 7232SOL    HW222596   4.881   6.528   3.521
 7233SOL     OW22597   0.303   1.304   4.811
 7233SOL    HW122598   0.218   1.254   4.830
 7233SOL    HW222599   0.344   1.269   4.727
 7234SOL     OW22600   5.126   4.095   3.100
 7234SOL    HW122601   5.131   4.073   3.198
 7234SOL    HW222602   5.200   4.159   3.077
 7235SOL     OW22603   6.613   6.291   1.210
 7235SOL    HW122604   6.566   6.254   1.129
 7235SOL    HW222605   6.546   6.319   1.278
 7236SOL     OW22606   1.310   3.574   2.852
 7236SOL    HW122607   1.373   3.639   2.810
 7236SOL    HW222608   1.237   3.551   2.786
 7237SOL     OW22609   5.821   0.965   0.670
 7237SOL    HW122610   5.791   0.959   0.766
 7237SOL    HW222611   5.872   1.050   0.657
 7238SOL     OW22612   3.899   3.333   6.820
 7238SOL    HW122613   3.876   3.429   6.813
 7238SOL    HW222614   3.891   3.303   6.915
 7239SOL     OW22615   6.302   2.311   2.241
 7239SOL    HW122616   6.209   2.340   2.218
 7239SOL    HW222617   6.319   2.220   2.202
 7240SOL     OW22618   6.868   1.722   0.232
 7240SOL    HW122619   6.769   1.708   0.230
 7240SOL    HW222620   6.889   1.803   0.287
 7241SOL     OW22621   2.712   1.055   2.258
 7241SOL    HW122622   2.730   1.136   2.203
 7241SOL    HW222623   2.622   1.064   2.301
 7242SOL     OW22624   6.743   4.424   4.294
 7242SOL    HW122625   6.833   4.383   4.282
 7242SOL    HW222626   6.715   4.468   4.209
 7243SOL     OW22627   5.575   4.659   6.142
 7243SOL    HW122628   5.642   4.613   6.084
 7243SOL    HW222629   5.483   4.633   6.114
 7244SOL     OW22630   0.127   6.124   0.298
 7244SOL    HW122631   0.058   6.060   0.331
 7244SOL    HW222632   0.218   6.092   0.324
 7245SOL     OW22633   1.000   3.342   0.515
 7245SOL    HW122634   1.081   3.387   0.552
 7245SOL    HW222635   0.948   3.406   0.458
 7246SOL     OW22636   4.558   6.937   3.257
 7246SOL    HW122637   4.596   6.873   3.323
 7246SOL    HW222638   4.503   7.006   3.304
 7247SOL     OW22639   3.488   4.039   5.153
 7247SOL    HW122640   3.543   4.121   5.136
 7247SOL    HW222641   3.544   3.958   5.139
 7248SOL     OW22642   2.985   1.344   5.429
 7248SOL    HW122643   2.931   1.339   5.345
 7248SOL    HW222644   3.025   1.435   5.438
 7249SOL     OW22645   4.149   4.906   2.548
 7249SOL    HW122646   4.229   4.881   2.494
 7249SOL    HW222647   4.174   4.910   2.645
 7250SOL     OW22648   5.558   5.273   4.983
 7250SOL    HW122649   5.643   5.287   5.033
 7250SOL    HW222650   5.548   5.175   4.962
 7251SOL     OW22651   0.080   6.052   5.486
 7251SOL    HW122652   0.007   6.044   5.418
 7251SOL    HW222653   0.041   6.080   5.574
 7252SOL     OW22654   3.756   4.026   2.340
 7252SOL    HW122655   3.737   3.932   2.313
 7252SOL    HW222656   3.848   4.051   2.310
 7253SOL     OW22657   2.747   5.581   4.948
 7253SOL    HW122658   2.759   5.599   4.850
 7253SOL    HW222659   2.653   5.552   4.965
 7254SOL     OW22660   5.844   3.207   4.271
 7254SOL    HW122661   5.859   3.304   4.288
 7254SOL    HW222662   5.774   3.172   4.334
 7255SOL     OW22663   4.952   3.184   6.979
 7255SOL    HW122664   4.883   3.251   7.008
 7255SOL    HW222665   5.018   3.171   0.037
 7256SOL     OW22666   3.080   0.333   5.221
 7256SOL    HW122667   2.980   0.325   5.220
 7256SOL    HW222668   3.105   0.425   5.251
 7257SOL     OW22669   0.627   1.628   4.537
 7257SOL    HW122670   0.638   1.711   4.483
 7257SOL    HW222671   0.593   1.554   4.479
 7258SOL     OW22672   6.079   2.617   2.522
 7258SOL    HW122673   6.163   2.568   2.545
 7258SOL    HW222674   6.090   2.713   2.547
 7259SOL     OW22675   1.572   4.155   2.520
 7259SOL    HW122676   1.667   4.145   2.552
 7259SOL    HW222677   1.518   4.203   2.589
 7260SOL     OW22678   5.697   3.249   0.728
 7260SOL    HW122679   5.722   3.152   0.721
 7260SOL    HW222680   5.779   3.304   0.738
 7261SOL     OW22681   6.867   4.457   0.190
 7261SOL    HW122682   6.854   4.428   0.285
 7261SOL    HW222683   6.920   4.542   0.188
 7262SOL     OW22684   6.042   1.381   5.096
 7262SOL    HW122685   6.043   1.463   5.152
 7262SOL    HW222686   5.967   1.386   5.031
 7263SOL     OW22687   0.129   5.991   0.042
 7263SOL    HW122688   0.114   6.085   0.074
 7263SOL    HW222689   0.168   5.937   0.116
 7264SOL     OW22690   6.202   1.416   0.665
 7264SOL    HW122691   6.298   1.411   0.638
 7264SOL    HW222692   6.151   1.474   0.601
 7265SOL     OW22693   3.803   6.411   5.878
 7265SOL    HW122694   3.749   6.493   5.894
 7265SOL    HW222695   3.781   6.374   5.787
 7266SOL     OW22696   0.420   1.032   3.585
 7266SOL    HW122697   0.475   1.114   3.571
 7266SOL    HW222698   0.475   0.951   3.564
 7267SOL     OW22699   6.415   4.647   4.904
 7267SOL    HW122700   6.481   4.663   4.978
 7267SOL    HW222701   6.443   4.699   4.823
 7268SOL     OW22702   6.266   6.625   4.279
 7268SOL    HW122703   6.357   6.583   4.270
 7268SOL    HW222704   6.202   6.578   4.220
 7269SOL     OW22705   2.505   4.554   4.984
 7269SOL    HW122706   2.599   4.561   5.017
 7269SOL    HW222707   2.502   4.577   4.887
 7270SOL     OW22708   0.753   1.137   4.712
 7270SOL    HW122709   0.778   1.054   4.662
 7270SOL    HW222710   0.820   1.209   4.692
 7271SOL     OW22711   0.876   4.741   3.561
 7271SOL    HW122712   0.850   4.660   3.508
 7271SOL    HW222713   0.960   4.781   3.524
 7272SOL     OW22714   6.738   4.691   2.139
 7272SOL    HW122715   6.808   4.707   2.068
 7272SOL    HW222716   6.764   4.611   2.193
 7273SOL     OW22717   0.902   2.604   5.280
 7273SOL    HW122718   0.868   2.669   5.348
 7273SOL    HW222719   0.844   2.522   5.281
 7274SOL     OW22720   0.759   4.636   0.088
 7274SOL    HW122721   0.786   4.732   0.093
 7274SOL    HW222722   0.670   4.629   0.043
 7275SOL     OW22723   6.962   0.327   3.167
 7275SOL    HW122724   6.976   0.309   3.264
 7275SOL    HW222725   0.019   0.386   3.132
 7276SOL     OW22726   5.652   6.621   4.507
 7276SOL    HW122727   5.558   6.594   4.484
 7276SOL    HW222728   5.670   6.599   4.602
 7277SOL     OW22729   4.872   0.138   6.215
 7277SOL    HW122730   4.902   0.191   6.135
 7277SOL    HW222731   4.951   0.090   6.254
 7278SOL     OW22732   3.253   2.872   2.176
 7278SOL    HW122733   3.237   2.894   2.080
 7278SOL    HW222734   3.184   2.807   2.208
 7279SOL     OW22735   3.167   6.553   6.264
 7279SOL    HW122736   3.072   6.581   6.278
 7279SOL    HW222737   3.169   6.465   6.217
 7280SOL     OW22738   4.761   1.112   5.876
 7280SOL    HW122739   4.847   1.123   5.827
 7280SOL    HW222740   4.765   1.161   5.963
 7281SOL     OW22741   5.048   1.372   5.903
 7281SOL    HW122742   5.125   1.416   5.857
 7281SOL    HW222743   5.082   1.307   5.971
 7282SOL     OW22744   5.650   5.375   2.264
 7282SOL    HW122745   5.652   5.323   2.350
 7282SOL    HW222746   5.730   5.436   2.261
 7283SOL     OW22747   1.893   1.091   3.572
 7283SOL    HW122748   1.982   1.054   3.546
 7283SOL    HW222749   1.833   1.016   3.601
 7284SOL     OW22750   0.111   3.590   4.979
 7284SOL    HW122751   0.062   3.658   4.925
 7284SOL    HW222752   0.140   3.515   4.919
 7285SOL     OW22753   5.058   5.658   1.654
 7285SOL    HW122754   5.152   5.645   1.685
 7285SOL    HW222755   5.033   5.584   1.591
 7286SOL     OW22756   2.090   3.582   1.088
 7286SOL    HW122757   2.048   3.517   1.152
 7286SOL    HW222758   2.145   3.648   1.139
 7287SOL     OW22759   5.881   1.656   6.149
 7287SOL    HW122760   5.911   1.561   6.139
 7287SOL    HW222761   5.809   1.661   6.219
 7288SOL     OW22762   3.393   6.292   0.171
 7288SOL    HW122763   3.333   6.262   0.096
 7288SOL    HW222764   3.437   6.212   0.212
 7289SOL     OW22765   4.932   2.011   3.398
 7289SOL    HW122766   4.986   2.095   3.394
 7289SOL    HW222767   4.853   2.019   3.337
 7290SOL     OW22768   2.903   5.143   4.158
 7290SOL    HW122769   2.909   5.243   4.149
 7290SOL    HW222770   2.993   5.106   4.181
 7291SOL     OW22771   2.603   5.263   2.078
 7291SOL    HW122772   2.661   5.332   2.121
 7291SOL    HW222773   2.521   5.248   2.134
 7292SOL     OW22774   2.604   0.041   4.503
 7292SOL    HW122775   2.678   6.990   4.499
 7292SOL    HW222776   2.628   0.122   4.449
 7293SOL     OW22777   1.468   2.705   5.447
 7293SOL    HW122778   1.512   2.718   5.358
 7293SOL    HW222779   1.373   2.735   5.442
 7294SOL     OW22780   3.395   5.258   0.836
 7294SOL    HW122781   3.339   5.332   0.798
 7294SOL    HW222782   3.359   5.170   0.805
 7295SOL     OW22783   6.210   0.430   1.717
 7295SOL    HW122784   6.285   0.388   1.769
 7295SOL    HW222785   6.211   0.529   1.732
 7296SOL     OW22786   4.147   4.860   1.827
 7296SOL    HW122787   4.112   4.803   1.901
 7296SOL    HW222788   4.090   4.941   1.818
 7297SOL     OW22789   5.167   6.986   1.668
 7297SOL    HW122790   5.132   0.051   1.715
 7297SOL    HW222791   5.098   6.953   1.603
 7298SOL     OW22792   5.747   3.750   4.281
 7298SOL    HW122793   5.731   3.732   4.378
 7298SOL    HW222794   5.688   3.692   4.226
 7299SOL     OW22795   6.353   4.042   6.360
 7299SOL    HW122796   6.265   3.996   6.369
 7299SOL    HW222797   6.424   3.975   6.340
 7300SOL     OW22798   4.349   5.090   0.835
 7300SOL    HW122799   4.323   5.082   0.931
 7300SOL    HW222800   4.429   5.150   0.828
 7301SOL     OW22801   6.710   0.365   6.382
 7301SOL    HW122802   6.677   0.408   6.298
 7301SOL    HW222803   6.716   0.266   6.368
 7302SOL     OW22804   4.801   1.211   6.183
 7302SOL    HW122805   4.754   1.299   6.171
 7302SOL    HW222806   4.779   1.175   6.274
 7303SOL     OW22807   3.683   1.121   0.419
 7303SOL    HW122808   3.627   1.079   0.347
 7303SOL    HW222809   3.645   1.098   0.508
 7304SOL     OW22810   3.322   4.249   5.657
 7304SOL    HW122811   3.421   4.235   5.656
 7304SOL    HW222812   3.289   4.257   5.563
 7305SOL     OW22813   5.332   1.304   0.374
 7305SOL    HW122814   5.232   1.303   0.364
 7305SOL    HW222815   5.355   1.311   0.471
 7306SOL     OW22816   4.941   4.764   1.693
 7306SOL    HW122817   4.940   4.859   1.663
 7306SOL    HW222818   4.940   4.760   1.793
 7307SOL     OW22819   4.161   6.860   2.480
 7307SOL    HW122820   4.130   6.948   2.516
 7307SOL    HW222821   4.254   6.870   2.443
 7308SOL     OW22822   6.422   1.983   4.469
 7308SOL    HW122823   6.471   1.911   4.421
 7308SOL    HW222824   6.326   1.956   4.481
 7309SOL     OW22825   4.647   6.227   1.585
 7309SOL    HW122826   4.600   6.139   1.599
 7309SOL    HW222827   4.731   6.212   1.533
 7310SOL     OW22828   2.943   5.329   1.682
 7310SOL    HW122829   2.953   5.300   1.777
 7310SOL    HW222830   2.919   5.251   1.625
 7311SOL     OW22831   2.803   2.081   1.890
 7311SOL    HW122832   2.853   2.156   1.934
 7311SOL    HW222833   2.836   2.070   1.796
 7312SOL     OW22834   6.739   1.611   5.733
 7312SOL    HW122835   6.672   1.647   5.668
 7312SOL    HW222836   6.714   1.639   5.826
 7313SOL     OW22837   4.372   2.639   6.628
 7313SOL    HW122838   4.453   2.632   6.687
 7313SOL    HW222839   4.297   2.586   6.667
 7314SOL     OW22840   0.416   3.397   4.222
 7314SOL    HW122841   0.443   3.385   4.318
 7314SOL    HW222842   0.344   3.331   4.199
 7315SOL     OW22843   6.705   0.256   4.587
 7315SOL    HW122844   6.699   0.354   4.606
 7315SOL    HW222845   6.631   0.229   4.525
 7316SOL     OW22846   3.560   3.956   5.590
 7316SOL    HW122847   3.467   3.945   5.556
 7316SOL    HW222848   3.581   4.054   5.595
 7317SOL     OW22849   3.590   0.940   4.074
 7317SOL    HW122850   3.557   0.887   3.996
 7317SOL    HW222851   3.581   0.885   4.157
 7318SOL     OW22852   2.332   2.244   1.410
 7318SOL    HW122853   2.399   2.309   1.375
 7318SOL    HW222854   2.379   2.164   1.448
 7319SOL     OW22855   5.944   4.804   6.920
 7319SOL    HW122856   5.938   4.709   6.949
 7319SOL    HW222857   5.859   4.852   6.943
 7320SOL     OW22858   6.922   2.898   2.000
 7320SOL    HW122859   6.908   2.996   2.016
 7320SOL    HW222860   0.004   2.876   2.009
 7321SOL     OW22861   2.694   1.224   4.122
 7321SOL    HW122862   2.785   1.214   4.082
 7321SOL    HW222863   2.701   1.232   4.221
 7322SOL     OW22864   0.698   4.025   2.956
 7322SOL    HW122865   0.656   4.111   2.927
 7322SOL    HW222866   0.734   3.977   2.876
 7323SOL     OW22867   2.113   3.615   3.362
 7323SOL    HW122868   2.157   3.628   3.451
 7323SOL    HW222869   2.151   3.680   3.296
 7324SOL     OW22870   5.635   6.720   2.898
 7324SOL    HW122871   5.713   6.782   2.894
 7324SOL    HW222872   5.642   6.662   2.979
 7325SOL     OW22873   3.198   6.261   6.987
 7325SOL    HW122874   3.142   6.286   0.050
 7325SOL    HW222875   3.149   6.280   6.902
 7326SOL     OW22876   3.169   6.377   5.627
 7326SOL    HW122877   3.184   6.289   5.582
 7326SOL    HW222878   3.166   6.363   5.726
 7327SOL     OW22879   1.495   3.001   5.641
 7327SOL    HW122880   1.527   3.029   5.550
 7327SOL    HW222881   1.430   3.070   5.675
 7328SOL     OW22882   2.788   0.284   0.104
 7328SOL    HW122883   2.735   0.213   0.057
 7328SOL    HW222884   2.886   0.264   0.095
 7329SOL     OW22885   4.213   2.948   1.022
 7329SOL    HW122886   4.209   3.048   1.025
 7329SOL    HW222887   4.177   2.910   1.107
 7330SOL     OW22888   3.842   1.420   0.137
 7330SOL    HW122889   3.857   1.361   0.216
 7330SOL    HW222890   3.831   1.515   0.167
 7331SOL     OW22891   5.541   0.296   1.640
 7331SOL    HW122892   5.635   0.318   1.668
 7331SOL    HW222893   5.504   0.372   1.587
 7332SOL     OW22894   3.464   5.229   1.452
 7332SOL    HW122895   3.526   5.271   1.384
 7332SOL    HW222896   3.437   5.298   1.519
 7333SOL     OW22897   1.066   4.989   2.500
 7333SOL    HW122898   1.105   4.897   2.494
 7333SOL    HW222899   1.001   5.001   2.425
 7334SOL     OW22900   4.082   6.523   4.268
 7334SOL    HW122901   4.040   6.597   4.321
 7334SOL    HW222902   4.028   6.506   4.186
 7335SOL     OW22903   1.848   2.530   3.178
 7335SOL    HW122904   1.786   2.510   3.102
 7335SOL    HW222905   1.819   2.615   3.222
 7336SOL     OW22906   1.754   6.854   3.602
 7336SOL    HW122907   1.794   6.939   3.634
 7336SOL    HW222908   1.662   6.871   3.566
 7337SOL     OW22909   6.095   3.011   2.062
 7337SOL    HW122910   6.194   3.011   2.047
 7337SOL    HW222911   6.058   3.102   2.043
 7338SOL     OW22912   6.456   3.077   0.237
 7338SOL    HW122913   6.475   3.061   0.140
 7338SOL    HW222914   6.505   3.158   0.268
 7339SOL     OW22915   0.148   5.593   4.599
 7339SOL    HW122916   0.161   5.684   4.561
 7339SOL    HW222917   0.050   5.573   4.604
 7340SOL     OW22918   2.293   0.226   6.910
 7340SOL    HW122919   2.326   0.312   6.948
 7340SOL    HW222920   2.308   0.225   6.811
 7341SOL     OW22921   6.403   2.346   6.966
 7341SOL    HW122922   6.356   2.400   0.020
 7341SOL    HW222923   6.472   2.289   7.008
 7342SOL     OW22924   6.836   6.932   2.602
 7342SOL    HW122925   6.827   0.015   2.592
 7342SOL    HW222926   6.750   6.888   2.579
 7343SOL     OW22927   5.159   3.088   0.164
 7343SOL    HW122928   5.224   3.158   0.134
 7343SOL    HW222929   5.095   3.127   0.230
 7344SOL     OW22930   1.382   6.461   6.000
 7344SOL    HW122931   1.341   6.497   6.084
 7344SOL    HW222932   1.311   6.420   5.944
 7345SOL     OW22933   3.424   5.307   6.152
 7345SOL    HW122934   3.407   5.218   6.193
 7345SOL    HW222935   3.501   5.351   6.199
 7346SOL     OW22936   4.960   4.828   3.035
 7346SOL    HW122937   4.876   4.779   3.057
 7346SOL    HW222938   4.945   4.926   3.046
 7347SOL     OW22939   5.917   2.231   6.491
 7347SOL    HW122940   5.968   2.188   6.417
 7347SOL    HW222941   5.978   2.288   6.545
 7348SOL     OW22942   0.047   4.687   1.592
 7348SOL    HW122943   7.015   4.603   1.615
 7348SOL    HW222944   0.146   4.671   1.594
 7349SOL     OW22945   3.993   1.932   2.115
 7349SOL    HW122946   3.965   1.997   2.045
 7349SOL    HW222947   4.091   1.912   2.105
 7350SOL     OW22948   3.188   0.330   4.848
 7350SOL    HW122949   3.226   0.422   4.861
 7350SOL    HW222950   3.088   0.335   4.857
 7351SOL     OW22951   3.219   4.953   3.890
 7351SOL    HW122952   3.248   4.959   3.985
 7351SOL    HW222953   3.119   4.945   3.886
 7352SOL     OW22954   6.764   2.747   3.719
 7352SOL    HW122955   6.785   2.720   3.625
 7352SOL    HW222956   6.713   2.674   3.764
 7353SOL     OW22957   6.044   0.418   6.632
 7353SOL    HW122958   6.070   0.459   6.720
 7353SOL    HW222959   6.085   0.327   6.625
 7354SOL     OW22960   0.658   1.901   2.952
 7354SOL    HW122961   0.581   1.890   3.015
 7354SOL    HW222962   0.729   1.834   2.975
 7355SOL     OW22963   1.864   1.872   0.224
 7355SOL    HW122964   1.920   1.879   0.307
 7355SOL    HW222965   1.850   1.775   0.202
 7356SOL     OW22966   4.194   3.874   6.299
 7356SOL    HW122967   4.141   3.944   6.348
 7356SOL    HW222968   4.292   3.894   6.308
 7357SOL     OW22969   5.144   5.882   2.166
 7357SOL    HW122970   5.084   5.957   2.190
 7357SOL    HW222971   5.164   5.827   2.248
 7358SOL     OW22972   5.990   0.925   3.447
 7358SOL    HW122973   6.053   0.867   3.498
 7358SOL    HW222974   5.986   0.894   3.352
 7359SOL     OW22975   5.122   0.331   1.390
 7359SOL    HW122976   5.068   0.387   1.327
 7359SOL    HW222977   5.090   0.237   1.387
 7360SOL     OW22978   3.042   3.796   5.055
 7360SOL    HW122979   3.006   3.757   4.970
 7360SOL    HW222980   2.971   3.791   5.126
 7361SOL     OW22981   5.399   0.431   3.715
 7361SOL    HW122982   5.330   0.377   3.763
 7361SOL    HW222983   5.437   0.377   3.640
 7362SOL     OW22984   3.258   5.126   6.776
 7362SOL    HW122985   3.314   5.178   6.840
 7362SOL    HW222986   3.309   5.045   6.744
 7363SOL     OW22987   3.919   0.561   0.512
 7363SOL    HW122988   3.967   0.484   0.554
 7363SOL    HW222989   3.843   0.589   0.571
 7364SOL     OW22990   5.795   6.984   1.268
 7364SOL    HW122991   5.819   6.991   1.171
 7364SOL    HW222992   5.854   0.030   1.321
 7365SOL     OW22993   5.745   4.684   2.238
 7365SOL    HW122994   5.824   4.672   2.178
 7365SOL    HW222995   5.764   4.643   2.327
 7366SOL     OW22996   1.841   1.024   4.169
 7366SOL    HW122997   1.835   1.124   4.167
 7366SOL    HW222998   1.936   0.995   4.157
 7367SOL     OW22999   4.499   0.119   6.583
 7367SOL    HW123000   4.507   0.187   6.655
 7367SOL    HW223001   4.438   0.046   6.614
 7368SOL     OW23002   3.633   3.849   3.598
 7368SOL    HW123003   3.673   3.762   3.626
 7368SOL    HW223004   3.680   3.883   3.516
 7369SOL     OW23005   5.344   2.383   0.400
 7369SOL    HW123006   5.265   2.435   0.432
 7369SOL    HW223007   5.350   2.296   0.450
 7370SOL     OW23008   2.038   1.342   4.291
 7370SOL    HW123009   2.019   1.294   4.376
 7370SOL    HW223010   1.974   1.310   4.220
 7371SOL     OW23011   3.609   0.793   3.837
 7371SOL    HW123012   3.624   0.812   3.740
 7371SOL    HW223013   3.690   0.750   3.876
 7372SOL     OW23014   5.507   1.048   5.512
 7372SOL    HW123015   5.459   0.978   5.564
 7372SOL    HW223016   5.605   1.031   5.516
 7373SOL     OW23017   5.589   3.534   4.372
 7373SOL    HW123018   5.679   3.489   4.370
 7373SOL    HW223019   5.568   3.564   4.465
 7374SOL     OW23020   6.566   2.424   5.149
 7374SOL    HW123021   6.596   2.519   5.134
 7374SOL    HW223022   6.578   2.372   5.064
 7375SOL     OW23023   1.429   3.366   2.098
 7375SOL    HW123024   1.444   3.268   2.112
 7375SOL    HW223025   1.505   3.404   2.045
 7376SOL     OW23026   0.055   3.444   0.360
 7376SOL    HW123027   0.137   3.387   0.359
 7376SOL    HW223028   0.080   3.538   0.381
 7377SOL     OW23029   2.695   6.041   1.305
 7377SOL    HW123030   2.674   5.968   1.370
 7377SOL    HW223031   2.617   6.103   1.298
 7378SOL     OW23032   1.209   5.488   4.239
 7378SOL    HW123033   1.112   5.481   4.264
 7378SOL    HW223034   1.265   5.470   4.319
 7379SOL     OW23035   3.816   1.037   1.113
 7379SOL    HW123036   3.735   0.980   1.128
 7379SOL    HW223037   3.898   0.980   1.114
 7380SOL     OW23038   5.313   4.108   1.911
 7380SOL    HW123039   5.388   4.061   1.958
 7380SOL    HW223040   5.228   4.056   1.924
 7381SOL     OW23041   3.705   0.776   1.095
 7381SOL    HW123042   3.731   0.739   1.185
 7381SOL    HW223043   3.609   0.805   1.099
 7382SOL     OW23044   6.618   1.258   6.040
 7382SOL    HW123045   6.518   1.258   6.043
 7382SOL    HW223046   6.654   1.227   6.128
 7383SOL     OW23047   2.186   0.090   0.736
 7383SOL    HW123048   2.164   0.120   0.643
 7383SOL    HW223049   2.209   0.170   0.792
 7384SOL     OW23050   6.840   6.860   1.091
 7384SOL    HW123051   6.822   6.854   1.189
 7384SOL    HW223052   6.753   6.864   1.041
 7385SOL     OW23053   5.806   4.044   3.161
 7385SOL    HW123054   5.885   4.007   3.211
 7385SOL    HW223055   5.807   4.144   3.166
 7386SOL     OW23056   5.516   3.578   6.828
 7386SOL    HW123057   5.595   3.635   6.808
 7386SOL    HW223058   5.463   3.564   6.745
 7387SOL     OW23059   6.929   5.791   5.571
 7387SOL    HW123060   6.891   5.871   5.526
 7387SOL    HW223061   6.871   5.765   5.648
 7388SOL     OW23062   2.099   4.960   3.176
 7388SOL    HW123063   2.125   4.892   3.244
 7388SOL    HW223064   2.056   5.038   3.220
 7389SOL     OW23065   5.696   2.560   6.954
 7389SOL    HW123066   5.627   2.567   6.883
 7389SOL    HW223067   5.694   2.643   7.011
 7390SOL     OW23068   2.273   2.844   3.440
 7390SOL    HW123069   2.212   2.921   3.422
 7390SOL    HW223070   2.297   2.841   3.537
 7391SOL     OW23071   3.682   3.462   3.074
 7391SOL    HW123072   3.659   3.490   3.168
 7391SOL    HW223073   3.703   3.543   3.020
 7392SOL     OW23074   3.024   6.300   6.785
 7392SOL    HW123075   2.963   6.380   6.785
 7392SOL    HW223076   2.974   6.220   6.753
 7393SOL     OW23077   5.378   5.453   4.161
 7393SOL    HW123078   5.377   5.353   4.170
 7393SOL    HW223079   5.300   5.483   4.106
 7394SOL     OW23080   2.932   1.724   6.072
 7394SOL    HW123081   2.961   1.705   5.978
 7394SOL    HW223082   2.989   1.673   6.136
 7395SOL     OW23083   3.030   5.614   1.125
 7395SOL    HW123084   3.062   5.709   1.134
 7395SOL    HW223085   2.935   5.614   1.093
 7396SOL     OW23086   2.188   5.092   1.810
 7396SOL    HW123087   2.275   5.061   1.773
 7396SOL    HW223088   2.114   5.035   1.774
 7397SOL     OW23089   5.659   4.298   4.081
 7397SOL    HW123090   5.634   4.307   3.984
 7397SOL    HW223091   5.733   4.363   4.102
 7398SOL     OW23092   2.581   4.689   2.533
 7398SOL    HW123093   2.519   4.731   2.599
 7398SOL    HW223094   2.603   4.596   2.563
 7399SOL     OW23095   5.106   2.149   5.499
 7399SOL    HW123096   5.055   2.235   5.498
 7399SOL    HW223097   5.042   2.072   5.505
 7400SOL     OW23098   5.452   3.149   5.610
 7400SOL    HW123099   5.354   3.161   5.625
 7400SOL    HW223100   5.492   3.098   5.686
 7401SOL     OW23101   1.547   2.999   3.941
 7401SOL    HW123102   1.592   2.916   3.908
 7401SOL    HW223103   1.474   2.973   4.005
 7402SOL     OW23104   3.250   5.481   4.382
 7402SOL    HW123105   3.334   5.429   4.397
 7402SOL    HW223106   3.188   5.468   4.459
 7403SOL     OW23107   2.033   3.884   4.194
 7403SOL    HW123108   2.061   3.795   4.231
 7403SOL    HW223109   2.111   3.928   4.149
 7404SOL     OW23110   3.689   3.369   1.094
 7404SOL    HW123111   3.786   3.347   1.079
 7404SOL    HW223112   3.643   3.291   1.135
 7405SOL     OW23113   3.615   6.657   3.757
 7405SOL    HW123114   3.672   6.688   3.833
 7405SOL    HW223115   3.549   6.590   3.791
 7406SOL     OW23116   0.924   1.626   5.281
 7406SOL    HW123117   0.989   1.550   5.278
 7406SOL    HW223118   0.967   1.708   5.243
 7407SOL     OW23119   0.865   5.664   5.502
 7407SOL    HW123120   0.811   5.621   5.575
 7407SOL    HW223121   0.804   5.704   5.434
 7408SOL     OW23122   4.162   5.134   5.125
 7408SOL    HW123123   4.077   5.128   5.072
 7408SOL    HW223124   4.232   5.181   5.071
 7409SOL     OW23125   6.401   3.892   1.307
 7409SOL    HW123126   6.447   3.893   1.396
 7409SOL    HW223127   6.457   3.842   1.241
 7410SOL     OW23128   0.352   0.841   1.020
 7410SOL    HW123129   0.270   0.850   0.963
 7410SOL    HW223130   0.377   0.930   1.058
 7411SOL     OW23131   1.842   1.690   5.165
 7411SOL    HW123132   1.777   1.759   5.198
 7411SOL    HW223133   1.833   1.607   5.221
 7412SOL     OW23134   4.244   6.638   0.469
 7412SOL    HW123135   4.318   6.603   0.412
 7412SOL    HW223136   4.266   6.731   0.499
 7413SOL     OW23137   4.750   0.120   3.115
 7413SOL    HW123138   4.708   0.033   3.139
 7413SOL    HW223139   4.686   0.172   3.058
 7414SOL     OW23140   3.455   1.386   4.153
 7414SOL    HW123141   3.397   1.456   4.111
 7414SOL    HW223142   3.545   1.387   4.109
 7415SOL     OW23143   3.818   6.205   6.820
 7415SOL    HW123144   3.878   6.125   6.827
 7415SOL    HW223145   3.723   6.176   6.828
 7416SOL     OW23146   1.411   0.517   1.707
 7416SOL    HW123147   1.422   0.616   1.713
 7416SOL    HW223148   1.347   0.487   1.778
 7417SOL     OW23149   0.207   1.004   2.820
 7417SOL    HW123150   0.270   0.957   2.759
 7417SOL    HW223151   0.208   0.959   2.910
 7418SOL     OW23152   1.499   4.301   5.950
 7418SOL    HW123153   1.453   4.270   6.033
 7418SOL    HW223154   1.597   4.283   5.958
 7419SOL     OW23155   6.692   3.806   3.879
 7419SOL    HW123156   6.625   3.865   3.925
 7419SOL    HW223157   6.659   3.786   3.787
 7420SOL     OW23158   0.195   0.220   1.768
 7420SOL    HW123159   0.144   0.143   1.806
 7420SOL    HW223160   0.290   0.216   1.800
 7421SOL     OW23161   5.454   3.398   0.825
 7421SOL    HW123162   5.498   3.433   0.908
 7421SOL    HW223163   5.522   3.389   0.753
 7422SOL     OW23164   5.840   2.730   2.547
 7422SOL    HW123165   5.763   2.709   2.486
 7422SOL    HW223166   5.914   2.665   2.530
 7423SOL     OW23167   5.507   1.763   5.807
 7423SOL    HW123168   5.462   1.853   5.800
 7423SOL    HW223169   5.574   1.754   5.733
 7424SOL     OW23170   0.294   2.293   3.379
 7424SOL    HW123171   0.372   2.338   3.335
 7424SOL    HW223172   0.327   2.229   3.447
 7425SOL     OW23173   6.019   0.599   1.303
 7425SOL    HW123174   5.925   0.590   1.271
 7425SOL    HW223175   6.029   0.686   1.351
 7426SOL     OW23176   4.039   3.282   5.616
 7426SOL    HW123177   4.090   3.366   5.599
 7426SOL    HW223178   4.070   3.241   5.703
 7427SOL     OW23179   3.160   0.895   3.407
 7427SOL    HW123180   3.102   0.816   3.387
 7427SOL    HW223181   3.178   0.947   3.324
 7428SOL     OW23182   4.638   6.354   4.790
 7428SOL    HW123183   4.680   6.346   4.700
 7428SOL    HW223184   4.681   6.429   4.841
 7429SOL     OW23185   0.966   6.681   3.007
 7429SOL    HW123186   0.984   6.583   2.999
 7429SOL    HW223187   1.052   6.731   3.001
 7430SOL     OW23188   6.555   5.306   2.550
 7430SOL    HW123189   6.642   5.347   2.524
 7430SOL    HW223190   6.570   5.212   2.581
 7431SOL     OW23191   1.223   1.794   3.613
 7431SOL    HW123192   1.309   1.817   3.569
 7431SOL    HW223193   1.232   1.805   3.712
 7432SOL     OW23194   2.499   0.587   3.145
 7432SOL    HW123195   2.455   0.626   3.064
 7432SOL    HW223196   2.479   0.645   3.225
 7433SOL     OW23197   2.866   0.097   6.478
 7433SOL    HW123198   2.871   0.019   6.541
 7433SOL    HW223199   2.780   0.092   6.426
 7434SOL     OW23200   3.998   6.767   4.356
 7434SOL    HW123201   4.037   6.839   4.297
 7434SOL    HW223202   4.017   6.789   4.451
 7435SOL     OW23203   5.202   3.929   2.519
 7435SOL    HW123204   5.146   3.992   2.465
 7435SOL    HW223205   5.149   3.846   2.539
 7436SOL     OW23206   5.722   2.797   5.963
 7436SOL    HW123207   5.638   2.756   5.927
 7436SOL    HW223208   5.702   2.837   6.053
 7437SOL     OW23209   3.192   0.010   0.443
 7437SOL    HW123210   3.257   0.066   0.495
 7437SOL    HW223211   3.127   0.069   0.395
 7438SOL     OW23212   2.049   0.534   0.108
 7438SOL    HW123213   2.049   0.539   0.008
 7438SOL    HW223214   2.008   0.447   0.137
 7439SOL     OW23215   1.228   4.262   6.759
 7439SOL    HW123216   1.237   4.354   6.798
 7439SOL    HW223217   1.179   4.203   6.823
 7440SOL     OW23218   5.518   3.614   3.908
 7440SOL    HW123219   5.466   3.571   3.981
 7440SOL    HW223220   5.536   3.547   3.836
 7441SOL     OW23221   5.942   5.623   1.143
 7441SOL    HW123222   6.022   5.680   1.127
 7441SOL    HW223223   5.910   5.637   1.237
 7442SOL     OW23224   5.431   0.807   5.623
 7442SOL    HW123225   5.343   0.774   5.588
 7442SOL    HW223226   5.431   0.801   5.723
 7443SOL     OW23227   0.431   0.944   1.793
 7443SOL    HW123228   0.525   0.969   1.768
 7443SOL    HW223229   0.367   1.002   1.744
 7444SOL     OW23230   2.057   6.260   6.901
 7444SOL    HW123231   2.013   6.280   6.989
 7444SOL    HW223232   1.987   6.251   6.830
 7445SOL     OW23233   3.720   6.336   1.637
 7445SOL    HW123234   3.753   6.244   1.659
 7445SOL    HW223235   3.723   6.349   1.537
 7446SOL     OW23236   5.225   4.330   0.087
 7446SOL    HW123237   5.198   4.235   0.106
 7446SOL    HW223238   5.235   4.343   7.004
 7447SOL     OW23239   0.197   4.486   0.573
 7447SOL    HW123240   0.202   4.397   0.619
 7447SOL    HW223241   0.189   4.472   0.474
 7448SOL     OW23242   4.528   5.372   0.013
 7448SOL    HW123243   4.557   5.459   0.052
 7448SOL    HW223244   4.429   5.362   0.021
 7449SOL     OW23245   7.002   4.555   5.913
 7449SOL    HW123246   6.903   4.555   5.899
 7449SOL    HW223247   0.016   4.464   5.942
 7450SOL     OW23248   5.377   2.143   5.444
 7450SOL    HW123249   5.380   2.044   5.456
 7450SOL    HW223250   5.298   2.180   5.493
 7451SOL     OW23251   4.758   4.421   3.319
 7451SOL    HW123252   4.685   4.363   3.283
 7451SOL    HW223253   4.828   4.433   3.250
 7452SOL     OW23254   5.927   5.367   5.860
 7452SOL    HW123255   5.892   5.352   5.767
 7452SOL    HW223256   5.934   5.280   5.908
 7453SOL     OW23257   3.489   5.769   6.053
 7453SOL    HW123258   3.521   5.790   5.961
 7453SOL    HW223259   3.465   5.853   6.100
 7454SOL     OW23260   4.540   2.018   1.199
 7454SOL    HW123261   4.513   2.112   1.220
 7454SOL    HW223262   4.562   1.970   1.284
 7455SOL     OW23263   6.938   1.644   2.947
 7455SOL    HW123264   6.914   1.741   2.959
 7455SOL    HW223265   6.888   1.590   3.015
 7456SOL     OW23266   2.542   1.979   6.357
 7456SOL    HW123267   2.449   1.946   6.369
 7456SOL    HW223268   2.552   2.017   6.264
 7457SOL     OW23269   1.854   1.005   2.124
 7457SOL    HW123270   1.840   1.104   2.120
 7457SOL    HW223271   1.895   0.973   2.038
 7458SOL     OW23272   2.185   5.419   5.216
 7458SOL    HW123273   2.122   5.394   5.142
 7458SOL    HW223274   2.186   5.519   5.226
 7459SOL     OW23275   5.859   0.172   2.501
 7459SOL    HW123276   5.762   0.185   2.478
 7459SOL    HW223277   5.915   0.201   2.423
 7460SOL     OW23278   2.041   6.378   0.963
 7460SOL    HW123279   1.965   6.442   0.955
 7460SOL    HW223280   2.093   6.398   1.046
 7461SOL     OW23281   2.325   4.343   5.697
 7461SOL    HW123282   2.372   4.369   5.613
 7461SOL    HW223283   2.227   4.332   5.679
 7462SOL     OW23284   1.240   4.043   0.763
 7462SOL    HW123285   1.255   3.952   0.802
 7462SOL    HW223286   1.279   4.112   0.824
 7463SOL     OW23287   4.151   5.514   1.260
 7463SOL    HW123288   4.152   5.512   1.360
 7463SOL    HW223289   4.127   5.606   1.229
 7464SOL     OW23290   5.963   6.343   5.147
 7464SOL    HW123291   5.961   6.382   5.239
 7464SOL    HW223292   5.907   6.261   5.144
 7465SOL     OW23293   1.712   4.832   0.213
 7465SOL    HW123294   1.746   4.902   0.276
 7465SOL    HW223295   1.656   4.767   0.264
 7466SOL     OW23296   0.300   0.596   5.056
 7466SOL    HW123297   0.374   0.633   5.113
 7466SOL    HW223298   0.225   0.661   5.053
 7467SOL     OW23299   0.798   3.507   5.099
 7467SOL    HW123300   0.753   3.596   5.089
 7467SOL    HW223301   0.837   3.500   5.191
 7468SOL     OW23302   5.888   3.322   5.811
 7468SOL    HW123303   5.839   3.395   5.763
 7468SOL    HW223304   5.827   3.277   5.876
 7469SOL     OW23305   0.297   1.793   0.837
 7469SOL    HW123306   0.243   1.872   0.810
 7469SOL    HW223307   0.312   1.796   0.936
 7470SOL     OW23308   5.759   2.662   3.275
 7470SOL    HW123309   5.794   2.715   3.353
 7470SOL    HW223310   5.762   2.564   3.297
 7471SOL     OW23311   4.021   5.992   6.270
 7471SOL    HW123312   3.971   5.993   6.183
 7471SOL    HW223313   3.979   5.925   6.331
 7472SOL     OW23314   6.678   0.156   5.934
 7472SOL    HW123315   6.587   0.197   5.940
 7472SOL    HW223316   6.711   0.135   6.027
 7473SOL     OW23317   3.214   5.835   3.911
 7473SOL    HW123318   3.222   5.850   4.010
 7473SOL    HW223319   3.235   5.740   3.891
 7474SOL     OW23320   5.985   1.946   6.841
 7474SOL    HW123321   5.903   1.998   6.866
 7474SOL    HW223322   5.985   1.859   6.891
 7475SOL     OW23323   5.100   2.026   0.837
 7475SOL    HW123324   5.055   2.107   0.876
 7475SOL    HW223325   5.197   2.045   0.822
 7476SOL     OW23326   2.285   0.411   3.089
 7476SOL    HW123327   2.232   0.381   3.168
 7476SOL    HW223328   2.352   0.479   3.117
 7477SOL     OW23329   1.051   3.791   5.078
 7477SOL    HW123330   0.952   3.800   5.080
 7477SOL    HW223331   1.077   3.696   5.095
 7478SOL     OW23332   0.433   1.123   5.738
 7478SOL    HW123333   0.354   1.096   5.792
 7478SOL    HW223334   0.422   1.091   5.644
 7479SOL     OW23335   4.965   2.942   0.681
 7479SOL    HW123336   4.913   2.857   0.686
 7479SOL    HW223337   4.905   3.019   0.702
 7480SOL     OW23338   3.572   4.938   2.837
 7480SOL    HW123339   3.607   5.031   2.824
 7480SOL    HW223340   3.591   4.884   2.755
 7481SOL     OW23341   0.228   3.877   6.951
 7481SOL    HW123342   0.133   3.906   6.938
 7481SOL    HW223343   0.242   3.848   0.030
 7482SOL     OW23344   5.209   1.819   2.970
 7482SOL    HW123345   5.111   1.798   2.971
 7482SOL    HW223346   5.237   1.852   3.060
 7483SOL     OW23347   4.787   2.021   5.450
 7483SOL    HW123348   4.734   2.095   5.489
 7483SOL    HW223349   4.747   1.933   5.477
 7484SOL     OW23350   3.190   0.085   3.728
 7484SOL    HW123351   3.256   0.021   3.768
 7484SOL    HW223352   3.235   0.172   3.708
 7485SOL     OW23353   3.528   6.344   6.051
 7485SOL    HW123354   3.505   6.378   5.960
 7485SOL    HW223355   3.580   6.414   6.100
 7486SOL     OW23356   2.688   6.518   0.976
 7486SOL    HW123357   2.707   6.608   1.015
 7486SOL    HW223358   2.593   6.494   0.993
 7487SOL     OW23359   3.943   6.086   4.592
 7487SOL    HW123360   3.966   6.174   4.551
 7487SOL    HW223361   4.019   6.055   4.649
 7488SOL     OW23362   0.915   5.514   4.321
 7488SOL    HW123363   0.866   5.534   4.236
 7488SOL    HW223364   0.984   5.586   4.337
 7489SOL     OW23365   5.483   2.974   6.491
 7489SOL    HW123366   5.562   2.914   6.505
 7489SOL    HW223367   5.402   2.919   6.471
 7490SOL     OW23368   1.124   2.669   2.366
 7490SOL    HW123369   1.151   2.765   2.361
 7490SOL    HW223370   1.140   2.625   2.277
 7491SOL     OW23371   4.060   3.261   0.351
 7491SOL    HW123372   4.126   3.285   0.422
 7491SOL    HW223373   4.102   3.197   0.287
 7492SOL     OW23374   1.625   0.245   4.287
 7492SOL    HW123375   1.616   0.147   4.265
 7492SOL    HW223376   1.710   0.280   4.248
 7493SOL     OW23377   6.584   4.695   5.083
 7493SOL    HW123378   6.625   4.649   5.162
 7493SOL    HW223379   6.590   4.794   5.096
 7494SOL     OW23380   6.642   0.902   1.769
 7494SOL    HW123381   6.652   1.001   1.769
 7494SOL    HW223382   6.731   0.860   1.788
 7495SOL     OW23383   1.553   3.583   5.020
 7495SOL    HW123384   1.606   3.507   5.058
 7495SOL    HW223385   1.508   3.633   5.094
 7496SOL     OW23386   5.878   4.342   2.573
 7496SOL    HW123387   5.902   4.437   2.556
 7496SOL    HW223388   5.920   4.311   2.659
 7497SOL     OW23389   0.047   6.345   1.080
 7497SOL    HW123390   0.102   6.319   1.160
 7497SOL    HW223391   0.087   6.425   1.037
 7498SOL     OW23392   3.404   6.705   2.992
 7498SOL    HW123393   3.452   6.672   3.073
 7498SOL    HW223394   3.309   6.675   2.995
 7499SOL     OW23395   3.007   1.752   4.146
 7499SOL    HW123396   2.914   1.730   4.117
 7499SOL    HW223397   3.026   1.848   4.127
 7500SOL     OW23398   3.784   0.521   3.095
 7500SOL    HW123399   3.748   0.600   3.143
 7500SOL    HW223400   3.733   0.439   3.121
 7501SOL     OW23401   6.227   2.669   5.531
 7501SOL    HW123402   6.248   2.590   5.472
 7501SOL    HW223403   6.299   2.738   5.521
 7502SOL     OW23404   4.498   0.806   4.244
 7502SOL    HW123405   4.474   0.892   4.201
 7502SOL    HW223406   4.423   0.740   4.233
 7503SOL     OW23407   1.872   5.211   1.781
 7503SOL    HW123408   1.944   5.279   1.793
 7503SOL    HW223409   1.799   5.228   1.847
 7504SOL     OW23410   6.451   6.356   4.616
 7504SOL    HW123411   6.372   6.417   4.605
 7504SOL    HW223412   6.457   6.326   4.711
 7505SOL     OW23413   0.289   6.483   4.850
 7505SOL    HW123414   0.257   6.578   4.846
 7505SOL    HW223415   0.272   6.446   4.942
 7506SOL     OW23416   3.345   1.857   3.924
 7506SOL    HW123417   3.428   1.908   3.945
 7506SOL    HW223418   3.265   1.912   3.952
 7507SOL     OW23419   6.335   4.610   5.659
 7507SOL    HW123420   6.297   4.702   5.648
 7507SOL    HW223421   6.376   4.580   5.573
 7508SOL     OW23422   2.744   6.126   0.447
 7508SOL    HW123423   2.798   6.056   0.402
 7508SOL    HW223424   2.683   6.083   0.514
 7509SOL     OW23425   6.130   4.913   2.256
 7509SOL    HW123426   6.224   4.882   2.245
 7509SOL    HW223427   6.123   4.973   2.335
 7510SOL     OW23428   3.454   3.715   2.656
 7510SOL    HW123429   3.405   3.796   2.623
 7510SOL    HW223430   3.388   3.643   2.676
 7511SOL     OW23431   4.646   6.671   4.060
 7511SOL    HW123432   4.561   6.723   4.073
 7511SOL    HW223433   4.643   6.623   3.973
 7512SOL     OW23434   3.518   0.954   0.245
 7512SOL    HW123435   3.596   0.894   0.229
 7512SOL    HW223436   3.446   0.904   0.293
 7513SOL     OW23437   1.498   2.027   2.598
 7513SOL    HW123438   1.591   2.021   2.634
 7513SOL    HW223439   1.494   1.985   2.507
 7514SOL     OW23440   1.065   6.158   1.657
 7514SOL    HW123441   1.022   6.116   1.577
 7514SOL    HW223442   1.120   6.090   1.705
 7515SOL     OW23443   0.473   4.843   4.995
 7515SOL    HW123444   0.539   4.769   5.013
 7515SOL    HW223445   0.522   4.926   4.971
 7516SOL     OW23446   1.482   6.142   5.267
 7516SOL    HW123447   1.387   6.126   5.241
 7516SOL    HW223448   1.522   6.210   5.206
 7517SOL     OW23449   0.844   1.771   6.192
 7517SOL    HW123450   0.810   1.795   6.101
 7517SOL    HW223451   0.937   1.736   6.185
 7518SOL     OW23452   4.878   2.308   3.613
 7518SOL    HW123453   4.962   2.290   3.664
 7518SOL    HW223454   4.803   2.321   3.678
 7519SOL     OW23455   3.862   5.984   4.301
 7519SOL    HW123456   3.778   6.025   4.266
 7519SOL    HW223457   3.847   5.947   4.393
 7520SOL     OW23458   1.702   1.676   0.537
 7520SOL    HW123459   1.768   1.750   0.521
 7520SOL    HW223460   1.667   1.644   0.449
 7521SOL     OW23461   3.664   1.839   5.550
 7521SOL    HW123462   3.746   1.890   5.523
 7521SOL    HW223463   3.612   1.813   5.468
 7522SOL     OW23464   1.687   0.052   3.358
 7522SOL    HW123465   1.783   0.060   3.387
 7522SOL    HW223466   1.669   6.973   3.330
 7523SOL     OW23467   5.616   1.035   0.904
 7523SOL    HW123468   5.605   0.940   0.874
 7523SOL    HW223469   5.526   1.077   0.915
 7524SOL     OW23470   0.466   3.296   4.462
 7524SOL    HW123471   0.541   3.300   4.527
 7524SOL    HW223472   0.398   3.230   4.493
 7525SOL     OW23473   3.922   5.387   5.931
 7525SOL    HW123474   3.978   5.390   5.848
 7525SOL    HW223475   3.950   5.460   5.993
 7526SOL     OW23476   2.421   3.480   1.325
 7526SOL    HW123477   2.415   3.497   1.227
 7526SOL    HW223478   2.463   3.559   1.370
 7527SOL     OW23479   3.945   4.980   3.367
 7527SOL    HW123480   3.955   5.030   3.281
 7527SOL    HW223481   3.848   4.968   3.388
 7528SOL     OW23482   6.154   2.745   6.061
 7528SOL    HW123483   6.187   2.833   6.092
 7528SOL    HW223484   6.148   2.744   5.961
 7529SOL     OW23485   6.084   3.272   3.986
 7529SOL    HW123486   6.150   3.272   3.911
 7529SOL    HW223487   6.132   3.270   4.074
 7530SOL     OW23488   0.814   2.257   1.951
 7530SOL    HW123489   0.722   2.218   1.948
 7530SOL    HW223490   0.843   2.268   2.046
 7531SOL     OW23491   4.076   2.228   4.121
 7531SOL    HW123492   4.102   2.135   4.095
 7531SOL    HW223493   4.003   2.224   4.189
 7532SOL     OW23494   4.721   5.411   6.539
 7532SOL    HW123495   4.728   5.487   6.604
 7532SOL    HW223496   4.810   5.396   6.497
 7533SOL     OW23497   4.390   4.364   1.532
 7533SOL    HW123498   4.291   4.365   1.515
 7533SOL    HW223499   4.406   4.386   1.629
 7534SOL     OW23500   3.785   6.682   4.610
 7534SOL    HW123501   3.715   6.662   4.678
 7534SOL    HW223502   3.742   6.709   4.524
 7535SOL     OW23503   0.658   6.778   4.033
 7535SOL    HW123504   0.733   6.712   4.038
 7535SOL    HW223505   0.614   6.786   4.123
 7536SOL     OW23506   5.737   6.190   4.522
 7536SOL    HW123507   5.653   6.243   4.538
 7536SOL    HW223508   5.717   6.093   4.535
 7537SOL     OW23509   2.664   6.509   2.979
 7537SOL    HW123510   2.644   6.597   2.937
 7537SOL    HW223511   2.608   6.438   2.936
 7538SOL     OW23512   0.470   3.615   0.706
 7538SOL    HW123513   0.464   3.710   0.736
 7538SOL    HW223514   0.426   3.556   0.773
 7539SOL     OW23515   6.683   0.551   4.613
 7539SOL    HW123516   6.627   0.545   4.696
 7539SOL    HW223517   6.759   0.615   4.628
 7540SOL     OW23518   6.046   5.672   3.177
 7540SOL    HW123519   6.145   5.685   3.172
 7540SOL    HW223520   6.001   5.760   3.168
 7541SOL     OW23521   2.611   4.101   5.935
 7541SOL    HW123522   2.645   4.195   5.932
 7541SOL    HW223523   2.688   4.038   5.935
 7542SOL     OW23524   6.077   5.578   4.829
 7542SOL    HW123525   6.115   5.619   4.746
 7542SOL    HW223526   6.036   5.490   4.807
 7543SOL     OW23527   2.509   0.919   6.466
 7543SOL    HW123528   2.564   1.000   6.486
 7543SOL    HW223529   2.412   0.944   6.466
 7544SOL     OW23530   6.508   1.599   4.024
 7544SOL    HW123531   6.457   1.582   4.108
 7544SOL    HW223532   6.597   1.639   4.046
 7545SOL     OW23533   1.573   5.165   5.717
 7545SOL    HW123534   1.643   5.095   5.726
 7545SOL    HW223535   1.568   5.195   5.621
 7546SOL     OW23536   2.329   2.683   2.008
 7546SOL    HW123537   2.386   2.664   2.088
 7546SOL    HW223538   2.371   2.641   1.927
 7547SOL     OW23539   4.165   0.451   1.469
 7547SOL    HW123540   4.159   0.465   1.370
 7547SOL    HW223541   4.258   0.426   1.493
 7548SOL     OW23542   3.633   3.022   6.225
 7548SOL    HW123543   3.688   2.973   6.157
 7548SOL    HW223544   3.683   3.104   6.255
 7549SOL     OW23545   5.336   1.604   4.263
 7549SOL    HW123546   5.249   1.643   4.293
 7549SOL    HW223547   5.411   1.647   4.313
 7550SOL     OW23548   2.680   4.823   4.247
 7550SOL    HW123549   2.705   4.900   4.187
 7550SOL    HW223550   2.759   4.797   4.303
 7551SOL     OW23551   6.495   2.615   6.125
 7551SOL    HW123552   6.565   2.650   6.188
 7551SOL    HW223553   6.458   2.690   6.071
 7552SOL     OW23554   2.281   6.863   5.114
 7552SOL    HW123555   2.271   6.818   5.025
 7552SOL    HW223556   2.372   6.903   5.120
 7553SOL     OW23557   5.318   6.213   5.322
 7553SOL    HW123558   5.384   6.266   5.376
 7553SOL    HW223559   5.316   6.249   5.229
 7554SOL     OW23560   4.867   0.724   0.762
 7554SOL    HW123561   4.893   0.810   0.806
 7554SOL    HW223562   4.872   0.650   0.829
 7555SOL     OW23563   4.150   5.442   4.668
 7555SOL    HW123564   4.233   5.450   4.613
 7555SOL    HW223565   4.174   5.418   4.762
 7556SOL     OW23566   0.425   6.585   1.910
 7556SOL    HW123567   0.485   6.538   1.975
 7556SOL    HW223568   0.428   6.538   1.822
 7557SOL     OW23569   5.045   0.382   0.834
 7557SOL    HW123570   5.101   0.300   0.845
 7557SOL    HW223571   5.102   0.463   0.848
 7558SOL     OW23572   0.914   1.843   3.941
 7558SOL    HW123573   0.894   1.790   4.023
 7558SOL    HW223574   1.000   1.812   3.901
 7559SOL     OW23575   2.838   1.833   4.962
 7559SOL    HW123576   2.824   1.904   5.030
 7559SOL    HW223577   2.863   1.874   4.874
 7560SOL     OW23578   1.087   1.680   6.137
 7560SOL    HW123579   1.117   1.754   6.076
 7560SOL    HW223580   1.166   1.629   6.170
 7561SOL     OW23581   6.231   1.485   5.377
 7561SOL    HW123582   6.195   1.397   5.409
 7561SOL    HW223583   6.156   1.542   5.344
 7562SOL     OW23584   2.105   6.120   3.436
 7562SOL    HW123585   2.189   6.143   3.386
 7562SOL    HW223586   2.130   6.082   3.525
 7563SOL     OW23587   3.815   5.425   2.215
 7563SOL    HW123588   3.771   5.482   2.146
 7563SOL    HW223589   3.867   5.482   2.278
 7564SOL     OW23590   3.555   1.940   5.251
 7564SOL    HW123591   3.490   2.004   5.210
 7564SOL    HW223592   3.642   1.944   5.201
 7565SOL     OW23593   6.269   3.857   6.084
 7565SOL    HW123594   6.239   3.933   6.142
 7565SOL    HW223595   6.224   3.773   6.112
 7566SOL     OW23596   4.342   4.802   1.185
 7566SOL    HW123597   4.257   4.778   1.231
 7566SOL    HW223598   4.371   4.726   1.127
 7567SOL     OW23599   0.711   0.222   4.196
 7567SOL    HW123600   0.761   0.217   4.109
 7567SOL    HW223601   0.672   0.313   4.206
 7568SOL     OW23602   5.964   5.670   1.801
 7568SOL    HW123603   5.961   5.722   1.887
 7568SOL    HW223604   5.935   5.576   1.818
 7569SOL     OW23605   4.631   3.524   0.272
 7569SOL    HW123606   4.622   3.491   0.366
 7569SOL    HW223607   4.607   3.621   0.267
 7570SOL     OW23608   0.397   3.208   2.401
 7570SOL    HW123609   0.348   3.229   2.485
 7570SOL    HW223610   0.492   3.236   2.409
 7571SOL     OW23611   5.278   2.041   2.553
 7571SOL    HW123612   5.212   2.116   2.562
 7571SOL    HW223613   5.237   1.956   2.585
 7572SOL     OW23614   4.746   0.290   3.781
 7572SOL    HW123615   4.722   0.387   3.772
 7572SOL    HW223616   4.663   0.237   3.799
 7573SOL     OW23617   4.471   6.289   5.637
 7573SOL    HW123618   4.439   6.321   5.727
 7573SOL    HW223619   4.570   6.303   5.631
 7574SOL     OW23620   1.167   2.755   3.985
 7574SOL    HW123621   1.107   2.712   4.051
 7574SOL    HW223622   1.191   2.690   3.913
 7575SOL     OW23623   0.493   6.924   2.124
 7575SOL    HW123624   0.396   6.899   2.120
 7575SOL    HW223625   0.502   0.008   2.127
 7576SOL     OW23626   4.909   2.419   0.302
 7576SOL    HW123627   4.977   2.381   0.239
 7576SOL    HW223628   4.832   2.455   0.250
 7577SOL     OW23629   0.819   0.162   0.963
 7577SOL    HW123630   0.765   0.236   1.002
 7577SOL    HW223631   0.765   0.114   0.893
 7578SOL     OW23632   6.715   6.055   3.277
 7578SOL    HW123633   6.654   6.098   3.211
 7578SOL    HW223634   6.661   6.007   3.346
 7579SOL     OW23635   0.781   1.336   6.792
 7579SOL    HW123636   0.857   1.391   6.825
 7579SOL    HW223637   0.775   1.252   6.846
 7580SOL     OW23638   2.450   5.155   3.714
 7580SOL    HW123639   2.414   5.133   3.623
 7580SOL    HW223640   2.390   5.222   3.758
 7581SOL     OW23641   6.706   0.793   2.447
 7581SOL    HW123642   6.718   0.826   2.353
 7581SOL    HW223643   6.792   0.804   2.497
 7582SOL     OW23644   2.378   1.653   6.210
 7582SOL    HW123645   2.355   1.751   6.209
 7582SOL    HW223646   2.473   1.642   6.181
 7583SOL     OW23647   5.091   2.987   2.927
 7583SOL    HW123648   5.154   2.912   2.909
 7583SOL    HW223649   5.129   3.046   2.998
 7584SOL     OW23650   0.479   0.823   3.183
 7584SOL    HW123651   0.444   0.768   3.260
 7584SOL    HW223652   0.549   0.771   3.134
 7585SOL     OW23653   0.952   1.549   6.582
 7585SOL    HW123654   0.964   1.560   6.681
 7585SOL    HW223655   0.992   1.627   6.535
 7586SOL     OW23656   1.858   0.699   2.398
 7586SOL    HW123657   1.799   0.779   2.388
 7586SOL    HW223658   1.936   0.707   2.336
 7587SOL     OW23659   4.068   0.372   0.650
 7587SOL    HW123660   4.066   0.274   0.630
 7587SOL    HW223661   4.159   0.398   0.684
 7588SOL     OW23662   2.426   2.612   4.395
 7588SOL    HW123663   2.460   2.624   4.489
 7588SOL    HW223664   2.495   2.563   4.341
 7589SOL     OW23665   0.514   0.318   2.668
 7589SOL    HW123666   0.491   0.291   2.575
 7589SOL    HW223667   0.588   0.386   2.665
 7590SOL     OW23668   0.108   0.912   6.958
 7590SOL    HW123669   0.015   0.877   6.943
 7590SOL    HW223670   0.103   1.005   6.993
 7591SOL     OW23671   3.867   3.174   4.446
 7591SOL    HW123672   3.915   3.162   4.533
 7591SOL    HW223673   3.774   3.208   4.463
 7592SOL     OW23674   6.502   6.526   4.208
 7592SOL    HW123675   6.492   6.493   4.114
 7592SOL    HW223676   6.557   6.462   4.261
 7593SOL     OW23677   0.746   1.390   5.532
 7593SOL    HW123678   0.679   1.336   5.481
 7593SOL    HW223679   0.737   1.486   5.505
 7594SOL     OW23680   0.401   4.252   0.075
 7594SOL    HW123681   0.483   4.203   0.105
 7594SOL    HW223682   0.326   4.233   0.138
 7595SOL     OW23683   1.054   3.555   6.619
 7595SOL    HW123684   1.021   3.460   6.621
 7595SOL    HW223685   1.144   3.557   6.577
 7596SOL     OW23686   3.020   1.407   5.906
 7596SOL    HW123687   3.119   1.397   5.899
 7596SOL    HW223688   2.989   1.378   5.996
 7597SOL     OW23689   1.332   4.541   1.632
 7597SOL    HW123690   1.311   4.464   1.692
 7597SOL    HW223691   1.246   4.583   1.601
 7598SOL     OW23692   6.169   0.767   2.392
 7598SOL    HW123693   6.196   0.811   2.477
 7598SOL    HW223694   6.231   0.795   2.319
 7599SOL     OW23695   3.405   3.818   1.153
 7599SOL    HW123696   3.367   3.893   1.208
 7599SOL    HW223697   3.402   3.733   1.207
 7600SOL     OW23698   1.591   6.405   4.236
 7600SOL    HW123699   1.632   6.472   4.175
 7600SOL    HW223700   1.542   6.452   4.310
 7601SOL     OW23701   3.168   6.561   2.256
 7601SOL    HW123702   3.250   6.509   2.278
 7601SOL    HW223703   3.190   6.629   2.186
 7602SOL     OW23704   0.166   1.826   0.549
 7602SOL    HW123705   0.227   1.806   0.473
 7602SOL    HW223706   0.220   1.847   0.631
 7603SOL     OW23707   3.703   6.664   5.890
 7603SOL    HW123708   3.778   6.671   5.823
 7603SOL    HW223709   3.691   6.753   5.934
 7604SOL     OW23710   0.693   2.175   5.201
 7604SOL    HW123711   0.698   2.272   5.224
 7604SOL    HW223712   0.601   2.153   5.169
 7605SOL     OW23713   2.373   6.265   0.087
 7605SOL    HW123714   2.335   6.256   7.011
 7605SOL    HW223715   2.472   6.270   0.083
 7606SOL     OW23716   6.528   1.100   2.904
 7606SOL    HW123717   6.597   1.117   2.834
 7606SOL    HW223718   6.464   1.030   2.871
 7607SOL     OW23719   1.786   6.121   5.663
 7607SOL    HW123720   1.714   6.168   5.714
 7607SOL    HW223721   1.798   6.029   5.700
 7608SOL     OW23722   5.500   2.269   6.334
 7608SOL    HW123723   5.401   2.259   6.346
 7608SOL    HW223724   5.547   2.224   6.410
 7609SOL     OW23725   1.794   1.785   4.867
 7609SOL    HW123726   1.841   1.851   4.925
 7609SOL    HW223727   1.741   1.722   4.924
 7610SOL     OW23728   4.106   5.064   4.197
 7610SOL    HW123729   4.014   5.028   4.183
 7610SOL    HW223730   4.126   5.067   4.295
 7611SOL     OW23731   4.792   2.781   0.221
 7611SOL    HW123732   4.887   2.756   0.199
 7611SOL    HW223733   4.789   2.825   0.311
 7612SOL     OW23734   3.970   1.723   3.753
 7612SOL    HW123735   3.928   1.801   3.706
 7612SOL    HW223736   3.905   1.648   3.757
 7613SOL     OW23737   0.742   1.358   0.886
 7613SOL    HW123738   0.731   1.454   0.858
 7613SOL    HW223739   0.751   1.354   0.985
 7614SOL     OW23740   5.231   3.734   0.202
 7614SOL    HW123741   5.224   3.675   0.121
 7614SOL    HW223742   5.278   3.819   0.178
 7615SOL     OW23743   5.790   3.439   5.008
 7615SOL    HW123744   5.738   3.356   4.985
 7615SOL    HW223745   5.788   3.454   5.107
 7616SOL     OW23746   6.049   0.310   3.320
 7616SOL    HW123747   6.045   0.387   3.257
 7616SOL    HW223748   6.132   0.256   3.301
 7617SOL     OW23749   6.297   4.013   3.503
 7617SOL    HW123750   6.353   4.051   3.576
 7617SOL    HW223751   6.207   4.056   3.503
 7618SOL     OW23752   2.242   2.908   0.559
 7618SOL    HW123753   2.208   2.904   0.652
 7618SOL    HW223754   2.330   2.862   0.553
 7619SOL     OW23755   1.518   1.669   4.524
 7619SOL    HW123756   1.542   1.756   4.479
 7619SOL    HW223757   1.439   1.683   4.583
 7620SOL     OW23758   3.866   4.285   0.875
 7620SOL    HW123759   3.891   4.374   0.911
 7620SOL    HW223760   3.927   4.215   0.912
 7621SOL     OW23761   6.363   4.021   6.879
 7621SOL    HW123762   6.306   4.049   6.956
 7621SOL    HW223763   6.311   3.959   6.819
 7622SOL     OW23764   3.308   4.075   1.267
 7622SOL    HW123765   3.376   4.087   1.339
 7622SOL    HW223766   3.216   4.077   1.308
 7623SOL     OW23767   5.145   4.609   1.666
 7623SOL    HW123768   5.070   4.675   1.664
 7623SOL    HW223769   5.118   4.530   1.721
 7624SOL     OW23770   1.154   3.548   2.618
 7624SOL    HW123771   1.240   3.575   2.573
 7624SOL    HW223772   1.105   3.483   2.561
 7625SOL     OW23773   5.205   0.719   1.406
 7625SOL    HW123774   5.222   0.813   1.436
 7625SOL    HW223775   5.132   0.680   1.462
 7626SOL     OW23776   4.370   0.729   5.848
 7626SOL    HW123777   4.427   0.663   5.896
 7626SOL    HW223778   4.425   0.809   5.823
 7627SOL     OW23779   4.063   2.875   6.638
 7627SOL    HW123780   4.044   2.964   6.596
 7627SOL    HW223781   4.062   2.804   6.568
 7628SOL     OW23782   3.498   2.622   0.264
 7628SOL    HW123783   3.496   2.601   0.166
 7628SOL    HW223784   3.484   2.537   0.315
 7629SOL     OW23785   5.908   2.371   2.841
 7629SOL    HW123786   5.877   2.280   2.868
 7629SOL    HW223787   5.833   2.418   2.794
 7630SOL     OW23788   0.831   6.681   4.523
 7630SOL    HW123789   0.871   6.692   4.432
 7630SOL    HW223790   0.808   6.585   4.538
 7631SOL     OW23791   1.102   0.258   5.697
 7631SOL    HW123792   1.045   0.241   5.616
 7631SOL    HW223793   1.043   0.285   5.773
 7632SOL     OW23794   4.455   5.870   7.012
 7632SOL    HW123795   4.465   5.926   0.079
 7632SOL    HW223796   4.398   5.919   6.945
 7633SOL     OW23797   6.438   1.275   1.055
 7633SOL    HW123798   6.450   1.352   0.993
 7633SOL    HW223799   6.403   1.196   1.004
 7634SOL     OW23800   6.970   2.613   0.083
 7634SOL    HW123801   0.022   2.579   0.148
 7634SOL    HW223802   6.913   2.537   0.051
 7635SOL     OW23803   2.246   3.586   5.620
 7635SOL    HW123804   2.315   3.559   5.687
 7635SOL    HW223805   2.282   3.574   5.528
 7636SOL     OW23806   0.087   3.887   4.395
 7636SOL    HW123807   0.041   3.842   4.319
 7636SOL    HW223808   0.136   3.967   4.362
 7637SOL     OW23809   1.344   5.064   4.852
 7637SOL    HW123810   1.356   5.044   4.949
 7637SOL    HW223811   1.408   5.010   4.798
 7638SOL     OW23812   0.390   6.088   1.023
 7638SOL    HW123813   0.428   6.094   1.115
 7638SOL    HW223814   0.461   6.113   0.957
 7639SOL     OW23815   1.387   0.776   0.098
 7639SOL    HW123816   1.482   0.749   0.116
 7639SOL    HW223817   1.345   0.808   0.182
 7640SOL     OW23818   3.334   1.144   0.820
 7640SOL    HW123819   3.375   1.223   0.867
 7640SOL    HW223820   3.267   1.101   0.880
 7641SOL     OW23821   0.174   3.896   3.781
 7641SOL    HW123822   0.120   3.964   3.831
 7641SOL    HW223823   0.266   3.932   3.765
 7642SOL     OW23824   5.819   1.033   3.000
 7642SOL    HW123825   5.755   1.086   2.943
 7642SOL    HW223826   5.775   0.949   3.030
 7643SOL     OW23827   5.170   3.643   3.907
 7643SOL    HW123828   5.161   3.661   4.005
 7643SOL    HW223829   5.172   3.545   3.891
 7644SOL     OW23830   5.418   3.832   1.369
 7644SOL    HW123831   5.432   3.883   1.454
 7644SOL    HW223832   5.451   3.886   1.292
 7645SOL     OW23833   3.412   4.840   6.723
 7645SOL    HW123834   3.461   4.780   6.786
 7645SOL    HW223835   3.315   4.844   6.749
 7646SOL     OW23836   6.093   1.460   0.239
 7646SOL    HW123837   6.172   1.483   0.183
 7646SOL    HW223838   6.011   1.460   0.182
 7647SOL     OW23839   0.036   2.084   4.114
 7647SOL    HW123840   0.004   2.105   4.207
 7647SOL    HW223841   0.128   2.120   4.101
 7648SOL     OW23842   2.503   2.103   1.941
 7648SOL    HW123843   2.603   2.095   1.932
 7648SOL    HW223844   2.461   2.015   1.919
 7649SOL     OW23845   3.639   1.064   6.406
 7649SOL    HW123846   3.625   0.986   6.468
 7649SOL    HW223847   3.720   1.114   6.434
 7650SOL     OW23848   4.163   2.410   0.608
 7650SOL    HW123849   4.192   2.471   0.683
 7650SOL    HW223850   4.076   2.444   0.570
 7651SOL     OW23851   3.489   4.784   6.394
 7651SOL    HW123852   3.564   4.722   6.374
 7651SOL    HW223853   3.437   4.750   6.472
 7652SOL     OW23854   1.588   0.634   3.881
 7652SOL    HW123855   1.621   0.545   3.914
 7652SOL    HW223856   1.666   0.695   3.865
 7653SOL     OW23857   1.814   0.921   6.332
 7653SOL    HW123858   1.765   0.978   6.266
 7653SOL    HW223859   1.750   0.860   6.377
 7654SOL     OW23860   6.109   1.907   5.889
 7654SOL    HW123861   6.084   1.912   5.986
 7654SOL    HW223862   6.089   1.995   5.845
 7655SOL     OW23863   3.272   1.317   3.453
 7655SOL    HW123864   3.216   1.260   3.513
 7655SOL    HW223865   3.338   1.368   3.509
 7656SOL     OW23866   6.563   3.832   6.979
 7656SOL    HW123867   6.485   3.894   6.965
 7656SOL    HW223868   6.534   3.755   0.020
 7657SOL     OW23869   0.965   4.363   4.678
 7657SOL    HW123870   0.969   4.456   4.714
 7657SOL    HW223871   0.885   4.316   4.716
 7658SOL     OW23872   2.294   0.915   1.089
 7658SOL    HW123873   2.344   0.873   1.013
 7658SOL    HW223874   2.242   0.993   1.055
 7659SOL     OW23875   4.708   3.865   5.693
 7659SOL    HW123876   4.774   3.792   5.677
 7659SOL    HW223877   4.749   3.952   5.665
 7660SOL     OW23878   6.823   5.144   5.366
 7660SOL    HW123879   6.861   5.132   5.457
 7660SOL    HW223880   6.873   5.088   5.300
 7661SOL     OW23881   3.983   1.534   5.318
 7661SOL    HW123882   3.910   1.466   5.327
 7661SOL    HW223883   4.061   1.507   5.373
 7662SOL     OW23884   6.838   6.413   1.282
 7662SOL    HW123885   6.898   6.398   1.203
 7662SOL    HW223886   6.759   6.352   1.277
 7663SOL     OW23887   0.279   5.451   5.093
 7663SOL    HW123888   0.335   5.448   5.010
 7663SOL    HW223889   0.278   5.361   5.136
 7664SOL     OW23890   3.699   2.072   2.279
 7664SOL    HW123891   3.700   2.124   2.194
 7664SOL    HW223892   3.788   2.078   2.323
 7665SOL     OW23893   3.580   0.128   5.678
 7665SOL    HW123894   3.503   0.101   5.620
 7665SOL    HW223895   3.579   0.075   5.763
 7666SOL     OW23896   5.212   4.276   3.373
 7666SOL    HW123897   5.298   4.277   3.322
 7666SOL    HW223898   5.218   4.208   3.447
 7667SOL     OW23899   4.150   6.119   2.679
 7667SOL    HW123900   4.225   6.182   2.660
 7667SOL    HW223901   4.091   6.159   2.750
 7668SOL     OW23902   2.297   5.546   0.774
 7668SOL    HW123903   2.273   5.595   0.690
 7668SOL    HW223904   2.214   5.527   0.827
 7669SOL     OW23905   2.405   1.137   6.728
 7669SOL    HW123906   2.395   1.085   6.643
 7669SOL    HW223907   2.322   1.128   6.783
 7670SOL     OW23908   0.628   0.324   1.091
 7670SOL    HW123909   0.704   0.373   1.134
 7670SOL    HW223910   0.552   0.318   1.156
 7671SOL     OW23911   3.478   6.904   0.582
 7671SOL    HW123912   3.481   6.837   0.507
 7671SOL    HW223913   3.399   6.886   0.640
 7672SOL     OW23914   4.874   4.445   2.296
 7672SOL    HW123915   4.880   4.538   2.258
 7672SOL    HW223916   4.958   4.396   2.277
 7673SOL     OW23917   1.912   6.716   4.436
 7673SOL    HW123918   2.010   6.735   4.436
 7673SOL    HW223919   1.888   6.664   4.518
 7674SOL     OW23920   4.930   6.194   4.831
 7674SOL    HW123921   4.964   6.115   4.883
 7674SOL    HW223922   4.845   6.227   4.873
 7675SOL     OW23923   4.938   6.190   3.189
 7675SOL    HW123924   4.855   6.138   3.171
 7675SOL    HW223925   5.005   6.171   3.116
 7676SOL     OW23926   3.753   2.967   5.451
 7676SOL    HW123927   3.666   3.009   5.474
 7676SOL    HW223928   3.826   3.035   5.460
 7677SOL     OW23929   6.298   4.640   0.217
 7677SOL    HW123930   6.358   4.682   0.149
 7677SOL    HW223931   6.250   4.562   0.175
 7678SOL     OW23932   2.283   1.226   5.270
 7678SOL    HW123933   2.218   1.293   5.235
 7678SOL    HW223934   2.305   1.246   5.366
 7679SOL     OW23935   3.721   5.784   5.052
 7679SOL    HW123936   3.641   5.754   5.000
 7679SOL    HW223937   3.803   5.775   4.997
 7680SOL     OW23938   1.948   7.000   4.051
 7680SOL    HW123939   1.962   0.012   4.146
 7680SOL    HW223940   1.974   6.905   4.038
 7681SOL     OW23941   2.419   3.062   6.082
 7681SOL    HW123942   2.459   2.982   6.127
 7681SOL    HW223943   2.414   3.138   6.147
 7682SOL     OW23944   3.209   1.064   2.851
 7682SOL    HW123945   3.119   1.085   2.814
 7682SOL    HW223946   3.258   1.149   2.869
 7683SOL     OW23947   0.070   4.704   4.358
 7683SOL    HW123948   0.059   4.707   4.259
 7683SOL    HW223949   0.166   4.683   4.380
 7684SOL     OW23950   4.808   3.237   1.416
 7684SOL    HW123951   4.766   3.198   1.498
 7684SOL    HW223952   4.898   3.197   1.402
 7685SOL     OW23953   2.776   0.167   0.741
 7685SOL    HW123954   2.783   0.138   0.836
 7685SOL    HW223955   2.723   0.100   0.689
 7686SOL     OW23956   6.783   6.683   5.250
 7686SOL    HW123957   6.883   6.682   5.249
 7686SOL    HW223958   6.749   6.638   5.167
 7687SOL     OW23959   5.460   4.252   6.113
 7687SOL    HW123960   5.538   4.253   6.051
 7687SOL    HW223961   5.380   4.291   6.067
 7688SOL     OW23962   0.009   4.056   6.512
 7688SOL    HW123963   7.002   4.108   6.430
 7688SOL    HW223964   0.091   4.001   6.495
 7689SOL     OW23965   4.549   1.083   1.906
 7689SOL    HW123966   4.621   1.033   1.954
 7689SOL    HW223967   4.588   1.130   1.827
 7690SOL     OW23968   5.596   5.475   1.886
 7690SOL    HW123969   5.533   5.460   1.963
 7690SOL    HW223970   5.609   5.574   1.873
 7691SOL     OW23971   4.961   3.201   3.802
 7691SOL    HW123972   4.945   3.144   3.883
 7691SOL    HW223973   4.901   3.171   3.728
 7692SOL     OW23974   2.891   6.854   2.549
 7692SOL    HW123975   2.908   6.835   2.452
 7692SOL    HW223976   2.906   6.951   2.566
 7693SOL     OW23977   2.760   0.761   1.910
 7693SOL    HW123978   2.698   0.822   1.860
 7693SOL    HW223979   2.750   0.777   2.008
 7694SOL     OW23980   4.738   1.188   5.585
 7694SOL    HW123981   4.675   1.185   5.662
 7694SOL    HW223982   4.808   1.257   5.602
 7695SOL     OW23983   4.521   0.154   3.732
 7695SOL    HW123984   4.440   0.168   3.676
 7695SOL    HW223985   4.520   0.061   3.770
 7696SOL     OW23986   1.935   2.923   5.884
 7696SOL    HW123987   1.927   2.903   5.981
 7696SOL    HW223988   2.032   2.918   5.857
 7697SOL     OW23989   5.276   0.035   3.533
 7697SOL    HW123990   5.249   6.991   3.609
 7697SOL    HW223991   5.198   0.093   3.506
 7698SOL     OW23992   6.337   2.954   1.139
 7698SOL    HW123993   6.361   2.879   1.078
 7698SOL    HW223994   6.288   2.918   1.219
 7699SOL     OW23995   4.893   6.049   5.823
 7699SOL    HW123996   4.848   6.031   5.736
 7699SOL    HW223997   4.860   5.984   5.892
 7700SOL     OW23998   5.115   6.348   2.210
 7700SOL    HW123999   5.030   6.304   2.181
 7700SOL    HW224000   5.102   6.447   2.213
 7701SOL     OW24001   1.399   2.385   6.057
 7701SOL    HW124002   1.462   2.337   6.116
 7701SOL    HW224003   1.373   2.472   6.099
 7702SOL     OW24004   4.631   0.085   4.681
 7702SOL    HW124005   4.586   0.146   4.615
 7702SOL    HW224006   4.562   0.031   4.729
 7703SOL     OW24007   6.885   6.939   5.542
 7703SOL    HW124008   6.866   6.938   5.640
 7703SOL    HW224009   6.804   6.905   5.493
 7704SOL     OW24010   0.992   1.698   4.609
 7704SOL    HW124011   0.977   1.631   4.535
 7704SOL    HW224012   0.912   1.699   4.669
 7705SOL     OW24013   1.326   5.098   6.884
 7705SOL    HW124014   1.371   5.153   6.813
 7705SOL    HW224015   1.320   5.151   6.968
 7706SOL     OW24016   3.754   2.947   2.675
 7706SOL    HW124017   3.798   2.904   2.596
 7706SOL    HW224018   3.671   2.994   2.645
 7707SOL     OW24019   0.037   3.914   0.166
 7707SOL    HW124020   6.966   3.869   0.145
 7707SOL    HW224021   0.104   3.846   0.196
 7708SOL     OW24022   2.087   1.161   4.029
 7708SOL    HW124023   2.087   1.073   3.982
 7708SOL    HW224024   2.112   1.233   3.964
 7709SOL     OW24025   0.079   4.668   1.303
 7709SOL    HW124026   0.015   4.653   1.228
 7709SOL    HW224027   0.034   4.723   1.374
 7710SOL     OW24028   6.910   2.509   0.832
 7710SOL    HW124029   6.872   2.474   0.918
 7710SOL    HW224030   7.005   2.536   0.845
 7711SOL     OW24031   0.302   4.533   4.686
 7711SOL    HW124032   0.209   4.506   4.663
 7711SOL    HW224033   0.299   4.609   4.752
 7712SOL     OW24034   0.159   5.256   5.597
 7712SOL    HW124035   0.155   5.330   5.530
 7712SOL    HW224036   0.252   5.246   5.631
 7713SOL     OW24037   1.279   4.089   0.087
 7713SOL    HW124038   1.210   4.028   0.047
 7713SOL    HW224039   1.250   4.184   0.075
 7714SOL     OW24040   6.479   2.186   4.622
 7714SOL    HW124041   6.414   2.174   4.698
 7714SOL    HW224042   6.472   2.109   4.560
 7715SOL     OW24043   3.755   3.345   5.285
 7715SOL    HW124044   3.693   3.357   5.207
 7715SOL    HW224045   3.807   3.429   5.300
 7716SOL     OW24046   1.096   6.348   6.106
 7716SOL    HW124047   1.036   6.394   6.172
 7716SOL    HW224048   1.078   6.384   6.015
 7717SOL     OW24049   6.897   2.387   6.353
 7717SOL    HW124050   6.979   2.331   6.339
 7717SOL    HW224051   6.819   2.328   6.372
 7718SOL     OW24052   0.986   3.554   3.034
 7718SOL    HW124053   1.016   3.647   3.053
 7718SOL    HW224054   1.041   3.489   3.088
 7719SOL     OW24055   1.778   5.598   4.829
 7719SOL    HW124056   1.714   5.622   4.902
 7719SOL    HW224057   1.727   5.563   4.751
 7720SOL     OW24058   4.520   1.278   6.469
 7720SOL    HW124059   4.516   1.311   6.564
 7720SOL    HW224060   4.552   1.183   6.469
 7721SOL     OW24061   0.086   6.881   2.523
 7721SOL    HW124062   0.140   6.875   2.439
 7721SOL    HW224063   7.009   6.913   2.501
 7722SOL     OW24064   1.025   5.789   4.001
 7722SOL    HW124065   1.064   5.699   3.983
 7722SOL    HW224066   0.943   5.801   3.944
 7723SOL     OW24067   4.984   3.456   6.762
 7723SOL    HW124068   5.035   3.488   6.842
 7723SOL    HW224069   5.036   3.385   6.715
 7724SOL     OW24070   1.919   3.641   0.888
 7724SOL    HW124071   1.846   3.700   0.924
 7724SOL    HW224072   1.977   3.610   0.964
 7725SOL     OW24073   5.568   2.740   4.391
 7725SOL    HW124074   5.548   2.730   4.489
 7725SOL    HW224075   5.647   2.683   4.368
 7726SOL     OW24076   1.249   3.088   6.026
 7726SOL    HW124077   1.321   3.018   6.030
 7726SOL    HW224078   1.273   3.156   5.956
 7727SOL     OW24079   4.145   1.081   2.169
 7727SOL    HW124080   4.236   1.100   2.206
 7727SOL    HW224081   4.118   1.156   2.107
 7728SOL     OW24082   2.181   4.031   4.465
 7728SOL    HW124083   2.189   4.055   4.561
 7728SOL    HW224084   2.219   4.104   4.409
 7729SOL     OW24085   6.395   1.377   2.826
 7729SOL    HW124086   6.414   1.359   2.923
 7729SOL    HW224087   6.335   1.305   2.790
 7730SOL     OW24088   6.798   4.685   4.893
 7730SOL    HW124089   6.730   4.694   4.966
 7730SOL    HW224090   6.868   4.618   4.922
 7731SOL     OW24091   6.630   6.738   6.348
 7731SOL    HW124092   6.611   6.659   6.289
 7731SOL    HW224093   6.701   6.714   6.414
 7732SOL     OW24094   3.734   0.187   6.489
 7732SOL    HW124095   3.706   0.134   6.409
 7732SOL    HW224096   3.679   0.159   6.568
 7733SOL     OW24097   6.459   5.441   1.648
 7733SOL    HW124098   6.553   5.405   1.648
 7733SOL    HW224099   6.405   5.391   1.581
 7734SOL     OW24100   3.544   4.125   3.913
 7734SOL    HW124101   3.483   4.195   3.949
 7734SOL    HW224102   3.523   4.037   3.957
 7735SOL     OW24103   0.404   6.710   1.032
 7735SOL    HW124104   0.322   6.653   1.038
 7735SOL    HW224105   0.456   6.686   0.950
 7736SOL     OW24106   1.047   2.748   6.951
 7736SOL    HW124107   0.955   2.743   6.913
 7736SOL    HW224108   1.060   2.836   6.996
 7737SOL     OW24109   4.403   4.238   0.192
 7737SOL    HW124110   4.489   4.249   0.141
 7737SOL    HW224111   4.350   4.322   0.185
 7738SOL     OW24112   2.184   0.512   5.274
 7738SOL    HW124113   2.111   0.569   5.312
 7738SOL    HW224114   2.258   0.571   5.241
 7739SOL     OW24115   1.915   2.016   0.684
 7739SOL    HW124116   1.873   1.952   0.748
 7739SOL    HW224117   2.001   2.050   0.724
 7740SOL     OW24118   2.025   0.457   4.790
 7740SOL    HW124119   2.030   0.388   4.863
 7740SOL    HW224120   1.986   0.541   4.827
 7741SOL     OW24121   0.693   4.788   6.122
 7741SOL    HW124122   0.715   4.883   6.141
 7741SOL    HW224123   0.773   4.742   6.083
 7742SOL     OW24124   4.572   2.087   3.904
 7742SOL    HW124125   4.564   2.069   3.806
 7742SOL    HW224126   4.487   2.130   3.936
 7743SOL     OW24127   4.198   1.939   5.913
 7743SOL    HW124128   4.180   1.874   5.987
 7743SOL    HW224129   4.163   2.029   5.939
 7744SOL     OW24130   1.582   6.751   4.607
 7744SOL    HW124131   1.565   6.814   4.682
 7744SOL    HW224132   1.680   6.752   4.584
 7745SOL     OW24133   3.304   6.862   0.798
 7745SOL    HW124134   3.283   6.780   0.851
 7745SOL    HW224135   3.226   6.925   0.801
 7746SOL     OW24136   0.896   5.685   1.282
 7746SOL    HW124137   0.840   5.603   1.273
 7746SOL    HW224138   0.842   5.757   1.328
 7747SOL     OW24139   0.447   5.657   1.266
 7747SOL    HW124140   0.374   5.590   1.251
 7747SOL    HW224141   0.478   5.693   1.179
 7748SOL     OW24142   4.556   2.114   6.065
 7748SOL    HW124143   4.599   2.185   6.121
 7748SOL    HW224144   4.461   2.103   6.093
 7749SOL     OW24145   3.886   4.020   3.674
 7749SOL    HW124146   3.873   4.108   3.719
 7749SOL    HW224147   3.839   4.021   3.585
 7750SOL     OW24148   5.322   4.571   5.465
 7750SOL    HW124149   5.322   4.670   5.477
 7750SOL    HW224150   5.242   4.532   5.510
 7751SOL     OW24151   0.132   1.628   4.375
 7751SOL    HW124152   0.207   1.674   4.422
 7751SOL    HW224153   0.052   1.626   4.435
 7752SOL     OW24154   6.237   5.330   5.310
 7752SOL    HW124155   6.298   5.407   5.331
 7752SOL    HW224156   6.284   5.244   5.330
 7753SOL     OW24157   2.693   0.855   5.077
 7753SOL    HW124158   2.699   0.847   5.177
 7753SOL    HW224159   2.636   0.781   5.041
 7754SOL     OW24160   6.466   0.668   1.528
 7754SOL    HW124161   6.489   0.657   1.624
 7754SOL    HW224162   6.454   0.765   1.507
 7755SOL     OW24163   1.119   5.840   5.063
 7755SOL    HW124164   1.103   5.800   5.153
 7755SOL    HW224165   1.049   5.806   4.999
 7756SOL     OW24166   3.836   5.457   3.010
 7756SOL    HW124167   3.759   5.444   2.948
 7756SOL    HW224168   3.832   5.548   3.051
 7757SOL     OW24169   4.077   6.375   5.949
 7757SOL    HW124170   3.985   6.389   5.912
 7757SOL    HW224171   4.073   6.313   6.027
 7758SOL     OW24172   3.129   2.473   6.331
 7758SOL    HW124173   3.047   2.428   6.296
 7758SOL    HW224174   3.102   2.554   6.384
 7759SOL     OW24175   2.059   0.696   5.018
 7759SOL    HW124176   2.043   0.626   5.087
 7759SOL    HW224177   2.089   0.780   5.062
 7760SOL     OW24178   5.156   1.585   3.520
 7760SOL    HW124179   5.222   1.511   3.516
 7760SOL    HW224180   5.107   1.583   3.606
 7761SOL     OW24181   4.044   0.063   6.261
 7761SOL    HW124182   3.944   0.059   6.263
 7761SOL    HW224183   4.080   6.989   6.235
 7762SOL     OW24184   2.252   1.872   1.026
 7762SOL    HW124185   2.331   1.904   0.974
 7762SOL    HW224186   2.257   1.908   1.119
 7763SOL     OW24187   2.398   2.205   0.918
 7763SOL    HW124188   2.351   2.273   0.975
 7763SOL    HW224189   2.493   2.232   0.906
 7764SOL     OW24190   3.946   3.476   2.665
 7764SOL    HW124191   4.002   3.394   2.648
 7764SOL    HW224192   3.853   3.447   2.688
 7765SOL     OW24193   6.822   1.851   2.357
 7765SOL    HW124194   6.870   1.794   2.425
 7765SOL    HW224195   6.854   1.945   2.365
 7766SOL     OW24196   0.059   3.555   0.078
 7766SOL    HW124197   6.989   3.606   0.071
 7766SOL    HW224198   0.062   3.506   0.166
 7767SOL     OW24199   5.762   4.193   5.325
 7767SOL    HW124200   5.844   4.222   5.375
 7767SOL    HW224201   5.780   4.198   5.227
 7768SOL     OW24202   4.101   5.536   2.085
 7768SOL    HW124203   4.195   5.502   2.082
 7768SOL    HW224204   4.090   5.598   2.163
 7769SOL     OW24205   6.136   1.800   1.904
 7769SOL    HW124206   6.127   1.722   1.966
 7769SOL    HW224207   6.232   1.827   1.897
 7770SOL     OW24208   3.581   5.571   1.666
 7770SOL    HW124209   3.529   5.596   1.585
 7770SOL    HW224210   3.649   5.642   1.685
 7771SOL     OW24211   2.088   1.396   4.718
 7771SOL    HW124212   2.036   1.428   4.798
 7771SOL    HW224213   2.032   1.332   4.666
 7772SOL     OW24214   5.560   0.998   4.782
 7772SOL    HW124215   5.515   0.908   4.786
 7772SOL    HW224216   5.519   1.058   4.851
 7773SOL     OW24217   3.872   4.510   5.265
 7773SOL    HW124218   3.961   4.486   5.304
 7773SOL    HW224219   3.860   4.610   5.268
 7774SOL     OW24220   4.636   1.863   6.138
 7774SOL    HW124221   4.722   1.846   6.089
 7774SOL    HW224222   4.598   1.950   6.109
 7775SOL     OW24223   3.064   0.003   2.155
 7775SOL    HW124224   3.128   7.009   2.231
 7775SOL    HW224225   3.115   0.002   2.069
 7776SOL     OW24226   3.648   3.648   0.708
 7776SOL    HW124227   3.580   3.600   0.764
 7776SOL    HW224228   3.618   3.649   0.613
 7777SOL     OW24229   1.560   0.699   6.777
 7777SOL    HW124230   1.553   0.605   6.810
 7777SOL    HW224231   1.649   0.736   6.802
 7778SOL     OW24232   5.442   1.061   1.211
 7778SOL    HW124233   5.437   1.161   1.213
 7778SOL    HW224234   5.403   1.027   1.125
 7779SOL     OW24235   3.650   3.459   6.962
 7779SOL    HW124236   3.604   3.462   6.874
 7779SOL    HW224237   3.630   3.373   7.008
 7780SOL     OW24238   1.151   0.246   4.597
 7780SOL    HW124239   1.167   0.329   4.650
 7780SOL    HW224240   1.055   0.219   4.605
 7781SOL     OW24241   1.670   4.986   5.056
 7781SOL    HW124242   1.749   4.942   5.099
 7781SOL    HW224243   1.682   5.085   5.056
 7782SOL     OW24244   3.280   4.480   6.947
 7782SOL    HW124245   3.197   4.430   6.922
 7782SOL    HW224246   3.312   4.450   0.021
 7783SOL     OW24247   3.130   5.231   6.135
 7783SOL    HW124248   3.061   5.303   6.145
 7783SOL    HW224249   3.180   5.245   6.050
 7784SOL     OW24250   0.126   2.919   0.004
 7784SOL    HW124251   0.175   2.848   0.054
 7784SOL    HW224252   0.084   2.983   0.069
 7785SOL     OW24253   2.381   5.950   4.416
 7785SOL    HW124254   2.342   5.858   4.425
 7785SOL    HW224255   2.468   5.954   4.465
 7786SOL     OW24256   3.250   4.130   4.558
 7786SOL    HW124257   3.256   4.216   4.609
 7786SOL    HW224258   3.174   4.075   4.594
 7787SOL     OW24259   2.808   2.435   5.303
 7787SOL    HW124260   2.816   2.534   5.318
 7787SOL    HW224261   2.895   2.391   5.325
 7788SOL     OW24262   0.672   1.321   0.411
 7788SOL    HW124263   0.732   1.302   0.333
 7788SOL    HW224264   0.660   1.420   0.420
 7789SOL     OW24265   1.895   0.026   1.462
 7789SOL    HW124266   1.977   0.082   1.473
 7789SOL    HW224267   1.852   0.014   1.552
 7790SOL     OW24268   6.485   3.826   2.765
 7790SOL    HW124269   6.473   3.901   2.830
 7790SOL    HW224270   6.549   3.853   2.693
 7791SOL     OW24271   1.243   4.733   4.674
 7791SOL    HW124272   1.222   4.746   4.771
 7791SOL    HW224273   1.253   4.822   4.630
 7792SOL     OW24274   2.672   5.609   5.858
 7792SOL    HW124275   2.766   5.575   5.859
 7792SOL    HW224276   2.667   5.691   5.802
 7793SOL     OW24277   0.572   0.544   6.614
 7793SOL    HW124278   0.658   0.494   6.603
 7793SOL    HW224279   0.544   0.542   6.710
 7794SOL     OW24280   5.136   5.969   3.750
 7794SOL    HW124281   5.192   5.886   3.757
 7794SOL    HW224282   5.180   6.034   3.688
 7795SOL     OW24283   1.939   5.300   5.288
 7795SOL    HW124284   2.023   5.352   5.274
 7795SOL    HW224285   1.886   5.299   5.203
 7796SOL     OW24286   3.823   3.243   3.709
 7796SOL    HW124287   3.888   3.199   3.647
 7796SOL    HW224288   3.873   3.298   3.776
 7797SOL     OW24289   0.982   0.370   2.655
 7797SOL    HW124290   1.065   0.335   2.698
 7797SOL    HW224291   0.923   0.293   2.629
 7798SOL     OW24292   4.493   5.551   6.639
 7798SOL    HW124293   4.434   5.583   6.713
 7798SOL    HW224294   4.443   5.484   6.583
 7799SOL     OW24295   6.337   4.838   1.343
 7799SOL    HW124296   6.409   4.768   1.351
 7799SOL    HW224297   6.249   4.798   1.368
 7800SOL     OW24298   0.799   6.196   2.240
 7800SOL    HW124299   0.868   6.196   2.312
 7800SOL    HW224300   0.730   6.266   2.259
 7801SOL     OW24301   3.919   2.440   6.387
 7801SOL    HW124302   4.004   2.401   6.423
 7801SOL    HW224303   3.892   2.391   6.304
 7802SOL     OW24304   5.729   2.005   1.328
 7802SOL    HW124305   5.799   1.958   1.274
 7802SOL    HW224306   5.764   2.022   1.420
 7803SOL     OW24307   3.627   4.218   5.712
 7803SOL    HW124308   3.669   4.240   5.800
 7803SOL    HW224309   3.670   4.272   5.639
 7804SOL     OW24310   4.908   1.570   6.502
 7804SOL    HW124311   4.832   1.505   6.504
 7804SOL    HW224312   4.939   1.582   6.408
 7805SOL     OW24313   5.068   3.955   1.891
 7805SOL    HW124314   4.972   3.982   1.901
 7805SOL    HW224315   5.102   3.921   1.979
 7806SOL     OW24316   4.560   2.885   6.724
 7806SOL    HW124317   4.587   2.881   6.628
 7806SOL    HW224318   4.537   2.980   6.747
 7807SOL     OW24319   0.285   3.941   6.607
 7807SOL    HW124320   0.230   3.942   6.690
 7807SOL    HW224321   0.270   3.856   6.558
 7808SOL     OW24322   0.716   1.699   4.784
 7808SOL    HW124323   0.664   1.776   4.822
 7808SOL    HW224324   0.672   1.667   4.700
 7809SOL     OW24325   1.803   5.630   5.838
 7809SOL    HW124326   1.838   5.647   5.746
 7809SOL    HW224327   1.729   5.563   5.834
 7810SOL     OW24328   2.664   1.479   6.955
 7810SOL    HW124329   2.627   1.411   0.003
 7810SOL    HW224330   2.592   1.508   6.892
 7811SOL     OW24331   0.038   4.436   4.310
 7811SOL    HW124332   0.056   4.509   4.375
 7811SOL    HW224333   0.092   4.450   4.227
 7812SOL     OW24334   0.833   1.433   3.767
 7812SOL    HW124335   0.765   1.502   3.744
 7812SOL    HW224336   0.923   1.463   3.737
 7813SOL     OW24337   6.327   2.551   0.729
 7813SOL    HW124338   6.381   2.602   0.663
 7813SOL    HW224339   6.293   2.467   0.687
 7814SOL     OW24340   1.573   3.691   3.879
 7814SOL    HW124341   1.560   3.644   3.966
 7814SOL    HW224342   1.506   3.657   3.813
 7815SOL     OW24343   6.642   1.667   5.992
 7815SOL    HW124344   6.636   1.755   6.039
 7815SOL    HW224345   6.557   1.616   6.008
 7816SOL     OW24346   1.269   3.992   5.178
 7816SOL    HW124347   1.187   3.946   5.144
 7816SOL    HW224348   1.249   4.090   5.190
 7817SOL     OW24349   5.248   3.500   4.841
 7817SOL    HW124350   5.299   3.554   4.773
 7817SOL    HW224351   5.309   3.431   4.881
 7818SOL     OW24352   5.372   5.218   2.634
 7818SOL    HW124353   5.375   5.154   2.557
 7818SOL    HW224354   5.373   5.167   2.720
 7819SOL     OW24355   6.790   1.167   1.652
 7819SOL    HW124356   6.798   1.122   1.563
 7819SOL    HW224357   6.702   1.215   1.657
 7820SOL     OW24358   1.908   6.809   6.197
 7820SOL    HW124359   1.833   6.855   6.246
 7820SOL    HW224360   1.944   6.870   6.127
 7821SOL     OW24361   3.057   5.583   1.576
 7821SOL    HW124362   3.065   5.642   1.656
 7821SOL    HW224363   3.001   5.503   1.599
 7822SOL     OW24364   1.708   5.738   5.204
 7822SOL    HW124365   1.654   5.738   5.120
 7822SOL    HW224366   1.675   5.666   5.265
 7823SOL     OW24367   1.369   4.334   5.076
 7823SOL    HW124368   1.278   4.293   5.072
 7823SOL    HW224369   1.432   4.269   5.120
 7824SOL     OW24370   0.503   3.508   5.451
 7824SOL    HW124371   0.419   3.551   5.484
 7824SOL    HW224372   0.580   3.537   5.508
 7825SOL     OW24373   2.916   1.114   6.749
 7825SOL    HW124374   2.931   1.210   6.773
 7825SOL    HW224375   2.935   1.056   6.828
 7826SOL     OW24376   0.521   3.191   5.726
 7826SOL    HW124377   0.618   3.184   5.750
 7826SOL    HW224378   0.466   3.171   5.807
 7827SOL     OW24379   6.579   5.559   4.799
 7827SOL    HW124380   6.676   5.584   4.803
 7827SOL    HW224381   6.569   5.464   4.772
 7828SOL     OW24382   0.472   4.966   0.115
 7828SOL    HW124383   0.414   4.897   0.071
 7828SOL    HW224384   0.478   4.946   0.213
 7829SOL     OW24385   3.788   3.378   0.588
 7829SOL    HW124386   3.857   3.389   0.660
 7829SOL    HW224387   3.796   3.453   0.523
 7830SOL     OW24388   2.575   5.389   3.580
 7830SOL    HW124389   2.509   5.351   3.645
 7830SOL    HW224390   2.623   5.314   3.535
 7831SOL     OW24391   1.616   0.419   6.862
 7831SOL    HW124392   1.562   0.339   6.838
 7831SOL    HW224393   1.688   0.434   6.793
 7832SOL     OW24394   6.192   1.012   4.524
 7832SOL    HW124395   6.159   0.948   4.593
 7832SOL    HW224396   6.138   1.001   4.440
 7833SOL     OW24397   1.607   0.339   3.089
 7833SOL    HW124398   1.615   0.437   3.106
 7833SOL    HW224399   1.672   0.311   3.018
 7834SOL     OW24400   6.182   3.565   5.161
 7834SOL    HW124401   6.131   3.598   5.241
 7834SOL    HW224402   6.232   3.482   5.186
 7835SOL     OW24403   4.263   2.505   5.721
 7835SOL    HW124404   4.316   2.564   5.660
 7835SOL    HW224405   4.274   2.409   5.693
 7836SOL     OW24406   3.281   3.386   4.047
 7836SOL    HW124407   3.190   3.410   4.081
 7836SOL    HW224408   3.302   3.441   3.966
 7837SOL     OW24409   6.937   5.917   0.286
 7837SOL    HW124410   6.878   5.949   0.212
 7837SOL    HW224411   6.884   5.909   0.370
 7838SOL     OW24412   4.565   5.695   2.583
 7838SOL    HW124413   4.569   5.794   2.600
 7838SOL    HW224414   4.472   5.670   2.557
 7839SOL     OW24415   6.173   2.608   4.263
 7839SOL    HW124416   6.132   2.635   4.176
 7839SOL    HW224417   6.141   2.670   4.336
 7840SOL     OW24418   1.924   3.075   4.286
 7840SOL    HW124419   2.021   3.060   4.305
 7840SOL    HW224420   1.882   3.124   4.363
 7841SOL     OW24421   3.695   1.804   6.638
 7841SOL    HW124422   3.682   1.895   6.677
 7841SOL    HW224423   3.783   1.767   6.667
 7842SOL     OW24424   1.030   0.727   1.467
 7842SOL    HW124425   1.077   0.645   1.434
 7842SOL    HW224426   1.070   0.808   1.424
 7843SOL     OW24427   6.978   6.095   3.257
 7843SOL    HW124428   6.880   6.081   3.267
 7843SOL    HW224429   0.010   6.056   3.336
 7844SOL     OW24430   3.867   1.063   2.628
 7844SOL    HW124431   3.795   1.010   2.584
 7844SOL    HW224432   3.951   1.055   2.576
 7845SOL     OW24433   7.000   2.967   0.810
 7845SOL    HW124434   0.003   3.023   0.730
 7845SOL    HW224435   6.910   2.990   0.847
 7846SOL     OW24436   1.072   1.275   0.456
 7846SOL    HW124437   1.144   1.275   0.526
 7846SOL    HW224438   0.996   1.217   0.486
 7847SOL     OW24439   5.175   4.234   5.743
 7847SOL    HW124440   5.185   4.278   5.832
 7847SOL    HW224441   5.229   4.150   5.741
 7848SOL     OW24442   3.713   4.332   1.323
 7848SOL    HW124443   3.780   4.327   1.397
 7848SOL    HW224444   3.708   4.243   1.277
 7849SOL     OW24445   4.549   4.933   6.672
 7849SOL    HW124446   4.646   4.931   6.649
 7849SOL    HW224447   4.531   5.011   6.732
 7850SOL     OW24448   7.004   1.110   4.061
 7850SOL    HW124449   0.034   1.127   4.149
 7850SOL    HW224450   6.914   1.153   4.062
 7851SOL     OW24451   6.925   4.752   1.065
 7851SOL    HW124452   7.008   4.802   1.040
 7851SOL    HW224453   6.868   4.738   0.984
 7852SOL     OW24454   1.159   2.820   6.555
 7852SOL    HW124455   1.201   2.740   6.512
 7852SOL    HW224456   1.228   2.892   6.564
 7853SOL     OW24457   4.086   2.908   1.730
 7853SOL    HW124458   4.041   2.912   1.820
 7853SOL    HW224459   4.159   2.976   1.727
 7854SOL     OW24460   4.548   1.937   6.731
 7854SOL    HW124461   4.472   1.873   6.723
 7854SOL    HW224462   4.597   1.920   6.817
 7855SOL     OW24463   4.953   6.901   4.342
 7855SOL    HW124464   4.913   6.833   4.405
 7855SOL    HW224465   4.972   6.858   4.254
 7856SOL     OW24466   2.185   6.624   4.286
 7856SOL    HW124467   2.152   6.535   4.315
 7856SOL    HW224468   2.148   6.645   4.195
 7857SOL     OW24469   6.113   4.670   1.352
 7857SOL    HW124470   6.179   4.596   1.365
 7857SOL    HW224471   6.043   4.665   1.423
 7858SOL     OW24472   6.800   4.582   6.426
 7858SOL    HW124473   6.720   4.640   6.411
 7858SOL    HW224474   6.883   4.638   6.418
 7859SOL     OW24475   5.345   2.175   0.596
 7859SOL    HW124476   5.384   2.085   0.577
 7859SOL    HW224477   5.391   2.215   0.676
 7860SOL     OW24478   2.540   1.625   4.638
 7860SOL    HW124479   2.574   1.590   4.725
 7860SOL    HW224480   2.609   1.613   4.567
 7861SOL     OW24481   2.169   6.606   0.347
 7861SOL    HW124482   2.245   6.563   0.397
 7861SOL    HW224483   2.169   6.575   0.252
 7862SOL     OW24484   2.022   5.597   6.822
 7862SOL    HW124485   2.029   5.696   6.824
 7862SOL    HW224486   2.073   5.561   6.744
 7863SOL     OW24487   0.940   4.267   3.615
 7863SOL    HW124488   0.851   4.308   3.593
 7863SOL    HW224489   0.959   4.193   3.550
 7864SOL     OW24490   1.957   6.318   5.567
 7864SOL    HW124491   2.014   6.270   5.500
 7864SOL    HW224492   1.880   6.258   5.593
 7865SOL     OW24493   5.404   4.265   3.182
 7865SOL    HW124494   5.485   4.290   3.236
 7865SOL    HW224495   5.422   4.281   3.085
 7866SOL     OW24496   0.341   0.834   6.074
 7866SOL    HW124497   0.319   0.840   5.977
 7866SOL    HW224498   0.409   0.903   6.098
 7867SOL     OW24499   4.590   4.969   3.592
 7867SOL    HW124500   4.536   5.051   3.577
 7867SOL    HW224501   4.634   4.973   3.681
 7868SOL     OW24502   2.808   6.496   1.433
 7868SOL    HW124503   2.786   6.399   1.438
 7868SOL    HW224504   2.866   6.514   1.354
 7869SOL     OW24505   5.923   4.685   6.613
 7869SOL    HW124506   5.910   4.611   6.546
 7869SOL    HW224507   6.009   4.732   6.595
 7870SOL     OW24508   5.682   5.927   4.452
 7870SOL    HW124509   5.727   5.840   4.472
 7870SOL    HW224510   5.584   5.919   4.472
 7871SOL     OW24511   5.053   1.366   0.325
 7871SOL    HW124512   5.030   1.325   0.237
 7871SOL    HW224513   4.979   1.348   0.390
 7872SOL     OW24514   1.652   5.812   3.219
 7872SOL    HW124515   1.599   5.892   3.192
 7872SOL    HW224516   1.749   5.834   3.218
 7873SOL     OW24517   4.768   2.210   6.799
 7873SOL    HW124518   4.741   2.249   6.886
 7873SOL    HW224519   4.809   2.120   6.814
 7874SOL     OW24520   5.969   2.421   0.731
 7874SOL    HW124521   5.922   2.362   0.797
 7874SOL    HW224522   5.902   2.455   0.665
 7875SOL     OW24523   5.982   4.589   5.937
 7875SOL    HW124524   6.027   4.678   5.938
 7875SOL    HW224525   6.036   4.525   5.881
 7876SOL     OW24526   1.004   0.267   3.825
 7876SOL    HW124527   1.006   0.253   3.924
 7876SOL    HW224528   0.909   0.274   3.794
 7877SOL     OW24529   0.123   3.176   3.366
 7877SOL    HW124530   0.104   3.187   3.463
 7877SOL    HW224531   0.061   3.234   3.313
 7878SOL     OW24532   4.364   5.285   3.283
 7878SOL    HW124533   4.280   5.318   3.326
 7878SOL    HW224534   4.362   5.307   3.185
 7879SOL     OW24535   3.114   4.831   2.920
 7879SOL    HW124536   3.099   4.825   3.018
 7879SOL    HW224537   3.031   4.805   2.871
 7880SOL     OW24538   1.061   4.388   2.184
 7880SOL    HW124539   1.087   4.484   2.180
 7880SOL    HW224540   0.971   4.379   2.228
 7881SOL     OW24541   4.729   4.231   3.540
 7881SOL    HW124542   4.764   4.294   3.471
 7881SOL    HW224543   4.779   4.144   3.533
 7882SOL     OW24544   1.001   3.376   0.196
 7882SOL    HW124545   0.931   3.323   0.147
 7882SOL    HW224546   0.956   3.439   0.259
 7883SOL     OW24547   0.552   0.816   5.283
 7883SOL    HW124548   0.636   0.793   5.332
 7883SOL    HW224549   0.566   0.806   5.185
 7884SOL     OW24550   0.988   2.566   4.736
 7884SOL    HW124551   1.015   2.628   4.810
 7884SOL    HW224552   0.893   2.586   4.709
 7885SOL     OW24553   6.525   6.197   6.489
 7885SOL    HW124554   6.488   6.189   6.582
 7885SOL    HW224555   6.455   6.173   6.423
 7886SOL     OW24556   5.063   4.425   0.560
 7886SOL    HW124557   4.990   4.456   0.499
 7886SOL    HW224558   5.085   4.498   0.626
 7887SOL     OW24559   4.841   3.031   6.098
 7887SOL    HW124560   4.846   2.939   6.136
 7887SOL    HW224561   4.749   3.047   6.062
 7888SOL     OW24562   5.465   6.935   4.605
 7888SOL    HW124563   5.488   6.982   4.519
 7888SOL    HW224564   5.383   6.880   4.592
 7889SOL     OW24565   0.818   5.116   2.596
 7889SOL    HW124566   0.852   5.136   2.505
 7889SOL    HW224567   0.780   5.199   2.637
 7890SOL     OW24568   1.905   2.730   2.517
 7890SOL    HW124569   1.842   2.738   2.440
 7890SOL    HW224570   1.997   2.756   2.489
 7891SOL     OW24571   1.126   4.870   2.878
 7891SOL    HW124572   1.117   4.783   2.926
 7891SOL    HW224573   1.222   4.899   2.879
 7892SOL     OW24574   2.133   2.420   5.941
 7892SOL    HW124575   2.167   2.369   5.861
 7892SOL    HW224576   2.178   2.509   5.945
 7893SOL     OW24577   6.276   6.558   1.561
 7893SOL    HW124578   6.187   6.524   1.532
 7893SOL    HW224579   6.292   6.648   1.521
 7894SOL     OW24580   2.819   0.071   1.719
 7894SOL    HW124581   2.852   6.994   1.698
 7894SOL    HW224582   2.761   0.067   1.801
 7895SOL     OW24583   6.905   1.173   3.356
 7895SOL    HW124584   6.972   1.160   3.283
 7895SOL    HW224585   6.950   1.159   3.444
 7896SOL     OW24586   4.254   1.526   6.434
 7896SOL    HW124587   4.296   1.495   6.349
 7896SOL    HW224588   4.317   1.584   6.484
 7897SOL     OW24589   2.806   2.574   6.413
 7897SOL    HW124590   2.821   2.590   6.315
 7897SOL    HW224591   2.711   2.548   6.428
 7898SOL     OW24592   4.400   2.162   3.488
 7898SOL    HW124593   4.338   2.131   3.416
 7898SOL    HW224594   4.475   2.214   3.448
 7899SOL     OW24595   4.561   1.025   3.329
 7899SOL    HW124596   4.635   1.079   3.289
 7899SOL    HW224597   4.508   0.983   3.255
 7900SOL     OW24598   1.730   4.907   0.980
 7900SOL    HW124599   1.764   4.997   0.953
 7900SOL    HW224600   1.662   4.917   1.052
 7901SOL     OW24601   5.730   5.346   0.862
 7901SOL    HW124602   5.653   5.401   0.894
 7901SOL    HW224603   5.702   5.290   0.785
 7902SOL     OW24604   5.051   4.836   6.385
 7902SOL    HW124605   5.078   4.908   6.321
 7902SOL    HW224606   5.128   4.774   6.401
 7903SOL     OW24607   0.406   2.620   0.060
 7903SOL    HW124608   0.355   2.706   0.068
 7903SOL    HW224609   0.368   2.567   7.000
 7904SOL     OW24610   6.632   1.318   2.454
 7904SOL    HW124611   6.591   1.365   2.375
 7904SOL    HW224612   6.731   1.310   2.440
 7905SOL     OW24613   2.621   1.801   1.084
 7905SOL    HW124614   2.542   1.780   1.142
 7905SOL    HW224615   2.590   1.848   1.001
 7906SOL     OW24616   0.099   5.509   0.171
 7906SOL    HW124617   0.108   5.530   0.074
 7906SOL    HW224618   0.140   5.420   0.190
 7907SOL     OW24619   5.781   2.925   1.934
 7907SOL    HW124620   5.806   2.828   1.929
 7907SOL    HW224621   5.819   2.965   2.018
 7908SOL     OW24622   6.185   1.546   2.915
 7908SOL    HW124623   6.160   1.512   3.006
 7908SOL    HW224624   6.278   1.518   2.894
 7909SOL     OW24625   4.858   5.613   5.450
 7909SOL    HW124626   4.775   5.667   5.465
 7909SOL    HW224627   4.912   5.654   5.377
 7910SOL     OW24628   5.671   3.981   6.069
 7910SOL    HW124629   5.764   3.948   6.087
 7910SOL    HW224630   5.669   4.080   6.082
 7911SOL     OW24631   0.020   4.955   0.027
 7911SOL    HW124632   6.943   4.981   0.054
 7911SOL    HW224633   0.034   4.975   6.946
 7912SOL     OW24634   0.101   5.052   5.418
 7912SOL    HW124635   0.037   4.993   5.468
 7912SOL    HW224636   0.124   5.132   5.474
 7913SOL     OW24637   0.852   6.283   6.613
 7913SOL    HW124638   0.840   6.294   6.515
 7913SOL    HW224639   0.889   6.367   6.652
 7914SOL     OW24640   6.993   3.219   2.200
 7914SOL    HW124641   6.949   3.246   2.286
 7914SOL    HW224642   0.053   3.157   2.220
 7915SOL     OW24643   4.262   0.792   2.131
 7915SOL    HW124644   4.184   0.731   2.116
 7915SOL    HW224645   4.290   0.833   2.044
 7916SOL     OW24646   4.479   3.504   5.557
 7916SOL    HW124647   4.511   3.470   5.646
 7916SOL    HW224648   4.529   3.457   5.484
 7917SOL     OW24649   3.525   4.161   3.357
 7917SOL    HW124650   3.551   4.206   3.442
 7917SOL    HW224651   3.434   4.121   3.366
 7918SOL     OW24652   6.048   2.323   2.035
 7918SOL    HW124653   6.077   2.291   1.945
 7918SOL    HW224654   6.006   2.247   2.085
 7919SOL     OW24655   6.316   4.677   2.002
 7919SOL    HW124656   6.270   4.744   1.943
 7919SOL    HW224657   6.325   4.714   2.094
 7920SOL     OW24658   0.566   6.342   2.216
 7920SOL    HW124659   0.500   6.329   2.291
 7920SOL    HW224660   0.534   6.292   2.136
 7921SOL     OW24661   2.938   6.439   2.060
 7921SOL    HW124662   2.973   6.415   2.150
 7921SOL    HW224663   2.902   6.357   2.015
 7922SOL     OW24664   0.716   5.058   6.392
 7922SOL    HW124665   0.756   5.056   6.300
 7922SOL    HW224666   0.719   4.967   6.432
 7923SOL     OW24667   0.853   1.758   3.045
 7923SOL    HW124668   0.948   1.772   3.072
 7923SOL    HW224669   0.841   1.663   3.014
 7924SOL     OW24670   2.502   1.282   3.496
 7924SOL    HW124671   2.562   1.298   3.575
 7924SOL    HW224672   2.476   1.370   3.456
 7925SOL     OW24673   0.469   1.107   6.411
 7925SOL    HW124674   0.559   1.076   6.439
 7925SOL    HW224675   0.426   1.158   6.485
 7926SOL     OW24676   3.458   0.061   1.661
 7926SOL    HW124677   3.399   0.104   1.729
 7926SOL    HW224678   3.543   0.032   1.704
 7927SOL     OW24679   4.987   4.283   4.242
 7927SOL    HW124680   4.935   4.200   4.260
 7927SOL    HW224681   4.964   4.318   4.151
 7928SOL     OW24682   1.068   4.726   7.004
 7928SOL    HW124683   1.027   4.684   0.070
 7928SOL    HW224684   1.011   4.706   6.924
 7929SOL     OW24685   3.894   3.939   4.558
 7929SOL    HW124686   3.927   4.002   4.487
 7929SOL    HW224687   3.963   3.869   4.575
 7930SOL     OW24688   5.198   5.772   4.186
 7930SOL    HW124689   5.103   5.795   4.208
 7930SOL    HW224690   5.200   5.692   4.127
 7931SOL     OW24691   2.372   3.162   0.156
 7931SOL    HW124692   2.339   3.091   0.093
 7931SOL    HW224693   2.313   3.165   0.236
 7932SOL     OW24694   3.131   6.717   1.100
 7932SOL    HW124695   3.088   6.785   1.041
 7932SOL    HW224696   3.214   6.757   1.141
 7933SOL     OW24697   1.135   1.175   6.053
 7933SOL    HW124698   1.076   1.254   6.039
 7933SOL    HW224699   1.228   1.205   6.076
 7934SOL     OW24700   4.029   3.020   5.540
 7934SOL    HW124701   4.104   2.964   5.577
 7934SOL    HW224702   4.015   3.100   5.599
 7935SOL     OW24703   4.849   6.107   1.451
 7935SOL    HW124704   4.928   6.127   1.508
 7935SOL    HW224705   4.831   6.009   1.452
 7936SOL     OW24706   4.575   5.790   2.972
 7936SOL    HW124707   4.621   5.780   3.061
 7936SOL    HW224708   4.489   5.739   2.973
 7937SOL     OW24709   6.414   6.800   6.060
 7937SOL    HW124710   6.407   6.705   6.028
 7937SOL    HW224711   6.324   6.832   6.088
 7938SOL     OW24712   5.618   5.033   4.141
 7938SOL    HW124713   5.697   5.029   4.202
 7938SOL    HW224714   5.554   4.961   4.165
 7939SOL     OW24715   0.432   0.094   4.661
 7939SOL    HW124716   0.396   0.067   4.572
 7939SOL    HW224717   0.467   0.013   4.709
 7940SOL     OW24718   1.628   5.891   0.674
 7940SOL    HW124719   1.702   5.926   0.617
 7940SOL    HW224720   1.638   5.792   0.684
 7941SOL     OW24721   0.077   0.442   0.490
 7941SOL    HW124722   0.046   0.495   0.568
 7941SOL    HW224723   0.158   0.388   0.516
 7942SOL     OW24724   1.329   1.438   0.985
 7942SOL    HW124725   1.362   1.528   1.014
 7942SOL    HW224726   1.233   1.428   1.010
 7943SOL     OW24727   5.657   1.941   0.141
 7943SOL    HW124728   5.618   1.852   0.119
 7943SOL    HW224729   5.696   1.983   0.059
 7944SOL     OW24730   0.035   3.810   2.333
 7944SOL    HW124731   0.053   3.714   2.354
 7944SOL    HW224732   6.962   3.817   2.287
 7945SOL     OW24733   5.462   6.904   1.294
 7945SOL    HW124734   5.375   6.855   1.287
 7945SOL    HW224735   5.493   6.929   1.203
 7946SOL     OW24736   1.402   1.959   6.155
 7946SOL    HW124737   1.491   1.995   6.183
 7946SOL    HW224738   1.329   2.015   6.194
 7947SOL     OW24739   4.511   5.081   5.978
 7947SOL    HW124740   4.455   5.153   5.936
 7947SOL    HW224741   4.453   5.003   6.001
 7948SOL     OW24742   0.937   5.270   6.602
 7948SOL    HW124743   0.851   5.254   6.552
 7948SOL    HW224744   0.950   5.196   6.668
 7949SOL     OW24745   6.519   4.016   4.022
 7949SOL    HW124746   6.450   3.943   4.025
 7949SOL    HW224747   6.545   4.041   4.115
 7950SOL     OW24748   3.573   4.932   4.322
 7950SOL    HW124749   3.587   5.031   4.325
 7950SOL    HW224750   3.516   4.909   4.243
 7951SOL     OW24751   3.313   3.528   0.908
 7951SOL    HW124752   3.244   3.491   0.969
 7951SOL    HW224753   3.400   3.536   0.956
 7952SOL     OW24754   4.878   5.060   0.053
 7952SOL    HW124755   4.915   5.048   0.145
 7952SOL    HW224756   4.930   5.004   7.004
 7953SOL     OW24757   2.167   3.027   3.284
 7953SOL    HW124758   2.191   3.123   3.268
 7953SOL    HW224759   2.233   2.968   3.237
 7954SOL     OW24760   5.205   5.698   4.799
 7954SOL    HW124761   5.161   5.608   4.811
 7954SOL    HW224762   5.166   5.742   4.718
 7955SOL     OW24763   1.425   0.190   6.281
 7955SOL    HW124764   1.450   0.283   6.308
 7955SOL    HW224765   1.496   0.152   6.222
 7956SOL     OW24766   6.150   0.370   3.859
 7956SOL    HW124767   6.119   0.277   3.842
 7956SOL    HW224768   6.119   0.400   3.949
 7957SOL     OW24769   1.038   2.632   1.164
 7957SOL    HW124770   1.123   2.684   1.168
 7957SOL    HW224771   0.960   2.693   1.175
 7958SOL     OW24772   1.614   5.415   3.366
 7958SOL    HW124773   1.710   5.434   3.347
 7958SOL    HW224774   1.563   5.501   3.372
 7959SOL     OW24775   4.534   5.008   0.643
 7959SOL    HW124776   4.581   5.089   0.607
 7959SOL    HW224777   4.449   4.995   0.593
 7960SOL     OW24778   2.305   2.602   0.847
 7960SOL    HW124779   2.274   2.530   0.908
 7960SOL    HW224780   2.228   2.663   0.826
 7961SOL     OW24781   1.705   5.626   6.960
 7961SOL    HW124782   1.661   5.697   7.014
 7961SOL    HW224783   1.804   5.628   6.976
 7962SOL     OW24784   1.567   0.319   2.178
 7962SOL    HW124785   1.632   0.385   2.215
 7962SOL    HW224786   1.478   0.362   2.165
 7963SOL     OW24787   0.945   6.856   4.711
 7963SOL    HW124788   0.900   6.785   4.657
 7963SOL    HW224789   1.041   6.833   4.725
 7964SOL     OW24790   6.622   5.583   3.358
 7964SOL    HW124791   6.580   5.527   3.286
 7964SOL    HW224792   6.557   5.654   3.386
 7965SOL     OW24793   5.981   1.931   0.581
 7965SOL    HW124794   5.915   1.860   0.555
 7965SOL    HW224795   5.956   2.017   0.537
 7966SOL     OW24796   6.651   6.259   3.547
 7966SOL    HW124797   6.734   6.228   3.501
 7966SOL    HW224798   6.611   6.335   3.496
 7967SOL     OW24799   2.957   6.690   3.203
 7967SOL    HW124800   2.951   6.788   3.221
 7967SOL    HW224801   2.892   6.641   3.260
 7968SOL     OW24802   2.147   0.624   1.264
 7968SOL    HW124803   2.232   0.611   1.315
 7968SOL    HW224804   2.078   0.665   1.324
 7969SOL     OW24805   3.270   1.905   3.572
 7969SOL    HW124806   3.218   1.843   3.513
 7969SOL    HW224807   3.368   1.884   3.562
 7970SOL     OW24808   0.704   5.023   3.291
 7970SOL    HW124809   0.708   4.923   3.285
 7970SOL    HW224810   0.786   5.062   3.251
 7971SOL     OW24811   2.509   1.581   2.111
 7971SOL    HW124812   2.491   1.675   2.082
 7971SOL    HW224813   2.599   1.574   2.153
 7972SOL     OW24814   0.646   5.213   1.826
 7972SOL    HW124815   0.643   5.216   1.726
 7972SOL    HW224816   0.713   5.146   1.856
 7973SOL     OW24817   4.577   1.986   2.601
 7973SOL    HW124818   4.622   1.930   2.531
 7973SOL    HW224819   4.619   1.968   2.690
 7974SOL     OW24820   5.478   6.754   3.935
 7974SOL    HW124821   5.477   6.832   3.999
 7974SOL    HW224822   5.573   6.730   3.914
 7975SOL     OW24823   2.393   0.736   2.945
 7975SOL    HW124824   2.384   0.813   3.009
 7975SOL    HW224825   2.407   0.770   2.853
 7976SOL     OW24826   0.516   6.332   6.133
 7976SOL    HW124827   0.528   6.238   6.103
 7976SOL    HW224828   0.425   6.342   6.175
 7977SOL     OW24829   4.849   6.297   1.784
 7977SOL    HW124830   4.863   6.203   1.815
 7977SOL    HW224831   4.777   6.300   1.715
 7978SOL     OW24832   3.900   2.481   6.090
 7978SOL    HW124833   3.863   2.495   5.999
 7978SOL    HW224834   3.826   2.478   6.157
 7979SOL     OW24835   4.529   6.867   4.404
 7979SOL    HW124836   4.601   6.801   4.424
 7979SOL    HW224837   4.546   6.951   4.454
 7980SOL     OW24838   2.370   0.155   2.410
 7980SOL    HW124839   2.276   0.121   2.403
 7980SOL    HW224840   2.376   0.221   2.484
 7981SOL     OW24841   1.338   6.148   2.930
 7981SOL    HW124842   1.354   6.245   2.913
 7981SOL    HW224843   1.242   6.135   2.956
 7982SOL     OW24844   0.238   2.209   0.422
 7982SOL    HW124845   0.282   2.276   0.481
 7982SOL    HW224846   0.150   2.183   0.461
 7983SOL     OW24847   4.711   2.487   2.296
 7983SOL    HW124848   4.746   2.563   2.351
 7983SOL    HW224849   4.741   2.400   2.336
 7984SOL     OW24850   0.008   0.458   0.220
 7984SOL    HW124851   0.024   0.450   0.318
 7984SOL    HW224852   0.047   0.544   0.187
 7985SOL     OW24853   0.461   1.075   1.084
 7985SOL    HW124854   0.453   1.166   1.043
 7985SOL    HW224855   0.473   1.084   1.183
 7986SOL     OW24856   4.230   2.738   0.064
 7986SOL    HW124857   4.325   2.767   0.053
 7986SOL    HW224858   4.224   2.672   0.139
 7987SOL     OW24859   0.714   2.604   4.643
 7987SOL    HW124860   0.769   2.684   4.620
 7987SOL    HW224861   0.618   2.621   4.620
 7988SOL     OW24862   2.606   2.034   5.745
 7988SOL    HW124863   2.656   2.046   5.830
 7988SOL    HW224864   2.637   1.950   5.700
 7989SOL     OW24865   3.440   3.496   5.594
 7989SOL    HW124866   3.514   3.547   5.549
 7989SOL    HW224867   3.383   3.559   5.646
 7990SOL     OW24868   2.201   2.764   4.722
 7990SOL    HW124869   2.201   2.717   4.811
 7990SOL    HW224870   2.285   2.742   4.673
 7991SOL     OW24871   0.221   3.323   4.853
 7991SOL    HW124872   0.315   3.345   4.830
 7991SOL    HW224873   0.218   3.277   4.942
 7992SOL     OW24874   2.393   0.462   0.502
 7992SOL    HW124875   2.445   0.468   0.416
 7992SOL    HW224876   2.310   0.516   0.494
 7993SOL     OW24877   2.304   6.722   6.114
 7993SOL    HW124878   2.286   6.666   6.032
 7993SOL    HW224879   2.229   6.711   6.179
 7994SOL     OW24880   5.868   0.673   4.226
 7994SOL    HW124881   5.875   0.700   4.322
 7994SOL    HW224882   5.895   0.750   4.167
 7995SOL     OW24883   4.074   5.766   3.307
 7995SOL    HW124884   4.013   5.845   3.302
 7995SOL    HW224885   4.021   5.682   3.297
 7996SOL     OW24886   3.705   0.804   5.280
 7996SOL    HW124887   3.732   0.883   5.335
 7996SOL    HW224888   3.757   0.804   5.195
 7997SOL     OW24889   5.516   2.605   2.528
 7997SOL    HW124890   5.468   2.692   2.541
 7997SOL    HW224891   5.491   2.566   2.440
 7998SOL     OW24892   5.865   4.966   6.589
 7998SOL    HW124893   5.845   5.016   6.673
 7998SOL    HW224894   5.857   4.868   6.606
 7999SOL     OW24895   1.373   0.693   5.616
 7999SOL    HW124896   1.344   0.605   5.654
 7999SOL    HW224897   1.472   0.700   5.622
 8000SOL     OW24898   5.794   0.104   5.621
 8000SOL    HW124899   5.739   0.130   5.542
 8000SOL    HW224900   5.859   0.177   5.642
 8001SOL     OW24901   2.526   6.517   1.263
 8001SOL    HW124902   2.488   6.523   1.355
 8001SOL    HW224903   2.580   6.599   1.245
 8002SOL     OW24904   5.240   3.029   5.856
 8002SOL    HW124905   5.201   3.085   5.783
 8002SOL    HW224906   5.296   3.086   5.915
 8003SOL     OW24907   3.928   5.682   3.857
 8003SOL    HW124908   3.909   5.728   3.944
 8003SOL    HW224909   3.863   5.607   3.845
 8004SOL     OW24910   1.204   3.988   2.519
 8004SOL    HW124911   1.273   3.925   2.481
 8004SOL    HW224912   1.229   4.011   2.613
 8005SOL     OW24913   3.062   0.873   2.153
 8005SOL    HW124914   3.108   0.962   2.150
 8005SOL    HW224915   3.076   0.825   2.066
 8006SOL     OW24916   3.360   6.369   1.034
 8006SOL    HW124917   3.336   6.304   0.962
 8006SOL    HW224918   3.364   6.461   0.995
 8007SOL     OW24919   0.357   0.994   4.260
 8007SOL    HW124920   0.342   0.919   4.325
 8007SOL    HW224921   0.335   0.963   4.167
 8008SOL     OW24922   5.776   5.434   0.562
 8008SOL    HW124923   5.729   5.359   0.607
 8008SOL    HW224924   5.790   5.509   0.626
 8009SOL     OW24925   6.959   6.752   3.957
 8009SOL    HW124926   0.013   6.799   4.013
 8009SOL    HW224927   6.880   6.812   3.947
 8010SOL     OW24928   1.773   2.918   6.899
 8010SOL    HW124929   1.814   2.932   6.989
 8010SOL    HW224930   1.779   2.821   6.875
 8011SOL     OW24931   2.246   2.423   1.055
 8011SOL    HW124932   2.194   2.372   1.123
 8011SOL    HW224933   2.329   2.461   1.097
 8012SOL     OW24934   3.021   6.947   3.334
 8012SOL    HW124935   3.055   6.918   3.423
 8012SOL    HW224936   3.075   0.009   3.302
 8013SOL     OW24937   6.083   5.299   5.097
 8013SOL    HW124938   6.121   5.231   5.034
 8013SOL    HW224939   6.146   5.311   5.174
 8014SOL     OW24940   2.034   0.528   6.826
 8014SOL    HW124941   1.969   0.481   6.765
 8014SOL    HW224942   2.117   0.473   6.833
 8015SOL     OW24943   1.729   2.284   6.534
 8015SOL    HW124944   1.781   2.330   6.462
 8015SOL    HW224945   1.773   2.300   6.622
 8016SOL     OW24946   3.382   6.819   1.194
 8016SOL    HW124947   3.445   6.746   1.167
 8016SOL    HW224948   3.381   6.826   1.294
 8017SOL     OW24949   5.854   4.428   4.899
 8017SOL    HW124950   5.761   4.459   4.919
 8017SOL    HW224951   5.920   4.497   4.930
 8018SOL     OW24952   5.464   2.667   4.647
 8018SOL    HW124953   5.545   2.654   4.704
 8018SOL    HW224954   5.406   2.586   4.654
 8019SOL     OW24955   2.596   5.010   1.475
 8019SOL    HW124956   2.644   5.090   1.438
 8019SOL    HW224957   2.663   4.944   1.508
 8020SOL     OW24958   6.193   6.350   6.330
 8020SOL    HW124959   6.156   6.360   6.237
 8020SOL    HW224960   6.122   6.311   6.389
 8021SOL     OW24961   0.656   0.876   1.149
 8021SOL    HW124962   0.690   0.807   1.085
 8021SOL    HW224963   0.565   0.906   1.120
 8022SOL     OW24964   4.323   5.614   3.336
 8022SOL    HW124965   4.379   5.613   3.253
 8022SOL    HW224966   4.245   5.675   3.324
 8023SOL     OW24967   6.090   6.551   3.711
 8023SOL    HW124968   6.035   6.611   3.769
 8023SOL    HW224969   6.173   6.598   3.682
 8024SOL     OW24970   4.943   5.409   4.506
 8024SOL    HW124971   4.880   5.473   4.462
 8024SOL    HW224972   4.892   5.332   4.544
 8025SOL     OW24973   3.205   5.696   0.552
 8025SOL    HW124974   3.265   5.771   0.526
 8025SOL    HW224975   3.252   5.637   0.617
 8026SOL     OW24976   2.132   3.080   0.817
 8026SOL    HW124977   2.113   3.048   0.910
 8026SOL    HW224978   2.051   3.065   0.760
 8027SOL     OW24979   5.007   3.619   5.985
 8027SOL    HW124980   4.999   3.718   5.998
 8027SOL    HW224981   5.053   3.600   5.899
 8028SOL     OW24982   5.130   5.295   0.342
 8028SOL    HW124983   5.115   5.358   0.266
 8028SOL    HW224984   5.212   5.323   0.392
 8029SOL     OW24985   3.039   4.474   0.640
 8029SOL    HW124986   2.945   4.443   0.655
 8029SOL    HW224987   3.095   4.451   0.719
 8030SOL     OW24988   5.779   3.930   6.974
 8030SOL    HW124989   5.698   3.968   0.004
 8030SOL    HW224990   5.846   3.902   0.026
 8031SOL     OW24991   3.586   5.910   1.525
 8031SOL    HW124992   3.635   5.947   1.446
 8031SOL    HW224993   3.539   5.984   1.573
 8032SOL     OW24994   4.783   5.062   5.639
 8032SOL    HW124995   4.849   5.035   5.709
 8032SOL    HW224996   4.741   5.149   5.665
 8033SOL     OW24997   6.204   2.332   0.626
 8033SOL    HW124998   6.117   2.370   0.659
 8033SOL    HW224999   6.228   2.252   0.681
 8034SOL     OW25000   6.019   1.143   5.227
 8034SOL    HW125001   5.935   1.122   5.177
 8034SOL    HW225002   6.062   1.224   5.188
 8035SOL     OW25003   5.709   5.830   0.195
 8035SOL    HW125004   5.734   5.737   0.168
 8035SOL    HW225005   5.684   5.831   0.291
 8036SOL     OW25006   1.799   3.906   1.501
 8036SOL    HW125007   1.871   3.923   1.569
 8036SOL    HW225008   1.728   3.975   1.510
 8037SOL     OW25009   1.708   3.441   0.974
 8037SOL    HW125010   1.662   3.372   0.918
 8037SOL    HW225011   1.783   3.481   0.922
 8038SOL     OW25012   6.917   1.523   3.794
 8038SOL    HW125013   6.998   1.529   3.736
 8038SOL    HW225014   6.855   1.453   3.758
 8039SOL     OW25015   2.887   6.820   4.796
 8039SOL    HW125016   2.826   6.782   4.865
 8039SOL    HW225017   2.838   6.829   4.709
 8040SOL     OW25018   6.531   5.710   0.993
 8040SOL    HW125019   6.528   5.756   0.904
 8040SOL    HW225020   6.566   5.773   1.062
 8041SOL     OW25021   3.995   1.986   0.674
 8041SOL    HW125022   4.063   2.028   0.615
 8041SOL    HW225023   3.905   2.023   0.653
 8042SOL     OW25024   2.463   3.730   0.905
 8042SOL    HW125025   2.420   3.815   0.873
 8042SOL    HW225026   2.562   3.740   0.905
 8043SOL     OW25027   2.413   0.297   1.562
 8043SOL    HW125028   2.508   0.271   1.580
 8043SOL    HW225029   2.412   0.384   1.511
 8044SOL     OW25030   3.070   4.056   1.719
 8044SOL    HW125031   3.157   4.087   1.758
 8044SOL    HW225032   3.055   3.960   1.744
 8045SOL     OW25033   6.261   2.915   3.787
 8045SOL    HW125034   6.256   3.007   3.825
 8045SOL    HW225035   6.354   2.896   3.758
 8046SOL     OW25036   0.081   5.244   6.009
 8046SOL    HW125037   0.057   5.220   6.103
 8046SOL    HW225038   0.007   5.298   5.969
 8047SOL     OW25039   3.017   6.202   4.228
 8047SOL    HW125040   2.937   6.154   4.190
 8047SOL    HW225041   3.057   6.260   4.157
 8048SOL     OW25042   6.574   0.707   5.765
 8048SOL    HW125043   6.657   0.656   5.742
 8048SOL    HW225044   6.580   0.800   5.729
 8049SOL     OW25045   1.386   5.969   0.491
 8049SOL    HW125046   1.459   5.980   0.559
 8049SOL    HW225047   1.341   5.880   0.505
 8050SOL     OW25048   0.902   2.874   1.317
 8050SOL    HW125049   0.839   2.922   1.256
 8050SOL    HW225050   0.850   2.816   1.380
 8051SOL     OW25051   3.742   1.550   3.805
 8051SOL    HW125052   3.775   1.457   3.787
 8051SOL    HW225053   3.649   1.559   3.770
 8052SOL     OW25054   3.271   2.090   3.086
 8052SOL    HW125055   3.197   2.129   3.141
 8052SOL    HW225056   3.291   2.151   3.010
 8053SOL     OW25057   3.878   3.394   1.922
 8053SOL    HW125058   3.785   3.409   1.956
 8053SOL    HW225059   3.926   3.331   1.983
 8054SOL     OW25060   4.504   5.700   4.270
 8054SOL    HW125061   4.483   5.789   4.311
 8054SOL    HW225062   4.483   5.703   4.173
 8055SOL     OW25063   1.286   0.008   5.314
 8055SOL    HW125064   1.337   0.014   5.228
 8055SOL    HW225065   1.326   6.951   5.370
 8056SOL     OW25066   3.961   1.568   3.343
 8056SOL    HW125067   3.988   1.489   3.288
 8056SOL    HW225068   3.899   1.626   3.290
 8057SOL     OW25069   4.027   0.016   3.693
 8057SOL    HW125070   3.970   0.029   3.611
 8057SOL    HW225071   3.980   6.970   3.756
 8058SOL     OW25072   2.121   0.012   3.236
 8058SOL    HW125073   2.117   7.000   3.332
 8058SOL    HW225074   2.117   0.112   3.230
 8059SOL     OW25075   2.513   1.389   3.983
 8059SOL    HW125076   2.564   1.321   4.036
 8059SOL    HW225077   2.530   1.480   4.021
 8060SOL     OW25078   0.534   1.797   5.178
 8060SOL    HW125079   0.606   1.820   5.243
 8060SOL    HW225080   0.561   1.826   5.086
 8061SOL     OW25081   0.179   5.568   1.580
 8061SOL    HW125082   0.193   5.634   1.505
 8061SOL    HW225083   0.088   5.581   1.619
 8062SOL     OW25084   2.107   3.652   2.202
 8062SOL    HW125085   2.168   3.654   2.281
 8062SOL    HW225086   2.140   3.585   2.136
 8063SOL     OW25087   2.791   3.163   0.022
 8063SOL    HW125088   2.752   3.249   7.005
 8063SOL    HW225089   2.875   3.181   0.073
 8064SOL     OW25090   6.093   3.224   7.009
 8064SOL    HW125091   6.065   3.171   6.929
 8064SOL    HW225092   6.044   3.191   0.074
 8065SOL     OW25093   4.373   7.009   6.292
 8065SOL    HW125094   4.308   0.027   6.361
 8065SOL    HW225095   4.323   6.956   6.223
 8066SOL     OW25096   2.370   0.551   1.439
 8066SOL    HW125097   2.295   0.581   1.499
 8066SOL    HW225098   2.417   0.632   1.403
 8067SOL     OW25099   5.149   1.773   1.943
 8067SOL    HW125100   5.159   1.711   1.865
 8067SOL    HW225101   5.136   1.866   1.910
 8068SOL     OW25102   6.858   4.670   3.921
 8068SOL    HW125103   6.907   4.753   3.946
 8068SOL    HW225104   6.844   4.668   3.822
 8069SOL     OW25105   1.533   6.169   2.164
 8069SOL    HW125106   1.603   6.241   2.167
 8069SOL    HW225107   1.481   6.170   2.250
 8070SOL     OW25108   3.783   0.232   2.094
 8070SOL    HW125109   3.720   0.275   2.030
 8070SOL    HW225110   3.870   0.214   2.049
 8071SOL     OW25111   3.572   6.236   0.418
 8071SOL    HW125112   3.614   6.326   0.409
 8071SOL    HW225113   3.611   6.174   0.349
 8072SOL     OW25114   5.280   0.781   2.173
 8072SOL    HW125115   5.258   0.877   2.158
 8072SOL    HW225116   5.210   0.723   2.130
 8073SOL     OW25117   4.185   6.633   5.816
 8073SOL    HW125118   4.190   6.576   5.898
 8073SOL    HW225119   4.096   6.619   5.772
 8074SOL     OW25120   3.042   4.017   6.899
 8074SOL    HW125121   3.012   4.053   6.988
 8074SOL    HW225122   3.024   3.919   6.895
 8075SOL     OW25123   5.819   1.331   2.383
 8075SOL    HW125124   5.805   1.267   2.306
 8075SOL    HW225125   5.829   1.279   2.467
 8076SOL     OW25126   5.260   2.718   6.178
 8076SOL    HW125127   5.278   2.691   6.272
 8076SOL    HW225128   5.275   2.816   6.168
 8077SOL     OW25129   1.485   0.589   0.411
 8077SOL    HW125130   1.568   0.534   0.417
 8077SOL    HW225131   1.509   0.686   0.412
 8078SOL     OW25132   5.960   3.517   0.292
 8078SOL    HW125133   6.053   3.534   0.261
 8078SOL    HW225134   5.914   3.604   0.311
 8079SOL     OW25135   0.488   1.632   1.922
 8079SOL    HW125136   0.463   1.548   1.971
 8079SOL    HW225137   0.575   1.666   1.958
 8080SOL     OW25138   3.505   5.184   0.283
 8080SOL    HW125139   3.429   5.122   0.301
 8080SOL    HW225140   3.577   5.136   0.233
 8081SOL     OW25141   6.042   0.934   5.695
 8081SOL    HW125142   6.020   0.955   5.600
 8081SOL    HW225143   5.979   0.863   5.728
 8082SOL     OW25144   6.136   3.439   4.212
 8082SOL    HW125145   6.159   3.536   4.221
 8082SOL    HW225146   6.213   3.384   4.243
 8083SOL     OW25147   5.570   2.350   4.379
 8083SOL    HW125148   5.598   2.329   4.472
 8083SOL    HW225149   5.651   2.368   4.323
 8084SOL     OW25150   0.013   0.052   1.217
 8084SOL    HW125151   6.956   0.005   1.167
 8084SOL    HW225152   0.095   7.010   1.218
 8085SOL     OW25153   6.731   1.724   0.948
 8085SOL    HW125154   6.701   1.647   0.891
 8085SOL    HW225155   6.820   1.756   0.915
 8086SOL     OW25156   3.235   6.312   6.152
 8086SOL    HW125157   3.330   6.330   6.125
 8086SOL    HW225158   3.234   6.257   6.235
 8087SOL     OW25159   2.673   2.998   1.234
 8087SOL    HW125160   2.732   3.002   1.154
 8087SOL    HW225161   2.617   3.080   1.240
 8088SOL     OW25162   4.506   0.508   2.252
 8088SOL    HW125163   4.479   0.599   2.284
 8088SOL    HW225164   4.429   0.466   2.204
 8089SOL     OW25165   5.893   2.802   0.658
 8089SOL    HW125166   5.830   2.795   0.735
 8089SOL    HW225167   5.842   2.830   0.576
 8090SOL     OW25168   4.446   2.266   4.955
 8090SOL    HW125169   4.373   2.312   5.006
 8090SOL    HW225170   4.427   2.271   4.857
 8091SOL     OW25171   3.007   5.186   5.734
 8091SOL    HW125172   3.072   5.256   5.764
 8091SOL    HW225173   2.914   5.216   5.752
 8092SOL     OW25174   0.155   1.766   3.797
 8092SOL    HW125175   0.214   1.714   3.735
 8092SOL    HW225176   0.197   1.771   3.887
 8093SOL     OW25177   5.690   5.765   1.019
 8093SOL    HW125178   5.763   5.717   1.068
 8093SOL    HW225179   5.621   5.699   0.989
 8094SOL     OW25180   1.506   4.017   4.565
 8094SOL    HW125181   1.494   3.945   4.634
 8094SOL    HW225182   1.578   4.080   4.596
 8095SOL     OW25183   5.964   3.576   4.608
 8095SOL    HW125184   6.021   3.579   4.690
 8095SOL    HW225185   5.869   3.558   4.634
 8096SOL     OW25186   3.741   0.400   0.355
 8096SOL    HW125187   3.776   0.312   0.325
 8096SOL    HW225188   3.818   0.458   0.384
 8097SOL     OW25189   4.443   1.004   4.709
 8097SOL    HW125190   4.455   0.941   4.786
 8097SOL    HW225191   4.414   1.093   4.743
 8098SOL     OW25192   2.699   0.752   4.159
 8098SOL    HW125193   2.611   0.791   4.187
 8098SOL    HW225194   2.730   0.687   4.228
 8099SOL     OW25195   5.115   6.417   4.921
 8099SOL    HW125196   5.104   6.515   4.902
 8099SOL    HW225197   5.027   6.371   4.908
 8100SOL     OW25198   0.494   5.837   0.791
 8100SOL    HW125199   0.541   5.823   0.704
 8100SOL    HW225200   0.443   5.923   0.788
 8101SOL     OW25201   0.688   5.326   2.725
 8101SOL    HW125202   0.611   5.334   2.789
 8101SOL    HW225203   0.740   5.412   2.724
 8102SOL     OW25204   0.163   6.892   6.616
 8102SOL    HW125205   0.262   6.895   6.604
 8102SOL    HW225206   0.141   6.884   6.713
 8103SOL     OW25207   2.375   1.679   2.519
 8103SOL    HW125208   2.397   1.657   2.614
 8103SOL    HW225209   2.340   1.772   2.513
 8104SOL     OW25210   2.731   6.035   6.232
 8104SOL    HW125211   2.798   5.966   6.262
 8104SOL    HW225212   2.668   5.993   6.167
 8105SOL     OW25213   1.883   2.633   2.805
 8105SOL    HW125214   1.894   2.680   2.717
 8105SOL    HW225215   1.933   2.683   2.876
 8106SOL     OW25216   0.234   3.944   5.107
 8106SOL    HW125217   0.257   4.035   5.075
 8106SOL    HW225218   0.301   3.878   5.072
 8107SOL     OW25219   1.363   5.741   6.213
 8107SOL    HW125220   1.345   5.829   6.169
 8107SOL    HW225221   1.452   5.708   6.184
 8108SOL     OW25222   2.165   3.413   4.942
 8108SOL    HW125223   2.211   3.387   4.857
 8108SOL    HW225224   2.167   3.336   5.006
 8109SOL     OW25225   1.156   5.535   5.243
 8109SOL    HW125226   1.256   5.538   5.239
 8109SOL    HW225227   1.121   5.479   5.167
 8110SOL     OW25228   1.489   4.444   0.855
 8110SOL    HW125229   1.498   4.438   0.756
 8110SOL    HW225230   1.543   4.522   0.889
 8111SOL     OW25231   2.765   5.852   4.216
 8111SOL    HW125232   2.752   5.819   4.122
 8111SOL    HW225233   2.688   5.910   4.242
 8112SOL     OW25234   4.182   0.899   4.973
 8112SOL    HW125235   4.278   0.870   4.970
 8112SOL    HW225236   4.125   0.822   5.002
 8113SOL     OW25237   4.013   3.077   6.060
 8113SOL    HW125238   3.944   3.009   6.037
 8113SOL    HW225239   4.071   3.042   6.133
 8114SOL     OW25240   3.058   4.106   1.426
 8114SOL    HW125241   3.053   4.203   1.404
 8114SOL    HW225242   3.023   4.090   1.518
 8115SOL     OW25243   3.938   2.277   0.843
 8115SOL    HW125244   3.889   2.333   0.775
 8115SOL    HW225245   4.034   2.304   0.845
 8116SOL     OW25246   4.889   0.855   5.819
 8116SOL    HW125247   4.922   0.949   5.809
 8116SOL    HW225248   4.858   0.822   5.730
 8117SOL     OW25249   2.514   1.922   6.032
 8117SOL    HW125250   2.553   2.010   6.058
 8117SOL    HW225251   2.416   1.921   6.055
 8118SOL     OW25252   1.225   2.440   4.158
 8118SOL    HW125253   1.239   2.364   4.221
 8118SOL    HW225254   1.203   2.405   4.067
 8119SOL     OW25255   1.240   5.988   1.752
 8119SOL    HW125256   1.273   6.038   1.832
 8119SOL    HW225257   1.317   5.955   1.698
 8120SOL     OW25258   4.660   4.224   1.756
 8120SOL    HW125259   4.567   4.236   1.791
 8120SOL    HW225260   4.668   4.134   1.713
 8121SOL     OW25261   6.516   6.402   3.327
 8121SOL    HW125262   6.615   6.391   3.325
 8121SOL    HW225263   6.487   6.422   3.421
 8122SOL     OW25264   0.715   5.959   1.215
 8122SOL    HW125265   0.621   5.929   1.198
 8122SOL    HW225266   0.767   5.957   1.130
 8123SOL     OW25267   0.535   5.679   0.187
 8123SOL    HW125268   0.618   5.726   0.216
 8123SOL    HW225269   0.461   5.700   0.250
 8124SOL     OW25270   0.832   6.046   3.153
 8124SOL    HW125271   0.746   6.082   3.117
 8124SOL    HW225272   0.877   6.116   3.209
 8125SOL     OW25273   5.744   5.561   2.723
 8125SOL    HW125274   5.804   5.567   2.803
 8125SOL    HW225275   5.782   5.497   2.657
 8126SOL     OW25276   6.549   4.742   2.516
 8126SOL    HW125277   6.590   4.677   2.580
 8126SOL    HW225278   6.618   4.772   2.450
 8127SOL     OW25279   3.604   4.546   1.233
 8127SOL    HW125280   3.587   4.499   1.146
 8127SOL    HW225281   3.640   4.481   1.300
 8128SOL     OW25282   3.776   2.352   5.287
 8128SOL    HW125283   3.678   2.363   5.304
 8128SOL    HW225284   3.823   2.438   5.309
 8129SOL     OW25285   4.965   6.080   6.824
 8129SOL    HW125286   5.016   6.045   6.903
 8129SOL    HW225287   4.885   6.023   6.808
 8130SOL     OW25288   1.101   6.952   0.762
 8130SOL    HW125289   1.150   0.001   0.703
 8130SOL    HW225290   1.166   6.883   0.796
 8131SOL     OW25291   1.438   1.221   0.658
 8131SOL    HW125292   1.524   1.253   0.697
 8131SOL    HW225293   1.456   1.150   0.590
 8132SOL     OW25294   6.198   4.536   2.988
 8132SOL    HW125295   6.272   4.562   3.050
 8132SOL    HW225296   6.236   4.491   2.907
 8133SOL     OW25297   0.643   5.771   2.030
 8133SOL    HW125298   0.547   5.746   2.017
 8133SOL    HW225299   0.698   5.731   1.956
 8134SOL     OW25300   2.063   2.637   2.199
 8134SOL    HW125301   2.080   2.615   2.104
 8134SOL    HW225302   1.997   2.572   2.237
 8135SOL     OW25303   3.851   5.910   2.455
 8135SOL    HW125304   3.949   5.893   2.446
 8135SOL    HW225305   3.834   6.008   2.459
 8136SOL     OW25306   3.009   6.334   1.748
 8136SOL    HW125307   3.073   6.261   1.771
 8136SOL    HW225308   2.927   6.294   1.706
 8137SOL     OW25309   3.352   3.384   4.946
 8137SOL    HW125310   3.450   3.387   4.968
 8137SOL    HW225311   3.301   3.354   5.027
 8138SOL     OW25312   5.050   0.678   3.777
 8138SOL    HW125313   5.096   0.639   3.858
 8138SOL    HW225314   4.952   0.677   3.791
 8139SOL     OW25315   1.808   3.105   4.680
 8139SOL    HW125316   1.857   3.160   4.748
 8139SOL    HW225317   1.857   3.019   4.665
 8140SOL     OW25318   4.509   1.085   0.982
 8140SOL    HW125319   4.418   1.116   1.008
 8140SOL    HW225320   4.574   1.105   1.056
 8141SOL     OW25321   5.706   0.194   5.388
 8141SOL    HW125322   5.651   0.237   5.316
 8141SOL    HW225323   5.802   0.192   5.360
 8142SOL     OW25324   2.362   5.262   0.771
 8142SOL    HW125325   2.447   5.281   0.819
 8142SOL    HW225326   2.316   5.348   0.749
 8143SOL     OW25327   5.599   4.736   0.662
 8143SOL    HW125328   5.591   4.792   0.744
 8143SOL    HW225329   5.618   4.795   0.583
 8144SOL     OW25330   0.708   5.630   0.655
 8144SOL    HW125331   0.753   5.691   0.720
 8144SOL    HW225332   0.658   5.559   0.704
 8145SOL     OW25333   5.577   5.780   6.932
 8145SOL    HW125334   5.635   5.702   6.953
 8145SOL    HW225335   5.617   5.863   6.969
 8146SOL     OW25336   6.653   6.688   4.905
 8146SOL    HW125337   6.679   6.760   4.841
 8146SOL    HW225338   6.553   6.684   4.911
 8147SOL     OW25339   1.649   0.740   6.132
 8147SOL    HW125340   1.608   0.830   6.141
 8147SOL    HW225341   1.628   0.702   6.041
 8148SOL     OW25342   4.564   3.964   0.464
 8148SOL    HW125343   4.627   3.975   0.541
 8148SOL    HW225344   4.512   4.049   0.451
 8149SOL     OW25345   0.861   0.271   5.865
 8149SOL    HW125346   0.853   0.175   5.840
 8149SOL    HW225347   0.770   0.310   5.879
 8150SOL     OW25348   0.394   3.967   0.701
 8150SOL    HW125349   0.408   4.055   0.748
 8150SOL    HW225350   0.324   3.978   0.631
 8151SOL     OW25351   6.519   5.583   2.971
 8151SOL    HW125352   6.507   5.581   2.871
 8151SOL    HW225353   6.605   5.627   2.993
 8152SOL     OW25354   4.992   1.314   2.867
 8152SOL    HW125355   4.958   1.408   2.865
 8152SOL    HW225356   5.028   1.293   2.958
 8153SOL     OW25357   0.136   1.634   2.270
 8153SOL    HW125358   0.077   1.621   2.190
 8153SOL    HW225359   0.153   1.732   2.283
 8154SOL     OW25360   1.729   1.096   2.588
 8154SOL    HW125361   1.819   1.078   2.628
 8154SOL    HW225362   1.704   1.192   2.603
 8155SOL     OW25363   1.737   5.079   3.417
 8155SOL    HW125364   1.802   5.155   3.426
 8155SOL    HW225365   1.716   5.064   3.321
 8156SOL     OW25366   0.541   4.468   0.797
 8156SOL    HW125367   0.447   4.501   0.801
 8156SOL    HW225368   0.594   4.527   0.737
 8157SOL     OW25369   0.039   4.468   4.630
 8157SOL    HW125370   6.993   4.540   4.597
 8157SOL    HW225371   0.020   4.383   4.581
 8158SOL     OW25372   5.886   5.832   6.828
 8158SOL    HW125373   5.939   5.907   6.789
 8158SOL    HW225374   5.892   5.752   6.767
 8159SOL     OW25375   2.508   0.004   5.074
 8159SOL    HW125376   2.484   0.072   5.005
 8159SOL    HW225377   2.551   0.050   5.152
 8160SOL     OW25378   5.619   1.544   1.842
 8160SOL    HW125379   5.655   1.583   1.927
 8160SOL    HW225380   5.524   1.517   1.855
 8161SOL     OW25381   5.895   2.715   1.661
 8161SOL    HW125382   5.941   2.737   1.747
 8161SOL    HW225383   5.949   2.647   1.611
 8162SOL     OW25384   0.565   5.577   5.016
 8162SOL    HW125385   0.564   5.677   5.012
 8162SOL    HW225386   0.649   5.546   5.061
 8163SOL     OW25387   4.454   4.744   5.639
 8163SOL    HW125388   4.356   4.756   5.656
 8163SOL    HW225389   4.480   4.649   5.660
 8164SOL     OW25390   5.732   1.773   0.505
 8164SOL    HW125391   5.770   1.707   0.440
 8164SOL    HW225392   5.637   1.750   0.524
 8165SOL     OW25393   0.427   1.421   6.425
 8165SOL    HW125394   0.478   1.409   6.511
 8165SOL    HW225395   0.478   1.482   6.365
 8166SOL     OW25396   1.428   1.862   5.603
 8166SOL    HW125397   1.434   1.943   5.545
 8166SOL    HW225398   1.508   1.858   5.663
 8167SOL     OW25399   1.855   3.057   3.778
 8167SOL    HW125400   1.805   3.141   3.760
 8167SOL    HW225401   1.909   3.068   3.862
 8168SOL     OW25402   1.628   0.101   2.341
 8168SOL    HW125403   1.563   0.077   2.413
 8168SOL    HW225404   1.587   0.168   2.280
 8169SOL     OW25405   4.938   3.305   0.601
 8169SOL    HW125406   5.013   3.323   0.664
 8169SOL    HW225407   4.973   3.261   0.519
 8170SOL     OW25408   0.011   4.885   2.353
 8170SOL    HW125409   0.040   4.961   2.411
 8170SOL    HW225410   0.057   4.801   2.382
 8171SOL     OW25411   2.491   1.442   0.898
 8171SOL    HW125412   2.487   1.464   0.995
 8171SOL    HW225413   2.573   1.389   0.879
 8172SOL     OW25414   1.843   2.679   0.637
 8172SOL    HW125415   1.751   2.671   0.676
 8172SOL    HW225416   1.837   2.674   0.538
 8173SOL     OW25417   5.773   0.871   1.810
 8173SOL    HW125418   5.869   0.890   1.790
 8173SOL    HW225419   5.764   0.776   1.839
 8174SOL     OW25420   2.618   6.458   3.708
 8174SOL    HW125421   2.673   6.539   3.725
 8174SOL    HW225422   2.565   6.470   3.624
 8175SOL     OW25423   0.770   2.134   5.957
 8175SOL    HW125424   0.786   2.037   5.972
 8175SOL    HW225425   0.742   2.177   6.043
 8176SOL     OW25426   2.726   4.498   0.328
 8176SOL    HW125427   2.710   4.586   0.374
 8176SOL    HW225428   2.738   4.426   0.397
 8177SOL     OW25429   3.229   1.276   4.013
 8177SOL    HW125430   3.310   1.292   4.068
 8177SOL    HW225431   3.159   1.230   4.068
 8178SOL     OW25432   2.891   6.326   1.069
 8178SOL    HW125433   2.822   6.396   1.058
 8178SOL    HW225434   2.854   6.237   1.040
 8179SOL     OW25435   5.652   0.770   3.570
 8179SOL    HW125436   5.723   0.753   3.502
 8179SOL    HW225437   5.589   0.692   3.572
 8180SOL     OW25438   5.037   6.177   0.227
 8180SOL    HW125439   5.076   6.120   0.156
 8180SOL    HW225440   5.042   6.273   0.200
 8181SOL     OW25441   6.908   0.307   6.866
 8181SOL    HW125442   6.894   0.283   6.770
 8181SOL    HW225443   6.834   0.367   6.897
 8182SOL     OW25444   3.260   3.910   4.088
 8182SOL    HW125445   3.233   3.929   4.182
 8182SOL    HW225446   3.324   3.834   4.086
 8183SOL     OW25447   6.891   0.835   5.660
 8183SOL    HW125448   6.925   0.741   5.653
 8183SOL    HW225449   6.816   0.848   5.596
 8184SOL     OW25450   0.134   5.894   6.095
 8184SOL    HW125451   0.108   5.983   6.132
 8184SOL    HW225452   0.078   5.822   6.136
 8185SOL     OW25453   0.134   6.243   5.777
 8185SOL    HW125454   0.180   6.155   5.789
 8185SOL    HW225455   0.202   6.311   5.749
 8186SOL     OW25456   1.770   5.251   6.871
 8186SOL    HW125457   1.769   5.153   6.850
 8186SOL    HW225458   1.803   5.264   6.965
 8187SOL     OW25459   1.344   0.314   5.504
 8187SOL    HW125460   1.352   0.341   5.600
 8187SOL    HW225461   1.400   0.374   5.447
 8188SOL     OW25462   1.752   3.075   2.765
 8188SOL    HW125463   1.793   3.083   2.675
 8188SOL    HW225464   1.664   3.027   2.758
 8189SOL     OW25465   5.702   5.175   3.831
 8189SOL    HW125466   5.650   5.220   3.903
 8189SOL    HW225467   5.669   5.081   3.818
 8190SOL     OW25468   6.423   4.082   2.928
 8190SOL    HW125469   6.367   4.150   2.976
 8190SOL    HW225470   6.519   4.111   2.928
 8191SOL     OW25471   4.297   5.051   1.108
 8191SOL    HW125472   4.216   5.075   1.162
 8191SOL    HW225473   4.322   4.956   1.125
 8192SOL     OW25474   0.776   6.335   3.366
 8192SOL    HW125475   0.738   6.427   3.375
 8192SOL    HW225476   0.767   6.304   3.271
 8193SOL     OW25477   0.892   4.768   4.207
 8193SOL    HW125478   0.865   4.793   4.300
 8193SOL    HW225479   0.992   4.756   4.203
 8194SOL     OW25480   4.578   0.059   1.860
 8194SOL    HW125481   4.557   0.118   1.782
 8194SOL    HW225482   4.656   0.097   1.910
 8195SOL     OW25483   6.272   0.202   4.179
 8195SOL    HW125484   6.197   0.264   4.201
 8195SOL    HW225485   6.276   0.129   4.247
 8196SOL     OW25486   4.700   1.229   1.718
 8196SOL    HW125487   4.760   1.231   1.637
 8196SOL    HW225488   4.699   1.318   1.761
 8197SOL     OW25489   3.614   1.955   3.126
 8197SOL    HW125490   3.533   1.958   3.185
 8197SOL    HW225491   3.599   2.016   3.047
 8198SOL     OW25492   1.338   6.022   1.419
 8198SOL    HW125493   1.290   5.937   1.439
 8198SOL    HW225494   1.296   6.065   1.338
 8199SOL     OW25495   5.595   2.684   0.645
 8199SOL    HW125496   5.604   2.717   0.552
 8199SOL    HW225497   5.638   2.749   0.708
 8200SOL     OW25498   4.462   3.183   0.781
 8200SOL    HW125499   4.370   3.155   0.752
 8200SOL    HW225500   4.529   3.157   0.711
 8201SOL     OW25501   6.233   6.717   5.563
 8201SOL    HW125502   6.251   6.682   5.471
 8201SOL    HW225503   6.205   6.642   5.623
 8202SOL     OW25504   0.725   6.539   2.121
 8202SOL    HW125505   0.725   6.552   2.022
 8202SOL    HW225506   0.666   6.461   2.144
 8203SOL     OW25507   1.569   3.584   1.176
 8203SOL    HW125508   1.628   3.636   1.238
 8203SOL    HW225509   1.618   3.503   1.144
 8204SOL     OW25510   2.868   2.808   0.773
 8204SOL    HW125511   2.817   2.738   0.824
 8204SOL    HW225512   2.965   2.786   0.773
 8205SOL     OW25513   0.831   3.766   0.063
 8205SOL    HW125514   0.787   3.829   7.014
 8205SOL    HW225515   0.848   3.678   0.017
 8206SOL     OW25516   3.046   0.585   0.979
 8206SOL    HW125517   3.063   0.598   1.077
 8206SOL    HW225518   2.993   0.662   0.944
 8207SOL     OW25519   3.776   4.103   4.753
 8207SOL    HW125520   3.795   4.021   4.699
 8207SOL    HW225521   3.836   4.106   4.832
 8208SOL     OW25522   1.876   0.678   0.303
 8208SOL    HW125523   1.897   0.769   0.338
 8208SOL    HW225524   1.957   0.637   0.262
 8209SOL     OW25525   6.274   1.562   4.822
 8209SOL    HW125526   6.302   1.596   4.912
 8209SOL    HW225527   6.229   1.474   4.832
 8210SOL     OW25528   1.966   2.723   6.763
 8210SOL    HW125529   2.061   2.753   6.765
 8210SOL    HW225530   1.939   2.690   6.853
 8211SOL     OW25531   3.880   5.016   1.724
 8211SOL    HW125532   3.887   4.955   1.804
 8211SOL    HW225533   3.784   5.034   1.705
 8212SOL     OW25534   1.771   3.010   3.202
 8212SOL    HW125535   1.826   3.010   3.286
 8212SOL    HW225536   1.828   3.039   3.126
 8213SOL     OW25537   6.557   5.242   1.314
 8213SOL    HW125538   6.632   5.216   1.375
 8213SOL    HW225539   6.569   5.337   1.285
 8214SOL     OW25540   5.625   4.036   3.669
 8214SOL    HW125541   5.599   4.021   3.764
 8214SOL    HW225542   5.597   3.957   3.614
 8215SOL     OW25543   3.517   5.247   3.055
 8215SOL    HW125544   3.481   5.330   3.097
 8215SOL    HW225545   3.450   5.210   2.991
 8216SOL     OW25546   5.320   4.221   3.896
 8216SOL    HW125547   5.221   4.220   3.901
 8216SOL    HW225548   5.356   4.139   3.942
 8217SOL     OW25549   2.141   5.886   0.350
 8217SOL    HW125550   2.150   5.967   0.291
 8217SOL    HW225551   2.133   5.915   0.445
 8218SOL     OW25552   6.184   2.181   6.953
 8218SOL    HW125553   6.241   2.262   6.939
 8218SOL    HW225554   6.233   2.100   6.922
 8219SOL     OW25555   5.653   1.742   6.853
 8219SOL    HW125556   5.589   1.674   6.818
 8219SOL    HW225557   5.676   1.807   6.781
 8220SOL     OW25558   4.071   3.607   1.949
 8220SOL    HW125559   4.058   3.678   1.880
 8220SOL    HW225560   3.990   3.548   1.952
 8221SOL     OW25561   5.141   6.168   3.013
 8221SOL    HW125562   5.178   6.253   2.973
 8221SOL    HW225563   5.217   6.107   3.035
 8222SOL     OW25564   6.270   2.266   1.852
 8222SOL    HW125565   6.354   2.300   1.810
 8222SOL    HW225566   6.290   2.227   1.941
 8223SOL     OW25567   0.331   5.285   5.877
 8223SOL    HW125568   0.265   5.248   5.942
 8223SOL    HW225569   0.421   5.291   5.920
 8224SOL     OW25570   1.491   3.214   3.798
 8224SOL    HW125571   1.525   3.138   3.855
 8224SOL    HW225572   1.472   3.293   3.856
 8225SOL     OW25573   4.865   1.573   0.648
 8225SOL    HW125574   4.830   1.506   0.713
 8225SOL    HW225575   4.937   1.627   0.690
 8226SOL     OW25576   4.414   0.424   0.390
 8226SOL    HW125577   4.485   0.453   0.325
 8226SOL    HW225578   4.404   0.494   0.461
 8227SOL     OW25579   6.130   3.298   2.668
 8227SOL    HW125580   6.086   3.265   2.752
 8227SOL    HW225581   6.060   3.312   2.598
 8228SOL     OW25582   6.875   2.917   4.911
 8228SOL    HW125583   6.878   3.005   4.959
 8228SOL    HW225584   6.925   2.925   4.824
 8229SOL     OW25585   3.661   5.213   0.771
 8229SOL    HW125586   3.675   5.115   0.760
 8229SOL    HW225587   3.564   5.232   0.787
 8230SOL     OW25588   5.082   0.053   4.111
 8230SOL    HW125589   5.071   0.106   4.195
 8230SOL    HW225590   5.015   0.083   4.043
 8231SOL     OW25591   4.424   6.269   0.782
 8231SOL    HW125592   4.386   6.281   0.690
 8231SOL    HW225593   4.366   6.317   0.848
 8232SOL     OW25594   2.729   2.118   6.538
 8232SOL    HW125595   2.824   2.097   6.515
 8232SOL    HW225596   2.668   2.056   6.490
 8233SOL     OW25597   0.120   5.585   6.911
 8233SOL    HW125598   0.088   5.505   6.861
 8233SOL    HW225599   0.048   5.655   6.912
 8234SOL     OW25600   3.488   2.300   6.766
 8234SOL    HW125601   3.444   2.342   6.687
 8234SOL    HW225602   3.489   2.365   6.842
 8235SOL     OW25603   4.554   2.352   0.385
 8235SOL    HW125604   4.518   2.431   0.335
 8235SOL    HW225605   4.564   2.275   0.323
 8236SOL     OW25606   5.547   2.837   1.164
 8236SOL    HW125607   5.598   2.867   1.244
 8236SOL    HW225608   5.461   2.889   1.158
 8237SOL     OW25609   4.300   5.998   5.416
 8237SOL    HW125610   4.288   5.903   5.446
 8237SOL    HW225611   4.387   6.033   5.451
 8238SOL     OW25612   1.483   1.269   6.403
 8238SOL    HW125613   1.545   1.232   6.473
 8238SOL    HW225614   1.531   1.339   6.350
 8239SOL     OW25615   6.938   1.692   6.431
 8239SOL    HW125616   6.982   1.657   6.349
 8239SOL    HW225617   7.007   1.731   6.492
 8240SOL     OW25618   3.720   3.973   3.390
 8240SOL    HW125619   3.644   4.029   3.356
 8240SOL    HW225620   3.745   3.906   3.320
 8241SOL     OW25621   4.743   6.740   1.357
 8241SOL    HW125622   4.654   6.774   1.387
 8241SOL    HW225623   4.762   6.771   1.264
 8242SOL     OW25624   0.794   4.217   5.711
 8242SOL    HW125625   0.873   4.163   5.740
 8242SOL    HW225626   0.766   4.278   5.786
 8243SOL     OW25627   1.257   3.383   4.831
 8243SOL    HW125628   1.266   3.286   4.810
 8243SOL    HW225629   1.324   3.435   4.779
 8244SOL     OW25630   1.055   6.119   4.653
 8244SOL    HW125631   1.049   6.214   4.683
 8244SOL    HW225632   1.076   6.115   4.556
 8245SOL     OW25633   3.728   2.869   0.681
 8245SOL    HW125634   3.725   2.774   0.711
 8245SOL    HW225635   3.706   2.875   0.584
 8246SOL     OW25636   5.053   3.878   5.466
 8246SOL    HW125637   5.072   3.824   5.384
 8246SOL    HW225638   5.072   3.823   5.547
 8247SOL     OW25639   1.138   0.067   1.698
 8247SOL    HW125640   1.216   0.129   1.696
 8247SOL    HW225641   1.082   0.081   1.617
 8248SOL     OW25642   6.825   4.251   3.234
 8248SOL    HW125643   6.853   4.336   3.279
 8248SOL    HW225644   6.905   4.191   3.224
 8249SOL     OW25645   1.706   5.069   3.151
 8249SOL    HW125646   1.616   5.025   3.149
 8249SOL    HW225647   1.755   5.048   3.067
 8250SOL     OW25648   4.018   3.872   2.296
 8250SOL    HW125649   4.075   3.793   2.272
 8250SOL    HW225650   3.969   3.853   2.381
 8251SOL     OW25651   5.927   1.719   4.969
 8251SOL    HW125652   5.962   1.705   4.876
 8251SOL    HW225653   5.963   1.804   5.005
 8252SOL     OW25654   1.422   3.791   4.727
 8252SOL    HW125655   1.322   3.789   4.718
 8252SOL    HW225656   1.457   3.698   4.727
 8253SOL     OW25657   3.088   2.957   5.573
 8253SOL    HW125658   3.038   3.034   5.535
 8253SOL    HW225659   3.133   2.985   5.657
 8254SOL     OW25660   3.871   6.069   3.917
 8254SOL    HW125661   3.867   6.119   3.831
 8254SOL    HW225662   3.927   6.119   3.983
 8255SOL     OW25663   4.387   5.187   3.557
 8255SOL    HW125664   4.336   5.273   3.555
 8255SOL    HW225665   4.398   5.153   3.464
 8256SOL     OW25666   6.745   2.003   3.884
 8256SOL    HW125667   6.779   2.071   3.819
 8256SOL    HW225668   6.822   1.952   3.923
 8257SOL     OW25669   6.610   4.477   3.810
 8257SOL    HW125670   6.700   4.438   3.791
 8257SOL    HW225671   6.574   4.518   3.726
 8258SOL     OW25672   4.451   2.000   0.049
 8258SOL    HW125673   4.419   1.931   7.000
 8258SOL    HW225674   4.429   1.971   0.142
 8259SOL     OW25675   3.910   1.497   1.867
 8259SOL    HW125676   3.893   1.589   1.830
 8259SOL    HW225677   3.996   1.462   1.830
 8260SOL     OW25678   2.884   6.189   0.692
 8260SOL    HW125679   2.950   6.188   0.617
 8260SOL    HW225680   2.804   6.134   0.667
 8261SOL     OW25681   5.662   1.386   1.320
 8261SOL    HW125682   5.701   1.306   1.366
 8261SOL    HW225683   5.647   1.459   1.387
 8262SOL     OW25684   0.938   2.200   0.504
 8262SOL    HW125685   0.997   2.184   0.583
 8262SOL    HW225686   0.979   2.269   0.445
 8263SOL     OW25687   6.194   0.933   0.418
 8263SOL    HW125688   6.212   1.030   0.401
 8263SOL    HW225689   6.280   0.884   0.427
 8264SOL     OW25690   1.740   4.660   2.677
 8264SOL    HW125691   1.827   4.611   2.680
 8264SOL    HW225692   1.672   4.605   2.628
 8265SOL     OW25693   1.994   0.793   1.448
 8265SOL    HW125694   1.955   0.826   1.534
 8265SOL    HW225695   2.020   0.870   1.390
 8266SOL     OW25696   3.588   0.406   3.281
 8266SOL    HW125697   3.558   0.311   3.269
 8266SOL    HW225698   3.514   0.460   3.321
 8267SOL     OW25699   0.607   3.093   0.930
 8267SOL    HW125700   0.634   3.126   0.839
 8267SOL    HW225701   0.508   3.085   0.935
 8268SOL     OW25702   3.269   5.994   5.929
 8268SOL    HW125703   3.204   6.069   5.929
 8268SOL    HW225704   3.313   5.988   6.019
 8269SOL     OW25705   5.771   1.618   1.459
 8269SOL    HW125706   5.822   1.704   1.473
 8269SOL    HW225707   5.675   1.632   1.483
 8270SOL     OW25708   3.507   6.304   3.898
 8270SOL    HW125709   3.460   6.289   3.811
 8270SOL    HW225710   3.448   6.274   3.973
 8271SOL     OW25711   6.940   1.998   2.014
 8271SOL    HW125712   0.006   1.949   2.042
 8271SOL    HW225713   6.885   1.941   1.953
 8272SOL     OW25714   3.598   1.189   3.743
 8272SOL    HW125715   3.630   1.203   3.649
 8272SOL    HW225716   3.673   1.153   3.798
 8273SOL     OW25717   2.227   6.286   0.781
 8273SOL    HW125718   2.184   6.335   0.857
 8273SOL    HW225719   2.203   6.330   0.694
 8274SOL     OW25720   5.428   4.981   3.434
 8274SOL    HW125721   5.336   5.002   3.468
 8274SOL    HW225722   5.493   5.047   3.472
 8275SOL     OW25723   4.999   2.537   6.275
 8275SOL    HW125724   4.974   2.491   6.190
 8275SOL    HW225725   4.930   2.517   6.345
 8276SOL     OW25726   0.285   2.111   3.192
 8276SOL    HW125727   0.281   2.184   3.261
 8276SOL    HW225728   0.203   2.115   3.135
 8277SOL     OW25729   6.567   0.133   6.860
 8277SOL    HW125730   6.503   0.057   6.864
 8277SOL    HW225731   6.592   0.151   6.765
 8278SOL     OW25732   1.828   2.407   0.377
 8278SOL    HW125733   1.910   2.385   0.430
 8278SOL    HW225734   1.804   2.503   0.391
 8279SOL     OW25735   6.987   5.983   3.836
 8279SOL    HW125736   0.065   5.998   3.803
 8279SOL    HW225737   6.983   5.896   3.886
 8280SOL     OW25738   2.541   2.585   5.946
 8280SOL    HW125739   2.579   2.663   5.897
 8280SOL    HW225740   2.441   2.588   5.942
 8281SOL     OW25741   6.249   5.638   2.182
 8281SOL    HW125742   6.206   5.548   2.185
 8281SOL    HW225743   6.215   5.693   2.259
 8282SOL     OW25744   5.343   2.403   5.594
 8282SOL    HW125745   5.341   2.313   5.638
 8282SOL    HW225746   5.266   2.458   5.627
 8283SOL     OW25747   1.701   4.143   5.654
 8283SOL    HW125748   1.706   4.117   5.558
 8283SOL    HW225749   1.614   4.111   5.692
 8284SOL     OW25750   6.821   4.527   1.613
 8284SOL    HW125751   6.820   4.436   1.655
 8284SOL    HW225752   6.776   4.592   1.674
 8285SOL     OW25753   3.810   3.694   4.430
 8285SOL    HW125754   3.826   3.773   4.489
 8285SOL    HW225755   3.731   3.711   4.371
 8286SOL     OW25756   6.559   2.156   6.051
 8286SOL    HW125757   6.602   2.239   6.018
 8286SOL    HW225758   6.492   2.179   6.122
 8287SOL     OW25759   1.418   5.317   4.779
 8287SOL    HW125760   1.401   5.246   4.847
 8287SOL    HW225761   1.423   5.275   4.688
 8288SOL     OW25762   2.756   2.323   2.935
 8288SOL    HW125763   2.689   2.271   2.988
 8288SOL    HW225764   2.848   2.289   2.955
 8289SOL     OW25765   0.340   6.303   0.050
 8289SOL    HW125766   0.388   6.352   0.122
 8289SOL    HW225767   0.268   6.361   0.013
 8290SOL     OW25768   6.721   2.707   0.788
 8290SOL    HW125769   6.794   2.642   0.808
 8290SOL    HW225770   6.746   2.797   0.824
 8291SOL     OW25771   4.615   6.984   0.697
 8291SOL    HW125772   4.704   7.014   0.729
 8291SOL    HW225773   4.627   6.921   0.620
 8292SOL     OW25774   3.465   6.906   6.463
 8292SOL    HW125775   3.372   6.880   6.485
 8292SOL    HW225776   3.528   6.865   6.529
 8293SOL     OW25777   5.299   5.817   5.152
 8293SOL    HW125778   5.269   5.853   5.063
 8293SOL    HW225779   5.398   5.806   5.152
 8294SOL     OW25780   5.555   2.451   0.216
 8294SOL    HW125781   5.489   2.436   0.290
 8294SOL    HW225782   5.530   2.395   0.137
 8295SOL     OW25783   5.341   3.572   0.509
 8295SOL    HW125784   5.309   3.625   0.430
 8295SOL    HW225785   5.294   3.604   0.591
 8296SOL     OW25786   1.534   5.704   0.320
 8296SOL    HW125787   1.464   5.714   0.391
 8296SOL    HW225788   1.624   5.726   0.357
 8297SOL     OW25789   0.611   2.546   3.087
 8297SOL    HW125790   0.555   2.464   3.080
 8297SOL    HW225791   0.708   2.521   3.081
 8298SOL     OW25792   4.510   1.331   1.465
 8298SOL    HW125793   4.546   1.239   1.484
 8298SOL    HW225794   4.577   1.381   1.410
 8299SOL     OW25795   6.495   2.357   1.735
 8299SOL    HW125796   6.555   2.436   1.723
 8299SOL    HW225797   6.520   2.285   1.670
 8300SOL     OW25798   0.521   4.617   3.517
 8300SOL    HW125799   0.516   4.523   3.484
 8300SOL    HW225800   0.532   4.617   3.617
 8301SOL     OW25801   3.448   3.155   6.667
 8301SOL    HW125802   3.505   3.097   6.726
 8301SOL    HW225803   3.377   3.198   6.722
 8302SOL     OW25804   5.643   5.717   6.573
 8302SOL    HW125805   5.608   5.787   6.636
 8302SOL    HW225806   5.600   5.629   6.595
 8303SOL     OW25807   0.212   0.846   4.988
 8303SOL    HW125808   0.241   0.921   5.048
 8303SOL    HW225809   0.279   0.835   4.915
 8304SOL     OW25810   0.378   3.512   6.701
 8304SOL    HW125811   0.413   3.432   6.750
 8304SOL    HW225812   0.313   3.560   6.759
 8305SOL     OW25813   3.281   6.154   3.209
 8305SOL    HW125814   3.217   6.209   3.262
 8305SOL    HW225815   3.298   6.197   3.121
 8306SOL     OW25816   0.835   3.405   4.282
 8306SOL    HW125817   0.909   3.454   4.329
 8306SOL    HW225818   0.802   3.461   4.206
 8307SOL     OW25819   3.257   5.961   1.451
 8307SOL    HW125820   3.197   6.039   1.469
 8307SOL    HW225821   3.311   5.941   1.533
 8308SOL     OW25822   4.108   6.478   2.526
 8308SOL    HW125823   4.101   6.430   2.613
 8308SOL    HW225824   4.191   6.535   2.527
 8309SOL     OW25825   4.933   6.086   2.262
 8309SOL    HW125826   4.935   6.039   2.351
 8309SOL    HW225827   4.838   6.100   2.235
 8310SOL     OW25828   0.150   4.460   0.302
 8310SOL    HW125829   0.095   4.525   0.250
 8310SOL    HW225830   0.117   4.367   0.285
 8311SOL     OW25831   6.693   0.520   0.567
 8311SOL    HW125832   6.594   0.529   0.563
 8311SOL    HW225833   6.723   0.455   0.497
 8312SOL     OW25834   5.692   6.721   1.524
 8312SOL    HW125835   5.617   6.657   1.507
 8312SOL    HW225836   5.753   6.684   1.594
 8313SOL     OW25837   3.371   1.094   2.612
 8313SOL    HW125838   3.313   1.076   2.692
 8313SOL    HW225839   3.411   1.186   2.621
 8314SOL     OW25840   6.317   6.929   3.329
 8314SOL    HW125841   6.325   6.971   3.419
 8314SOL    HW225842   6.385   6.857   3.318
 8315SOL     OW25843   4.668   4.149   6.367
 8315SOL    HW125844   4.663   4.243   6.333
 8315SOL    HW225845   4.687   4.150   6.465
 8316SOL     OW25846   1.968   4.972   6.464
 8316SOL    HW125847   2.035   5.005   6.398
 8316SOL    HW225848   1.969   5.030   6.545
 8317SOL     OW25849   2.233   4.065   2.160
 8317SOL    HW125850   2.295   4.055   2.082
 8317SOL    HW225851   2.200   4.160   2.165
 8318SOL     OW25852   3.450   1.475   5.312
 8318SOL    HW125853   3.421   1.570   5.304
 8318SOL    HW225854   3.532   1.470   5.370
 8319SOL     OW25855   3.536   1.058   4.862
 8319SOL    HW125856   3.460   0.994   4.876
 8319SOL    HW225857   3.504   1.151   4.878
 8320SOL     OW25858   3.373   4.654   1.665
 8320SOL    HW125859   3.415   4.583   1.608
 8320SOL    HW225860   3.439   4.685   1.734
 8321SOL     OW25861   0.758   0.691   1.333
 8321SOL    HW125862   0.721   0.765   1.278
 8321SOL    HW225863   0.811   0.729   1.409
 8322SOL     OW25864   6.210   6.765   0.033
 8322SOL    HW125865   6.168   6.702   6.983
 8322SOL    HW225866   6.170   6.750   0.124
 8323SOL     OW25867   1.326   1.861   1.613
 8323SOL    HW125868   1.336   1.957   1.585
 8323SOL    HW225869   1.403   1.808   1.577
 8324SOL     OW25870   6.707   0.879   2.137
 8324SOL    HW125871   6.645   0.955   2.117
 8324SOL    HW225872   6.794   0.894   2.090
 8325SOL     OW25873   3.457   3.203   4.128
 8325SOL    HW125874   3.507   3.164   4.051
 8325SOL    HW225875   3.410   3.286   4.099
 8326SOL     OW25876   3.798   3.576   5.723
 8326SOL    HW125877   3.817   3.558   5.820
 8326SOL    HW225878   3.786   3.490   5.675
 8327SOL     OW25879   5.337   1.979   5.703
 8327SOL    HW125880   5.388   2.063   5.724
 8327SOL    HW225881   5.358   1.950   5.610
 8328SOL     OW25882   2.682   2.297   5.108
 8328SOL    HW125883   2.718   2.361   5.176
 8328SOL    HW225884   2.606   2.245   5.148
 8329SOL     OW25885   0.361   3.299   5.100
 8329SOL    HW125886   0.381   3.395   5.117
 8329SOL    HW225887   0.438   3.243   5.129
 8330SOL     OW25888   2.851   6.514   6.752
 8330SOL    HW125889   2.783   6.443   6.766
 8330SOL    HW225890   2.825   6.596   6.804
 8331SOL     OW25891   2.592   0.009   0.327
 8331SOL    HW125892   2.681   0.052   0.310
 8331SOL    HW225893   2.520   0.077   0.314
 8332SOL     OW25894   5.238   5.791   2.715
 8332SOL    HW125895   5.313   5.841   2.672
 8332SOL    HW225896   5.255   5.693   2.710
 8333SOL     OW25897   0.581   5.877   6.127
 8333SOL    HW125898   0.589   5.855   6.224
 8333SOL    HW225899   0.541   5.968   6.116
 8334SOL     OW25900   6.182   1.659   3.607
 8334SOL    HW125901   6.207   1.647   3.704
 8334SOL    HW225902   6.258   1.701   3.558
 8335SOL     OW25903   5.240   6.774   5.844
 8335SOL    HW125904   5.158   6.732   5.882
 8335SOL    HW225905   5.231   6.783   5.745
 8336SOL     OW25906   0.513   1.741   2.312
 8336SOL    HW125907   0.591   1.803   2.308
 8336SOL    HW225908   0.431   1.788   2.278
 8337SOL     OW25909   0.492   6.444   2.514
 8337SOL    HW125910   0.498   6.386   2.595
 8337SOL    HW225911   0.582   6.484   2.496
 8338SOL     OW25912   1.706   4.626   0.947
 8338SOL    HW125913   1.763   4.575   1.011
 8338SOL    HW225914   1.725   4.724   0.956
 8339SOL     OW25915   5.641   1.403   2.786
 8339SOL    HW125916   5.645   1.449   2.697
 8339SOL    HW225917   5.724   1.425   2.838
 8340SOL     OW25918   5.128   3.414   0.208
 8340SOL    HW125919   5.136   3.487   0.276
 8340SOL    HW225920   5.091   3.453   0.123
 8341SOL     OW25921   2.259   6.035   0.870
 8341SOL    HW125922   2.166   5.997   0.867
 8341SOL    HW225923   2.266   6.112   0.806
 8342SOL     OW25924   4.283   0.859   0.442
 8342SOL    HW125925   4.204   0.798   0.431
 8342SOL    HW225926   4.254   0.942   0.490
 8343SOL     OW25927   1.546   5.454   5.910
 8343SOL    HW125928   1.511   5.484   5.822
 8343SOL    HW225929   1.515   5.360   5.928
 8344SOL     OW25930   3.805   6.314   5.613
 8344SOL    HW125931   3.903   6.295   5.613
 8344SOL    HW225932   3.775   6.338   5.521
 8345SOL     OW25933   6.491   1.029   2.463
 8345SOL    HW125934   6.433   1.002   2.540
 8345SOL    HW225935   6.536   1.116   2.484
 8346SOL     OW25936   3.092   5.719   1.825
 8346SOL    HW125937   3.191   5.707   1.826
 8346SOL    HW225938   3.065   5.780   1.899
 8347SOL     OW25939   3.355   6.125   4.714
 8347SOL    HW125940   3.439   6.146   4.665
 8347SOL    HW225941   3.307   6.050   4.667
 8348SOL     OW25942   1.945   0.290   0.137
 8348SOL    HW125943   1.955   0.217   0.069
 8348SOL    HW225944   1.852   0.326   0.134
 8349SOL     OW25945   5.518   5.089   1.603
 8349SOL    HW125946   5.421   5.086   1.627
 8349SOL    HW225947   5.562   5.165   1.650
 8350SOL     OW25948   6.083   0.802   4.666
 8350SOL    HW125949   5.991   0.768   4.646
 8350SOL    HW225950   6.146   0.725   4.670
 8351SOL     OW25951   3.457   6.002   2.790
 8351SOL    HW125952   3.460   6.016   2.691
 8351SOL    HW225953   3.548   6.014   2.828
 8352SOL     OW25954   6.998   6.337   1.988
 8352SOL    HW125955   0.080   6.339   2.007
 8352SOL    HW225956   6.975   6.407   1.921
 8353SOL     OW25957   0.377   3.434   2.249
 8353SOL    HW125958   0.469   3.468   2.231
 8353SOL    HW225959   0.382   3.357   2.313
 8354SOL     OW25960   2.333   0.932   0.008
 8354SOL    HW125961   2.406   0.865   0.025
 8354SOL    HW225962   2.284   0.906   6.941
 8355SOL     OW25963   3.012   0.967   6.974
 8355SOL    HW125964   3.061   0.930   0.037
 8355SOL    HW225965   3.037   0.915   6.892
 8356SOL     OW25966   2.102   5.477   0.034
 8356SOL    HW125967   2.175   5.543   0.048
 8356SOL    HW225968   2.061   5.490   6.959
 8357SOL     OW25969   4.780   5.607   4.353
 8357SOL    HW125970   4.778   5.692   4.301
 8357SOL    HW225971   4.700   5.551   4.329
 8358SOL     OW25972   2.153   2.712   5.692
 8358SOL    HW125973   2.061   2.684   5.720
 8358SOL    HW225974   2.156   2.727   5.594
 8359SOL     OW25975   4.417   5.046   4.156
 8359SOL    HW125976   4.392   4.950   4.140
 8359SOL    HW225977   4.334   5.102   4.158
 8360SOL     OW25978   4.465   0.131   3.436
 8360SOL    HW125979   4.462   0.219   3.389
 8360SOL    HW225980   4.561   0.101   3.443
 8361SOL     OW25981   1.892   0.601   2.643
 8361SOL    HW125982   1.860   0.631   2.553
 8361SOL    HW225983   1.973   0.544   2.632
 8362SOL     OW25984   2.507   2.339   0.292
 8362SOL    HW125985   2.416   2.362   0.258
 8362SOL    HW225986   2.575   2.358   0.221
 8363SOL     OW25987   0.264   3.012   0.590
 8363SOL    HW125988   0.310   3.058   0.665
 8363SOL    HW225989   0.169   3.043   0.585
 8364SOL     OW25990   6.108   3.898   3.848
 8364SOL    HW125991   6.071   3.850   3.928
 8364SOL    HW225992   6.149   3.984   3.876
 8365SOL     OW25993   2.265   3.281   6.221
 8365SOL    HW125994   2.167   3.265   6.211
 8365SOL    HW225995   2.289   3.365   6.173
 8366SOL     OW25996   2.933   6.378   2.998
 8366SOL    HW125997   2.848   6.426   3.017
 8366SOL    HW225998   2.953   6.315   3.073
 8367SOL     OW25999   5.724   5.654   3.687
 8367SOL    HW126000   5.687   5.722   3.750
 8367SOL    HW226001   5.765   5.579   3.738
 8368SOL     OW26002   3.138   5.085   6.549
 8368SOL    HW126003   3.178   5.127   6.468
 8368SOL    HW226004   3.176   5.127   6.631
 8369SOL     OW26005   2.209   1.170   1.023
 8369SOL    HW126006   2.240   1.230   0.950
 8369SOL    HW226007   2.268   1.181   1.103
 8370SOL     OW26008   1.256   1.666   6.629
 8370SOL    HW126009   1.203   1.717   6.562
 8370SOL    HW226010   1.312   1.729   6.683
 8371SOL     OW26011   1.771   3.145   0.567
 8371SOL    HW126012   1.831   3.080   0.613
 8371SOL    HW226013   1.820   3.190   0.493
 8372SOL     OW26014   0.010   0.710   2.210
 8372SOL    HW126015   6.985   0.786   2.158
 8372SOL    HW226016   0.105   0.732   2.232
 8373SOL     OW26017   1.635   6.716   5.243
 8373SOL    HW126018   1.700   6.763   5.184
 8373SOL    HW226019   1.677   6.697   5.332
 8374SOL     OW26020   6.342   6.848   6.652
 8374SOL    HW126021   6.362   6.757   6.687
 8374SOL    HW226022   6.388   6.862   6.565
 8375SOL     OW26023   3.491   0.345   6.861
 8375SOL    HW126024   3.408   0.335   6.916
 8375SOL    HW226025   3.512   0.442   6.850
 8376SOL     OW26026   3.254   0.701   4.807
 8376SOL    HW126027   3.166   0.658   4.825
 8376SOL    HW226028   3.252   0.796   4.841
 8377SOL     OW26029   5.590   4.386   1.039
 8377SOL    HW126030   5.506   4.332   1.036
 8377SOL    HW226031   5.635   4.374   1.127
 8378SOL     OW26032   5.128   2.760   3.620
 8378SOL    HW126033   5.193   2.836   3.616
 8378SOL    HW226034   5.115   2.732   3.715
 8379SOL     OW26035   5.913   2.408   2.411
 8379SOL    HW126036   5.985   2.452   2.464
 8379SOL    HW226037   5.881   2.470   2.340
 8380SOL     OW26038   4.571   1.639   3.547
 8380SOL    HW126039   4.623   1.636   3.462
 8380SOL    HW226040   4.633   1.650   3.625
 8381SOL     OW26041   2.075   5.778   4.616
 8381SOL    HW126042   2.158   5.724   4.629
 8381SOL    HW226043   2.029   5.791   4.705
 8382SOL     OW26044   1.541   2.809   2.403
 8382SOL    HW126045   1.539   2.907   2.383
 8382SOL    HW226046   1.509   2.793   2.497
 8383SOL     OW26047   2.658   2.343   5.996
 8383SOL    HW126048   2.632   2.439   5.991
 8383SOL    HW226049   2.595   2.288   5.942
 8384SOL     OW26050   0.667   6.832   1.897
 8384SOL    HW126051   0.597   6.762   1.886
 8384SOL    HW226052   0.650   6.884   1.981
 8385SOL     OW26053   5.331   2.174   0.974
 8385SOL    HW126054   5.399   2.242   0.945
 8385SOL    HW226055   5.268   2.216   1.039
 8386SOL     OW26056   0.795   4.470   2.681
 8386SOL    HW126057   0.759   4.408   2.611
 8386SOL    HW226058   0.866   4.424   2.733
 8387SOL     OW26059   0.500   2.238   1.218
 8387SOL    HW126060   0.528   2.154   1.265
 8387SOL    HW226061   0.470   2.216   1.126
 8388SOL     OW26062   1.617   6.783   2.894
 8388SOL    HW126063   1.595   6.720   2.819
 8388SOL    HW226064   1.539   6.845   2.909
 8389SOL     OW26065   5.039   2.651   2.399
 8389SOL    HW126066   5.065   2.560   2.365
 8389SOL    HW226067   5.079   2.721   2.341
 8390SOL     OW26068   5.269   1.090   5.827
 8390SOL    HW126069   5.288   0.993   5.840
 8390SOL    HW226070   5.352   1.143   5.845
 8391SOL     OW26071   6.653   0.012   1.514
 8391SOL    HW126072   6.737   6.992   1.556
 8391SOL    HW226073   6.628   6.970   1.437
 8392SOL     OW26074   5.253   3.053   4.991
 8392SOL    HW126075   5.271   3.010   4.902
 8392SOL    HW226076   5.279   2.989   5.064
 8393SOL     OW26077   5.391   0.603   1.248
 8393SOL    HW126078   5.439   0.557   1.323
 8393SOL    HW226079   5.311   0.652   1.283
 8394SOL     OW26080   5.497   3.363   1.679
 8394SOL    HW126081   5.409   3.410   1.675
 8394SOL    HW226082   5.545   3.374   1.592
 8395SOL     OW26083   1.774   1.417   4.617
 8395SOL    HW126084   1.685   1.456   4.595
 8395SOL    HW226085   1.836   1.489   4.646
 8396SOL     OW26086   3.863   5.404   4.467
 8396SOL    HW126087   3.956   5.424   4.499
 8396SOL    HW226088   3.813   5.490   4.455
 8397SOL     OW26089   6.158   1.123   2.298
 8397SOL    HW126090   6.177   1.164   2.388
 8397SOL    HW226091   6.059   1.127   2.280
 8398SOL     OW26092   4.283   2.133   6.198
 8398SOL    HW126093   4.339   2.187   6.261
 8398SOL    HW226094   4.276   2.039   6.231
 8399SOL     OW26095   6.640   5.173   0.804
 8399SOL    HW126096   6.615   5.133   0.892
 8399SOL    HW226097   6.655   5.099   0.738
 8400SOL     OW26098   1.617   2.386   4.819
 8400SOL    HW126099   1.665   2.430   4.743
 8400SOL    HW226100   1.518   2.389   4.802
 8401SOL     OW26101   2.943   0.060   6.159
 8401SOL    HW126102   2.971   0.045   6.064
 8401SOL    HW226103   2.945   6.989   6.209
 8402SOL     OW26104   3.547   0.597   6.087
 8402SOL    HW126105   3.534   0.526   6.156
 8402SOL    HW226106   3.547   0.556   5.996
 8403SOL     OW26107   6.118   4.868   4.556
 8403SOL    HW126108   6.040   4.820   4.595
 8403SOL    HW226109   6.193   4.803   4.543
 8404SOL     OW26110   0.941   1.990   6.291
 8404SOL    HW126111   0.859   2.033   6.328
 8404SOL    HW226112   0.921   1.895   6.265
 8405SOL     OW26113   3.682   0.655   5.627
 8405SOL    HW126114   3.684   0.566   5.672
 8405SOL    HW226115   3.720   0.724   5.688
 8406SOL     OW26116   4.796   6.989   5.984
 8406SOL    HW126117   4.820   0.034   6.060
 8406SOL    HW226118   4.697   6.990   5.970
 8407SOL     OW26119   3.257   0.243   4.047
 8407SOL    HW126120   3.200   0.250   4.129
 8407SOL    HW226121   3.343   0.197   4.069
 8408SOL     OW26122   3.841   1.363   1.625
 8408SOL    HW126123   3.815   1.340   1.719
 8408SOL    HW226124   3.776   1.430   1.588
 8409SOL     OW26125   4.194   2.301   2.183
 8409SOL    HW126126   4.104   2.265   2.208
 8409SOL    HW226127   4.249   2.315   2.265
 8410SOL     OW26128   6.852   1.695   1.445
 8410SOL    HW126129   6.782   1.642   1.494
 8410SOL    HW226130   6.861   1.659   1.352
 8411SOL     OW26131   1.835   5.111   0.822
 8411SOL    HW126132   1.754   5.165   0.798
 8411SOL    HW226133   1.913   5.172   0.837
 8412SOL     OW26134   2.608   2.413   6.585
 8412SOL    HW126135   2.650   2.331   6.625
 8412SOL    HW226136   2.602   2.402   6.486
 8413SOL     OW26137   4.647   5.991   4.922
 8413SOL    HW126138   4.566   5.979   4.866
 8413SOL    HW226139   4.671   5.904   4.966
 8414SOL     OW26140   1.367   0.644   1.239
 8414SOL    HW126141   1.376   0.743   1.256
 8414SOL    HW226142   1.458   0.603   1.234
 8415SOL     OW26143   2.215   0.962   5.660
 8415SOL    HW126144   2.313   0.962   5.678
 8415SOL    HW226145   2.174   1.047   5.694
 8416SOL     OW26146   6.520   1.869   5.411
 8416SOL    HW126147   6.442   1.837   5.357
 8416SOL    HW226148   6.538   1.965   5.389
 8417SOL     OW26149   1.571   3.542   5.384
 8417SOL    HW126150   1.554   3.544   5.483
 8417SOL    HW226151   1.658   3.497   5.366
 8418SOL     OW26152   0.573   6.060   2.385
 8418SOL    HW126153   0.551   6.021   2.474
 8418SOL    HW226154   0.636   6.137   2.396
 8419SOL     OW26155   4.016   1.904   4.424
 8419SOL    HW126156   3.942   1.838   4.431
 8419SOL    HW226157   3.981   1.990   4.388
 8420SOL     OW26158   3.064   0.459   1.960
 8420SOL    HW126159   3.149   0.413   1.986
 8420SOL    HW226160   3.085   0.550   1.925
 8421SOL     OW26161   4.536   6.640   6.487
 8421SOL    HW126162   4.483   6.574   6.434
 8421SOL    HW226163   4.625   6.654   6.444
 8422SOL     OW26164   5.121   2.311   3.050
 8422SOL    HW126165   5.220   2.324   3.052
 8422SOL    HW226166   5.093   2.257   3.130
 8423SOL     OW26167   6.873   5.435   6.367
 8423SOL    HW126168   6.910   5.470   6.281
 8423SOL    HW226169   6.913   5.484   6.443
 8424SOL     OW26170   2.554   0.260   4.302
 8424SOL    HW126171   2.504   0.319   4.365
 8424SOL    HW226172   2.555   0.301   4.211
 8425SOL     OW26173   3.616   4.115   2.569
 8425SOL    HW126174   3.677   4.118   2.489
 8425SOL    HW226175   3.670   4.129   2.652
 8426SOL     OW26176   3.950   2.933   1.981
 8426SOL    HW126177   4.009   3.007   2.013
 8426SOL    HW226178   3.969   2.850   2.033
 8427SOL     OW26179   3.530   3.816   4.010
 8427SOL    HW126180   3.607   3.756   4.028
 8427SOL    HW226181   3.493   3.796   3.919
 8428SOL     OW26182   6.529   0.121   1.076
 8428SOL    HW126183   6.558   0.042   1.023
 8428SOL    HW226184   6.437   0.149   1.047
 8429SOL     OW26185   2.532   6.059   5.609
 8429SOL    HW126186   2.450   6.105   5.643
 8429SOL    HW226187   2.521   6.039   5.512
 8430SOL     OW26188   4.024   6.579   5.028
 8430SOL    HW126189   3.960   6.598   5.102
 8430SOL    HW226190   3.998   6.494   4.982
 8431SOL     OW26191   2.449   3.434   6.375
 8431SOL    HW126192   2.468   3.521   6.330
 8431SOL    HW226193   2.363   3.396   6.341
 8432SOL     OW26194   6.427   4.987   6.279
 8432SOL    HW126195   6.524   4.975   6.298
 8432SOL    HW226196   6.395   4.913   6.219
 8433SOL     OW26197   5.652   2.579   1.178
 8433SOL    HW126198   5.609   2.669   1.185
 8433SOL    HW226199   5.626   2.536   1.091
 8434SOL     OW26200   2.530   5.926   5.351
 8434SOL    HW126201   2.552   5.857   5.281
 8434SOL    HW226202   2.605   5.992   5.357
 8435SOL     OW26203   5.034   1.460   3.212
 8435SOL    HW126204   5.022   1.549   3.168
 8435SOL    HW226205   5.131   1.434   3.208
 8436SOL     OW26206   2.360   5.721   2.420
 8436SOL    HW126207   2.307   5.656   2.475
 8436SOL    HW226208   2.310   5.742   2.336
 8437SOL     OW26209   1.186   4.720   2.345
 8437SOL    HW126210   1.168   4.718   2.444
 8437SOL    HW226211   1.284   4.722   2.329
 8438SOL     OW26212   1.124   3.941   2.064
 8438SOL    HW126213   1.054   3.970   2.130
 8438SOL    HW226214   1.124   3.842   2.057
 8439SOL     OW26215   5.942   5.151   3.085
 8439SOL    HW126216   5.901   5.239   3.066
 8439SOL    HW226217   5.875   5.091   3.130
 8440SOL     OW26218   2.214   1.339   2.936
 8440SOL    HW126219   2.192   1.342   2.838
 8440SOL    HW226220   2.129   1.334   2.989
 8441SOL     OW26221   6.136   1.257   4.689
 8441SOL    HW126222   6.173   1.281   4.779
 8441SOL    HW226223   6.169   1.166   4.663
 8442SOL     OW26224   3.136   1.420   6.933
 8442SOL    HW126225   3.176   1.444   0.006
 8442SOL    HW226226   3.170   1.330   6.905
 8443SOL     OW26227   0.992   4.062   3.458
 8443SOL    HW126228   1.091   4.066   3.448
 8443SOL    HW226229   0.957   3.978   3.415
 8444SOL     OW26230   5.211   5.094   4.533
 8444SOL    HW126231   5.180   5.016   4.478
 8444SOL    HW226232   5.191   5.076   4.630
 8445SOL     OW26233   4.388   6.107   6.531
 8445SOL    HW126234   4.352   6.014   6.533
 8445SOL    HW226235   4.313   6.172   6.527
 8446SOL     OW26236   0.273   5.394   4.789
 8446SOL    HW126237   0.198   5.355   4.844
 8446SOL    HW226238   0.236   5.464   4.727
 8447SOL     OW26239   4.073   2.171   3.387
 8447SOL    HW126240   3.976   2.146   3.379
 8447SOL    HW226241   4.092   2.203   3.480
 8448SOL     OW26242   3.370   6.267   2.933
 8448SOL    HW126243   3.418   6.190   2.890
 8448SOL    HW226244   3.388   6.351   2.881
 8449SOL     OW26245   2.151   2.282   3.347
 8449SOL    HW126246   2.226   2.319   3.402
 8449SOL    HW226247   2.130   2.189   3.377
 8450SOL     OW26248   0.368   1.180   6.666
 8450SOL    HW126249   0.285   1.192   6.719
 8450SOL    HW226250   0.385   1.082   6.653
 8451SOL     OW26251   4.639   2.452   0.939
 8451SOL    HW126252   4.548   2.414   0.955
 8451SOL    HW226253   4.708   2.391   0.976
 8452SOL     OW26254   4.985   1.814   5.551
 8452SOL    HW126255   4.889   1.791   5.536
 8452SOL    HW226256   5.030   1.834   5.464
 8453SOL     OW26257   0.152   6.186   0.876
 8453SOL    HW126258   0.137   6.249   0.952
 8453SOL    HW226259   0.214   6.113   0.905
 8454SOL     OW26260   6.726   4.007   6.876
 8454SOL    HW126261   6.754   4.060   6.956
 8454SOL    HW226262   6.668   3.931   6.906
 8455SOL     OW26263   0.330   1.253   2.787
 8455SOL    HW126264   0.254   1.195   2.817
 8455SOL    HW226265   0.408   1.240   2.848
 8456SOL     OW26266   6.116   0.645   3.353
 8456SOL    HW126267   6.134   0.712   3.281
 8456SOL    HW226268   6.157   0.676   3.439
 8457SOL     OW26269   6.481   0.117   5.366
 8457SOL    HW126270   6.390   0.080   5.384
 8457SOL    HW226271   6.535   0.050   5.316
 8458SOL     OW26272   6.942   6.566   6.590
 8458SOL    HW126273   7.010   6.506   6.633
 8458SOL    HW226274   6.896   6.619   6.661
 8459SOL     OW26275   1.712   5.972   3.515
 8459SOL    HW126276   1.725   5.914   3.595
 8459SOL    HW226277   1.777   5.947   3.444
 8460SOL     OW26278   3.182   4.067   3.087
 8460SOL    HW126279   3.193   4.015   3.002
 8460SOL    HW226280   3.271   4.105   3.114
 8461SOL     OW26281   6.366   3.801   4.003
 8461SOL    HW126282   6.352   3.733   3.931
 8461SOL    HW226283   6.290   3.798   4.067
 8462SOL     OW26284   2.228   3.107   1.745
 8462SOL    HW126285   2.321   3.142   1.732
 8462SOL    HW226286   2.227   3.042   1.821
 8463SOL     OW26287   5.277   1.158   1.838
 8463SOL    HW126288   5.178   1.154   1.851
 8463SOL    HW226289   5.306   1.079   1.784
 8464SOL     OW26290   6.878   1.624   4.871
 8464SOL    HW126291   6.961   1.671   4.842
 8464SOL    HW226292   6.813   1.621   4.795
 8465SOL     OW26293   1.460   2.191   0.102
 8465SOL    HW126294   1.542   2.167   0.153
 8465SOL    HW226295   1.485   2.222   0.011
 8466SOL     OW26296   0.263   0.071   3.955
 8466SOL    HW126297   0.246   0.038   4.047
 8466SOL    HW226298   0.181   0.118   3.921
 8467SOL     OW26299   3.212   5.464   0.801
 8467SOL    HW126300   3.176   5.443   0.892
 8467SOL    HW226301   3.258   5.552   0.803
 8468SOL     OW26302   4.967   1.790   0.831
 8468SOL    HW126303   4.874   1.822   0.808
 8468SOL    HW226304   5.024   1.869   0.852
 8469SOL     OW26305   3.729   2.796   6.703
 8469SOL    HW126306   3.781   2.853   6.766
 8469SOL    HW226307   3.763   2.809   6.610
 8470SOL     OW26308   1.522   3.019   6.939
 8470SOL    HW126309   1.606   2.972   6.913
 8470SOL    HW226310   1.466   2.958   6.995
 8471SOL     OW26311   4.230   1.437   4.121
 8471SOL    HW126312   4.294   1.476   4.055
 8471SOL    HW226313   4.229   1.338   4.112
 8472SOL     OW26314   1.039   6.561   3.304
 8472SOL    HW126315   1.106   6.635   3.301
 8472SOL    HW226316   1.022   6.527   3.212
 8473SOL     OW26317   6.415   5.831   0.130
 8473SOL    HW126318   6.329   5.864   0.090
 8473SOL    HW226319   6.434   5.739   0.097
 8474SOL     OW26320   4.072   4.882   0.615
 8474SOL    HW126321   4.157   4.918   0.575
 8474SOL    HW226322   4.018   4.958   0.651
 8475SOL     OW26323   4.302   1.181   3.494
 8475SOL    HW126324   4.337   1.246   3.562
 8475SOL    HW226325   4.377   1.131   3.454
 8476SOL     OW26326   4.866   0.744   2.671
 8476SOL    HW126327   4.878   0.669   2.605
 8476SOL    HW226328   4.770   0.768   2.676
 8477SOL     OW26329   2.945   1.468   2.429
 8477SOL    HW126330   3.036   1.438   2.458
 8477SOL    HW226331   2.905   1.528   2.498
 8478SOL     OW26332   1.619   0.266   5.580
 8478SOL    HW126333   1.634   0.332   5.506
 8478SOL    HW226334   1.626   0.313   5.668
 8479SOL     OW26335   4.574   1.408   2.321
 8479SOL    HW126336   4.510   1.343   2.282
 8479SOL    HW226337   4.667   1.385   2.291
 8480SOL     OW26338   1.230   1.205   1.259
 8480SOL    HW126339   1.186   1.166   1.178
 8480SOL    HW226340   1.169   1.272   1.301
 8481SOL     OW26341   3.738   6.717   4.283
 8481SOL    HW126342   3.827   6.752   4.313
 8481SOL    HW226343   3.745   6.618   4.266
 8482SOL     OW26344   0.649   0.405   2.179
 8482SOL    HW126345   0.697   0.399   2.092
 8482SOL    HW226346   0.607   0.495   2.188
 8483SOL     OW26347   4.578   5.936   2.263
 8483SOL    HW126348   4.528   5.943   2.349
 8483SOL    HW226349   4.542   5.860   2.209
 8484SOL     OW26350   0.661   4.575   4.936
 8484SOL    HW126351   0.727   4.574   5.011
 8484SOL    HW226352   0.695   4.632   4.862
 8485SOL     OW26353   2.701   3.045   5.906
 8485SOL    HW126354   2.655   3.086   5.985
 8485SOL    HW226355   2.800   3.052   5.919
 8486SOL     OW26356   4.111   0.774   2.743
 8486SOL    HW126357   4.173   0.813   2.675
 8486SOL    HW226358   4.032   0.833   2.753
 8487SOL     OW26359   4.404   6.884   1.325
 8487SOL    HW126360   4.343   6.962   1.338
 8487SOL    HW226361   4.472   6.883   1.398
 8488SOL     OW26362   5.064   2.898   4.645
 8488SOL    HW126363   5.012   2.977   4.613
 8488SOL    HW226364   5.006   2.841   4.702
 8489SOL     OW26365   4.336   4.993   3.089
 8489SOL    HW126366   4.395   5.071   3.071
 8489SOL    HW226367   4.302   4.999   3.183
 8490SOL     OW26368   3.827   5.340   2.600
 8490SOL    HW126369   3.895   5.279   2.559
 8490SOL    HW226370   3.860   5.434   2.598
 8491SOL     OW26371   1.967   0.904   1.902
 8491SOL    HW126372   1.921   0.843   1.838
 8491SOL    HW226373   2.042   0.951   1.856
 8492SOL     OW26374   5.689   3.753   4.557
 8492SOL    HW126375   5.720   3.713   4.643
 8492SOL    HW226376   5.690   3.852   4.563
 8493SOL     OW26377   3.448   2.381   0.352
 8493SOL    HW126378   3.349   2.374   0.350
 8493SOL    HW226379   3.488   2.311   0.293
 8494SOL     OW26380   3.788   5.789   0.122
 8494SOL    HW126381   3.692   5.815   0.115
 8494SOL    HW226382   3.830   5.792   0.032
 8495SOL     OW26383   0.352   2.847   0.191
 8495SOL    HW126384   0.280   2.811   0.251
 8495SOL    HW226385   0.412   2.907   0.244
 8496SOL     OW26386   6.582   2.929   3.328
 8496SOL    HW126387   6.550   3.002   3.268
 8496SOL    HW226388   6.592   2.844   3.276
 8497SOL     OW26389   6.023   5.414   3.265
 8497SOL    HW126390   5.940   5.360   3.268
 8497SOL    HW226391   6.000   5.510   3.246
 8498SOL     OW26392   6.837   1.017   0.566
 8498SOL    HW126393   6.934   0.994   0.553
 8498SOL    HW226394   6.795   0.950   0.627
 8499SOL     OW26395   3.108   4.020   6.283
 8499SOL    HW126396   3.123   4.107   6.331
 8499SOL    HW226397   3.045   4.035   6.207
 8500SOL     OW26398   3.241   0.774   6.236
 8500SOL    HW126399   3.315   0.834   6.205
 8500SOL    HW226400   3.236   0.776   6.336
 8501SOL     OW26401   2.445   4.517   5.900
 8501SOL    HW126402   2.369   4.531   5.963
 8501SOL    HW226403   2.411   4.477   5.814
 8502SOL     OW26404   0.237   0.400   2.065
 8502SOL    HW126405   0.204   0.429   1.975
 8502SOL    HW226406   0.260   0.480   2.119
 8503SOL     OW26407   3.278   5.749   3.292
 8503SOL    HW126408   3.197   5.698   3.263
 8503SOL    HW226409   3.290   5.829   3.233
 8504SOL     OW26410   0.764   5.782   3.125
 8504SOL    HW126411   0.801   5.874   3.121
 8504SOL    HW226412   0.770   5.747   3.219
 8505SOL     OW26413   4.899   3.010   3.998
 8505SOL    HW126414   4.878   3.074   4.073
 8505SOL    HW226415   4.966   2.943   4.030
 8506SOL     OW26416   0.989   6.725   0.459
 8506SOL    HW126417   0.985   6.737   0.558
 8506SOL    HW226418   1.009   6.812   0.415
 8507SOL     OW26419   2.124   0.871   4.692
 8507SOL    HW126420   2.128   0.797   4.625
 8507SOL    HW226421   2.140   0.959   4.646
 8508SOL     OW26422   1.030   3.165   6.161
 8508SOL    HW126423   1.046   3.263   6.174
 8508SOL    HW226424   1.107   3.125   6.111
 8509SOL     OW26425   5.872   2.238   4.568
 8509SOL    HW126426   5.953   2.181   4.552
 8509SOL    HW226427   5.895   2.334   4.552
 8510SOL     OW26428   4.967   0.236   2.873
 8510SOL    HW126429   5.019   0.159   2.834
 8510SOL    HW226430   4.997   0.252   2.967
 8511SOL     OW26431   0.201   4.741   1.891
 8511SOL    HW126432   0.199   4.641   1.892
 8511SOL    HW226433   0.284   4.774   1.938
 8512SOL     OW26434   4.202   2.056   0.470
 8512SOL    HW126435   4.198   2.090   0.376
 8512SOL    HW226436   4.263   2.114   0.525
 8513SOL     OW26437   0.432   4.277   1.293
 8513SOL    HW126438   0.442   4.203   1.360
 8513SOL    HW226439   0.389   4.356   1.336
 8514SOL     OW26440   2.362   2.303   6.134
 8514SOL    HW126441   2.266   2.329   6.142
 8514SOL    HW226442   2.381   2.274   6.040
 8515SOL     OW26443   1.418   0.224   1.092
 8515SOL    HW126444   1.483   0.290   1.053
 8515SOL    HW226445   1.409   0.146   1.030
 8516SOL     OW26446   5.090   2.285   3.792
 8516SOL    HW126447   5.140   2.199   3.799
 8516SOL    HW226448   5.149   2.355   3.750
 8517SOL     OW26449   1.817   1.868   5.929
 8517SOL    HW126450   1.781   1.875   5.835
 8517SOL    HW226451   1.761   1.805   5.981
 8518SOL     OW26452   5.378   4.744   0.235
 8518SOL    HW126453   5.333   4.809   0.296
 8518SOL    HW226454   5.335   4.655   0.243
 8519SOL     OW26455   1.310   3.182   0.958
 8519SOL    HW126456   1.252   3.180   1.039
 8519SOL    HW226457   1.379   3.110   0.964
 8520SOL     OW26458   3.966   3.909   6.131
 8520SOL    HW126459   4.024   3.990   6.124
 8520SOL    HW226460   4.020   3.828   6.109
 8521SOL     OW26461   1.956   6.538   5.716
 8521SOL    HW126462   1.967   6.449   5.672
 8521SOL    HW226463   1.913   6.602   5.652
 8522SOL     OW26464   0.689   6.996   0.556
 8522SOL    HW126465   0.598   0.019   0.566
 8522SOL    HW226466   0.736   0.025   0.480
 8523SOL     OW26467   3.225   1.450   0.155
 8523SOL    HW126468   3.179   1.500   0.229
 8523SOL    HW226469   3.324   1.460   0.165
 8524SOL     OW26470   1.850   5.790   4.497
 8524SOL    HW126471   1.938   5.788   4.546
 8524SOL    HW226472   1.863   5.833   4.408
 8525SOL     OW26473   6.329   4.415   2.028
 8525SOL    HW126474   6.359   4.364   1.947
 8525SOL    HW226475   6.323   4.512   2.006
 8526SOL     OW26476   0.816   5.210   0.767
 8526SOL    HW126477   0.809   5.134   0.702
 8526SOL    HW226478   0.912   5.236   0.777
 8527SOL     OW26479   2.959   0.937   5.300
 8527SOL    HW126480   2.995   0.884   5.223
 8527SOL    HW226481   2.871   0.900   5.328
 8528SOL     OW26482   5.046   1.686   0.270
 8528SOL    HW126483   5.043   1.587   0.256
 8528SOL    HW226484   5.137   1.712   0.303
 8529SOL     OW26485   1.113   6.068   6.368
 8529SOL    HW126486   1.019   6.097   6.347
 8529SOL    HW226487   1.178   6.130   6.326
 8530SOL     OW26488   2.953   3.866   4.054
 8530SOL    HW126489   2.954   3.802   3.977
 8530SOL    HW226490   3.041   3.913   4.059
 8531SOL     OW26491   6.738   5.189   4.255
 8531SOL    HW126492   6.797   5.240   4.317
 8531SOL    HW226493   6.647   5.178   4.296
 8532SOL     OW26494   2.592   5.029   5.682
 8532SOL    HW126495   2.522   4.963   5.709
 8532SOL    HW226496   2.548   5.113   5.650
 8533SOL     OW26497   2.678   6.291   5.988
 8533SOL    HW126498   2.689   6.204   6.036
 8533SOL    HW226499   2.602   6.285   5.924
 8534SOL     OW26500   2.320   2.368   3.551
 8534SOL    HW126501   2.383   2.442   3.525
 8534SOL    HW226502   2.292   2.380   3.646
 8535SOL     OW26503   6.390   0.460   2.420
 8535SOL    HW126504   6.422   0.553   2.438
 8535SOL    HW226505   6.389   0.408   2.506
 8536SOL     OW26506   0.874   1.568   4.984
 8536SOL    HW126507   0.850   1.599   5.076
 8536SOL    HW226508   0.836   1.630   4.917
 8537SOL     OW26509   6.973   1.097   2.717
 8537SOL    HW126510   0.037   1.051   2.758
 8537SOL    HW226511   6.987   1.196   2.718
 8538SOL     OW26512   0.745   2.363   0.038
 8538SOL    HW126513   0.768   2.385   0.133
 8538SOL    HW226514   0.647   2.380   0.024
 8539SOL     OW26515   5.681   2.460   2.699
 8539SOL    HW126516   5.638   2.540   2.657
 8539SOL    HW226517   5.623   2.380   2.683
 8540SOL     OW26518   3.479   0.290   0.461
 8540SOL    HW126519   3.564   0.334   0.431
 8540SOL    HW226520   3.494   0.243   0.547
 8541SOL     OW26521   1.940   2.840   4.665
 8541SOL    HW126522   2.038   2.836   4.684
 8541SOL    HW226523   1.891   2.788   4.734
 8542SOL     OW26524   3.584   4.883   0.950
 8542SOL    HW126525   3.651   4.843   0.887
 8542SOL    HW226526   3.493   4.851   0.926
 8543SOL     OW26527   2.177   2.128   6.300
 8543SOL    HW126528   2.236   2.060   6.344
 8543SOL    HW226529   2.173   2.211   6.357
 8544SOL     OW26530   6.493   2.854   3.655
 8544SOL    HW126531   6.447   2.769   3.632
 8544SOL    HW226532   6.591   2.839   3.661
 8545SOL     OW26533   4.698   6.627   4.903
 8545SOL    HW126534   4.752   6.709   4.884
 8545SOL    HW226535   4.721   6.593   4.995
 8546SOL     OW26536   4.370   1.873   6.254
 8546SOL    HW126537   4.306   1.814   6.206
 8546SOL    HW226538   4.463   1.854   6.223
 8547SOL     OW26539   0.832   4.718   3.147
 8547SOL    HW126540   0.739   4.722   3.183
 8547SOL    HW226541   0.892   4.674   3.214
 8548SOL     OW26542   6.096   1.250   5.461
 8548SOL    HW126543   6.060   1.190   5.390
 8548SOL    HW226544   6.025   1.266   5.530
 8549SOL     OW26545   5.647   3.233   4.895
 8549SOL    HW126546   5.621   3.294   4.820
 8549SOL    HW226547   5.624   3.139   4.871
 8550SOL     OW26548   0.929   3.873   6.593
 8550SOL    HW126549   1.021   3.879   6.554
 8550SOL    HW226550   0.933   3.835   6.685
 8551SOL     OW26551   2.943   4.011   1.194
 8551SOL    HW126552   2.924   4.109   1.189
 8551SOL    HW226553   2.996   3.991   1.277
 8552SOL     OW26554   3.223   6.660   4.311
 8552SOL    HW126555   3.278   6.741   4.328
 8552SOL    HW226556   3.159   6.679   4.236
 8553SOL     OW26557   5.880   5.336   0.342
 8553SOL    HW126558   5.977   5.340   0.364
 8553SOL    HW226559   5.827   5.374   0.417
 8554SOL     OW26560   6.556   4.212   6.765
 8554SOL    HW126561   6.655   4.205   6.776
 8554SOL    HW226562   6.513   4.128   6.798
 8555SOL     OW26563   0.714   0.002   4.395
 8555SOL    HW126564   0.673   0.060   4.325
 8555SOL    HW226565   0.642   6.966   4.442
 8556SOL     OW26566   6.488   0.341   4.069
 8556SOL    HW126567   6.411   0.299   4.117
 8556SOL    HW226568   6.468   0.438   4.053
 8557SOL     OW26569   0.472   1.026   0.433
 8557SOL    HW126570   0.567   1.053   0.415
 8557SOL    HW226571   0.471   0.940   0.485
 8558SOL     OW26572   0.873   5.653   1.790
 8558SOL    HW126573   0.826   5.618   1.709
 8558SOL    HW226574   0.921   5.578   1.836
 8559SOL     OW26575   0.481   1.433   6.025
 8559SOL    HW126576   0.545   1.468   6.094
 8559SOL    HW226577   0.532   1.405   5.944
 8560SOL     OW26578   6.492   2.691   6.558
 8560SOL    HW126579   6.581   2.699   6.514
 8560SOL    HW226580   6.490   2.608   6.614
 8561SOL     OW26581   4.908   6.802   4.871
 8561SOL    HW126582   4.913   6.901   4.857
 8561SOL    HW226583   5.001   6.765   4.873
 8562SOL     OW26584   3.538   6.944   4.259
 8562SOL    HW126585   3.453   6.920   4.305
 8562SOL    HW226586   3.612   6.886   4.295
 8563SOL     OW26587   2.780   2.658   6.168
 8563SOL    HW126588   2.713   2.619   6.105
 8563SOL    HW226589   2.828   2.733   6.124
 8564SOL     OW26590   0.045   0.004   3.736
 8564SOL    HW126591   6.976   6.975   3.767
 8564SOL    HW226592   0.052   0.094   3.779
 8565SOL     OW26593   4.507   0.370   1.897
 8565SOL    HW126594   4.418   0.403   1.930
 8565SOL    HW226595   4.578   0.395   1.963
 8566SOL     OW26596   2.173   3.809   3.141
 8566SOL    HW126597   2.209   3.894   3.104
 8566SOL    HW226598   2.163   3.742   3.068
 8567SOL     OW26599   5.334   6.440   0.562
 8567SOL    HW126600   5.329   6.364   0.627
 8567SOL    HW226601   5.407   6.423   0.496
 8568SOL     OW26602   5.735   1.593   0.294
 8568SOL    HW126603   5.654   1.614   0.240
 8568SOL    HW226604   5.772   1.505   0.267
 8569SOL     OW26605   4.256   1.739   5.338
 8569SOL    HW126606   4.301   1.807   5.395
 8569SOL    HW226607   4.161   1.767   5.321
 8570SOL     OW26608   0.901   4.611   6.780
 8570SOL    HW126609   0.806   4.639   6.771
 8570SOL    HW226610   0.914   4.523   6.734
 8571SOL     OW26611   6.855   4.624   4.501
 8571SOL    HW126612   6.921   4.685   4.456
 8571SOL    HW226613   6.791   4.590   4.433
 8572SOL     OW26614   3.155   4.995   5.389
 8572SOL    HW126615   3.093   4.956   5.457
 8572SOL    HW226616   3.104   5.017   5.306
 8573SOL     OW26617   4.429   5.916   4.796
 8573SOL    HW126618   4.468   5.881   4.711
 8573SOL    HW226619   4.355   5.981   4.775
 8574SOL     OW26620   0.574   3.648   4.369
 8574SOL    HW126621   0.624   3.579   4.318
 8574SOL    HW226622   0.635   3.691   4.436
 8575SOL     OW26623   2.942   3.198   6.550
 8575SOL    HW126624   3.004   3.130   6.512
 8575SOL    HW226625   2.941   3.280   6.492
 8576SOL     OW26626   1.754   0.015   1.700
 8576SOL    HW126627   1.668   0.064   1.688
 8576SOL    HW226628   1.758   6.991   1.792
 8577SOL     OW26629   6.913   5.244   3.048
 8577SOL    HW126630   6.889   5.341   3.048
 8577SOL    HW226631   6.997   5.230   2.995
 8578SOL     OW26632   4.512   6.913   3.820
 8578SOL    HW126633   4.470   6.887   3.907
 8578SOL    HW226634   4.609   6.887   3.821
 8579SOL     OW26635   0.524   5.724   3.001
 8579SOL    HW126636   0.621   5.743   3.016
 8579SOL    HW226637   0.477   5.720   3.089
 8580SOL     OW26638   3.032   4.375   6.029
 8580SOL    HW126639   3.061   4.454   5.974
 8580SOL    HW226640   3.104   4.306   6.030
 8581SOL     OW26641   3.148   2.794   0.787
 8581SOL    HW126642   3.191   2.741   0.714
 8581SOL    HW226643   3.219   2.828   0.849
 8582SOL     OW26644   4.698   4.052   1.172
 8582SOL    HW126645   4.634   4.005   1.233
 8582SOL    HW226646   4.661   4.054   1.079
 8583SOL     OW26647   5.548   0.533   5.967
 8583SOL    HW126648   5.545   0.609   6.032
 8583SOL    HW226649   5.455   0.499   5.953
 8584SOL     OW26650   0.294   5.530   6.516
 8584SOL    HW126651   0.370   5.467   6.500
 8584SOL    HW226652   0.254   5.511   6.606
 8585SOL     OW26653   1.150   0.933   0.893
 8585SOL    HW126654   1.109   0.932   0.802
 8585SOL    HW226655   1.247   0.909   0.885
 8586SOL     OW26656   4.243   5.232   4.028
 8586SOL    HW126657   4.184   5.174   4.084
 8586SOL    HW226658   4.187   5.300   3.980
 8587SOL     OW26659   0.206   1.803   1.418
 8587SOL    HW126660   0.165   1.771   1.332
 8587SOL    HW226661   0.133   1.818   1.486
 8588SOL     OW26662   4.222   2.140   0.221
 8588SOL    HW126663   4.273   2.189   0.149
 8588SOL    HW226664   4.126   2.131   0.194
 8589SOL     OW26665   2.792   1.510   4.560
 8589SOL    HW126666   2.786   1.599   4.516
 8589SOL    HW226667   2.861   1.514   4.633
 8590SOL     OW26668   6.279   4.868   5.672
 8590SOL    HW126669   6.220   4.874   5.592
 8590SOL    HW226670   6.336   4.950   5.678
 8591SOL     OW26671   0.776   2.768   6.828
 8591SOL    HW126672   0.804   2.821   6.748
 8591SOL    HW226673   0.681   2.790   6.851
 8592SOL     OW26674   6.505   5.645   6.225
 8592SOL    HW126675   6.441   5.721   6.227
 8592SOL    HW226676   6.477   5.575   6.291
 8593SOL     OW26677   0.357   7.005   3.104
 8593SOL    HW126678   0.314   0.062   3.051
 8593SOL    HW226679   0.454   7.000   3.081
 8594SOL     OW26680   3.175   3.635   3.374
 8594SOL    HW126681   3.238   3.568   3.412
 8594SOL    HW226682   3.199   3.651   3.278
 8595SOL     OW26683   1.955   2.630   1.895
 8595SOL    HW126684   2.008   2.565   1.950
 8595SOL    HW226685   1.988   2.627   1.800
 8596SOL     OW26686   6.435   4.381   2.520
 8596SOL    HW126687   6.401   4.396   2.427
 8596SOL    HW226688   6.415   4.461   2.576
 8597SOL     OW26689   2.093   1.605   0.716
 8597SOL    HW126690   2.167   1.662   0.680
 8597SOL    HW226691   2.058   1.644   0.801
 8598SOL     OW26692   5.278   4.171   0.710
 8598SOL    HW126693   5.334   4.153   0.629
 8598SOL    HW226694   5.298   4.104   0.781
 8599SOL     OW26695   1.384   3.099   1.856
 8599SOL    HW126696   1.478   3.098   1.822
 8599SOL    HW226697   1.384   3.086   1.955
 8600SOL     OW26698   5.995   3.352   6.280
 8600SOL    HW126699   6.059   3.287   6.322
 8600SOL    HW226700   5.945   3.306   6.206
 8601SOL     OW26701   0.157   0.694   4.656
 8601SOL    HW126702   0.232   0.723   4.716
 8601SOL    HW226703   0.167   0.597   4.634
 8602SOL     OW26704   2.392   6.032   2.111
 8602SOL    HW126705   2.421   6.124   2.139
 8602SOL    HW226706   2.382   6.030   2.011
 8603SOL     OW26707   4.531   3.677   1.139
 8603SOL    HW126708   4.551   3.704   1.234
 8603SOL    HW226709   4.540   3.577   1.131
 8604SOL     OW26710   5.394   2.357   2.834
 8604SOL    HW126711   5.402   2.453   2.861
 8604SOL    HW226712   5.474   2.307   2.866
 8605SOL     OW26713   2.917   6.706   2.253
 8605SOL    HW126714   3.011   6.677   2.234
 8605SOL    HW226715   2.866   6.629   2.292
 8606SOL     OW26716   4.065   4.949   5.818
 8606SOL    HW126717   4.145   4.983   5.769
 8606SOL    HW226718   4.064   4.849   5.815
 8607SOL     OW26719   3.424   6.075   1.671
 8607SOL    HW126720   3.369   6.010   1.722
 8607SOL    HW226721   3.434   6.159   1.724
 8608SOL     OW26722   5.201   6.467   2.544
 8608SOL    HW126723   5.156   6.377   2.542
 8608SOL    HW226724   5.250   6.481   2.458
 8609SOL     OW26725   4.442   0.509   6.025
 8609SOL    HW126726   4.508   0.434   6.025
 8609SOL    HW226727   4.355   0.477   5.988
 8610SOL     OW26728   0.437   6.747   4.591
 8610SOL    HW126729   0.506   6.802   4.639
 8610SOL    HW226730   0.367   6.717   4.656
 8611SOL     OW26731   1.526   2.119   3.466
 8611SOL    HW126732   1.511   2.183   3.391
 8611SOL    HW226733   1.608   2.145   3.517
 8612SOL     OW26734   4.644   2.811   4.875
 8612SOL    HW126735   4.608   2.879   4.812
 8612SOL    HW226736   4.640   2.721   4.832
 8613SOL     OW26737   1.346   1.379   0.071
 8613SOL    HW126738   1.309   1.403   6.997
 8613SOL    HW226739   1.277   1.396   0.141
 8614SOL     OW26740   1.042   1.466   3.251
 8614SOL    HW126741   1.089   1.380   3.271
 8614SOL    HW226742   1.104   1.543   3.267
 8615SOL     OW26743   4.449   2.220   5.398
 8615SOL    HW126744   4.351   2.238   5.394
 8615SOL    HW226745   4.472   2.145   5.335
 8616SOL     OW26746   1.347   3.458   6.933
 8616SOL    HW126747   1.427   3.470   6.874
 8616SOL    HW226748   1.327   3.544   6.980
 8617SOL     OW26749   6.314   3.412   1.318
 8617SOL    HW126750   6.271   3.378   1.235
 8617SOL    HW226751   6.343   3.335   1.374
 8618SOL     OW26752   5.058   0.477   3.096
 8618SOL    HW126753   5.141   0.484   3.152
 8618SOL    HW226754   4.986   0.432   3.148
 8619SOL     OW26755   4.218   5.563   0.533
 8619SOL    HW126756   4.139   5.620   0.510
 8619SOL    HW226757   4.279   5.558   0.455
 8620SOL     OW26758   6.107   6.547   3.348
 8620SOL    HW126759   6.051   6.601   3.411
 8620SOL    HW226760   6.142   6.466   3.395
 8621SOL     OW26761   5.783   0.801   3.113
 8621SOL    HW126762   5.785   0.706   3.081
 8621SOL    HW226763   5.690   0.826   3.138
 8622SOL     OW26764   5.286   5.789   6.979
 8622SOL    HW126765   5.219   5.759   6.911
 8622SOL    HW226766   5.378   5.773   6.944
 8623SOL     OW26767   6.566   2.860   2.956
 8623SOL    HW126768   6.467   2.863   2.967
 8623SOL    HW226769   6.588   2.858   2.858
 8624SOL     OW26770   0.343   5.045   3.554
 8624SOL    HW126771   0.283   5.054   3.633
 8624SOL    HW226772   0.435   5.078   3.578
 8625SOL     OW26773   3.626   0.872   6.069
 8625SOL    HW126774   3.581   0.783   6.074
 8625SOL    HW226775   3.664   0.885   5.978
 8626SOL     OW26776   3.435   3.048   2.286
 8626SOL    HW126777   3.371   2.987   2.240
 8626SOL    HW226778   3.525   3.040   2.244
 8627SOL     OW26779   2.308   0.355   6.663
 8627SOL    HW126780   2.388   0.323   6.612
 8627SOL    HW226781   2.276   0.442   6.625
 8628SOL     OW26782   5.923   1.351   0.019
 8628SOL    HW126783   5.833   1.334   0.059
 8628SOL    HW226784   5.922   1.438   6.985
 8629SOL     OW26785   1.154   5.431   3.686
 8629SOL    HW126786   1.149   5.453   3.784
 8629SOL    HW226787   1.232   5.370   3.670
 8630SOL     OW26788   5.519   4.591   4.017
 8630SOL    HW126789   5.615   4.576   3.997
 8630SOL    HW226790   5.471   4.503   4.018
 8631SOL     OW26791   3.526   5.768   3.862
 8631SOL    HW126792   3.571   5.706   3.798
 8631SOL    HW226793   3.498   5.851   3.814
 8632SOL     OW26794   4.825   0.434   3.487
 8632SOL    HW126795   4.766   0.469   3.560
 8632SOL    HW226796   4.921   0.450   3.510
 8633SOL     OW26797   6.462   0.607   3.986
 8633SOL    HW126798   6.372   0.620   4.027
 8633SOL    HW226799   6.453   0.606   3.886
 8634SOL     OW26800   6.235   5.082   1.827
 8634SOL    HW126801   6.241   5.174   1.866
 8634SOL    HW226802   6.311   5.068   1.763
 8635SOL     OW26803   6.251   3.923   5.550
 8635SOL    HW126804   6.343   3.929   5.512
 8635SOL    HW226805   6.254   3.940   5.648
 8636SOL     OW26806   5.422   5.774   0.202
 8636SOL    HW126807   5.376   5.823   0.128
 8636SOL    HW226808   5.508   5.819   0.223
 8637SOL     OW26809   1.569   0.411   1.486
 8637SOL    HW126810   1.595   0.332   1.430
 8637SOL    HW226811   1.639   0.482   1.478
 8638SOL     OW26812   4.568   5.254   0.522
 8638SOL    HW126813   4.478   5.294   0.539
 8638SOL    HW226814   4.593   5.268   0.426
 8639SOL     OW26815   6.626   2.924   1.803
 8639SOL    HW126816   6.656   2.843   1.752
 8639SOL    HW226817   6.539   2.905   1.848
 8640SOL     OW26818   5.419   6.311   1.490
 8640SOL    HW126819   5.353   6.384   1.469
 8640SOL    HW226820   5.404   6.278   1.583
 8641SOL     OW26821   5.653   4.810   3.574
 8641SOL    HW126822   5.565   4.828   3.530
 8641SOL    HW226823   5.648   4.837   3.670
 8642SOL     OW26824   4.820   1.632   1.983
 8642SOL    HW126825   4.880   1.676   1.916
 8642SOL    HW226826   4.873   1.606   2.064
 8643SOL     OW26827   4.311   1.086   6.438
 8643SOL    HW126828   4.332   1.063   6.343
 8643SOL    HW226829   4.383   1.146   6.474
 8644SOL     OW26830   6.310   3.613   5.519
 8644SOL    HW126831   6.245   3.540   5.502
 8644SOL    HW226832   6.262   3.700   5.533
 8645SOL     OW26833   5.881   4.667   1.529
 8645SOL    HW126834   5.824   4.694   1.606
 8645SOL    HW226835   5.827   4.667   1.445
 8646SOL     OW26836   5.178   0.713   0.551
 8646SOL    HW126837   5.118   0.786   0.521
 8646SOL    HW226838   5.256   0.706   0.489
 8647SOL     OW26839   4.537   4.778   1.920
 8647SOL    HW126840   4.484   4.776   1.836
 8647SOL    HW226841   4.493   4.839   1.986
 8648SOL     OW26842   5.411   1.880   4.527
 8648SOL    HW126843   5.384   1.971   4.561
 8648SOL    HW226844   5.432   1.821   4.605
 8649SOL     OW26845   0.377   4.758   5.495
 8649SOL    HW126846   0.413   4.665   5.491
 8649SOL    HW226847   0.358   4.791   5.403
 8650SOL     OW26848   0.936   4.782   2.233
 8650SOL    HW126849   1.018   4.766   2.287
 8650SOL    HW226850   0.942   4.731   2.147
 8651SOL     OW26851   2.988   2.258   1.032
 8651SOL    HW126852   2.977   2.341   0.977
 8651SOL    HW226853   3.084   2.231   1.032
 8652SOL     OW26854   1.822   3.610   4.027
 8652SOL    HW126855   1.809   3.609   4.126
 8652SOL    HW226856   1.739   3.643   3.982
 8653SOL     OW26857   6.205   3.222   6.473
 8653SOL    HW126858   6.233   3.130   6.499
 8653SOL    HW226859   6.281   3.270   6.430
 8654SOL     OW26860   0.087   6.912   3.129
 8654SOL    HW126861   0.044   6.852   3.061
 8654SOL    HW226862   0.187   6.906   3.121
 8655SOL     OW26863   5.471   6.226   3.899
 8655SOL    HW126864   5.480   6.127   3.889
 8655SOL    HW226865   5.395   6.246   3.960
 8656SOL     OW26866   6.208   2.301   1.357
 8656SOL    HW126867   6.211   2.287   1.456
 8656SOL    HW226868   6.273   2.372   1.331
 8657SOL     OW26869   3.082   4.055   0.870
 8657SOL    HW126870   3.139   3.977   0.897
 8657SOL    HW226871   3.046   4.040   0.778
 8658SOL     OW26872   0.079   5.289   7.009
 8658SOL    HW126873   0.095   5.284   6.911
 8658SOL    HW226874   7.008   5.244   0.015
 8659SOL     OW26875   4.927   0.328   3.997
 8659SOL    HW126876   5.013   0.362   3.961
 8659SOL    HW226877   4.868   0.298   3.922
 8660SOL     OW26878   5.337   4.635   0.714
 8660SOL    HW126879   5.419   4.691   0.702
 8660SOL    HW226880   5.335   4.600   0.808
 8661SOL     OW26881   6.138   3.687   1.887
 8661SOL    HW126882   6.078   3.616   1.923
 8661SOL    HW226883   6.221   3.691   1.943
 8662SOL     OW26884   0.386   0.455   0.537
 8662SOL    HW126885   0.461   0.507   0.495
 8662SOL    HW226886   0.355   0.502   0.619
 8663SOL     OW26887   2.806   5.682   0.396
 8663SOL    HW126888   2.786   5.767   0.446
 8663SOL    HW226889   2.733   5.664   0.330
 8664SOL     OW26890   4.305   5.108   1.788
 8664SOL    HW126891   4.306   5.099   1.888
 8664SOL    HW226892   4.251   5.188   1.763
 8665SOL     OW26893   4.757   5.347   5.594
 8665SOL    HW126894   4.841   5.402   5.593
 8665SOL    HW226895   4.709   5.358   5.507
 8666SOL     OW26896   5.434   3.833   4.274
 8666SOL    HW126897   5.480   3.758   4.320
 8666SOL    HW226898   5.413   3.906   4.340
 8667SOL     OW26899   5.406   1.384   3.471
 8667SOL    HW126900   5.494   1.431   3.468
 8667SOL    HW226901   5.376   1.364   3.378
 8668SOL     OW26902   3.605   1.965   4.314
 8668SOL    HW126903   3.657   2.015   4.245
 8668SOL    HW226904   3.571   2.028   4.383
 8669SOL     OW26905   4.124   0.630   5.907
 8669SOL    HW126906   4.057   0.699   5.882
 8669SOL    HW226907   4.216   0.669   5.905
 8670SOL     OW26908   4.112   4.753   4.080
 8670SOL    HW126909   4.024   4.707   4.076
 8670SOL    HW226910   4.104   4.845   4.043
 8671SOL     OW26911   5.837   6.632   2.704
 8671SOL    HW126912   5.764   6.637   2.772
 8671SOL    HW226913   5.841   6.718   2.653
 8672SOL     OW26914   3.432   4.678   5.356
 8672SOL    HW126915   3.358   4.615   5.334
 8672SOL    HW226916   3.453   4.673   5.454
 8673SOL     OW26917   5.770   2.000   0.903
 8673SOL    HW126918   5.697   1.982   0.968
 8673SOL    HW226919   5.803   1.914   0.864
 8674SOL     OW26920   0.605   0.071   2.752
 8674SOL    HW126921   0.569   0.147   2.697
 8674SOL    HW226922   0.543   7.008   2.745
 8675SOL     OW26923   2.035   1.752   2.719
 8675SOL    HW126924   2.066   1.790   2.632
 8675SOL    HW226925   2.025   1.653   2.711
 8676SOL     OW26926   4.396   6.308   3.519
 8676SOL    HW126927   4.480   6.299   3.466
 8676SOL    HW226928   4.395   6.396   3.565
 8677SOL     OW26929   2.300   4.355   4.996
 8677SOL    HW126930   2.310   4.256   4.988
 8677SOL    HW226931   2.388   4.399   4.982
 8678SOL     OW26932   1.075   0.682   6.350
 8678SOL    HW126933   1.042   0.701   6.257
 8678SOL    HW226934   1.087   0.769   6.398
 8679SOL     OW26935   6.625   2.552   4.759
 8679SOL    HW126936   6.545   2.612   4.766
 8679SOL    HW226937   6.644   2.532   4.663
 8680SOL     OW26938   1.270   3.340   0.394
 8680SOL    HW126939   1.357   3.368   0.354
 8680SOL    HW226940   1.205   3.319   0.322
 8681SOL     OW26941   4.561   3.756   0.873
 8681SOL    HW126942   4.573   3.768   0.972
 8681SOL    HW226943   4.617   3.681   0.841
 8682SOL     OW26944   2.005   5.961   2.492
 8682SOL    HW126945   1.916   5.967   2.446
 8682SOL    HW226946   2.011   5.875   2.542
 8683SOL     OW26947   6.408   3.340   6.302
 8683SOL    HW126948   6.436   3.324   6.208
 8683SOL    HW226949   6.489   3.350   6.360
 8684SOL     OW26950   6.614   2.424   4.286
 8684SOL    HW126951   6.553   2.493   4.324
 8684SOL    HW226952   6.683   2.469   4.228
 8685SOL     OW26953   0.959   2.103   5.108
 8685SOL    HW126954   0.862   2.124   5.119
 8685SOL    HW226955   1.009   2.129   5.191
 8686SOL     OW26956   6.292   2.635   3.199
 8686SOL    HW126957   6.301   2.729   3.167
 8686SOL    HW226958   6.199   2.621   3.234
 8687SOL     OW26959   4.576   0.518   2.735
 8687SOL    HW126960   4.634   0.481   2.807
 8687SOL    HW226961   4.617   0.501   2.646
 8688SOL     OW26962   1.885   0.170   2.456
 8688SOL    HW126963   1.844   0.250   2.498
 8688SOL    HW226964   1.812   0.112   2.417
 8689SOL     OW26965   4.133   5.718   0.809
 8689SOL    HW126966   4.157   5.621   0.820
 8689SOL    HW226967   4.125   5.739   0.711
 8690SOL     OW26968   1.086   1.372   2.725
 8690SOL    HW126969   0.995   1.340   2.751
 8690SOL    HW226970   1.152   1.299   2.740
 8691SOL     OW26971   5.818   1.757   0.767
 8691SOL    HW126972   5.858   1.666   0.759
 8691SOL    HW226973   5.767   1.778   0.684
 8692SOL     OW26974   1.580   1.577   4.015
 8692SOL    HW126975   1.482   1.598   4.014
 8692SOL    HW226976   1.621   1.616   4.098
 8693SOL     OW26977   5.629   2.069   0.411
 8693SOL    HW126978   5.706   2.110   0.460
 8693SOL    HW226979   5.662   2.028   0.326
 8694SOL     OW26980   4.356   6.319   5.902
 8694SOL    HW126981   4.383   6.400   5.955
 8694SOL    HW226982   4.256   6.320   5.889
 8695SOL     OW26983   4.431   4.201   5.891
 8695SOL    HW126984   4.376   4.143   5.832
 8695SOL    HW226985   4.374   4.277   5.924
 8696SOL     OW26986   2.142   5.088   1.123
 8696SOL    HW126987   2.227   5.104   1.173
 8696SOL    HW226988   2.123   4.990   1.120
 8697SOL     OW26989   5.847   4.251   0.815
 8697SOL    HW126990   5.907   4.293   0.747
 8697SOL    HW226991   5.781   4.319   0.848
 8698SOL     OW26992   5.917   5.995   4.258
 8698SOL    HW126993   5.939   5.936   4.180
 8698SOL    HW226994   5.825   5.971   4.292
 8699SOL     OW26995   1.332   1.638   5.412
 8699SOL    HW126996   1.291   1.650   5.322
 8699SOL    HW226997   1.343   1.728   5.455
 8700SOL     OW26998   2.623   1.657   6.059
 8700SOL    HW126999   2.720   1.640   6.047
 8700SOL    HW227000   2.608   1.755   6.076
 8701SOL     OW27001   1.243   1.819   4.281
 8701SOL    HW127002   1.220   1.881   4.356
 8701SOL    HW227003   1.269   1.873   4.201
 8702SOL     OW27004   4.791   5.751   0.240
 8702SOL    HW127005   4.818   5.836   0.285
 8702SOL    HW227006   4.818   5.756   0.143
 8703SOL     OW27007   1.889   5.611   1.128
 8703SOL    HW127008   1.806   5.613   1.184
 8703SOL    HW227009   1.952   5.682   1.161
 8704SOL     OW27010   0.538   4.029   1.444
 8704SOL    HW127011   0.487   3.949   1.475
 8704SOL    HW227012   0.593   4.004   1.364
 8705SOL     OW27013   4.643   0.221   5.301
 8705SOL    HW127014   4.657   0.313   5.264
 8705SOL    HW227015   4.641   0.155   5.225
 8706SOL     OW27016   5.119   2.239   6.912
 8706SOL    HW127017   5.054   2.162   6.910
 8706SOL    HW227018   5.135   2.266   7.006
 8707SOL     OW27019   4.787   2.636   5.909
 8707SOL    HW127020   4.869   2.582   5.928
 8707SOL    HW227021   4.798   2.684   5.822
 8708SOL     OW27022   4.147   1.553   1.039
 8708SOL    HW127023   4.096   1.500   1.107
 8708SOL    HW227024   4.160   1.646   1.072
 8709SOL     OW27025   6.629   3.764   1.091
 8709SOL    HW127026   6.591   3.676   1.063
 8709SOL    HW227027   6.621   3.830   1.016
 8710SOL     OW27028   0.977   3.533   3.409
 8710SOL    HW127029   1.031   3.461   3.366
 8710SOL    HW227030   0.992   3.531   3.508
 8711SOL     OW27031   0.324   1.542   3.934
 8711SOL    HW127032   0.406   1.578   3.979
 8711SOL    HW227033   0.255   1.519   4.004
 8712SOL     OW27034   3.609   1.436   5.592
 8712SOL    HW127035   3.554   1.354   5.606
 8712SOL    HW227036   3.548   1.515   5.580
 8713SOL     OW27037   6.813   4.773   3.403
 8713SOL    HW127038   6.775   4.854   3.446
 8713SOL    HW227039   6.880   4.800   3.334
 8714SOL     OW27040   1.388   1.465   4.873
 8714SOL    HW127041   1.411   1.491   4.966
 8714SOL    HW227042   1.437   1.382   4.847
 8715SOL     OW27043   6.014   1.489   1.285
 8715SOL    HW127044   6.010   1.460   1.190
 8715SOL    HW227045   5.932   1.541   1.308
 8716SOL     OW27046   1.564   1.782   1.495
 8716SOL    HW127047   1.614   1.766   1.580
 8716SOL    HW227048   1.582   1.875   1.463
 8717SOL     OW27049   3.609   3.195   0.643
 8717SOL    HW127050   3.630   3.138   0.723
 8717SOL    HW227051   3.675   3.270   0.638
 8718SOL     OW27052   6.423   3.030   5.652
 8718SOL    HW127053   6.484   3.019   5.573
 8718SOL    HW227054   6.478   3.036   5.736
 8719SOL     OW27055   6.903   0.729   6.078
 8719SOL    HW127056   6.994   0.688   6.073
 8719SOL    HW227057   6.835   0.656   6.083
 8720SOL     OW27058   5.093   3.693   5.662
 8720SOL    HW127059   5.146   3.609   5.674
 8720SOL    HW227060   4.995   3.671   5.667
 8721SOL     OW27061   0.052   2.359   4.451
 8721SOL    HW127062   0.038   2.424   4.376
 8721SOL    HW227063   0.017   2.270   4.424
 8722SOL     OW27064   3.664   2.845   0.406
 8722SOL    HW127065   3.616   2.778   0.349
 8722SOL    HW227066   3.706   2.914   0.347
 8723SOL     OW27067   7.004   4.613   0.684
 8723SOL    HW127068   0.058   4.571   0.624
 8723SOL    HW227069   0.033   4.675   0.748
 8724SOL     OW27070   5.116   6.807   6.625
 8724SOL    HW127071   5.143   6.903   6.612
 8724SOL    HW227072   5.105   6.763   6.536
 8725SOL     OW27073   2.518   5.839   0.887
 8725SOL    HW127074   2.467   5.897   0.824
 8725SOL    HW227075   2.525   5.747   0.849
 8726SOL     OW27076   5.321   0.519   1.560
 8726SOL    HW127077   5.267   0.603   1.566
 8726SOL    HW227078   5.267   0.447   1.516
 8727SOL     OW27079   6.327   5.424   1.119
 8727SOL    HW127080   6.307   5.471   1.033
 8727SOL    HW227081   6.425   5.433   1.140
 8728SOL     OW27082   2.251   0.255   5.298
 8728SOL    HW127083   2.349   0.239   5.309
 8728SOL    HW227084   2.234   0.353   5.287
 8729SOL     OW27085   5.912   6.389   4.507
 8729SOL    HW127086   5.875   6.466   4.560
 8729SOL    HW227087   5.848   6.313   4.509
 8730SOL     OW27088   0.203   6.489   1.377
 8730SOL    HW127089   0.143   6.552   1.327
 8730SOL    HW227090   0.288   6.478   1.326
 8731SOL     OW27091   1.148   1.827   2.657
 8731SOL    HW127092   1.196   1.865   2.736
 8731SOL    HW227093   1.081   1.760   2.688
 8732SOL     OW27094   5.155   4.691   1.350
 8732SOL    HW127095   5.119   4.644   1.431
 8732SOL    HW227096   5.138   4.789   1.357
 8733SOL     OW27097   0.684   6.150   1.431
 8733SOL    HW127098   0.706   6.080   1.363
 8733SOL    HW227099   0.758   6.216   1.437
 8734SOL     OW27100   6.366   5.112   0.643
 8734SOL    HW127101   6.396   5.125   0.738
 8734SOL    HW227102   6.268   5.092   0.642
 8735SOL     OW27103   6.361   2.436   6.677
 8735SOL    HW127104   6.365   2.392   6.767
 8735SOL    HW227105   6.268   2.469   6.660
 8736SOL     OW27106   0.400   4.843   6.797
 8736SOL    HW127107   0.352   4.757   6.780
 8736SOL    HW227108   0.342   4.920   6.770
 8737SOL     OW27109   3.738   5.634   6.201
 8737SOL    HW127110   3.645   5.651   6.169
 8737SOL    HW227111   3.775   5.716   6.243
 8738SOL     OW27112   1.657   3.477   4.476
 8738SOL    HW127113   1.565   3.471   4.437
 8738SOL    HW227114   1.650   3.495   4.574
 8739SOL     OW27115   1.290   3.072   5.067
 8739SOL    HW127116   1.280   3.162   5.109
 8739SOL    HW227117   1.235   3.005   5.118
 8740SOL     OW27118   2.325   6.089   1.588
 8740SOL    HW127119   2.230   6.101   1.556
 8740SOL    HW227120   2.356   5.997   1.564
 8741SOL     OW27121   1.498   3.701   2.075
 8741SOL    HW127122   1.446   3.641   2.135
 8741SOL    HW227123   1.566   3.647   2.024
 8742SOL     OW27124   4.310   0.116   2.116
 8742SOL    HW127125   4.362   0.031   2.117
 8742SOL    HW227126   4.271   0.130   2.025
 8743SOL     OW27127   2.470   4.528   3.167
 8743SOL    HW127128   2.526   4.609   3.149
 8743SOL    HW227129   2.518   4.467   3.230
 8744SOL     OW27130   3.512   2.841   5.733
 8744SOL    HW127131   3.512   2.903   5.811
 8744SOL    HW227132   3.498   2.893   5.649
 8745SOL     OW27133   6.365   2.209   6.209
 8745SOL    HW127134   6.298   2.246   6.145
 8745SOL    HW227135   6.321   2.192   6.298
 8746SOL     OW27136   5.219   4.516   5.115
 8746SOL    HW127137   5.265   4.432   5.145
 8746SOL    HW227138   5.175   4.501   5.027
 8747SOL     OW27139   1.798   2.542   4.226
 8747SOL    HW127140   1.786   2.584   4.317
 8747SOL    HW227141   1.879   2.579   4.182
 8748SOL     OW27142   2.215   0.847   6.800
 8748SOL    HW127143   2.293   0.803   6.756
 8748SOL    HW227144   2.187   0.926   6.745
 8749SOL     OW27145   3.785   1.093   3.926
 8749SOL    HW127146   3.814   1.130   4.014
 8749SOL    HW227147   3.716   1.021   3.941
 8750SOL     OW27148   2.633   1.369   5.253
 8750SOL    HW127149   2.561   1.439   5.246
 8750SOL    HW227150   2.607   1.303   5.324
 8751SOL     OW27151   1.878   6.819   2.744
 8751SOL    HW127152   1.931   6.734   2.757
 8751SOL    HW227153   1.805   6.823   2.812
 8752SOL     OW27154   1.734   2.436   6.289
 8752SOL    HW127155   1.798   2.494   6.239
 8752SOL    HW227156   1.688   2.490   6.360
 8753SOL     OW27157   5.532   1.199   5.014
 8753SOL    HW127158   5.482   1.175   5.097
 8753SOL    HW227159   5.498   1.286   4.978
 8754SOL     OW27160   1.443   1.087   5.687
 8754SOL    HW127161   1.474   1.058   5.597
 8754SOL    HW227162   1.521   1.111   5.744
 8755SOL     OW27163   2.324   2.137   0.407
 8755SOL    HW127164   2.347   2.045   0.375
 8755SOL    HW227165   2.384   2.204   0.362
 8756SOL     OW27166   2.190   3.102   4.342
 8756SOL    HW127167   2.179   3.151   4.428
 8756SOL    HW227168   2.237   3.015   4.360
 8757SOL     OW27169   5.099   5.988   4.398
 8757SOL    HW127170   5.031   6.057   4.420
 8757SOL    HW227171   5.183   6.032   4.368
 8758SOL     OW27172   5.667   6.605   2.129
 8758SOL    HW127173   5.682   6.623   2.227
 8758SOL    HW227174   5.608   6.526   2.118
 8759SOL     OW27175   5.121   1.167   6.062
 8759SOL    HW127176   5.152   1.098   5.998
 8759SOL    HW227177   5.061   1.125   6.130
 8760SOL     OW27178   2.022   2.763   3.655
 8760SOL    HW127179   2.032   2.791   3.750
 8760SOL    HW227180   2.011   2.844   3.597
 8761SOL     OW27181   5.285   6.198   1.098
 8761SOL    HW127182   5.254   6.202   1.193
 8761SOL    HW227183   5.209   6.171   1.039
 8762SOL     OW27184   0.711   3.810   0.314
 8762SOL    HW127185   0.764   3.877   0.366
 8762SOL    HW227186   0.741   3.809   0.219
 8763SOL     OW27187   6.926   6.098   5.745
 8763SOL    HW127188   6.855   6.146   5.693
 8763SOL    HW227189   6.999   6.162   5.770
 8764SOL     OW27190   3.366   2.099   5.122
 8764SOL    HW127191   3.350   2.197   5.107
 8764SOL    HW227192   3.283   2.056   5.156
 8765SOL     OW27193   0.149   0.416   5.163
 8765SOL    HW127194   0.231   0.467   5.137
 8765SOL    HW227195   0.069   0.458   5.120
 8766SOL     OW27196   2.533   4.444   2.661
 8766SOL    HW127197   2.461   4.400   2.715
 8766SOL    HW227198   2.510   4.437   2.564
 8767SOL     OW27199   5.031   1.890   4.595
 8767SOL    HW127200   4.944   1.929   4.566
 8767SOL    HW227201   5.075   1.952   4.660
 8768SOL     OW27202   1.026   3.742   6.810
 8768SOL    HW127203   1.068   3.702   6.891
 8768SOL    HW227204   1.016   3.671   6.739
 8769SOL     OW27205   1.985   0.687   5.334
 8769SOL    HW127206   2.041   0.769   5.349
 8769SOL    HW227207   1.903   0.712   5.284
 8770SOL     OW27208   5.613   2.136   2.579
 8770SOL    HW127209   5.521   2.170   2.559
 8770SOL    HW227210   5.671   2.150   2.500
 8771SOL     OW27211   1.584   2.607   6.464
 8771SOL    HW127212   1.488   2.626   6.481
 8771SOL    HW227213   1.640   2.684   6.496
 8772SOL     OW27214   5.479   6.715   0.218
 8772SOL    HW127215   5.435   6.721   0.128
 8772SOL    HW227216   5.517   6.624   0.231
 8773SOL     OW27217   2.778   2.270   3.225
 8773SOL    HW127218   2.743   2.311   3.309
 8773SOL    HW227219   2.716   2.198   3.195
 8774SOL     OW27220   1.059   1.086   6.723
 8774SOL    HW127221   1.010   1.133   6.650
 8774SOL    HW227222   1.074   1.149   6.799
 8775SOL     OW27223   6.267   0.030   4.396
 8775SOL    HW127224   6.321   6.963   4.413
 8775SOL    HW227225   6.220   0.057   4.480
 8776SOL     OW27226   3.560   3.106   4.863
 8776SOL    HW127227   3.469   3.065   4.868
 8776SOL    HW227228   3.627   3.037   4.835
 8777SOL     OW27229   6.369   5.780   1.974
 8777SOL    HW127230   6.327   5.731   2.050
 8777SOL    HW227231   6.328   5.748   1.888
 8778SOL     OW27232   0.820   2.338   3.170
 8778SOL    HW127233   0.730   2.301   3.195
 8778SOL    HW227234   0.844   2.412   3.232
 8779SOL     OW27235   1.938   4.265   0.483
 8779SOL    HW127236   2.000   4.343   0.479
 8779SOL    HW227237   1.846   4.296   0.510
 8780SOL     OW27238   2.131   5.653   4.271
 8780SOL    HW127239   2.161   5.736   4.224
 8780SOL    HW227240   2.208   5.615   4.323
 8781SOL     OW27241   0.714   2.246   2.742
 8781SOL    HW127242   0.782   2.281   2.677
 8781SOL    HW227243   0.761   2.197   2.815
 8782SOL     OW27244   4.890   1.554   2.889
 8782SOL    HW127245   4.878   1.610   2.807
 8782SOL    HW227246   4.904   1.614   2.968
 8783SOL     OW27247   5.165   2.808   5.459
 8783SOL    HW127248   5.163   2.720   5.506
 8783SOL    HW227249   5.132   2.797   5.366
 8784SOL     OW27250   5.494   4.508   5.269
 8784SOL    HW127251   5.502   4.409   5.274
 8784SOL    HW227252   5.426   4.539   5.336
 8785SOL     OW27253   5.257   4.628   6.508
 8785SOL    HW127254   5.309   4.580   6.579
 8785SOL    HW227255   5.233   4.564   6.435
 8786SOL     OW27256   1.232   5.919   0.818
 8786SOL    HW127257   1.226   6.015   0.843
 8786SOL    HW227258   1.177   5.901   0.737
 8787SOL     OW27259   1.207   2.799   0.310
 8787SOL    HW127260   1.230   2.734   0.383
 8787SOL    HW227261   1.118   2.774   0.271
 8788SOL     OW27262   0.982   1.971   5.622
 8788SOL    HW127263   1.045   1.990   5.697
 8788SOL    HW227264   1.010   1.887   5.575
 8789SOL     OW27265   0.083   6.962   6.933
 8789SOL    HW127266   0.012   6.939   6.866
 8789SOL    HW227267   0.097   6.885   6.995
 8790SOL     OW27268   4.745   1.820   6.934
 8790SOL    HW127269   4.751   1.807   0.017
 8790SOL    HW227270   4.763   1.733   6.888
 8791SOL     OW27271   4.734   6.351   5.600
 8791SOL    HW127272   4.806   6.343   5.531
 8791SOL    HW227273   4.761   6.418   5.669
 8792SOL     OW27274   5.121   0.183   3.111
 8792SOL    HW127275   5.178   0.123   3.166
 8792SOL    HW227276   5.051   0.225   3.168
 8793SOL     OW27277   0.930   4.824   4.482
 8793SOL    HW127278   0.965   4.915   4.502
 8793SOL    HW227279   1.005   4.758   4.482
 8794SOL     OW27280   2.755   6.691   2.707
 8794SOL    HW127281   2.674   6.718   2.758
 8794SOL    HW227282   2.789   6.769   2.655
 8795SOL     OW27283   1.606   6.426   5.233
 8795SOL    HW127284   1.677   6.489   5.200
 8795SOL    HW227285   1.620   6.409   5.331
 8796SOL     OW27286   5.395   2.593   5.399
 8796SOL    HW127287   5.443   2.632   5.477
 8796SOL    HW227288   5.362   2.501   5.423
 8797SOL     OW27289   0.518   6.578   7.006
 8797SOL    HW127290   0.517   6.517   6.927
 8797SOL    HW227291   0.612   6.608   0.008
 8798SOL     OW27292   4.251   3.337   6.298
 8798SOL    HW127293   4.221   3.414   6.354
 8798SOL    HW227294   4.178   3.311   6.234
 8799SOL     OW27295   3.842   6.451   2.437
 8799SOL    HW127296   3.769   6.474   2.502
 8799SOL    HW227297   3.925   6.500   2.461
 8800SOL     OW27298   4.435   5.134   6.850
 8800SOL    HW127299   4.496   5.098   6.921
 8800SOL    HW227300   4.442   5.234   6.847
 8801SOL     OW27301   2.868   0.003   5.131
 8801SOL    HW127302   2.953   6.999   5.083
 8801SOL    HW227303   2.827   0.086   5.094
 8802SOL     OW27304   2.527   0.149   2.187
 8802SOL    HW127305   2.625   0.133   2.202
 8802SOL    HW227306   2.481   0.159   2.275
 8803SOL     OW27307   3.670   5.881   0.692
 8803SOL    HW127308   3.716   5.852   0.776
 8803SOL    HW227309   3.648   5.801   0.636
 8804SOL     OW27310   4.267   0.315   0.876
 8804SOL    HW127311   4.330   0.390   0.895
 8804SOL    HW227312   4.303   0.258   0.803
 8805SOL     OW27313   0.262   0.192   2.936
 8805SOL    HW127314   0.204   0.273   2.934
 8805SOL    HW227315   0.215   0.116   2.890
 8806SOL     OW27316   2.255   5.242   6.993
 8806SOL    HW127317   2.208   5.329   6.976
 8806SOL    HW227318   2.198   5.166   6.962
 8807SOL     OW27319   1.620   6.376   6.208
 8807SOL    HW127320   1.587   6.359   6.115
 8807SOL    HW227321   1.615   6.291   6.261
 8808SOL     OW27322   6.114   1.190   0.760
 8808SOL    HW127323   6.167   1.270   0.730
 8808SOL    HW227324   6.174   1.127   0.809
 8809SOL     OW27325   6.135   4.154   1.172
 8809SOL    HW127326   6.087   4.068   1.155
 8809SOL    HW227327   6.232   4.142   1.152
 8810SOL     OW27328   5.234   1.344   3.979
 8810SOL    HW127329   5.167   1.317   3.911
 8810SOL    HW227330   5.281   1.428   3.950
 8811SOL     OW27331   0.796   1.670   4.139
 8811SOL    HW127332   0.823   1.575   4.123
 8811SOL    HW227333   0.755   1.678   4.230
 8812SOL     OW27334   1.987   0.593   0.748
 8812SOL    HW127335   2.062   0.561   0.690
 8812SOL    HW227336   2.013   0.583   0.844
 8813SOL     OW27337   1.744   4.549   1.464
 8813SOL    HW127338   1.770   4.595   1.549
 8813SOL    HW227339   1.653   4.510   1.474
 8814SOL     OW27340   5.639   6.927   0.283
 8814SOL    HW127341   5.577   6.856   0.250
 8814SOL    HW227342   5.709   6.944   0.213
 8815SOL     OW27343   0.194   6.425   2.711
 8815SOL    HW127344   0.120   6.382   2.661
 8815SOL    HW227345   0.249   6.355   2.757
 8816SOL     OW27346   0.815   6.236   1.807
 8816SOL    HW127347   0.894   6.215   1.748
 8816SOL    HW227348   0.809   6.167   1.879
 8817SOL     OW27349   2.544   4.217   5.349
 8817SOL    HW127350   2.637   4.241   5.377
 8817SOL    HW227351   2.545   4.127   5.304
 8818SOL     OW27352   0.064   5.166   4.583
 8818SOL    HW127353   0.022   5.087   4.537
 8818SOL    HW227354   0.154   5.184   4.543
 8819SOL     OW27355   5.334   0.332   4.240
 8819SOL    HW127356   5.412   0.300   4.188
 8819SOL    HW227357   5.334   0.290   4.331
 8820SOL     OW27358   1.722   2.856   4.170
 8820SOL    HW127359   1.765   2.825   4.254
 8820SOL    HW227360   1.656   2.787   4.138
 8821SOL     OW27361   1.918   0.648   6.153
 8821SOL    HW127362   1.822   0.673   6.138
 8821SOL    HW227363   1.977   0.726   6.134
 8822SOL     OW27364   0.357   2.072   4.084
 8822SOL    HW127365   0.412   2.062   4.001
 8822SOL    HW227366   0.384   2.156   4.132
 8823SOL     OW27367   2.494   5.385   1.851
 8823SOL    HW127368   2.561   5.452   1.817
 8823SOL    HW227369   2.541   5.317   1.907
 8824SOL     OW27370   4.165   3.568   0.660
 8824SOL    HW127371   4.212   3.645   0.703
 8824SOL    HW227372   4.102   3.602   0.590
 8825SOL     OW27373   1.608   2.604   1.575
 8825SOL    HW127374   1.638   2.693   1.540
 8825SOL    HW227375   1.543   2.563   1.510
 8826SOL     OW27376   5.945   1.027   0.180
 8826SOL    HW127377   5.865   0.968   0.168
 8826SOL    HW227378   5.926   1.097   0.249
 8827SOL     OW27379   0.973   1.149   3.822
 8827SOL    HW127380   0.890   1.159   3.877
 8827SOL    HW227381   0.975   1.058   3.781
 8828SOL     OW27382   1.767   6.095   2.435
 8828SOL    HW127383   1.706   6.057   2.365
 8828SOL    HW227384   1.733   6.185   2.463
 8829SOL     OW27385   0.840   1.515   0.036
 8829SOL    HW127386   0.777   1.566   0.095
 8829SOL    HW227387   0.880   1.439   0.087
 8830SOL     OW27388   0.544   2.011   0.496
 8830SOL    HW127389   0.462   2.066   0.479
 8830SOL    HW227390   0.528   1.917   0.466
 8831SOL     OW27391   6.692   1.089   2.653
 8831SOL    HW127392   6.652   1.023   2.590
 8831SOL    HW227393   6.791   1.090   2.643
 8832SOL     OW27394   0.157   0.477   2.521
 8832SOL    HW127395   0.187   0.385   2.548
 8832SOL    HW227396   0.150   0.535   2.603
 8833SOL     OW27397   2.050   4.475   3.231
 8833SOL    HW127398   2.086   4.452   3.322
 8833SOL    HW227399   1.982   4.549   3.240
 8834SOL     OW27400   5.984   3.888   4.477
 8834SOL    HW127401   6.019   3.799   4.447
 8834SOL    HW227402   5.911   3.874   4.545
 8835SOL     OW27403   0.427   6.830   6.559
 8835SOL    HW127404   0.468   6.743   6.586
 8835SOL    HW227405   0.458   6.855   6.467
 8836SOL     OW27406   4.946   1.950   1.138
 8836SOL    HW127407   4.899   1.863   1.149
 8836SOL    HW227408   5.013   1.942   1.064
 8837SOL     OW27409   1.169   1.933   2.148
 8837SOL    HW127410   1.088   1.957   2.202
 8837SOL    HW227411   1.141   1.908   2.055
 8838SOL     OW27412   2.240   5.882   3.569
 8838SOL    HW127413   2.158   5.923   3.609
 8838SOL    HW227414   2.303   5.855   3.642
 8839SOL     OW27415   6.149   6.857   4.137
 8839SOL    HW127416   6.097   6.892   4.215
 8839SOL    HW227417   6.214   6.788   4.168
 8840SOL     OW27418   5.047   1.395   2.063
 8840SOL    HW127419   5.054   1.396   1.963
 8840SOL    HW227420   5.139   1.395   2.103
 8841SOL     OW27421   1.844   0.404   4.101
 8841SOL    HW127422   1.792   0.484   4.133
 8841SOL    HW227423   1.797   0.362   4.024
 8842SOL     OW27424   1.764   2.739   2.281
 8842SOL    HW127425   1.677   2.766   2.322
 8842SOL    HW227426   1.750   2.724   2.183
 8843SOL     OW27427   0.324   3.546   4.474
 8843SOL    HW127428   0.343   3.448   4.473
 8843SOL    HW227429   0.407   3.596   4.446
 8844SOL     OW27430   6.036   1.377   6.120
 8844SOL    HW127431   6.074   1.417   6.203
 8844SOL    HW227432   6.018   1.280   6.134
 8845SOL     OW27433   5.903   3.807   6.756
 8845SOL    HW127434   5.829   3.791   6.690
 8845SOL    HW227435   5.866   3.854   6.836
 8846SOL     OW27436   2.431   5.048   2.973
 8846SOL    HW127437   2.492   5.102   2.914
 8846SOL    HW227438   2.481   4.969   3.008
 8847SOL     OW27439   2.286   0.884   2.481
 8847SOL    HW127440   2.312   0.863   2.576
 8847SOL    HW227441   2.189   0.907   2.477
 8848SOL     OW27442   1.422   6.940   3.013
 8848SOL    HW127443   1.423   6.981   3.104
 8848SOL    HW227444   1.427   7.013   2.944
 8849SOL     OW27445   2.755   6.968   1.394
 8849SOL    HW127446   2.838   6.913   1.388
 8849SOL    HW227447   2.778   0.049   1.396
 8850SOL     OW27448   2.697   2.394   0.097
 8850SOL    HW127449   2.784   2.349   0.118
 8850SOL    HW227450   2.693   2.415   7.015
 8851SOL     OW27451   1.677   3.416   2.479
 8851SOL    HW127452   1.671   3.515   2.467
 8851SOL    HW227453   1.662   3.394   2.575
 8852SOL     OW27454   1.209   2.635   5.915
 8852SOL    HW127455   1.233   2.615   5.820
 8852SOL    HW227456   1.112   2.657   5.921
 8853SOL     OW27457   5.528   0.981   1.452
 8853SOL    HW127458   5.499   0.977   1.357
 8853SOL    HW227459   5.555   0.890   1.483
 8854SOL     OW27460   1.051   2.119   4.861
 8854SOL    HW127461   1.014   2.090   4.950
 8854SOL    HW227462   1.074   2.216   4.865
 8855SOL     OW27463   5.175   5.217   1.467
 8855SOL    HW127464   5.174   5.217   1.367
 8855SOL    HW227465   5.264   5.184   1.499
 8856SOL     OW27466   6.601   0.957   5.669
 8856SOL    HW127467   6.510   0.938   5.633
 8856SOL    HW227468   6.614   1.056   5.675
 8857SOL     OW27469   6.119   2.267   6.087
 8857SOL    HW127470   6.073   2.222   6.011
 8857SOL    HW227471   6.141   2.362   6.061
 8858SOL     OW27472   6.762   6.067   4.998
 8858SOL    HW127473   6.741   6.024   4.909
 8858SOL    HW227474   6.699   6.143   5.013
 8859SOL     OW27475   0.635   6.571   3.388
 8859SOL    HW127476   0.648   6.622   3.303
 8859SOL    HW227477   0.655   6.630   3.466
 8860SOL     OW27478   0.137   4.127   2.893
 8860SOL    HW127479   0.093   4.038   2.898
 8860SOL    HW227480   0.199   4.130   2.815
 8861SOL     OW27481   3.628   2.957   1.504
 8861SOL    HW127482   3.548   2.913   1.464
 8861SOL    HW227483   3.600   3.031   1.565
 8862SOL     OW27484   4.686   4.461   4.771
 8862SOL    HW127485   4.654   4.420   4.856
 8862SOL    HW227486   4.610   4.471   4.707
 8863SOL     OW27487   1.904   3.873   3.170
 8863SOL    HW127488   1.901   3.827   3.259
 8863SOL    HW227489   1.990   3.852   3.124
 8864SOL     OW27490   6.530   2.129   5.307
 8864SOL    HW127491   6.573   2.073   5.236
 8864SOL    HW227492   6.535   2.225   5.281
 8865SOL     OW27493   2.851   1.496   0.729
 8865SOL    HW127494   2.799   1.413   0.749
 8865SOL    HW227495   2.860   1.552   0.812
 8866SOL     OW27496   5.793   6.642   1.849
 8866SOL    HW127497   5.727   6.585   1.801
 8866SOL    HW227498   5.777   6.636   1.948
 8867SOL     OW27499   6.391   3.233   2.488
 8867SOL    HW127500   6.469   3.295   2.482
 8867SOL    HW227501   6.345   3.247   2.576
 8868SOL     OW27502   6.948   3.500   3.676
 8868SOL    HW127503   6.881   3.430   3.651
 8868SOL    HW227504   6.913   3.554   3.753
 8869SOL     OW27505   4.177   0.187   3.420
 8869SOL    HW127506   4.178   0.232   3.330
 8869SOL    HW227507   4.265   0.143   3.436
 8870SOL     OW27508   1.687   0.414   2.581
 8870SOL    HW127509   1.593   0.437   2.609
 8870SOL    HW227510   1.752   0.469   2.633
 8871SOL     OW27511   6.724   0.161   2.003
 8871SOL    HW127512   6.732   0.247   1.954
 8871SOL    HW227513   6.746   0.175   2.099
 8872SOL     OW27514   6.671   3.840   3.589
 8872SOL    HW127515   6.586   3.843   3.536
 8872SOL    HW227516   6.745   3.806   3.531
 8873SOL     OW27517   2.340   1.979   2.423
 8873SOL    HW127518   2.382   1.951   2.337
 8873SOL    HW227519   2.243   1.952   2.422
 8874SOL     OW27520   2.622   6.351   0.140
 8874SOL    HW127521   2.624   6.439   0.093
 8874SOL    HW227522   2.681   6.353   0.220
 8875SOL     OW27523   6.763   3.280   4.348
 8875SOL    HW127524   6.666   3.256   4.348
 8875SOL    HW227525   6.774   3.373   4.313
 8876SOL     OW27526   4.899   0.021   6.959
 8876SOL    HW127527   4.871   0.097   6.900
 8876SOL    HW227528   4.998   0.025   6.973
 8877SOL     OW27529   0.996   4.721   1.325
 8877SOL    HW127530   0.965   4.657   1.255
 8877SOL    HW227531   1.023   4.807   1.281
 8878SOL     OW27532   4.949   4.126   1.194
 8878SOL    HW127533   4.850   4.118   1.201
 8878SOL    HW227534   4.983   4.185   1.267
 8879SOL     OW27535   6.831   4.270   2.487
 8879SOL    HW127536   6.785   4.283   2.575
 8879SOL    HW227537   6.780   4.204   2.432
 8880SOL     OW27538   4.252   1.683   3.234
 8880SOL    HW127539   4.215   1.616   3.298
 8880SOL    HW227540   4.324   1.640   3.179
 8881SOL     OW27541   3.995   4.784   3.588
 8881SOL    HW127542   4.044   4.707   3.548
 8881SOL    HW227543   3.979   4.853   3.517
 8882SOL     OW27544   4.063   0.124   0.354
 8882SOL    HW127545   3.988   0.152   0.293
 8882SOL    HW227546   4.115   0.205   0.382
 8883SOL     OW27547   0.260   6.551   4.251
 8883SOL    HW127548   0.167   6.584   4.265
 8883SOL    HW227549   0.272   6.465   4.300
 8884SOL     OW27550   5.170   3.075   5.517
 8884SOL    HW127551   5.168   2.976   5.507
 8884SOL    HW227552   5.077   3.109   5.531
 8885SOL     OW27553   5.825   5.939   0.848
 8885SOL    HW127554   5.906   5.961   0.902
 8885SOL    HW227555   5.760   5.889   0.905
 8886SOL     OW27556   4.021   5.665   6.551
 8886SOL    HW127557   4.113   5.634   6.528
 8886SOL    HW227558   4.004   5.651   6.649
 8887SOL     OW27559   4.564   0.285   1.649
 8887SOL    HW127560   4.548   0.324   1.739
 8887SOL    HW227561   4.661   0.293   1.626
 8888SOL     OW27562   3.234   2.062   2.266
 8888SOL    HW127563   3.149   2.081   2.216
 8888SOL    HW227564   3.311   2.066   2.203
 8889SOL     OW27565   1.453   5.280   6.714
 8889SOL    HW127566   1.483   5.238   6.629
 8889SOL    HW227567   1.356   5.306   6.706
 8890SOL     OW27568   1.074   6.340   0.131
 8890SOL    HW127569   1.059   6.396   0.213
 8890SOL    HW227570   1.045   6.391   0.050
 8891SOL     OW27571   6.281   4.232   5.446
 8891SOL    HW127572   6.323   4.143   5.434
 8891SOL    HW227573   6.350   4.304   5.437
 8892SOL     OW27574   2.507   5.499   5.042
 8892SOL    HW127575   2.549   5.441   5.112
 8892SOL    HW227576   2.467   5.441   4.970
 8893SOL     OW27577   1.344   5.178   5.264
 8893SOL    HW127578   1.247   5.192   5.244
 8893SOL    HW227579   1.380   5.107   5.204
 8894SOL     OW27580   5.023   1.437   1.422
 8894SOL    HW127581   4.936   1.474   1.454
 8894SOL    HW227582   5.060   1.497   1.351
 8895SOL     OW27583   6.522   3.529   0.982
 8895SOL    HW127584   6.423   3.519   0.971
 8895SOL    HW227585   6.553   3.467   1.054
 8896SOL     OW27586   0.419   2.439   3.621
 8896SOL    HW127587   0.379   2.529   3.637
 8896SOL    HW227588   0.399   2.380   3.699
 8897SOL     OW27589   1.750   5.317   3.860
 8897SOL    HW127590   1.694   5.288   3.783
 8897SOL    HW227591   1.695   5.375   3.920
 8898SOL     OW27592   5.084   3.608   2.580
 8898SOL    HW127593   5.014   3.556   2.629
 8898SOL    HW227594   5.077   3.588   2.482
 8899SOL     OW27595   1.632   3.852   3.377
 8899SOL    HW127596   1.627   3.943   3.418
 8899SOL    HW227597   1.724   3.815   3.390
 8900SOL     OW27598   4.772   2.148   4.081
 8900SOL    HW127599   4.719   2.195   4.151
 8900SOL    HW227600   4.711   2.118   4.008
 8901SOL     OW27601   1.448   5.115   4.319
 8901SOL    HW127602   1.396   5.058   4.256
 8901SOL    HW227603   1.504   5.058   4.378
 8902SOL     OW27604   0.694   4.618   0.648
 8902SOL    HW127605   0.639   4.699   0.668
 8902SOL    HW227606   0.711   4.612   0.550
 8903SOL     OW27607   1.158   6.883   5.647
 8903SOL    HW127608   1.231   6.946   5.673
 8903SOL    HW227609   1.083   6.934   5.605
 8904SOL     OW27610   0.694   1.201   3.634
 8904SOL    HW127611   0.607   1.225   3.677
 8904SOL    HW227612   0.769   1.249   3.679
 8905SOL     OW27613   1.346   3.875   2.803
 8905SOL    HW127614   1.301   3.962   2.783
 8905SOL    HW227615   1.444   3.890   2.818
 8906SOL     OW27616   5.968   0.261   0.288
 8906SOL    HW127617   5.904   0.260   0.211
 8906SOL    HW227618   6.050   0.312   0.262
 8907SOL     OW27619   2.905   3.638   4.882
 8907SOL    HW127620   2.827   3.619   4.942
 8907SOL    HW227621   2.945   3.551   4.852
 8908SOL     OW27622   1.484   4.240   6.741
 8908SOL    HW127623   1.385   4.246   6.735
 8908SOL    HW227624   1.525   4.314   6.688
 8909SOL     OW27625   1.565   5.826   1.069
 8909SOL    HW127626   1.497   5.893   1.037
 8909SOL    HW227627   1.525   5.772   1.143
 8910SOL     OW27628   1.367   0.332   3.580
 8910SOL    HW127629   1.296   0.311   3.513
 8910SOL    HW227630   1.377   0.431   3.589
 8911SOL     OW27631   4.389   2.264   4.685
 8911SOL    HW127632   4.292   2.244   4.671
 8911SOL    HW227633   4.444   2.211   4.620
 8912SOL     OW27634   3.531   3.477   4.187
 8912SOL    HW127635   3.524   3.378   4.193
 8912SOL    HW227636   3.536   3.516   4.279
 8913SOL     OW27637   5.417   6.130   0.524
 8913SOL    HW127638   5.508   6.090   0.519
 8913SOL    HW227639   5.355   6.079   0.464
 8914SOL     OW27640   4.793   5.155   5.973
 8914SOL    HW127641   4.697   5.125   5.974
 8914SOL    HW227642   4.845   5.098   5.909
 8915SOL     OW27643   1.461   1.044   2.624
 8915SOL    HW127644   1.445   1.099   2.706
 8915SOL    HW227645   1.559   1.029   2.613
 8916SOL     OW27646   5.164   0.994   1.046
 8916SOL    HW127647   5.123   1.050   1.118
 8916SOL    HW227648   5.127   0.902   1.049
 8917SOL     OW27649   5.942   1.898   0.264
 8917SOL    HW127650   5.842   1.896   0.267
 8917SOL    HW227651   5.973   1.990   0.237
 8918SOL     OW27652   0.595   3.472   2.603
 8918SOL    HW127653   0.613   3.386   2.557
 8918SOL    HW227654   0.627   3.467   2.698
 8919SOL     OW27655   6.225   2.843   1.357
 8919SOL    HW127656   6.283   2.891   1.423
 8919SOL    HW227657   6.234   2.744   1.371
 8920SOL     OW27658   6.992   0.515   6.538
 8920SOL    HW127659   7.014   0.499   6.442
 8920SOL    HW227660   0.060   0.541   6.587
 8921SOL     OW27661   1.620   3.137   2.465
 8921SOL    HW127662   1.527   3.101   2.481
 8921SOL    HW227663   1.616   3.236   2.455
 8922SOL     OW27664   4.419   5.433   4.106
 8922SOL    HW127665   4.370   5.348   4.090
 8922SOL    HW227666   4.370   5.487   4.174
 8923SOL     OW27667   2.289   1.539   4.569
 8923SOL    HW127668   2.214   1.531   4.635
 8923SOL    HW227669   2.375   1.554   4.619
 8924SOL     OW27670   6.258   5.089   5.040
 8924SOL    HW127671   6.258   4.997   5.000
 8924SOL    HW227672   6.351   5.125   5.041
 8925SOL     OW27673   0.739   6.246   2.610
 8925SOL    HW127674   0.776   6.334   2.581
 8925SOL    HW227675   0.809   6.176   2.600
 8926SOL     OW27676   6.036   1.107   6.476
 8926SOL    HW127677   6.110   1.067   6.531
 8926SOL    HW227678   6.009   1.194   6.515
 8927SOL     OW27679   1.548   0.672   5.874
 8927SOL    HW127680   1.615   0.715   5.814
 8927SOL    HW227681   1.475   0.737   5.896
 8928SOL     OW27682   0.683   6.922   5.352
 8928SOL    HW127683   0.606   6.874   5.394
 8928SOL    HW227684   0.654   7.015   5.327
 8929SOL     OW27685   0.161   1.451   3.724
 8929SOL    HW127686   0.180   1.481   3.817
 8929SOL    HW227687   0.133   1.356   3.724
 8930SOL     OW27688   2.265   4.949   3.426
 8930SOL    HW127689   2.195   5.015   3.453
 8930SOL    HW227690   2.261   4.869   3.486
 8931SOL     OW27691   4.210   3.097   0.681
 8931SOL    HW127692   4.141   3.066   0.747
 8931SOL    HW227693   4.230   3.024   0.616
 8932SOL     OW27694   0.902   3.748   3.635
 8932SOL    HW127695   0.892   3.650   3.655
 8932SOL    HW227696   0.887   3.764   3.538
 8933SOL     OW27697   3.828   2.095   5.083
 8933SOL    HW127698   3.797   2.182   5.121
 8933SOL    HW227699   3.920   2.104   5.047
 8934SOL     OW27700   2.684   6.034   2.906
 8934SOL    HW127701   2.777   6.037   2.869
 8934SOL    HW227702   2.662   5.940   2.933
 8935SOL     OW27703   6.657   4.832   0.629
 8935SOL    HW127704   6.562   4.814   0.657
 8935SOL    HW227705   6.665   4.822   0.529
 8936SOL     OW27706   3.711   2.631   0.843
 8936SOL    HW127707   3.632   2.674   0.888
 8936SOL    HW227708   3.698   2.532   0.843
 8937SOL     OW27709   0.592   6.592   6.629
 8937SOL    HW127710   0.598   6.550   6.719
 8937SOL    HW227711   0.548   6.529   6.565
 8938SOL     OW27712   4.860   6.007   1.810
 8938SOL    HW127713   4.760   6.008   1.814
 8938SOL    HW227714   4.895   5.932   1.867
 8939SOL     OW27715   4.462   1.723   4.724
 8939SOL    HW127716   4.501   1.645   4.676
 8939SOL    HW227717   4.490   1.807   4.678
 8940SOL     OW27718   5.529   0.409   2.682
 8940SOL    HW127719   5.543   0.506   2.701
 8940SOL    HW227720   5.550   0.356   2.765
 8941SOL     OW27721   4.835   1.515   5.971
 8941SOL    HW127722   4.909   1.459   5.933
 8941SOL    HW227723   4.751   1.461   5.974
 8942SOL     OW27724   0.999   3.390   5.566
 8942SOL    HW127725   0.933   3.366   5.637
 8942SOL    HW227726   1.089   3.404   5.607
 8943SOL     OW27727   5.609   3.430   1.057
 8943SOL    HW127728   5.610   3.402   1.153
 8943SOL    HW227729   5.678   3.501   1.042
 8944SOL     OW27730   4.466   5.275   1.182
 8944SOL    HW127731   4.460   5.344   1.254
 8944SOL    HW227732   4.396   5.205   1.198
 8945SOL     OW27733   1.824   0.974   4.449
 8945SOL    HW127734   1.852   0.878   4.453
 8945SOL    HW227735   1.817   1.003   4.353
 8946SOL     OW27736   3.978   1.543   4.891
 8946SOL    HW127737   3.969   1.473   4.963
 8946SOL    HW227738   4.074   1.569   4.882
 8947SOL     OW27739   3.905   4.093   5.013
 8947SOL    HW127740   3.991   4.142   4.995
 8947SOL    HW227741   3.911   4.000   4.976
 8948SOL     OW27742   6.306   5.228   2.718
 8948SOL    HW127743   6.381   5.293   2.732
 8948SOL    HW227744   6.338   5.151   2.663
 8949SOL     OW27745   2.531   5.367   6.699
 8949SOL    HW127746   2.467   5.435   6.737
 8949SOL    HW227747   2.622   5.383   6.736
 8950SOL     OW27748   4.768   2.440   4.611
 8950SOL    HW127749   4.679   2.467   4.575
 8950SOL    HW227750   4.777   2.340   4.605
 8951SOL     OW27751   2.473   2.246   5.827
 8951SOL    HW127752   2.479   2.320   5.761
 8951SOL    HW227753   2.502   2.160   5.784
 8952SOL     OW27754   6.523   0.077   3.529
 8952SOL    HW127755   6.543   0.128   3.445
 8952SOL    HW227756   6.459   0.129   3.585
 8953SOL     OW27757   1.761   4.562   6.787
 8953SOL    HW127758   1.736   4.543   6.882
 8953SOL    HW227759   1.811   4.484   6.750
 8954SOL     OW27760   1.536   5.905   5.926
 8954SOL    HW127761   1.469   5.888   5.853
 8954SOL    HW227762   1.488   5.924   6.011
 8955SOL     OW27763   6.022   3.561   3.934
 8955SOL    HW127764   6.004   3.475   3.982
 8955SOL    HW227765   5.985   3.637   3.987
 8956SOL     OW27766   1.114   1.026   5.508
 8956SOL    HW127767   1.151   1.043   5.417
 8956SOL    HW227768   1.166   1.079   5.576
 8957SOL     OW27769   2.726   5.439   2.247
 8957SOL    HW127770   2.691   5.512   2.305
 8957SOL    HW227771   2.826   5.445   2.241
 8958SOL     OW27772   2.166   0.919   3.920
 8958SOL    HW127773   2.257   0.943   3.884
 8958SOL    HW227774   2.176   0.846   3.987
 8959SOL     OW27775   2.939   4.650   1.416
 8959SOL    HW127776   3.034   4.675   1.430
 8959SOL    HW227777   2.907   4.687   1.329
 8960SOL     OW27778   3.963   5.979   1.224
 8960SOL    HW127779   3.968   6.001   1.126
 8960SOL    HW227780   3.892   6.035   1.266
 8961SOL     OW27781   1.612   2.532   3.862
 8961SOL    HW127782   1.696   2.570   3.824
 8961SOL    HW227783   1.585   2.584   3.943
 8962SOL     OW27784   5.323   0.463   3.300
 8962SOL    HW127785   5.365   0.550   3.326
 8962SOL    HW227786   5.382   0.388   3.328
 8963SOL     OW27787   0.077   0.766   3.562
 8963SOL    HW127788   0.120   0.775   3.472
 8963SOL    HW227789   0.030   0.678   3.568
 8964SOL     OW27790   6.534   4.691   2.961
 8964SOL    HW127791   6.554   4.768   3.021
 8964SOL    HW227792   6.489   4.618   3.014
 8965SOL     OW27793   1.299   5.360   1.361
 8965SOL    HW127794   1.205   5.394   1.360
 8965SOL    HW227795   1.315   5.304   1.279
 8966SOL     OW27796   3.116   3.002   5.145
 8966SOL    HW127797   3.118   2.910   5.185
 8966SOL    HW227798   3.144   2.997   5.049
 8967SOL     OW27799   4.377   0.187   0.663
 8967SOL    HW127800   4.390   0.165   0.566
 8967SOL    HW227801   4.463   0.176   0.712
 8968SOL     OW27802   5.210   5.176   2.968
 8968SOL    HW127803   5.269   5.101   2.937
 8968SOL    HW227804   5.267   5.248   3.007
 8969SOL     OW27805   6.352   1.256   4.459
 8969SOL    HW127806   6.395   1.241   4.370
 8969SOL    HW227807   6.259   1.218   4.458
 8970SOL     OW27808   3.784   2.274   1.485
 8970SOL    HW127809   3.859   2.259   1.420
 8970SOL    HW227810   3.810   2.345   1.550
 8971SOL     OW27811   4.250   6.024   2.958
 8971SOL    HW127812   4.270   5.994   3.052
 8971SOL    HW227813   4.334   6.019   2.903
 8972SOL     OW27814   5.234   0.949   4.645
 8972SOL    HW127815   5.295   0.976   4.571
 8972SOL    HW227816   5.153   1.007   4.645
 8973SOL     OW27817   1.443   4.416   0.254
 8973SOL    HW127818   1.379   4.424   0.177
 8973SOL    HW227819   1.466   4.320   0.268
 8974SOL     OW27820   0.694   2.806   3.813
 8974SOL    HW127821   0.719   2.876   3.879
 8974SOL    HW227822   0.726   2.717   3.845
 8975SOL     OW27823   3.084   6.985   6.967
 8975SOL    HW127824   3.099   6.887   6.977
 8975SOL    HW227825   3.111   7.014   6.876
 8976SOL     OW27826   0.333   5.103   4.773
 8976SOL    HW127827   0.371   5.046   4.701
 8976SOL    HW227828   0.328   5.198   4.741
 8977SOL     OW27829   5.968   1.119   6.213
 8977SOL    HW127830   5.961   1.030   6.167
 8977SOL    HW227831   5.979   1.105   6.311
 8978SOL     OW27832   5.628   6.016   1.105
 8978SOL    HW127833   5.687   5.937   1.086
 8978SOL    HW227834   5.535   5.996   1.074
 8979SOL     OW27835   1.707   5.271   5.066
 8979SOL    HW127836   1.743   5.291   4.975
 8979SOL    HW227837   1.633   5.335   5.087
 8980SOL     OW27838   4.040   3.252   4.235
 8980SOL    HW127839   4.054   3.178   4.170
 8980SOL    HW227840   3.964   3.230   4.296
 8981SOL     OW27841   3.140   1.104   5.418
 8981SOL    HW127842   3.087   1.187   5.439
 8981SOL    HW227843   3.089   1.049   5.352
 8982SOL     OW27844   4.132   4.394   0.279
 8982SOL    HW127845   4.048   4.432   0.317
 8982SOL    HW227846   4.211   4.433   0.327
 8983SOL     OW27847   4.950   5.306   0.543
 8983SOL    HW127848   4.996   5.351   0.620
 8983SOL    HW227849   5.007   5.313   0.461
 8984SOL     OW27850   1.498   6.383   3.217
 8984SOL    HW127851   1.498   6.457   3.284
 8984SOL    HW227852   1.540   6.301   3.258
 8985SOL     OW27853   3.550   3.255   5.705
 8985SOL    HW127854   3.493   3.330   5.671
 8985SOL    HW227855   3.631   3.247   5.647
 8986SOL     OW27856   3.734   6.214   2.565
 8986SOL    HW127857   3.647   6.181   2.527
 8986SOL    HW227858   3.763   6.296   2.515
 8987SOL     OW27859   5.484   6.392   2.028
 8987SOL    HW127860   5.417   6.465   2.012
 8987SOL    HW227861   5.445   6.324   2.090
 8988SOL     OW27862   0.857   5.526   5.122
 8988SOL    HW127863   0.928   5.470   5.078
 8988SOL    HW227864   0.837   5.490   5.213
 8989SOL     OW27865   3.297   3.241   6.888
 8989SOL    HW127866   3.291   3.141   6.888
 8989SOL    HW227867   3.295   3.274   6.982
 8990SOL     OW27868   0.415   6.413   3.397
 8990SOL    HW127869   0.497   6.466   3.379
 8990SOL    HW227870   0.376   6.440   3.486
 8991SOL     OW27871   1.134   2.082   5.362
 8991SOL    HW127872   1.228   2.118   5.355
 8991SOL    HW227873   1.102   2.091   5.456
 8992SOL     OW27874   6.073   2.766   0.451
 8992SOL    HW127875   6.037   2.754   0.543
 8992SOL    HW227876   6.170   2.793   0.456
 8993SOL     OW27877   4.629   2.613   0.116
 8993SOL    HW127878   4.685   2.692   0.139
 8993SOL    HW227879   4.556   2.603   0.183
 8994SOL     OW27880   2.163   5.641   3.935
 8994SOL    HW127881   2.133   5.547   3.949
 8994SOL    HW227882   2.084   5.701   3.927
 8995SOL     OW27883   0.393   1.291   0.457
 8995SOL    HW127884   0.404   1.193   0.444
 8995SOL    HW227885   0.476   1.329   0.498
 8996SOL     OW27886   4.291   5.433   6.035
 8996SOL    HW127887   4.211   5.493   6.039
 8996SOL    HW227888   4.374   5.490   6.029
 8997SOL     OW27889   6.085   0.791   4.967
 8997SOL    HW127890   6.047   0.794   4.875
 8997SOL    HW227891   6.183   0.811   4.964
 8998SOL     OW27892   6.269   3.205   4.301
 8998SOL    HW127893   6.349   3.221   4.359
 8998SOL    HW227894   6.187   3.207   4.357
 8999SOL     OW27895   3.794   0.034   5.932
 8999SOL    HW127896   3.801   6.967   5.875
 8999SOL    HW227897   3.880   0.085   5.928
 9000SOL     OW27898   1.632   4.215   1.107
 9000SOL    HW127899   1.671   4.306   1.120
 9000SOL    HW227900   1.603   4.179   1.196
 9001SOL     OW27901   0.935   5.578   2.986
 9001SOL    HW127902   0.864   5.621   3.042
 9001SOL    HW227903   0.896   5.548   2.899
 9002SOL     OW27904   1.060   4.481   0.261
 9002SOL    HW127905   0.969   4.461   0.224
 9002SOL    HW227906   1.066   4.446   0.354
 9003SOL     OW27907   5.734   0.316   1.082
 9003SOL    HW127908   5.819   0.366   1.099
 9003SOL    HW227909   5.667   0.338   1.154
 9004SOL     OW27910   4.055   4.671   6.983
 9004SOL    HW127911   4.106   4.716   6.910
 9004SOL    HW227912   4.022   4.739   0.032
 9005SOL     OW27913   5.116   1.352   4.959
 9005SOL    HW127914   5.196   1.411   4.976
 9005SOL    HW227915   5.097   1.299   5.042
 9006SOL     OW27916   3.613   5.876   0.395
 9006SOL    HW127917   3.635   5.965   0.355
 9006SOL    HW227918   3.688   5.812   0.379
 9007SOL     OW27919   2.481   0.803   2.699
 9007SOL    HW127920   2.574   0.769   2.714
 9007SOL    HW227921   2.486   0.899   2.669
 9008SOL     OW27922   0.929   5.939   2.569
 9008SOL    HW127923   0.986   5.900   2.641
 9008SOL    HW227924   0.875   5.867   2.527
 9009SOL     OW27925   3.598   6.045   1.143
 9009SOL    HW127926   3.602   5.971   1.076
 9009SOL    HW227927   3.506   6.084   1.145
 9010SOL     OW27928   1.418   6.227   4.140
 9010SOL    HW127929   1.495   6.284   4.166
 9010SOL    HW227930   1.451   6.136   4.114
 9011SOL     OW27931   2.767   1.840   2.047
 9011SOL    HW127932   2.821   1.913   2.004
 9011SOL    HW227933   2.670   1.855   2.030
 9012SOL     OW27934   1.757   6.170   6.449
 9012SOL    HW127935   1.735   6.072   6.445
 9012SOL    HW227936   1.817   6.194   6.373
 9013SOL     OW27937   1.990   6.434   4.063
 9013SOL    HW127938   1.913   6.395   4.013
 9013SOL    HW227939   1.969   6.435   4.161
 9014SOL     OW27940   5.282   2.899   3.191
 9014SOL    HW127941   5.204   2.858   3.239
 9014SOL    HW227942   5.353   2.830   3.176
 9015SOL     OW27943   5.098   1.328   6.636
 9015SOL    HW127944   5.050   1.344   6.549
 9015SOL    HW227945   5.181   1.383   6.639
 9016SOL     OW27946   5.313   5.548   6.730
 9016SOL    HW127947   5.323   5.504   6.640
 9016SOL    HW227948   5.360   5.494   6.799
 9017SOL     OW27949   3.913   0.331   4.640
 9017SOL    HW127950   3.912   0.418   4.689
 9017SOL    HW227951   3.955   0.261   4.697
 9018SOL     OW27952   4.013   4.031   6.492
 9018SOL    HW127953   3.919   4.009   6.518
 9018SOL    HW227954   4.013   4.109   6.429
 9019SOL     OW27955   0.460   3.934   3.675
 9019SOL    HW127956   0.474   3.863   3.744
 9019SOL    HW227957   0.540   3.993   3.670
 9020SOL     OW27958   5.434   6.044   2.402
 9020SOL    HW127959   5.528   6.076   2.402
 9020SOL    HW227960   5.390   6.069   2.316
 9021SOL     OW27961   0.346   0.833   4.474
 9021SOL    HW127962   0.291   0.788   4.544
 9021SOL    HW227963   0.443   0.823   4.497
 9022SOL     OW27964   4.751   3.520   6.049
 9022SOL    HW127965   4.838   3.553   6.012
 9022SOL    HW227966   4.735   3.560   6.139
 9023SOL     OW27967   5.815   4.006   0.979
 9023SOL    HW127968   5.726   3.974   0.947
 9023SOL    HW227969   5.839   4.091   0.931
 9024SOL     OW27970   2.147   5.998   6.122
 9024SOL    HW127971   2.097   5.914   6.102
 9024SOL    HW227972   2.154   6.053   6.039
 9025SOL     OW27973   1.022   5.432   1.295
 9025SOL    HW127974   1.037   5.530   1.291
 9025SOL    HW227975   0.928   5.411   1.267
 9026SOL     OW27976   4.777   1.738   0.168
 9026SOL    HW127977   4.868   1.735   0.209
 9026SOL    HW227978   4.708   1.744   0.240
 9027SOL     OW27979   0.614   4.103   3.312
 9027SOL    HW127980   0.515   4.114   3.310
 9027SOL    HW227981   0.637   4.008   3.333
 9028SOL     OW27982   3.092   4.912   5.896
 9028SOL    HW127983   3.064   4.986   5.835
 9028SOL    HW227984   3.189   4.923   5.919
 9029SOL     OW27985   4.359   6.522   4.309
 9029SOL    HW127986   4.265   6.500   4.281
 9029SOL    HW227987   4.373   6.494   4.404
 9030SOL     OW27988   2.712   1.742   2.850
 9030SOL    HW127989   2.670   1.652   2.842
 9030SOL    HW227990   2.742   1.757   2.944
 9031SOL     OW27991   4.288   6.806   4.287
 9031SOL    HW127992   4.382   6.841   4.291
 9031SOL    HW227993   4.283   6.718   4.333
 9032SOL     OW27994   4.852   3.786   2.068
 9032SOL    HW127995   4.845   3.798   2.167
 9032SOL    HW227996   4.799   3.857   2.022
 9033SOL     OW27997   0.817   6.934   3.185
 9033SOL    HW127998   0.852   6.931   3.278
 9033SOL    HW227999   0.770   6.847   3.165
 9034SOL     OW28000   4.266   6.588   3.915
 9034SOL    HW128001   4.171   6.565   3.893
 9034SOL    HW228002   4.277   6.687   3.914
 9035SOL     OW28003   1.908   4.718   6.333
 9035SOL    HW128004   1.938   4.784   6.402
 9035SOL    HW228005   1.889   4.766   6.247
 9036SOL     OW28006   1.547   4.156   5.190
 9036SOL    HW128007   1.624   4.135   5.249
 9036SOL    HW228008   1.530   4.079   5.128
 9037SOL     OW28009   1.365   1.930   2.829
 9037SOL    HW128010   1.432   1.932   2.902
 9037SOL    HW228011   1.412   1.940   2.741
 9038SOL     OW28012   4.517   3.216   5.323
 9038SOL    HW128013   4.453   3.292   5.333
 9038SOL    HW228014   4.469   3.129   5.337
 9039SOL     OW28015   3.953   5.497   6.348
 9039SOL    HW128016   3.971   5.554   6.429
 9039SOL    HW228017   3.882   5.540   6.292
 9040SOL     OW28018   2.347   1.713   1.303
 9040SOL    HW128019   2.304   1.635   1.349
 9040SOL    HW228020   2.292   1.795   1.317
 9041SOL     OW28021   6.779   1.857   1.831
 9041SOL    HW128022   6.729   1.825   1.750
 9041SOL    HW228023   6.872   1.818   1.830
 9042SOL     OW28024   3.720   6.101   0.219
 9042SOL    HW128025   3.703   6.022   0.161
 9042SOL    HW228026   3.817   6.124   0.216
 9043SOL     OW28027   3.225   2.051   0.326
 9043SOL    HW128028   3.125   2.045   0.317
 9043SOL    HW228029   3.253   2.010   0.412
 9044SOL     OW28030   1.114   1.141   0.182
 9044SOL    HW128031   1.116   1.215   0.248
 9044SOL    HW228032   1.208   1.114   0.159
 9045SOL     OW28033   4.172   1.751   3.957
 9045SOL    HW128034   4.223   1.665   3.945
 9045SOL    HW228035   4.086   1.746   3.906
 9046SOL     OW28036   3.359   3.448   2.111
 9046SOL    HW128037   3.344   3.371   2.173
 9046SOL    HW228038   3.454   3.479   2.119
 9047SOL     OW28039   1.469   3.718   5.992
 9047SOL    HW128040   1.475   3.814   6.019
 9047SOL    HW228041   1.470   3.711   5.892
 9048SOL     OW28042   6.650   1.916   6.098
 9048SOL    HW128043   6.733   1.939   6.047
 9048SOL    HW228044   6.578   1.982   6.076
 9049SOL     OW28045   3.406   6.727   6.201
 9049SOL    HW128046   3.344   6.649   6.209
 9049SOL    HW228047   3.417   6.770   6.290
 9050SOL     OW28048   0.512   5.110   0.444
 9050SOL    HW128049   0.495   5.183   0.378
 9050SOL    HW228050   0.608   5.082   0.440
 9051SOL     OW28051   2.370   0.853   1.625
 9051SOL    HW128052   2.294   0.797   1.658
 9051SOL    HW228053   2.384   0.835   1.527
 9052SOL     OW28054   1.271   2.437   5.360
 9052SOL    HW128055   1.250   2.378   5.437
 9052SOL    HW228056   1.370   2.434   5.342
 9053SOL     OW28057   1.350   1.056   0.089
 9053SOL    HW128058   1.383   0.965   0.114
 9053SOL    HW228059   1.362   1.069   7.006
 9054SOL     OW28060   2.189   5.886   2.247
 9054SOL    HW128061   2.158   5.917   2.338
 9054SOL    HW228062   2.260   5.948   2.214
 9055SOL     OW28063   0.200   3.961   4.704
 9055SOL    HW128064   0.108   3.931   4.679
 9055SOL    HW228065   0.227   4.039   4.647
 9056SOL     OW28066   6.276   2.877   3.108
 9056SOL    HW128067   6.252   2.842   3.018
 9056SOL    HW228068   6.336   2.956   3.099
 9057SOL     OW28069   4.359   2.090   4.275
 9057SOL    HW128070   4.294   2.022   4.241
 9057SOL    HW228071   4.316   2.181   4.275
 9058SOL     OW28072   2.165   0.862   5.369
 9058SOL    HW128073   2.170   0.910   5.457
 9058SOL    HW228074   2.257   0.836   5.339
 9059SOL     OW28075   1.089   2.242   3.019
 9059SOL    HW128076   1.004   2.190   3.010
 9059SOL    HW228077   1.122   2.268   2.928
 9060SOL     OW28078   5.377   2.800   5.657
 9060SOL    HW128079   5.333   2.801   5.567
 9060SOL    HW228080   5.337   2.871   5.715
 9061SOL     OW28081   3.012   5.716   2.923
 9061SOL    HW128082   2.987   5.798   2.872
 9061SOL    HW228083   3.016   5.737   3.021
 9062SOL     OW28084   1.775   5.351   1.046
 9062SOL    HW128085   1.773   5.441   1.090
 9062SOL    HW228086   1.796   5.281   1.115
 9063SOL     OW28087   3.080   1.274   1.930
 9063SOL    HW128088   3.077   1.371   1.905
 9063SOL    HW228089   2.991   1.233   1.914
 9064SOL     OW28090   5.848   3.712   0.487
 9064SOL    HW128091   5.778   3.642   0.503
 9064SOL    HW228092   5.923   3.699   0.552
 9065SOL     OW28093   2.115   0.818   0.149
 9065SOL    HW128094   2.099   0.724   0.119
 9065SOL    HW228095   2.206   0.848   0.120
 9066SOL     OW28096   5.207   6.508   0.274
 9066SOL    HW128097   5.300   6.500   0.310
 9066SOL    HW228098   5.141   6.485   0.345
 9067SOL     OW28099   1.269   6.508   2.536
 9067SOL    HW128100   1.221   6.500   2.449
 9067SOL    HW228101   1.258   6.424   2.589
 9068SOL     OW28102   1.555   6.101   6.854
 9068SOL    HW128103   1.466   6.083   6.897
 9068SOL    HW228104   1.625   6.043   6.896
 9069SOL     OW28105   1.316   2.649   6.162
 9069SOL    HW128106   1.371   2.733   6.156
 9069SOL    HW228107   1.282   2.626   6.071
 9070SOL     OW28108   1.094   4.641   3.807
 9070SOL    HW128109   1.028   4.603   3.872
 9070SOL    HW228110   1.090   4.590   3.721
 9071SOL     OW28111   4.933   5.703   0.511
 9071SOL    HW128112   4.903   5.787   0.555
 9071SOL    HW228113   4.880   5.625   0.546
 9072SOL     OW28114   5.128   5.249   6.884
 9072SOL    HW128115   5.065   5.321   6.855
 9072SOL    HW228116   5.103   5.163   6.839
 9073SOL     OW28117   1.998   0.239   1.710
 9073SOL    HW128118   1.918   0.196   1.752
 9073SOL    HW228119   2.081   0.194   1.743
 9074SOL     OW28120   0.912   0.235   3.508
 9074SOL    HW128121   0.842   0.207   3.443
 9074SOL    HW228122   0.882   0.317   3.557
 9075SOL     OW28123   1.063   0.784   2.200
 9075SOL    HW128124   1.007   0.712   2.242
 9075SOL    HW228125   1.054   0.868   2.253
 9076SOL     OW28126   6.904   2.152   5.349
 9076SOL    HW128127   6.850   2.120   5.271
 9076SOL    HW228128   6.990   2.190   5.317
 9077SOL     OW28129   5.858   6.044   1.727
 9077SOL    HW128130   5.958   6.037   1.719
 9077SOL    HW228131   5.830   6.138   1.706
 9078SOL     OW28132   3.879   2.969   5.035
 9078SOL    HW128133   3.911   2.980   4.941
 9078SOL    HW228134   3.888   3.056   5.083
 9079SOL     OW28135   3.429   0.625   5.537
 9079SOL    HW128136   3.527   0.615   5.556
 9079SOL    HW228137   3.395   0.544   5.490
 9080SOL     OW28138   5.103   1.853   0.554
 9080SOL    HW128139   5.031   1.805   0.504
 9080SOL    HW228140   5.083   1.951   0.557
 9081SOL     OW28141   5.325   0.506   2.260
 9081SOL    HW128142   5.360   0.597   2.278
 9081SOL    HW228143   5.242   0.491   2.314
 9082SOL     OW28144   2.931   0.522   2.824
 9082SOL    HW128145   2.967   0.542   2.732
 9082SOL    HW228146   2.973   0.438   2.858
 9083SOL     OW28147   4.514   4.763   4.271
 9083SOL    HW128148   4.561   4.834   4.324
 9083SOL    HW228149   4.415   4.775   4.281
 9084SOL     OW28150   3.623   3.783   3.084
 9084SOL    HW128151   3.546   3.822   3.134
 9084SOL    HW228152   3.592   3.755   2.993
 9085SOL     OW28153   1.090   2.348   0.965
 9085SOL    HW128154   1.161   2.278   0.957
 9085SOL    HW228155   1.131   2.439   0.951
 9086SOL     OW28156   0.295   3.789   0.194
 9086SOL    HW128157   0.325   3.707   0.244
 9086SOL    HW228158   0.354   3.866   0.218
 9087SOL     OW28159   4.998   3.443   2.048
 9087SOL    HW128160   4.929   3.509   2.018
 9087SOL    HW228161   4.962   3.350   2.037
 9088SOL     OW28162   5.267   6.717   1.276
 9088SOL    HW128163   5.325   6.636   1.280
 9088SOL    HW228164   5.191   6.701   1.214
 9089SOL     OW28165   4.251   0.383   5.880
 9089SOL    HW128166   4.193   0.464   5.889
 9089SOL    HW228167   4.231   0.338   5.793
 9090SOL     OW28168   5.669   1.519   3.160
 9090SOL    HW128169   5.684   1.594   3.096
 9090SOL    HW228170   5.620   1.446   3.114
 9091SOL     OW28171   3.030   2.152   6.531
 9091SOL    HW128172   2.980   2.216   6.473
 9091SOL    HW228173   3.096   2.203   6.587
 9092SOL     OW28174   6.972   3.091   6.436
 9092SOL    HW128175   6.993   3.070   6.532
 9092SOL    HW228176   6.889   3.043   6.409
 9093SOL     OW28177   1.998   6.137   4.944
 9093SOL    HW128178   2.051   6.061   4.981
 9093SOL    HW228179   2.002   6.135   4.844
 9094SOL     OW28180   1.234   3.746   1.302
 9094SOL    HW128181   1.135   3.757   1.296
 9094SOL    HW228182   1.256   3.651   1.328
 9095SOL     OW28183   0.041   6.702   5.525
 9095SOL    HW128184   7.011   6.791   5.534
 9095SOL    HW228185   0.082   6.695   5.433
 9096SOL     OW28186   6.621   5.372   4.006
 9096SOL    HW128187   6.563   5.448   4.035
 9096SOL    HW228188   6.613   5.297   4.072
 9097SOL     OW28189   0.949   2.594   5.882
 9097SOL    HW128190   0.872   2.628   5.936
 9097SOL    HW228191   0.965   2.498   5.905
 9098SOL     OW28192   2.230   4.597   3.488
 9098SOL    HW128193   2.162   4.524   3.484
 9098SOL    HW228194   2.295   4.579   3.561
 9099SOL     OW28195   2.194   1.697   6.816
 9099SOL    HW128196   2.259   1.701   6.892
 9099SOL    HW228197   2.199   1.783   6.765
 9100SOL     OW28198   1.615   4.430   3.630
 9100SOL    HW128199   1.586   4.335   3.638
 9100SOL    HW228200   1.555   4.478   3.566
 9101SOL     OW28201   0.688   2.266   0.563
 9101SOL    HW128202   0.644   2.176   0.552
 9101SOL    HW228203   0.786   2.257   0.546
 9102SOL     OW28204   3.924   6.814   2.879
 9102SOL    HW128205   3.943   6.770   2.791
 9102SOL    HW228206   3.827   6.836   2.885
 9103SOL     OW28207   6.186   0.955   1.083
 9103SOL    HW128208   6.254   0.917   1.145
 9103SOL    HW228209   6.126   1.019   1.133
 9104SOL     OW28210   6.064   1.859   6.172
 9104SOL    HW128211   6.154   1.815   6.168
 9104SOL    HW228212   5.993   1.791   6.155
 9105SOL     OW28213   2.453   1.525   5.893
 9105SOL    HW128214   2.499   1.437   5.907
 9105SOL    HW228215   2.503   1.597   5.940
 9106SOL     OW28216   1.334   3.733   6.984
 9106SOL    HW128217   1.342   3.742   6.885
 9106SOL    HW228218   1.255   3.786   7.015
 9107SOL     OW28219   3.198   1.720   0.359
 9107SOL    HW128220   3.127   1.660   0.394
 9107SOL    HW228221   3.188   1.730   0.260
 9108SOL     OW28222   6.514   5.475   5.882
 9108SOL    HW128223   6.544   5.463   5.976
 9108SOL    HW228224   6.443   5.545   5.878
 9109SOL     OW28225   5.772   3.816   2.766
 9109SOL    HW128226   5.687   3.784   2.724
 9109SOL    HW228227   5.849   3.788   2.710
 9110SOL     OW28228   1.285   6.197   3.435
 9110SOL    HW128229   1.257   6.292   3.449
 9110SOL    HW228230   1.378   6.194   3.400
 9111SOL     OW28231   4.178   2.397   6.477
 9111SOL    HW128232   4.158   2.395   6.575
 9111SOL    HW228233   4.262   2.345   6.459
 9112SOL     OW28234   1.027   5.410   1.660
 9112SOL    HW128235   0.944   5.444   1.616
 9112SOL    HW228236   1.018   5.417   1.760
 9113SOL     OW28237   5.381   0.223   4.510
 9113SOL    HW128238   5.318   0.165   4.562
 9113SOL    HW228239   5.440   0.273   4.573
 9114SOL     OW28240   1.019   6.439   5.862
 9114SOL    HW128241   1.044   6.418   5.767
 9114SOL    HW228242   1.030   6.538   5.878
 9115SOL     OW28243   4.724   4.181   5.013
 9115SOL    HW128244   4.703   4.278   5.018
 9115SOL    HW228245   4.763   4.160   4.923
 9116SOL     OW28246   1.940   0.364   3.491
 9116SOL    HW128247   1.991   0.450   3.487
 9116SOL    HW228248   1.882   0.356   3.410
 9117SOL     OW28249   2.205   6.478   0.123
 9117SOL    HW128250   2.276   6.410   0.108
 9117SOL    HW228251   2.210   6.548   0.051
 9118SOL     OW28252   6.672   4.023   1.927
 9118SOL    HW128253   6.713   4.047   2.015
 9118SOL    HW228254   6.582   4.065   1.920
 9119SOL     OW28255   2.861   0.787   0.457
 9119SOL    HW128256   2.913   0.871   0.472
 9119SOL    HW228257   2.885   0.720   0.528
 9120SOL     OW28258   6.548   4.077   4.758
 9120SOL    HW128259   6.581   4.005   4.697
 9120SOL    HW228260   6.484   4.136   4.709
 9121SOL     OW28261   3.856   0.561   4.501
 9121SOL    HW128262   3.852   0.564   4.401
 9121SOL    HW228263   3.878   0.468   4.530
 9122SOL     OW28264   0.523   3.181   1.283
 9122SOL    HW128265   0.575   3.218   1.206
 9122SOL    HW228266   0.500   3.085   1.265
 9123SOL     OW28267   0.028   6.067   4.409
 9123SOL    HW128268   6.958   6.032   4.448
 9123SOL    HW228269   0.087   5.990   4.385
 9124SOL     OW28270   3.084   5.012   0.547
 9124SOL    HW128271   3.029   5.088   0.582
 9124SOL    HW228272   3.103   5.026   0.450
 9125SOL     OW28273   5.600   6.488   1.746
 9125SOL    HW128274   5.577   6.428   1.823
 9125SOL    HW228275   5.518   6.507   1.693
 9126SOL     OW28276   4.342   4.802   0.754
 9126SOL    HW128277   4.382   4.894   0.747
 9126SOL    HW228278   4.244   4.808   0.737
 9127SOL     OW28279   6.650   4.954   5.127
 9127SOL    HW128280   6.747   4.946   5.151
 9127SOL    HW228281   6.628   5.051   5.114
 9128SOL     OW28282   5.801   4.250   5.745
 9128SOL    HW128283   5.733   4.290   5.683
 9128SOL    HW228284   5.841   4.169   5.703
 9129SOL     OW28285   0.718   2.917   0.418
 9129SOL    HW128286   0.816   2.895   0.411
 9129SOL    HW228287   0.706   3.016   0.404
 9130SOL     OW28288   2.920   3.417   4.724
 9130SOL    HW128289   3.018   3.402   4.714
 9130SOL    HW228290   2.871   3.365   4.654
 9131SOL     OW28291   5.325   2.628   0.689
 9131SOL    HW128292   5.255   2.618   0.619
 9131SOL    HW228293   5.416   2.626   0.646
 9132SOL     OW28294   0.658   3.971   3.928
 9132SOL    HW128295   0.573   3.934   3.890
 9132SOL    HW228296   0.674   4.063   3.892
 9133SOL     OW28297   6.125   0.051   1.107
 9133SOL    HW128298   6.185   0.105   1.048
 9133SOL    HW228299   6.067   7.007   1.051
 9134SOL     OW28300   4.737   4.723   0.279
 9134SOL    HW128301   4.686   4.790   0.225
 9134SOL    HW228302   4.753   4.759   0.371
 9135SOL     OW28303   6.267   5.947   2.539
 9135SOL    HW128304   6.224   5.926   2.626
 9135SOL    HW228305   6.283   6.046   2.533
 9136SOL     OW28306   6.828   5.087   0.196
 9136SOL    HW128307   6.825   5.167   0.136
 9136SOL    HW228308   6.901   5.098   0.263
 9137SOL     OW28309   5.502   6.678   5.416
 9137SOL    HW128310   5.508   6.759   5.358
 9137SOL    HW228311   5.515   6.705   5.512
 9138SOL     OW28312   2.271   3.746   6.809
 9138SOL    HW128313   2.354   3.739   6.864
 9138SOL    HW228314   2.208   3.811   6.852
 9139SOL     OW28315   6.947   0.137   1.486
 9139SOL    HW128316   6.961   0.215   1.548
 9139SOL    HW228317   0.003   0.137   1.416
 9140SOL     OW28318   1.943   3.712   2.482
 9140SOL    HW128319   1.854   3.668   2.473
 9140SOL    HW228320   1.953   3.783   2.413
 9141SOL     OW28321   0.225   6.040   5.014
 9141SOL    HW128322   0.144   6.023   4.959
 9141SOL    HW228323   0.234   5.970   5.085
 9142SOL     OW28324   0.536   4.652   3.771
 9142SOL    HW128325   0.601   4.727   3.777
 9142SOL    HW228326   0.450   4.679   3.815
 9143SOL     OW28327   6.323   4.244   3.159
 9143SOL    HW128328   6.370   4.166   3.200
 9143SOL    HW228329   6.241   4.265   3.211
 9144SOL     OW28330   3.071   4.139   5.203
 9144SOL    HW128331   3.121   4.083   5.138
 9144SOL    HW228332   2.987   4.092   5.231
 9145SOL     OW28333   1.395   5.823   5.677
 9145SOL    HW128334   1.454   5.895   5.638
 9145SOL    HW228335   1.308   5.822   5.627
 9146SOL     OW28336   6.285   2.750   2.866
 9146SOL    HW128337   6.293   2.780   2.771
 9146SOL    HW228338   6.261   2.653   2.869
 9147SOL     OW28339   3.852   0.002   5.442
 9147SOL    HW128340   3.918   0.037   5.376
 9147SOL    HW228341   3.785   0.072   5.463
 9148SOL     OW28342   4.786   5.668   1.767
 9148SOL    HW128343   4.780   5.674   1.867
 9148SOL    HW228344   4.880   5.645   1.741
 9149SOL     OW28345   0.732   3.541   0.637
 9149SOL    HW128346   0.796   3.548   0.713
 9149SOL    HW228347   0.641   3.569   0.668
 9150SOL     OW28348   2.832   3.430   6.893
 9150SOL    HW128349   2.904   3.382   6.842
 9150SOL    HW228350   2.762   3.461   6.830
 9151SOL     OW28351   2.189   3.198   3.585
 9151SOL    HW128352   2.123   3.235   3.650
 9151SOL    HW228353   2.247   3.132   3.631
 9152SOL     OW28354   2.251   4.076   2.744
 9152SOL    HW128355   2.272   4.136   2.666
 9152SOL    HW228356   2.207   3.993   2.711
 9153SOL     OW28357   0.315   3.128   6.532
 9153SOL    HW128358   0.261   3.210   6.516
 9153SOL    HW228359   0.290   3.088   6.621
 9154SOL     OW28360   5.023   5.052   3.398
 9154SOL    HW128361   5.082   5.046   3.478
 9154SOL    HW228362   4.933   5.015   3.419
 9155SOL     OW28363   1.000   6.165   2.453
 9155SOL    HW128364   1.066   6.164   2.377
 9155SOL    HW228365   0.968   6.072   2.470
 9156SOL     OW28366   6.939   4.265   5.746
 9156SOL    HW128367   6.917   4.328   5.820
 9156SOL    HW228368   6.898   4.298   5.661
 9157SOL     OW28369   1.523   4.293   5.438
 9157SOL    HW128370   1.436   4.294   5.389
 9157SOL    HW228371   1.597   4.266   5.376
 9158SOL     OW28372   6.759   3.641   5.105
 9158SOL    HW128373   6.835   3.700   5.133
 9158SOL    HW228374   6.675   3.696   5.100
 9159SOL     OW28375   2.353   1.601   3.632
 9159SOL    HW128376   2.433   1.591   3.691
 9159SOL    HW228377   2.376   1.572   3.539
 9160SOL     OW28378   0.998   3.180   6.855
 9160SOL    HW128379   0.938   3.198   6.933
 9160SOL    HW228380   1.084   3.141   6.887
 9161SOL     OW28381   6.368   3.407   2.821
 9161SOL    HW128382   6.321   3.353   2.750
 9161SOL    HW228383   6.322   3.495   2.831
 9162SOL     OW28384   3.868   2.341   1.740
 9162SOL    HW128385   3.936   2.319   1.809
 9162SOL    HW228386   3.779   2.303   1.767
 9163SOL     OW28387   2.259   2.238   4.182
 9163SOL    HW128388   2.310   2.194   4.108
 9163SOL    HW228389   2.174   2.277   4.146
 9164SOL     OW28390   2.073   0.231   6.471
 9164SOL    HW128391   2.013   0.189   6.539
 9164SOL    HW228392   2.161   0.252   6.514
 9165SOL     OW28393   5.441   1.686   6.063
 9165SOL    HW128394   5.498   1.606   6.081
 9165SOL    HW228395   5.483   1.741   5.991
 9166SOL     OW28396   4.319   6.542   2.047
 9166SOL    HW128397   4.236   6.490   2.030
 9166SOL    HW228398   4.305   6.603   2.125
 9167SOL     OW28399   1.748   1.636   4.230
 9167SOL    HW128400   1.829   1.612   4.282
 9167SOL    HW228401   1.695   1.705   4.279
 9168SOL     OW28402   6.556   5.880   5.279
 9168SOL    HW128403   6.655   5.884   5.290
 9168SOL    HW228404   6.529   5.927   5.195
 9169SOL     OW28405   6.704   5.758   0.237
 9169SOL    HW128406   6.607   5.779   0.232
 9169SOL    HW228407   6.752   5.802   0.161
 9170SOL     OW28408   1.809   0.918   5.490
 9170SOL    HW128409   1.853   0.954   5.572
 9170SOL    HW228410   1.878   0.897   5.421
 9171SOL     OW28411   3.312   5.656   6.725
 9171SOL    HW128412   3.326   5.643   6.627
 9171SOL    HW228413   3.254   5.584   6.761
 9172SOL     OW28414   4.459   1.919   5.483
 9172SOL    HW128415   4.480   1.947   5.389
 9172SOL    HW228416   4.528   1.855   5.515
 9173SOL     OW28417   5.957   3.984   5.887
 9173SOL    HW128418   6.000   4.072   5.868
 9173SOL    HW228419   5.911   3.951   5.805
 9174SOL     OW28420   6.087   4.690   1.071
 9174SOL    HW128421   6.177   4.660   1.038
 9174SOL    HW228422   6.080   4.672   1.169
 9175SOL     OW28423   2.175   6.786   1.414
 9175SOL    HW128424   2.184   6.846   1.493
 9175SOL    HW228425   2.215   6.830   1.333
 9176SOL     OW28426   1.812   0.745   1.660
 9176SOL    HW128427   1.743   0.812   1.632
 9176SOL    HW228428   1.769   0.675   1.717
 9177SOL     OW28429   0.914   6.614   4.019
 9177SOL    HW128430   0.856   6.542   3.981
 9177SOL    HW228431   0.975   6.649   3.948
 9178SOL     OW28432   1.014   4.279   0.721
 9178SOL    HW128433   1.042   4.292   0.816
 9178SOL    HW228434   1.059   4.199   0.683
 9179SOL     OW28435   3.643   4.916   3.947
 9179SOL    HW128436   3.683   4.969   4.022
 9179SOL    HW228437   3.698   4.928   3.864
 9180SOL     OW28438   0.280   1.015   5.200
 9180SOL    HW128439   0.338   1.061   5.133
 9180SOL    HW228440   0.292   1.057   5.290
 9181SOL     OW28441   2.867   2.211   4.057
 9181SOL    HW128442   2.782   2.180   4.013
 9181SOL    HW228443   2.845   2.278   4.128
 9182SOL     OW28444   0.308   1.984   2.522
 9182SOL    HW128445   0.404   1.994   2.545
 9182SOL    HW228446   0.252   2.024   2.595
 9183SOL     OW28447   1.670   1.699   6.071
 9183SOL    HW128448   1.627   1.764   6.135
 9183SOL    HW228449   1.673   1.608   6.113
 9184SOL     OW28450   2.865   4.213   0.923
 9184SOL    HW128451   2.862   4.238   1.020
 9184SOL    HW228452   2.958   4.187   0.898
 9185SOL     OW28453   1.646   0.419   5.790
 9185SOL    HW128454   1.610   0.511   5.808
 9185SOL    HW228455   1.724   0.402   5.850
 9186SOL     OW28456   5.236   6.794   6.853
 9186SOL    HW128457   5.177   6.805   6.774
 9186SOL    HW228458   5.189   6.740   6.923
 9187SOL     OW28459   5.199   2.836   0.830
 9187SOL    HW128460   5.231   2.748   0.793
 9187SOL    HW228461   5.121   2.868   0.777
 9188SOL     OW28462   1.808   6.950   1.232
 9188SOL    HW128463   1.748   6.881   1.272
 9188SOL    HW228464   1.860   6.995   1.305
 9189SOL     OW28465   3.170   0.423   5.477
 9189SOL    HW128466   3.119   0.338   5.488
 9189SOL    HW228467   3.248   0.409   5.416
 9190SOL     OW28468   4.426   0.712   5.198
 9190SOL    HW128469   4.520   0.737   5.220
 9190SOL    HW228470   4.367   0.734   5.276
 9191SOL     OW28471   5.780   0.044   1.605
 9191SOL    HW128472   5.857   0.005   1.655
 9191SOL    HW228473   5.697   0.033   1.660
 9192SOL     OW28474   4.841   3.826   4.370
 9192SOL    HW128475   4.913   3.768   4.408
 9192SOL    HW228476   4.757   3.814   4.423
 9193SOL     OW28477   4.006   3.828   3.374
 9193SOL    HW128478   3.970   3.872   3.292
 9193SOL    HW228479   3.972   3.876   3.455
 9194SOL     OW28480   3.836   4.940   3.042
 9194SOL    HW128481   3.839   5.034   3.075
 9194SOL    HW228482   3.744   4.919   3.009
 9195SOL     OW28483   0.672   2.730   2.557
 9195SOL    HW128484   0.719   2.655   2.604
 9195SOL    HW228485   0.577   2.704   2.540
 9196SOL     OW28486   5.039   6.417   4.530
 9196SOL    HW128487   4.988   6.339   4.495
 9196SOL    HW228488   4.978   6.495   4.540
 9197SOL     OW28489   4.553   1.600   6.859
 9197SOL    HW128490   4.581   1.546   6.938
 9197SOL    HW228491   4.511   1.685   6.890
 9198SOL     OW28492   5.981   2.241   5.474
 9198SOL    HW128493   5.999   2.236   5.376
 9198SOL    HW228494   5.969   2.336   5.501
 9199SOL     OW28495   1.375   3.386   6.487
 9199SOL    HW128496   1.464   3.352   6.517
 9199SOL    HW228497   1.307   3.314   6.495
 9200SOL     OW28498   4.950   5.774   1.234
 9200SOL    HW128499   4.980   5.822   1.152
 9200SOL    HW228500   5.018   5.704   1.258
 9201SOL     OW28501   0.709   3.438   2.257
 9201SOL    HW128502   0.742   3.411   2.348
 9201SOL    HW228503   0.763   3.390   2.187
 9202SOL     OW28504   2.405   6.126   4.151
 9202SOL    HW128505   2.333   6.193   4.127
 9202SOL    HW228506   2.444   6.149   4.240
 9203SOL     OW28507   5.096   0.958   0.179
 9203SOL    HW128508   5.075   0.881   0.120
 9203SOL    HW228509   5.196   0.967   0.188
 9204SOL     OW28510   5.204   4.784   2.921
 9204SOL    HW128511   5.141   4.777   2.844
 9204SOL    HW228512   5.152   4.794   3.006
 9205SOL     OW28513   4.518   2.469   1.608
 9205SOL    HW128514   4.509   2.451   1.706
 9205SOL    HW228515   4.614   2.488   1.587
 9206SOL     OW28516   6.185   6.093   4.673
 9206SOL    HW128517   6.195   6.051   4.583
 9206SOL    HW228518   6.088   6.107   4.694
 9207SOL     OW28519   4.073   5.953   0.023
 9207SOL    HW128520   3.999   5.938   6.973
 9207SOL    HW228521   4.159   5.968   6.989
 9208SOL     OW28522   4.347   3.992   1.718
 9208SOL    HW128523   4.371   4.076   1.767
 9208SOL    HW228524   4.325   4.015   1.623
 9209SOL     OW28525   4.196   0.341   2.932
 9209SOL    HW128526   4.242   0.388   2.857
 9209SOL    HW228527   4.234   0.249   2.942
 9210SOL     OW28528   0.775   6.696   6.991
 9210SOL    HW128529   0.783   6.727   0.070
 9210SOL    HW228530   0.764   6.775   6.931
 9211SOL     OW28531   4.681   1.473   6.360
 9211SOL    HW128532   4.636   1.562   6.364
 9211SOL    HW228533   4.617   1.402   6.390
 9212SOL     OW28534   5.854   3.968   5.636
 9212SOL    HW128535   5.770   3.989   5.586
 9212SOL    HW228536   5.922   3.930   5.572
 9213SOL     OW28537   6.549   5.841   1.768
 9213SOL    HW128538   6.543   5.941   1.771
 9213SOL    HW228539   6.506   5.803   1.850
 9214SOL     OW28540   2.392   1.479   5.638
 9214SOL    HW128541   2.394   1.503   5.735
 9214SOL    HW228542   2.480   1.501   5.597
 9215SOL     OW28543   0.198   3.687   3.413
 9215SOL    HW128544   0.157   3.628   3.343
 9215SOL    HW228545   0.126   3.726   3.470
 9216SOL     OW28546   2.274   6.456   3.208
 9216SOL    HW128547   2.266   6.361   3.239
 9216SOL    HW228548   2.204   6.512   3.251
 9217SOL     OW28549   4.185   2.120   6.826
 9217SOL    HW128550   4.093   2.091   6.798
 9217SOL    HW228551   4.180   2.171   6.912
 9218SOL     OW28552   5.295   5.843   6.561
 9218SOL    HW128553   5.380   5.842   6.613
 9218SOL    HW228554   5.219   5.819   6.621
 9219SOL     OW28555   3.288   2.205   5.637
 9219SOL    HW128556   3.363   2.204   5.571
 9219SOL    HW228557   3.311   2.147   5.715
 9220SOL     OW28558   0.311   6.483   3.153
 9220SOL    HW128559   0.342   6.447   3.242
 9220SOL    HW228560   0.342   6.577   3.143
 9221SOL     OW28561   2.906   1.616   1.269
 9221SOL    HW128562   2.822   1.567   1.292
 9221SOL    HW228563   2.884   1.709   1.241
 9222SOL     OW28564   1.555   5.446   3.991
 9222SOL    HW128565   1.508   5.360   4.012
 9222SOL    HW228566   1.509   5.521   4.037
 9223SOL     OW28567   6.504   3.186   4.462
 9223SOL    HW128568   6.572   3.211   4.531
 9223SOL    HW228569   6.453   3.106   4.493
 9224SOL     OW28570   1.903   4.434   2.705
 9224SOL    HW128571   1.986   4.460   2.655
 9224SOL    HW228572   1.920   4.440   2.803
 9225SOL     OW28573   6.701   5.483   6.094
 9225SOL    HW128574   6.789   5.528   6.082
 9225SOL    HW228575   6.644   5.537   6.156
 9226SOL     OW28576   0.928   0.802   5.844
 9226SOL    HW128577   0.903   0.897   5.860
 9226SOL    HW228578   1.006   0.798   5.782
 9227SOL     OW28579   3.323   4.384   1.317
 9227SOL    HW128580   3.416   4.409   1.288
 9227SOL    HW228581   3.321   4.288   1.345
 9228SOL     OW28582   4.082   3.286   4.880
 9228SOL    HW128583   4.136   3.366   4.904
 9228SOL    HW228584   4.027   3.259   4.959
 9229SOL     OW28585   6.787   5.337   7.002
 9229SOL    HW128586   6.787   5.413   0.051
 9229SOL    HW228587   6.693   5.317   6.975
 9230SOL     OW28588   4.323   0.276   4.924
 9230SOL    HW128589   4.308   0.375   4.929
 9230SOL    HW228590   4.420   0.256   4.936
 9231SOL     OW28591   6.141   6.016   1.684
 9231SOL    HW128592   6.188   5.929   1.695
 9231SOL    HW228593   6.208   6.087   1.660
 9232SOL     OW28594   1.089   5.782   1.928
 9232SOL    HW128595   1.143   5.837   1.863
 9232SOL    HW228596   1.002   5.756   1.886
 9233SOL     OW28597   1.102   6.702   5.890
 9233SOL    HW128598   1.176   6.738   5.946
 9233SOL    HW228599   1.119   6.723   5.794
 9234SOL     OW28600   3.077   4.369   5.743
 9234SOL    HW128601   3.158   4.312   5.734
 9234SOL    HW228602   3.073   4.435   5.668
 9235SOL     OW28603   2.303   1.578   2.800
 9235SOL    HW128604   2.215   1.546   2.766
 9235SOL    HW228605   2.290   1.629   2.884
 9236SOL     OW28606   1.598   3.354   5.857
 9236SOL    HW128607   1.628   3.418   5.928
 9236SOL    HW228608   1.675   3.297   5.829
 9237SOL     OW28609   6.090   5.367   2.849
 9237SOL    HW128610   6.156   5.312   2.798
 9237SOL    HW228611   5.997   5.339   2.826
 9238SOL     OW28612   1.568   2.892   4.758
 9238SOL    HW128613   1.624   2.815   4.789
 9238SOL    HW228614   1.585   2.908   4.660
 9239SOL     OW28615   1.246   5.045   6.281
 9239SOL    HW128616   1.226   5.143   6.289
 9239SOL    HW228617   1.334   5.032   6.236
 9240SOL     OW28618   3.907   1.943   3.982
 9240SOL    HW128619   3.855   1.861   4.007
 9240SOL    HW228620   4.004   1.920   3.973
 9241SOL     OW28621   5.860   6.641   6.972
 9241SOL    HW128622   5.900   6.723   7.012
 9241SOL    HW228623   5.823   6.583   0.029
 9242SOL     OW28624   1.673   2.670   1.034
 9242SOL    HW128625   1.594   2.624   1.074
 9242SOL    HW228626   1.750   2.664   1.097
 9243SOL     OW28627   2.155   0.160   0.492
 9243SOL    HW128628   2.086   0.215   0.444
 9243SOL    HW228629   2.133   0.063   0.481
 9244SOL     OW28630   2.291   6.194   6.644
 9244SOL    HW128631   2.302   6.141   6.728
 9244SOL    HW228632   2.231   6.145   6.581
 9245SOL     OW28633   0.965   5.159   2.882
 9245SOL    HW128634   0.909   5.219   2.825
 9245SOL    HW228635   0.923   5.150   2.972
 9246SOL     OW28636   5.381   6.673   6.638
 9246SOL    HW128637   5.380   6.727   6.555
 9246SOL    HW228638   5.295   6.686   6.688
 9247SOL     OW28639   3.748   6.381   2.827
 9247SOL    HW128640   3.706   6.414   2.742
 9247SOL    HW228641   3.805   6.453   2.866
 9248SOL     OW28642   2.708   0.259   6.668
 9248SOL    HW128643   2.804   0.277   6.647
 9248SOL    HW228644   2.674   0.330   6.730
 9249SOL     OW28645   2.803   6.772   6.890
 9249SOL    HW128646   2.757   6.767   6.979
 9249SOL    HW228647   2.901   6.786   6.904
 9250SOL     OW28648   0.569   3.547   3.170
 9250SOL    HW128649   0.516   3.630   3.183
 9250SOL    HW228650   0.606   3.516   3.258
 9251SOL     OW28651   3.324   1.671   1.497
 9251SOL    HW128652   3.363   1.750   1.450
 9251SOL    HW228653   3.349   1.588   1.448
 9252SOL     OW28654   5.960   1.244   4.486
 9252SOL    HW128655   5.876   1.193   4.505
 9252SOL    HW228656   6.013   1.255   4.570
 9253SOL     OW28657   2.145   5.357   4.728
 9253SOL    HW128658   2.101   5.295   4.793
 9253SOL    HW228659   2.112   5.338   4.636
 9254SOL     OW28660   0.319   5.314   2.151
 9254SOL    HW128661   0.383   5.384   2.181
 9254SOL    HW228662   0.322   5.306   2.052
 9255SOL     OW28663   6.327   3.903   0.917
 9255SOL    HW128664   6.234   3.868   0.919
 9255SOL    HW228665   6.350   3.943   1.006
 9256SOL     OW28666   2.580   6.762   0.809
 9256SOL    HW128667   2.591   6.828   0.883
 9256SOL    HW228668   2.486   6.764   0.775
 9257SOL     OW28669   6.131   5.926   4.424
 9257SOL    HW128670   6.048   5.937   4.370
 9257SOL    HW228671   6.211   5.947   4.367
 9258SOL     OW28672   4.562   5.361   1.938
 9258SOL    HW128673   4.553   5.440   1.877
 9258SOL    HW228674   4.560   5.277   1.884
 9259SOL     OW28675   0.329   2.504   6.819
 9259SOL    HW128676   0.233   2.529   6.803
 9259SOL    HW228677   0.383   2.524   6.737
 9260SOL     OW28678   4.934   3.678   4.590
 9260SOL    HW128679   5.002   3.751   4.591
 9260SOL    HW228680   4.952   3.614   4.665
 9261SOL     OW28681   1.477   2.783   1.856
 9261SOL    HW128682   1.552   2.720   1.836
 9261SOL    HW228683   1.444   2.823   1.770
 9262SOL     OW28684   6.607   6.279   6.131
 9262SOL    HW128685   6.591   6.297   6.034
 9262SOL    HW228686   6.666   6.199   6.141
 9263SOL     OW28687   2.272   4.377   3.075
 9263SOL    HW128688   2.186   4.379   3.124
 9263SOL    HW228689   2.333   4.449   3.110
 9264SOL     OW28690   5.163   3.652   6.366
 9264SOL    HW128691   5.212   3.708   6.299
 9264SOL    HW228692   5.157   3.558   6.333
 9265SOL     OW28693   4.957   0.944   1.595
 9265SOL    HW128694   4.911   0.925   1.508
 9265SOL    HW228695   5.056   0.952   1.579
 9266SOL     OW28696   2.047   4.598   0.941
 9266SOL    HW128697   2.065   4.566   1.034
 9266SOL    HW228698   2.110   4.552   0.878
 9267SOL     OW28699   0.665   1.659   3.660
 9267SOL    HW128700   0.659   1.756   3.684
 9267SOL    HW228701   0.732   1.647   3.587
 9268SOL     OW28702   0.900   0.861   1.691
 9268SOL    HW128703   0.957   0.833   1.614
 9268SOL    HW228704   0.953   0.855   1.776
 9269SOL     OW28705   4.437   0.886   0.203
 9269SOL    HW128706   4.398   0.811   0.150
 9269SOL    HW228707   4.394   0.889   0.293
 9270SOL     OW28708   2.595   1.210   5.494
 9270SOL    HW128709   2.595   1.302   5.534
 9270SOL    HW228710   2.625   1.144   5.563
 9271SOL     OW28711   1.767   4.671   5.744
 9271SOL    HW128712   1.723   4.700   5.830
 9271SOL    HW228713   1.732   4.581   5.718
 9272SOL     OW28714   6.247   6.108   5.755
 9272SOL    HW128715   6.320   6.066   5.702
 9272SOL    HW228716   6.274   6.201   5.781
 9273SOL     OW28717   5.719   3.079   3.634
 9273SOL    HW128718   5.638   3.029   3.604
 9273SOL    HW228719   5.780   3.017   3.684
 9274SOL     OW28720   0.322   3.300   0.714
 9274SOL    HW128721   0.417   3.326   0.701
 9274SOL    HW228722   0.272   3.312   0.628
 9275SOL     OW28723   5.590   0.931   0.517
 9275SOL    HW128724   5.664   0.925   0.584
 9275SOL    HW228725   5.502   0.939   0.565
 9276SOL     OW28726   2.157   4.693   6.622
 9276SOL    HW128727   2.179   4.716   6.527
 9276SOL    HW228728   2.064   4.723   6.643
 9277SOL     OW28729   4.360   5.153   2.380
 9277SOL    HW128730   4.338   5.076   2.440
 9277SOL    HW228731   4.347   5.125   2.284
 9278SOL     OW28732   0.288   6.765   5.982
 9278SOL    HW128733   0.190   6.774   5.969
 9278SOL    HW228734   0.311   6.780   6.078
 9279SOL     OW28735   2.786   6.133   2.153
 9279SOL    HW128736   2.749   6.141   2.060
 9279SOL    HW228737   2.726   6.181   2.217
 9280SOL     OW28738   1.156   5.771   2.690
 9280SOL    HW128739   1.156   5.698   2.758
 9280SOL    HW228740   1.169   5.731   2.599
 9281SOL     OW28741   1.628   4.857   0.734
 9281SOL    HW128742   1.585   4.941   0.702
 9281SOL    HW228743   1.673   4.874   0.822
 9282SOL     OW28744   2.629   6.796   4.928
 9282SOL    HW128745   2.573   6.734   4.873
 9282SOL    HW228746   2.573   6.871   4.963
 9283SOL     OW28747   4.673   6.078   0.775
 9283SOL    HW128748   4.575   6.094   0.793
 9283SOL    HW228749   4.702   6.133   0.697
 9284SOL     OW28750   4.110   5.375   0.225
 9284SOL    HW128751   4.016   5.395   0.199
 9284SOL    HW228752   4.153   5.459   0.260
 9285SOL     OW28753   0.166   6.234   3.595
 9285SOL    HW128754   0.196   6.287   3.674
 9285SOL    HW228755   0.230   6.247   3.519
 9286SOL     OW28756   5.050   6.501   1.842
 9286SOL    HW128757   4.983   6.428   1.825
 9286SOL    HW228758   5.006   6.590   1.833
 9287SOL     OW28759   4.171   3.601   6.400
 9287SOL    HW128760   4.179   3.696   6.369
 9287SOL    HW228761   4.078   3.584   6.432
 9288SOL     OW28762   4.008   1.684   2.272
 9288SOL    HW128763   3.979   1.698   2.177
 9288SOL    HW228764   4.029   1.772   2.314
 9289SOL     OW28765   4.622   6.208   1.263
 9289SOL    HW128766   4.687   6.187   1.336
 9289SOL    HW228767   4.653   6.166   1.178
 9290SOL     OW28768   6.006   1.408   3.717
 9290SOL    HW128769   6.082   1.471   3.698
 9290SOL    HW228770   6.040   1.315   3.723
 9291SOL     OW28771   0.388   3.970   5.705
 9291SOL    HW128772   0.462   3.990   5.769
 9291SOL    HW228773   0.305   4.018   5.735
 9292SOL     OW28774   0.532   1.641   6.666
 9292SOL    HW128775   0.539   1.548   6.704
 9292SOL    HW228776   0.438   1.661   6.642
 9293SOL     OW28777   4.335   1.902   5.032
 9293SOL    HW128778   4.391   1.926   4.953
 9293SOL    HW228779   4.309   1.805   5.026
 9294SOL     OW28780   4.704   6.561   6.894
 9294SOL    HW128781   4.611   6.543   6.862
 9294SOL    HW228782   4.718   6.659   6.903
 9295SOL     OW28783   5.700   1.218   4.048
 9295SOL    HW128784   5.626   1.154   4.027
 9295SOL    HW228785   5.786   1.168   4.054
 9296SOL     OW28786   2.214   4.725   5.771
 9296SOL    HW128787   2.264   4.747   5.855
 9296SOL    HW228788   2.150   4.650   5.788
 9297SOL     OW28789   6.927   5.019   2.113
 9297SOL    HW128790   6.921   4.947   2.044
 9297SOL    HW228791   6.932   4.978   2.204
 9298SOL     OW28792   1.226   4.193   6.475
 9298SOL    HW128793   1.210   4.188   6.574
 9298SOL    HW228794   1.294   4.264   6.456
 9299SOL     OW28795   2.929   2.197   4.471
 9299SOL    HW128796   2.862   2.253   4.518
 9299SOL    HW228797   2.991   2.155   4.537
 9300SOL     OW28798   2.156   6.457   4.850
 9300SOL    HW128799   2.087   6.431   4.782
 9300SOL    HW228800   2.225   6.385   4.856
 9301SOL     OW28801   0.960   4.151   4.138
 9301SOL    HW128802   1.019   4.107   4.071
 9301SOL    HW228803   0.990   4.246   4.152
 9302SOL     OW28804   2.625   5.221   4.490
 9302SOL    HW128805   2.547   5.277   4.463
 9302SOL    HW228806   2.674   5.267   4.564
 9303SOL     OW28807   2.624   4.268   0.205
 9303SOL    HW128808   2.623   4.199   0.277
 9303SOL    HW228809   2.650   4.356   0.244
 9304SOL     OW28810   5.349   5.423   6.325
 9304SOL    HW128811   5.368   5.513   6.288
 9304SOL    HW228812   5.376   5.352   6.260
 9305SOL     OW28813   1.748   1.614   1.193
 9305SOL    HW128814   1.699   1.698   1.167
 9305SOL    HW228815   1.735   1.545   1.121
 9306SOL     OW28816   6.715   6.437   4.694
 9306SOL    HW128817   6.661   6.486   4.762
 9306SOL    HW228818   6.656   6.412   4.617
 9307SOL     OW28819   1.524   4.103   1.334
 9307SOL    HW128820   1.463   4.031   1.300
 9307SOL    HW228821   1.523   4.102   1.434
 9308SOL     OW28822   2.203   3.392   1.484
 9308SOL    HW128823   2.212   3.307   1.535
 9308SOL    HW228824   2.292   3.415   1.443
 9309SOL     OW28825   4.949   5.403   6.410
 9309SOL    HW128826   4.992   5.314   6.427
 9309SOL    HW228827   4.961   5.429   6.314
 9310SOL     OW28828   5.724   5.955   5.628
 9310SOL    HW128829   5.647   6.018   5.636
 9310SOL    HW228830   5.808   6.008   5.615
 9311SOL     OW28831   5.092   3.865   0.725
 9311SOL    HW128832   5.117   3.946   0.778
 9311SOL    HW228833   5.136   3.869   0.636
 9312SOL     OW28834   6.974   3.054   3.620
 9312SOL    HW128835   6.916   3.037   3.700
 9312SOL    HW228836   0.003   2.970   3.593
 9313SOL     OW28837   0.839   0.685   2.340
 9313SOL    HW128838   0.794   0.685   2.251
 9313SOL    HW228839   0.782   0.638   2.406
 9314SOL     OW28840   5.588   5.118   1.015
 9314SOL    HW128841   5.688   5.113   1.014
 9314SOL    HW228842   5.559   5.213   1.025
 9315SOL     OW28843   5.499   6.130   5.583
 9315SOL    HW128844   5.436   6.179   5.643
 9315SOL    HW228845   5.454   6.050   5.545
 9316SOL     OW28846   5.259   6.810   0.952
 9316SOL    HW128847   5.299   6.719   0.939
 9316SOL    HW228848   5.327   6.870   0.994
 9317SOL     OW28849   2.323   6.238   3.690
 9317SOL    HW128850   2.410   6.277   3.720
 9317SOL    HW228851   2.287   6.177   3.760
 9318SOL     OW28852   3.639   7.005   2.253
 9318SOL    HW128853   3.621   0.088   2.254
 9318SOL    HW228854   3.693   6.980   2.333
 9319SOL     OW28855   4.144   1.718   0.116
 9319SOL    HW128856   4.114   1.724   0.211
 9319SOL    HW228857   4.140   1.622   0.086
 9320SOL     OW28858   6.836   6.656   6.990
 9320SOL    HW128859   6.764   6.695   0.031
 9320SOL    HW228860   6.812   6.663   6.894
 9321SOL     OW28861   0.944   3.635   4.418
 9321SOL    HW128862   0.870   3.701   4.406
 9321SOL    HW228863   0.976   3.638   4.512
 9322SOL     OW28864   5.308   3.077   6.725
 9322SOL    HW128865   5.370   3.035   6.791
 9322SOL    HW228866   5.355   3.091   6.638
 9323SOL     OW28867   1.095   2.467   6.221
 9323SOL    HW128868   1.159   2.540   6.247
 9323SOL    HW228869   1.126   2.424   6.136
 9324SOL     OW28870   0.232   4.463   1.365
 9324SOL    HW128871   0.165   4.521   1.319
 9324SOL    HW228872   0.285   4.518   1.430
 9325SOL     OW28873   0.923   5.132   3.156
 9325SOL    HW128874   1.001   5.084   3.196
 9325SOL    HW228875   0.947   5.229   3.143
 9326SOL     OW28876   4.797   4.505   0.460
 9326SOL    HW128877   4.717   4.479   0.513
 9326SOL    HW228878   4.771   4.574   0.393
 9327SOL     OW28879   2.900   1.499   3.429
 9327SOL    HW128880   2.889   1.406   3.463
 9327SOL    HW228881   2.893   1.499   3.329
 9328SOL     OW28882   1.566   0.758   3.524
 9328SOL    HW128883   1.514   0.813   3.459
 9328SOL    HW228884   1.507   0.689   3.564
 9329SOL     OW28885   1.124   4.711   6.270
 9329SOL    HW128886   1.080   4.791   6.308
 9329SOL    HW228887   1.075   4.628   6.299
 9330SOL     OW28888   1.379   6.559   0.455
 9330SOL    HW128889   1.450   6.581   0.389
 9330SOL    HW228890   1.297   6.529   0.408
 9331SOL     OW28891   2.423   4.367   4.077
 9331SOL    HW128892   2.360   4.337   4.005
 9331SOL    HW228893   2.489   4.431   4.038
 9332SOL     OW28894   6.326   4.998   0.264
 9332SOL    HW128895   6.392   4.968   0.333
 9332SOL    HW228896   6.267   4.922   0.238
 9333SOL     OW28897   2.691   3.945   1.356
 9333SOL    HW128898   2.632   3.874   1.395
 9333SOL    HW228899   2.758   3.902   1.295
 9334SOL     OW28900   6.746   5.784   6.182
 9334SOL    HW128901   6.654   5.760   6.212
 9334SOL    HW228902   6.805   5.798   6.261
 9335SOL     OW28903   0.627   3.786   1.296
 9335SOL    HW128904   0.694   3.757   1.229
 9335SOL    HW228905   0.553   3.719   1.302
 9336SOL     OW28906   5.178   6.915   6.090
 9336SOL    HW128907   5.205   6.896   5.996
 9336SOL    HW228908   5.107   6.850   6.118
 9337SOL     OW28909   2.647   1.531   5.564
 9337SOL    HW128910   2.696   1.500   5.646
 9337SOL    HW228911   2.712   1.545   5.489
 9338SOL     OW28912   5.370   6.236   0.748
 9338SOL    HW128913   5.392   6.185   0.665
 9338SOL    HW228914   5.274   6.223   0.770
 9339SOL     OW28915   6.808   3.887   5.267
 9339SOL    HW128916   6.879   3.896   5.196
 9339SOL    HW228917   6.720   3.914   5.229
 9340SOL     OW28918   2.427   4.763   1.752
 9340SOL    HW128919   2.445   4.682   1.697
 9340SOL    HW228920   2.486   4.762   1.833
 9341SOL     OW28921   5.708   5.368   6.734
 9341SOL    HW128922   5.634   5.373   6.801
 9341SOL    HW228923   5.674   5.398   6.645
 9342SOL     OW28924   3.119   6.950   5.049
 9342SOL    HW128925   3.132   6.851   5.051
 9342SOL    HW228926   3.199   6.993   5.008
 9343SOL     OW28927   4.789   3.652   0.715
 9343SOL    HW128928   4.801   3.583   0.787
 9343SOL    HW228929   4.878   3.681   0.681
 9344SOL     OW28930   5.530   0.511   5.255
 9344SOL    HW128931   5.575   0.599   5.243
 9344SOL    HW228932   5.459   0.519   5.325
 9345SOL     OW28933   0.501   4.803   0.726
 9345SOL    HW128934   0.584   4.841   0.768
 9345SOL    HW228935   0.453   4.875   0.677
 9346SOL     OW28936   5.209   0.512   1.897
 9346SOL    HW128937   5.155   0.578   1.949
 9346SOL    HW228938   5.304   0.542   1.894
 9347SOL     OW28939   4.360   6.224   1.322
 9347SOL    HW128940   4.313   6.310   1.307
 9347SOL    HW228941   4.456   6.233   1.295
 9348SOL     OW28942   2.269   5.329   1.558
 9348SOL    HW128943   2.349   5.385   1.581
 9348SOL    HW228944   2.201   5.336   1.631
 9349SOL     OW28945   6.808   6.186   0.890
 9349SOL    HW128946   6.763   6.120   0.950
 9349SOL    HW228947   6.906   6.186   0.909
 9350SOL     OW28948   6.769   0.766   0.697
 9350SOL    HW128949   6.742   0.697   0.630
 9350SOL    HW228950   6.788   0.722   0.785
 9351SOL     OW28951   3.996   3.353   6.151
 9351SOL    HW128952   3.977   3.256   6.144
 9351SOL    HW228953   4.025   3.389   6.062
 9352SOL     OW28954   2.903   2.330   6.818
 9352SOL    HW128955   2.990   2.285   6.797
 9352SOL    HW228956   2.917   2.403   6.885
 9353SOL     OW28957   0.518   3.131   1.635
 9353SOL    HW128958   0.432   3.143   1.584
 9353SOL    HW228959   0.544   3.034   1.633
 9354SOL     OW28960   5.295   1.855   1.624
 9354SOL    HW128961   5.255   1.894   1.541
 9354SOL    HW228962   5.320   1.929   1.686
 9355SOL     OW28963   6.916   1.359   2.383
 9355SOL    HW128964   6.983   1.362   2.309
 9355SOL    HW228965   6.964   1.350   2.470
 9356SOL     OW28966   5.278   3.302   2.821
 9356SOL    HW128967   5.287   3.380   2.760
 9356SOL    HW228968   5.184   3.298   2.857
 9357SOL     OW28969   3.038   3.669   0.867
 9357SOL    HW128970   3.117   3.729   0.854
 9357SOL    HW228971   3.028   3.609   0.788
 9358SOL     OW28972   5.095   4.323   2.193
 9358SOL    HW128973   5.097   4.229   2.228
 9358SOL    HW228974   5.098   4.321   2.093
 9359SOL     OW28975   5.285   4.734   5.770
 9359SOL    HW128976   5.250   4.781   5.689
 9359SOL    HW228977   5.375   4.695   5.748
 9360SOL     OW28978   1.239   1.093   5.285
 9360SOL    HW128979   1.268   1.188   5.297
 9360SOL    HW228980   1.311   1.043   5.236
 9361SOL     OW28981   2.814   1.198   1.916
 9361SOL    HW128982   2.719   1.221   1.893
 9361SOL    HW228983   2.827   1.208   2.014
 9362SOL     OW28984   1.811   1.976   3.295
 9362SOL    HW128985   1.809   2.070   3.327
 9362SOL    HW228986   1.718   1.941   3.287
 9363SOL     OW28987   1.744   6.425   2.118
 9363SOL    HW128988   1.790   6.499   2.069
 9363SOL    HW228989   1.813   6.369   2.164
 9364SOL     OW28990   5.346   4.549   0.976
 9364SOL    HW128991   5.330   4.616   1.049
 9364SOL    HW228992   5.443   4.543   0.956
 9365SOL     OW28993   2.359   1.307   4.784
 9365SOL    HW128994   2.361   1.242   4.860
 9365SOL    HW228995   2.264   1.327   4.760
 9366SOL     OW28996   3.422   1.314   1.664
 9366SOL    HW128997   3.450   1.321   1.568
 9366SOL    HW228998   3.445   1.223   1.699
 9367SOL     OW28999   6.523   6.085   4.054
 9367SOL    HW129000   6.549   5.988   4.059
 9367SOL    HW229001   6.603   6.142   4.070
 9368SOL     OW29002   4.625   2.502   1.311
 9368SOL    HW129003   4.677   2.496   1.397
 9368SOL    HW229004   4.603   2.598   1.293
 9369SOL     OW29005   6.690   2.389   5.947
 9369SOL    HW129006   6.754   2.340   5.888
 9369SOL    HW229007   6.656   2.470   5.899
 9370SOL     OW29008   6.188   6.311   3.429
 9370SOL    HW129009   6.258   6.347   3.491
 9370SOL    HW229010   6.213   6.218   3.401
 9371SOL     OW29011   1.504   6.686   0.683
 9371SOL    HW129012   1.468   6.779   0.698
 9371SOL    HW229013   1.457   6.644   0.605
 9372SOL     OW29014   5.820   6.298   0.018
 9372SOL    HW129015   5.883   6.368   0.051
 9372SOL    HW229016   5.865   6.209   0.020
 9373SOL     OW29017   4.626   2.683   3.976
 9373SOL    HW129018   4.701   2.742   3.946
 9373SOL    HW229019   4.579   2.646   3.896
 9374SOL     OW29020   5.181   4.527   0.297
 9374SOL    HW129021   5.215   4.477   0.377
 9374SOL    HW229022   5.176   4.465   0.218
 9375SOL     OW29023   0.522   1.635   4.095
 9375SOL    HW129024   0.531   1.540   4.124
 9375SOL    HW229025   0.614   1.674   4.081
 9376SOL     OW29026   1.681   2.677   2.019
 9376SOL    HW129027   1.712   2.760   1.974
 9376SOL    HW229028   1.696   2.598   1.960
 9377SOL     OW29029   6.129   5.038   2.500
 9377SOL    HW129030   6.204   5.100   2.478
 9377SOL    HW229031   6.115   5.036   2.599
 9378SOL     OW29032   3.404   6.253   1.466
 9378SOL    HW129033   3.306   6.274   1.466
 9378SOL    HW229034   3.428   6.209   1.552
 9379SOL     OW29035   5.728   4.939   5.547
 9379SOL    HW129036   5.812   4.992   5.535
 9379SOL    HW229037   5.704   4.937   5.644
 9380SOL     OW29038   5.897   5.792   6.487
 9380SOL    HW129039   5.806   5.756   6.507
 9380SOL    HW229040   5.930   5.845   6.565
 9381SOL     OW29041   1.897   0.937   0.377
 9381SOL    HW129042   1.941   0.957   0.464
 9381SOL    HW229043   1.864   1.023   0.337
 9382SOL     OW29044   5.666   1.907   2.714
 9382SOL    HW129045   5.622   1.989   2.676
 9382SOL    HW229046   5.596   1.837   2.732
 9383SOL     OW29047   5.308   5.710   5.781
 9383SOL    HW129048   5.393   5.761   5.792
 9383SOL    HW229049   5.281   5.671   5.870
 9384SOL     OW29050   4.099   6.382   2.011
 9384SOL    HW129051   4.013   6.409   2.054
 9384SOL    HW229052   4.091   6.390   1.911
 9385SOL     OW29053   3.564   0.795   4.300
 9385SOL    HW129054   3.491   0.779   4.366
 9385SOL    HW229055   3.649   0.818   4.349
 9386SOL     OW29056   3.729   0.115   4.596
 9386SOL    HW129057   3.688   0.111   4.505
 9386SOL    HW229058   3.779   0.201   4.607
 9387SOL     OW29059   3.947   6.300   0.702
 9387SOL    HW129060   3.857   6.256   0.692
 9387SOL    HW229061   3.996   6.258   0.778
 9388SOL     OW29062   6.315   6.544   2.470
 9388SOL    HW129063   6.411   6.518   2.480
 9388SOL    HW229064   6.295   6.619   2.533
 9389SOL     OW29065   3.577   1.378   6.848
 9389SOL    HW129066   3.566   1.319   6.768
 9389SOL    HW229067   3.511   1.350   6.918
 9390SOL     OW29068   2.553   6.714   2.001
 9390SOL    HW129069   2.621   6.788   2.003
 9390SOL    HW229070   2.589   6.635   2.049
 9391SOL     OW29071   0.650   1.286   5.298
 9391SOL    HW129072   0.699   1.289   5.211
 9391SOL    HW229073   0.553   1.307   5.283
 9392SOL     OW29074   1.227   6.430   4.357
 9392SOL    HW129075   1.193   6.337   4.369
 9392SOL    HW229076   1.198   6.466   4.269
 9393SOL     OW29077   3.781   2.169   5.506
 9393SOL    HW129078   3.782   2.228   5.425
 9393SOL    HW229079   3.797   2.224   5.587
 9394SOL     OW29080   5.571   2.792   2.209
 9394SOL    HW129081   5.583   2.890   2.192
 9394SOL    HW229082   5.484   2.762   2.169
 9395SOL     OW29083   2.063   2.625   6.517
 9395SOL    HW129084   2.117   2.684   6.457
 9395SOL    HW229085   2.020   2.681   6.589
 9396SOL     OW29086   6.291   0.289   6.885
 9396SOL    HW129087   6.387   0.264   6.872
 9396SOL    HW229088   6.251   0.229   6.955
 9397SOL     OW29089   3.123   1.491   0.988
 9397SOL    HW129090   3.140   1.417   0.923
 9397SOL    HW229091   3.092   1.452   1.075
 9398SOL     OW29092   2.080   1.199   0.436
 9398SOL    HW129093   2.122   1.111   0.417
 9398SOL    HW229094   2.018   1.190   0.514
 9399SOL     OW29095   6.684   0.675   5.361
 9399SOL    HW129096   6.675   0.591   5.309
 9399SOL    HW229097   6.752   0.663   5.434
 9400SOL     OW29098   4.579   1.991   3.648
 9400SOL    HW129099   4.492   1.958   3.610
 9400SOL    HW229100   4.623   2.050   3.580
 9401SOL     OW29101   4.301   0.444   2.718
 9401SOL    HW129102   4.267   0.533   2.748
 9401SOL    HW229103   4.401   0.448   2.708
 9402SOL     OW29104   2.044   5.005   0.115
 9402SOL    HW129105   1.989   5.083   0.144
 9402SOL    HW229106   1.986   4.924   0.107
 9403SOL     OW29107   5.603   0.804   4.523
 9403SOL    HW129108   5.599   0.870   4.598
 9403SOL    HW229109   5.539   0.729   4.541
 9404SOL     OW29110   0.830   4.003   5.190
 9404SOL    HW129111   0.816   4.070   5.263
 9404SOL    HW229112   0.741   3.974   5.154
 9405SOL     OW29113   6.790   0.377   0.804
 9405SOL    HW129114   6.717   0.420   0.749
 9405SOL    HW229115   6.862   0.445   0.822
 9406SOL     OW29116   6.899   1.035   5.375
 9406SOL    HW129117   6.911   1.073   5.467
 9406SOL    HW229118   6.809   1.061   5.341
 9407SOL     OW29119   3.732   6.040   2.790
 9407SOL    HW129120   3.810   6.065   2.847
 9407SOL    HW229121   3.722   6.107   2.716
 9408SOL     OW29122   3.932   1.748   6.720
 9408SOL    HW129123   3.964   1.655   6.737
 9408SOL    HW229124   3.975   1.784   6.638
 9409SOL     OW29125   5.991   3.681   3.382
 9409SOL    HW129126   5.977   3.728   3.469
 9409SOL    HW229127   6.089   3.669   3.367
 9410SOL     OW29128   4.764   6.486   1.963
 9410SOL    HW129129   4.803   6.416   1.904
 9410SOL    HW229130   4.715   6.443   2.039
 9411SOL     OW29131   4.809   5.272   1.249
 9411SOL    HW129132   4.792   5.349   1.187
 9411SOL    HW229133   4.724   5.244   1.292
 9412SOL     OW29134   6.776   3.146   2.075
 9412SOL    HW129135   6.738   3.083   2.143
 9412SOL    HW229136   6.858   3.189   2.111
 9413SOL     OW29137   3.555   5.422   4.631
 9413SOL    HW129138   3.609   5.412   4.715
 9413SOL    HW229139   3.523   5.332   4.602
 9414SOL     OW29140   2.736   1.587   2.275
 9414SOL    HW129141   2.822   1.557   2.316
 9414SOL    HW229142   2.752   1.672   2.224
 9415SOL     OW29143   2.792   1.140   2.501
 9415SOL    HW129144   2.750   1.112   2.414
 9415SOL    HW229145   2.885   1.174   2.483
 9416SOL     OW29146   1.268   2.121   1.093
 9416SOL    HW129147   1.347   2.065   1.117
 9416SOL    HW229148   1.204   2.122   1.170
 9417SOL     OW29149   2.347   6.914   4.584
 9417SOL    HW129150   2.435   6.867   4.598
 9417SOL    HW229151   2.363   7.003   4.541
 9418SOL     OW29152   4.215   4.366   0.786
 9418SOL    HW129153   4.192   4.292   0.721
 9418SOL    HW229154   4.205   4.332   0.879
 9419SOL     OW29155   3.413   5.523   5.094
 9419SOL    HW129156   3.455   5.591   5.033
 9419SOL    HW229157   3.455   5.434   5.078
 9420SOL     OW29158   0.948   1.456   4.442
 9420SOL    HW129159   0.900   1.393   4.380
 9420SOL    HW229160   1.042   1.426   4.454
 9421SOL     OW29161   1.824   5.301   4.823
 9421SOL    HW129162   1.820   5.381   4.764
 9421SOL    HW229163   1.851   5.221   4.768
 9422SOL     OW29164   3.831   1.165   2.307
 9422SOL    HW129165   3.878   1.079   2.325
 9422SOL    HW229166   3.793   1.164   2.215
 9423SOL     OW29167   4.813   0.452   4.519
 9423SOL    HW129168   4.871   0.490   4.447
 9423SOL    HW229169   4.718   0.449   4.487
 9424SOL     OW29170   2.969   6.542   4.464
 9424SOL    HW129171   3.025   6.585   4.394
 9424SOL    HW229172   2.872   6.547   4.438
 9425SOL     OW29173   1.093   5.003   3.769
 9425SOL    HW129174   1.115   5.038   3.678
 9425SOL    HW229175   1.089   4.903   3.766
 9426SOL     OW29176   3.985   6.368   0.195
 9426SOL    HW129177   4.053   6.393   0.264
 9426SOL    HW229178   3.969   6.270   0.198
 9427SOL     OW29179   2.975   4.843   4.233
 9427SOL    HW129180   3.070   4.867   4.210
 9427SOL    HW229181   2.964   4.840   4.332
 9428SOL     OW29182   4.433   5.993   2.487
 9428SOL    HW129183   4.506   5.996   2.556
 9428SOL    HW229184   4.350   6.033   2.525
 9429SOL     OW29185   6.864   2.930   2.652
 9429SOL    HW129186   6.921   3.012   2.650
 9429SOL    HW229187   6.913   2.854   2.609
 9430SOL     OW29188   6.572   6.826   2.114
 9430SOL    HW129189   6.587   6.853   2.019
 9430SOL    HW229190   6.589   6.728   2.124
 9431SOL     OW29191   6.282   4.407   1.243
 9431SOL    HW129192   6.209   4.347   1.210
 9431SOL    HW229193   6.358   4.405   1.178
 9432SOL     OW29194   6.884   6.598   4.542
 9432SOL    HW129195   6.861   6.524   4.606
 9432SOL    HW229196   6.885   6.563   4.449
 9433SOL     OW29197   2.706   4.719   4.738
 9433SOL    HW129198   2.737   4.752   4.827
 9433SOL    HW229199   2.640   4.645   4.751
 9434SOL     OW29200   5.014   5.197   3.154
 9434SOL    HW129201   5.005   5.151   3.242
 9434SOL    HW229202   5.083   5.150   3.099
 9435SOL     OW29203   1.513   1.507   5.114
 9435SOL    HW129204   1.595   1.456   5.091
 9435SOL    HW229205   1.519   1.540   5.208
 9436SOL     OW29206   1.919   2.543   6.120
 9436SOL    HW129207   1.993   2.491   6.078
 9436SOL    HW229208   1.917   2.636   6.084
 9437SOL     OW29209   0.637   5.264   4.010
 9437SOL    HW129210   0.618   5.297   4.102
 9437SOL    HW229211   0.563   5.291   3.948
 9438SOL     OW29212   1.156   6.878   2.151
 9438SOL    HW129213   1.179   6.950   2.087
 9438SOL    HW229214   1.083   6.821   2.113
 9439SOL     OW29215   0.953   2.653   1.657
 9439SOL    HW129216   0.897   2.667   1.575
 9439SOL    HW229217   0.988   2.741   1.689
 9440SOL     OW29218   4.898   5.840   5.251
 9440SOL    HW129219   4.974   5.777   5.266
 9440SOL    HW229220   4.896   5.869   5.156
 9441SOL     OW29221   1.668   5.437   4.623
 9441SOL    HW129222   1.688   5.349   4.580
 9441SOL    HW229223   1.598   5.425   4.693
 9442SOL     OW29224   0.635   3.617   1.069
 9442SOL    HW129225   0.725   3.576   1.085
 9442SOL    HW229226   0.573   3.594   1.144
 9443SOL     OW29227   1.978   3.464   1.309
 9443SOL    HW129228   1.922   3.387   1.278
 9443SOL    HW229229   2.046   3.431   1.375
 9444SOL     OW29230   0.575   4.073   5.875
 9444SOL    HW129231   0.653   4.013   5.860
 9444SOL    HW229232   0.598   4.166   5.845
 9445SOL     OW29233   5.978   3.542   1.296
 9445SOL    HW129234   5.892   3.587   1.323
 9445SOL    HW229235   6.055   3.598   1.326
 9446SOL     OW29236   6.010   4.950   1.172
 9446SOL    HW129237   6.064   4.866   1.167
 9446SOL    HW229238   6.054   5.015   1.233
 9447SOL     OW29239   6.114   2.599   0.884
 9447SOL    HW129240   6.055   2.531   0.841
 9447SOL    HW229241   6.202   2.602   0.836
 9448SOL     OW29242   5.870   6.214   0.580
 9448SOL    HW129243   5.921   6.229   0.495
 9448SOL    HW229244   5.931   6.227   0.658
 9449SOL     OW29245   6.939   5.383   5.298
 9449SOL    HW129246   6.913   5.373   5.202
 9449SOL    HW229247   6.912   5.301   5.349
 9450SOL     OW29248   2.833   5.029   4.422
 9450SOL    HW129249   2.762   5.088   4.460
 9450SOL    HW229250   2.860   5.064   4.332
 9451SOL     OW29251   4.132   4.123   6.064
 9451SOL    HW129252   4.180   4.039   6.038
 9451SOL    HW229253   4.054   4.137   6.002
 9452SOL     OW29254   2.872   4.276   1.192
 9452SOL    HW129255   2.926   4.321   1.264
 9452SOL    HW229256   2.777   4.308   1.197
 9453SOL     OW29257   3.232   4.879   2.297
 9453SOL    HW129258   3.231   4.780   2.312
 9453SOL    HW229259   3.317   4.906   2.251
 9454SOL     OW29260   2.311   2.343   5.223
 9454SOL    HW129261   2.224   2.294   5.235
 9454SOL    HW229262   2.353   2.358   5.312
 9455SOL     OW29263   3.075   1.830   2.047
 9455SOL    HW129264   3.088   1.929   2.039
 9455SOL    HW229265   3.004   1.800   1.984
 9456SOL     OW29266   1.518   3.177   1.169
 9456SOL    HW129267   1.512   3.079   1.148
 9456SOL    HW229268   1.434   3.223   1.139
 9457SOL     OW29269   6.911   3.323   0.648
 9457SOL    HW129270   6.973   3.296   0.722
 9457SOL    HW229271   6.945   3.407   0.605
 9458SOL     OW29272   0.456   5.980   4.576
 9458SOL    HW129273   0.536   6.009   4.523
 9458SOL    HW229274   0.484   5.959   4.670
 9459SOL     OW29275   4.553   5.965   1.612
 9459SOL    HW129276   4.636   5.919   1.580
 9459SOL    HW229277   4.538   5.945   1.709
 9460SOL     OW29278   1.122   2.508   5.120
 9460SOL    HW129279   1.060   2.571   5.167
 9460SOL    HW229280   1.184   2.465   5.186
 9461SOL     OW29281   1.467   0.406   2.848
 9461SOL    HW129282   1.446   0.448   2.759
 9461SOL    HW229283   1.506   0.475   2.909
 9462SOL     OW29284   0.620   3.589   2.919
 9462SOL    HW129285   0.614   3.561   3.015
 9462SOL    HW229286   0.697   3.543   2.876
 9463SOL     OW29287   5.131   1.793   6.824
 9463SOL    HW129288   5.038   1.760   6.836
 9463SOL    HW229289   5.165   1.767   6.733
 9464SOL     OW29290   4.487   6.745   6.147
 9464SOL    HW129291   4.553   6.795   6.203
 9464SOL    HW229292   4.535   6.689   6.080
 9465SOL     OW29293   5.817   0.263   4.521
 9465SOL    HW129294   5.772   0.192   4.574
 9465SOL    HW229295   5.851   0.224   4.435
 9466SOL     OW29296   2.245   1.972   6.751
 9466SOL    HW129297   2.183   2.050   6.751
 9466SOL    HW229298   2.318   1.987   6.818
 9467SOL     OW29299   1.931   3.383   1.913
 9467SOL    HW129300   2.015   3.412   1.959
 9467SOL    HW229301   1.874   3.332   1.976
 9468SOL     OW29302   0.121   2.271   6.312
 9468SOL    HW129303   0.151   2.263   6.217
 9468SOL    HW229304   0.185   2.223   6.371
 9469SOL     OW29305   6.448   4.068   2.262
 9469SOL    HW129306   6.404   4.007   2.327
 9469SOL    HW229307   6.426   4.039   2.169
 9470SOL     OW29308   5.423   3.557   1.378
 9470SOL    HW129309   5.358   3.532   1.449
 9470SOL    HW229310   5.422   3.657   1.365
 9471SOL     OW29311   0.168   2.267   6.022
 9471SOL    HW129312   0.090   2.329   6.019
 9471SOL    HW229313   0.166   2.207   5.942
 9472SOL     OW29314   6.648   3.275   4.699
 9472SOL    HW129315   6.733   3.325   4.683
 9472SOL    HW229316   6.620   3.284   4.794
 9473SOL     OW29317   3.758   4.933   4.546
 9473SOL    HW129318   3.710   4.902   4.463
 9473SOL    HW229319   3.697   4.992   4.599
 9474SOL     OW29320   3.979   5.160   3.102
 9474SOL    HW129321   3.996   5.256   3.126
 9474SOL    HW229322   4.026   5.139   3.016
 9475SOL     OW29323   1.339   3.590   1.026
 9475SOL    HW129324   1.356   3.536   0.943
 9475SOL    HW229325   1.419   3.584   1.086
 9476SOL     OW29326   4.081   3.710   5.500
 9476SOL    HW129327   4.076   3.784   5.567
 9476SOL    HW229328   4.110   3.746   5.411
 9477SOL     OW29329   1.190   2.936   0.779
 9477SOL    HW129330   1.103   2.966   0.818
 9477SOL    HW229331   1.198   2.971   0.686
 9478SOL     OW29332   5.342   4.769   4.968
 9478SOL    HW129333   5.335   4.768   4.868
 9478SOL    HW229334   5.283   4.698   5.006
 9479SOL     OW29335   6.477   6.054   5.505
 9479SOL    HW129336   6.500   6.012   5.417
 9479SOL    HW229337   6.490   5.987   5.578
 9480SOL     OW29338   5.953   4.477   0.060
 9480SOL    HW129339   5.902   4.420   0.125
 9480SOL    HW229340   5.916   4.463   6.984
 9481SOL     OW29341   6.342   3.649   2.075
 9481SOL    HW129342   6.316   3.654   2.171
 9481SOL    HW229343   6.416   3.583   2.063
 9482SOL     OW29344   3.866   0.216   2.576
 9482SOL    HW129345   3.767   0.211   2.561
 9482SOL    HW229346   3.885   0.211   2.674
 9483SOL     OW29347   1.381   1.503   0.705
 9483SOL    HW129348   1.388   1.406   0.683
 9483SOL    HW229349   1.296   1.519   0.755
 9484SOL     OW29350   6.032   1.361   2.658
 9484SOL    HW129351   5.981   1.388   2.741
 9484SOL    HW229352   6.054   1.443   2.605
 9485SOL     OW29353   0.723   0.485   2.800
 9485SOL    HW129354   0.818   0.472   2.774
 9485SOL    HW229355   0.699   0.420   2.872
 9486SOL     OW29356   3.081   6.205   2.293
 9486SOL    HW129357   3.107   6.173   2.384
 9486SOL    HW229358   2.987   6.178   2.273
 9487SOL     OW29359   3.191   3.211   3.760
 9487SOL    HW129360   3.151   3.202   3.669
 9487SOL    HW229361   3.271   3.270   3.755
 9488SOL     OW29362   1.629   0.165   1.307
 9488SOL    HW129363   1.540   0.162   1.261
 9488SOL    HW229364   1.642   0.081   1.359
 9489SOL     OW29365   3.563   4.176   0.630
 9489SOL    HW129366   3.574   4.138   0.722
 9489SOL    HW229367   3.555   4.102   0.563
 9490SOL     OW29368   5.693   1.314   0.152
 9490SOL    HW129369   5.683   1.216   0.170
 9490SOL    HW229370   5.613   1.347   0.101
 9491SOL     OW29371   6.415   5.260   6.169
 9491SOL    HW129372   6.329   5.309   6.162
 9491SOL    HW229373   6.399   5.167   6.200
 9492SOL     OW29374   3.050   3.796   1.772
 9492SOL    HW129375   3.038   3.700   1.749
 9492SOL    HW229376   2.979   3.824   1.837
 9493SOL     OW29377   5.418   6.320   2.971
 9493SOL    HW129378   5.504   6.293   3.014
 9493SOL    HW229379   5.431   6.326   2.872
 9494SOL     OW29380   4.201   3.406   5.919
 9494SOL    HW129381   4.200   3.452   5.830
 9494SOL    HW229382   4.228   3.311   5.907
 9495SOL     OW29383   6.043   2.675   5.323
 9495SOL    HW129384   6.098   2.679   5.407
 9495SOL    HW229385   6.069   2.751   5.264
 9496SOL     OW29386   5.589   3.986   0.121
 9496SOL    HW129387   5.566   4.080   0.146
 9496SOL    HW229388   5.646   3.945   0.193
 9497SOL     OW29389   6.753   6.608   5.846
 9497SOL    HW129390   6.691   6.685   5.829
 9497SOL    HW229391   6.847   6.637   5.827
 9498SOL     OW29392   4.214   0.288   5.617
 9498SOL    HW129393   4.308   0.303   5.586
 9498SOL    HW229394   4.182   0.199   5.584
 9499SOL     OW29395   4.779   4.318   6.052
 9499SOL    HW129396   4.778   4.220   6.071
 9499SOL    HW229397   4.756   4.334   5.956
 9500SOL     OW29398   4.833   5.662   2.058
 9500SOL    HW129399   4.873   5.618   2.138
 9500SOL    HW229400   4.902   5.717   2.011
 9501SOL     OW29401   3.109   1.635   4.722
 9501SOL    HW129402   3.197   1.618   4.766
 9501SOL    HW229403   3.123   1.648   4.624
 9502SOL     OW29404   5.558   3.357   5.448
 9502SOL    HW129405   5.492   3.412   5.396
 9502SOL    HW229406   5.510   3.283   5.495
 9503SOL     OW29407   1.474   6.268   1.129
 9503SOL    HW129408   1.398   6.213   1.162
 9503SOL    HW229409   1.529   6.215   1.065
 9504SOL     OW29410   0.635   3.161   6.530
 9504SOL    HW129411   0.538   3.134   6.526
 9504SOL    HW229412   0.692   3.079   6.521
 9505SOL     OW29413   5.487   3.751   2.638
 9505SOL    HW129414   5.567   3.788   2.590
 9505SOL    HW229415   5.451   3.819   2.701
 9506SOL     OW29416   6.331   2.935   0.434
 9506SOL    HW129417   6.378   2.929   0.523
 9506SOL    HW229418   6.393   2.975   0.367
 9507SOL     OW29419   0.806   2.280   3.883
 9507SOL    HW129420   0.782   2.271   3.786
 9507SOL    HW229421   0.870   2.207   3.908
 9508SOL     OW29422   4.955   2.035   0.194
 9508SOL    HW129423   4.869   1.984   0.194
 9508SOL    HW229424   4.984   2.050   0.289
 9509SOL     OW29425   2.471   6.676   5.231
 9509SOL    HW129426   2.471   6.608   5.304
 9509SOL    HW229427   2.565   6.705   5.212
 9510SOL     OW29428   6.431   4.487   3.121
 9510SOL    HW129429   6.407   4.391   3.132
 9510SOL    HW229430   6.470   4.521   3.207
 9511SOL     OW29431   1.599   1.636   0.777
 9511SOL    HW129432   1.648   1.635   0.690
 9511SOL    HW229433   1.514   1.584   0.769
 9512SOL     OW29434   1.535   2.647   4.481
 9512SOL    HW129435   1.541   2.548   4.482
 9512SOL    HW229436   1.447   2.675   4.444
 9513SOL     OW29437   2.391   4.496   3.706
 9513SOL    HW129438   2.432   4.572   3.757
 9513SOL    HW229439   2.339   4.439   3.769
 9514SOL     OW29440   2.250   2.853   6.455
 9514SOL    HW129441   2.263   2.951   6.444
 9514SOL    HW229442   2.316   2.817   6.521
 9515SOL     OW29443   2.516   6.014   6.027
 9515SOL    HW129444   2.523   6.071   5.946
 9515SOL    HW229445   2.484   5.922   6.001
 9516SOL     OW29446   5.574   4.097   4.776
 9516SOL    HW129447   5.588   4.188   4.738
 9516SOL    HW229448   5.658   4.043   4.765
 9517SOL     OW29449   0.763   6.042   2.025
 9517SOL    HW129450   0.701   5.966   2.045
 9517SOL    HW229451   0.781   6.094   2.109
 9518SOL     OW29452   0.788   2.904   5.452
 9518SOL    HW129453   0.697   2.875   5.481
 9518SOL    HW229454   0.857   2.865   5.513
 9519SOL     OW29455   3.703   3.198   3.008
 9519SOL    HW129456   3.734   3.146   3.088
 9519SOL    HW229457   3.696   3.295   3.033
 9520SOL     OW29458   4.994   0.244   5.975
 9520SOL    HW129459   4.980   0.343   5.967
 9520SOL    HW229460   5.084   0.220   5.940
 9521SOL     OW29461   3.330   0.702   0.829
 9521SOL    HW129462   3.234   0.677   0.841
 9521SOL    HW229463   3.343   0.742   0.738
 9522SOL     OW29464   3.405   6.502   2.434
 9522SOL    HW129465   3.422   6.508   2.336
 9522SOL    HW229466   3.386   6.408   2.460
 9523SOL     OW29467   2.867   4.801   3.993
 9523SOL    HW129468   2.923   4.718   3.988
 9523SOL    HW229469   2.869   4.836   4.087
 9524SOL     OW29470   2.563   4.023   0.961
 9524SOL    HW129471   2.560   4.089   1.035
 9524SOL    HW229472   2.658   3.999   0.942
 9525SOL     OW29473   2.289   3.137   5.381
 9525SOL    HW129474   2.363   3.110   5.321
 9525SOL    HW229475   2.326   3.180   5.463
 9526SOL     OW29476   5.413   5.155   0.230
 9526SOL    HW129477   5.512   5.150   0.247
 9526SOL    HW229478   5.367   5.079   0.275
 9527SOL     OW29479   4.181   0.394   3.619
 9527SOL    HW129480   4.220   0.303   3.603
 9527SOL    HW229481   4.089   0.385   3.658
 9528SOL     OW29482   5.611   2.220   0.726
 9528SOL    HW129483   5.677   2.216   0.801
 9528SOL    HW229484   5.642   2.285   0.658
 9529SOL     OW29485   6.255   1.275   1.251
 9529SOL    HW129486   6.325   1.268   1.181
 9529SOL    HW229487   6.175   1.221   1.224
 9530SOL     OW29488   1.416   5.787   3.647
 9530SOL    HW129489   1.415   5.839   3.561
 9530SOL    HW229490   1.328   5.796   3.693
 9531SOL     OW29491   3.548   5.557   2.588
 9531SOL    HW129492   3.599   5.538   2.672
 9531SOL    HW229493   3.557   5.479   2.526
 9532SOL     OW29494   6.800   4.945   2.961
 9532SOL    HW129495   6.875   4.932   3.025
 9532SOL    HW229496   6.713   4.926   3.007
 9533SOL     OW29497   1.856   3.720   3.413
 9533SOL    HW129498   1.834   3.679   3.502
 9533SOL    HW229499   1.921   3.661   3.364
 9534SOL     OW29500   5.680   5.190   4.359
 9534SOL    HW129501   5.719   5.212   4.270
 9534SOL    HW229502   5.753   5.159   4.420
 9535SOL     OW29503   0.747   1.709   5.456
 9535SOL    HW129504   0.746   1.809   5.452
 9535SOL    HW229505   0.818   1.674   5.395
 9536SOL     OW29506   3.673   4.250   5.126
 9536SOL    HW129507   3.699   4.342   5.155
 9536SOL    HW229508   3.751   4.205   5.082
 9537SOL     OW29509   0.369   1.614   3.617
 9537SOL    HW129510   0.466   1.601   3.638
 9537SOL    HW229511   0.315   1.544   3.663
 9538SOL     OW29512   4.343   0.454   5.331
 9538SOL    HW129513   4.409   0.498   5.271
 9538SOL    HW229514   4.381   0.448   5.423
 9539SOL     OW29515   3.281   3.451   1.823
 9539SOL    HW129516   3.300   3.435   1.919
 9539SOL    HW229517   3.355   3.505   1.782
 9540SOL     OW29518   4.258   4.742   3.753
 9540SOL    HW129519   4.161   4.746   3.777
 9540SOL    HW229520   4.313   4.755   3.836
 9541SOL     OW29521   2.290   6.068   5.715
 9541SOL    HW129522   2.317   5.979   5.752
 9541SOL    HW229523   2.203   6.097   5.756
 9542SOL     OW29524   6.155   4.120   4.258
 9542SOL    HW129525   6.134   4.043   4.319
 9542SOL    HW229526   6.070   4.152   4.216
 9543SOL     OW29527   2.646   6.979   6.226
 9543SOL    HW129528   2.618   6.901   6.171
 9543SOL    HW229529   2.743   7.000   6.207
 9544SOL     OW29530   5.889   3.482   4.359
 9544SOL    HW129531   5.965   3.479   4.295
 9544SOL    HW229532   5.918   3.526   4.444
 9545SOL     OW29533   0.632   4.534   1.683
 9545SOL    HW129534   0.598   4.441   1.700
 9545SOL    HW229535   0.693   4.561   1.757
 9546SOL     OW29536   2.545   2.676   0.213
 9546SOL    HW129537   2.628   2.695   0.265
 9546SOL    HW229538   2.564   2.604   0.146
 9547SOL     OW29539   3.915   6.812   3.873
 9547SOL    HW129540   3.942   6.718   3.849
 9547SOL    HW229541   3.994   6.863   3.906
 9548SOL     OW29542   1.208   4.499   6.868
 9548SOL    HW129543   1.129   4.560   6.862
 9548SOL    HW229544   1.292   4.553   6.872
 9549SOL     OW29545   5.023   2.275   0.939
 9549SOL    HW129546   5.062   2.261   1.030
 9549SOL    HW229547   5.012   2.373   0.922
 9550SOL     OW29548   5.180   3.030   1.551
 9550SOL    HW129549   5.244   3.034   1.474
 9550SOL    HW229550   5.107   3.097   1.538
 9551SOL     OW29551   6.243   3.580   6.380
 9551SOL    HW129552   6.226   3.548   6.474
 9551SOL    HW229553   6.311   3.522   6.336
 9552SOL     OW29554   3.125   1.726   0.085
 9552SOL    HW129555   3.061   1.756   0.155
 9552SOL    HW229556   3.074   1.688   0.007
 9553SOL     OW29557   4.975   1.549   6.234
 9553SOL    HW129558   4.884   1.549   6.192
 9553SOL    HW229559   5.042   1.580   6.167
 9554SOL     OW29560   2.646   0.379   3.749
 9554SOL    HW129561   2.713   0.420   3.810
 9554SOL    HW229562   2.693   0.322   3.681
 9555SOL     OW29563   6.628   0.364   3.796
 9555SOL    HW129564   6.538   0.384   3.833
 9555SOL    HW229565   6.696   0.362   3.870
 9556SOL     OW29566   1.902   4.782   6.719
 9556SOL    HW129567   1.850   4.867   6.732
 9556SOL    HW229568   1.839   4.704   6.717
 9557SOL     OW29569   4.701   0.790   1.929
 9557SOL    HW129570   4.795   0.797   1.895
 9557SOL    HW229571   4.696   0.826   2.022
 9558SOL     OW29572   4.743   6.841   6.871
 9558SOL    HW129573   4.806   6.905   6.915
 9558SOL    HW229574   4.753   6.846   6.772
 9559SOL     OW29575   1.764   4.239   0.250
 9559SOL    HW129576   1.818   4.276   0.325
 9559SOL    HW229577   1.738   4.144   0.271
 9560SOL     OW29578   3.302   6.752   2.062
 9560SOL    HW129579   3.240   6.745   1.984
 9560SOL    HW229580   3.397   6.745   2.030
 9561SOL     OW29581   1.062   0.499   0.533
 9561SOL    HW129582   0.968   0.527   0.548
 9561SOL    HW229583   1.124   0.561   0.582
 9562SOL     OW29584   3.018   6.018   3.092
 9562SOL    HW129585   3.115   6.039   3.091
 9562SOL    HW229586   2.974   6.063   3.170
 9563SOL     OW29587   0.604   6.352   1.019
 9563SOL    HW129588   0.609   6.290   0.941
 9563SOL    HW229589   0.696   6.367   1.055
 9564SOL     OW29590   1.123   0.762   7.014
 9564SOL    HW129591   1.097   0.728   6.924
 9564SOL    HW229592   1.214   0.804   7.009
 9565SOL     OW29593   3.029   1.761   3.829
 9565SOL    HW129594   2.962   1.831   3.806
 9565SOL    HW229595   3.070   1.781   3.918
 9566SOL     OW29596   3.118   0.610   6.945
 9566SOL    HW129597   3.177   0.568   6.876
 9566SOL    HW229598   3.154   0.590   0.021
 9567SOL     OW29599   6.872   3.734   1.496
 9567SOL    HW129600   6.960   3.741   1.448
 9567SOL    HW229601   6.888   3.705   1.590
 9568SOL     OW29602   4.909   1.342   6.814
 9568SOL    HW129603   4.981   1.327   6.746
 9568SOL    HW229604   4.943   1.317   6.905
 9569SOL     OW29605   5.577   1.069   1.843
 9569SOL    HW129606   5.563   1.100   1.937
 9569SOL    HW229607   5.660   1.013   1.839
 9570SOL     OW29608   0.216   3.199   1.607
 9570SOL    HW129609   0.127   3.188   1.652
 9570SOL    HW229610   0.204   3.194   1.508
 9571SOL     OW29611   2.289   2.317   6.883
 9571SOL    HW129612   2.217   2.334   6.950
 9571SOL    HW229613   2.247   2.295   6.795
 9572SOL     OW29614   2.257   4.289   3.857
 9572SOL    HW129615   2.235   4.216   3.793
 9572SOL    HW229616   2.178   4.308   3.915
 9573SOL     OW29617   6.417   0.879   4.410
 9573SOL    HW129618   6.391   0.854   4.317
 9573SOL    HW229619   6.361   0.956   4.441
 9574SOL     OW29620   3.537   3.137   1.211
 9574SOL    HW129621   3.566   3.045   1.185
 9574SOL    HW229622   3.437   3.144   1.204
 9575SOL     OW29623   6.374   6.228   1.038
 9575SOL    HW129624   6.293   6.198   1.088
 9575SOL    HW229625   6.383   6.174   0.954
 9576SOL     OW29626   1.267   6.646   6.922
 9576SOL    HW129627   1.301   6.564   6.968
 9576SOL    HW229628   1.333   6.675   6.852
 9577SOL     OW29629   5.991   5.307   2.376
 9577SOL    HW129630   5.959   5.402   2.382
 9577SOL    HW229631   5.934   5.249   2.434
 9578SOL     OW29632   2.118   3.183   2.848
 9578SOL    HW129633   2.128   3.256   2.916
 9578SOL    HW229634   2.119   3.223   2.756
 9579SOL     OW29635   5.683   5.742   1.847
 9579SOL    HW129636   5.670   5.813   1.916
 9579SOL    HW229637   5.777   5.745   1.812
 9580SOL     OW29638   5.465   4.734   2.810
 9580SOL    HW129639   5.373   4.734   2.848
 9580SOL    HW229640   5.521   4.667   2.858
 9581SOL     OW29641   6.417   1.139   0.038
 9581SOL    HW129642   6.319   1.121   0.026
 9581SOL    HW229643   6.453   1.078   0.109
 9582SOL     OW29644   4.816   6.076   4.330
 9582SOL    HW129645   4.833   6.114   4.421
 9582SOL    HW229646   4.840   6.143   4.260
 9583SOL     OW29647   3.680   4.515   1.681
 9583SOL    HW129648   3.663   4.597   1.735
 9583SOL    HW229649   3.704   4.541   1.587
 9584SOL     OW29650   2.271   5.598   4.643
 9584SOL    HW129651   2.362   5.576   4.608
 9584SOL    HW229652   2.225   5.514   4.672
 9585SOL     OW29653   4.309   5.861   0.992
 9585SOL    HW129654   4.244   5.827   0.924
 9585SOL    HW229655   4.289   5.956   1.013
 9586SOL     OW29656   4.289   4.858   2.293
 9586SOL    HW129657   4.196   4.820   2.293
 9586SOL    HW229658   4.351   4.792   2.335
 9587SOL     OW29659   2.770   5.829   1.800
 9587SOL    HW129660   2.683   5.873   1.826
 9587SOL    HW229661   2.841   5.853   1.866
 9588SOL     OW29662   6.325   5.351   0.490
 9588SOL    HW129663   6.332   5.261   0.533
 9588SOL    HW229664   6.232   5.387   0.503
 9589SOL     OW29665   1.608   4.118   6.350
 9589SOL    HW129666   1.689   4.060   6.349
 9589SOL    HW229667   1.554   4.100   6.267
 9590SOL     OW29668   5.822   1.306   1.119
 9590SOL    HW129669   5.786   1.317   1.027
 9590SOL    HW229670   5.758   1.345   1.185
 9591SOL     OW29671   4.052   0.408   6.740
 9591SOL    HW129672   4.022   0.343   6.810
 9591SOL    HW229673   4.000   0.393   6.656
 9592SOL     OW29674   2.454   6.261   5.837
 9592SOL    HW129675   2.428   6.303   5.924
 9592SOL    HW229676   2.378   6.204   5.804
 9593SOL     OW29677   1.968   1.600   4.385
 9593SOL    HW129678   1.973   1.501   4.371
 9593SOL    HW229679   2.051   1.632   4.430
 9594SOL     OW29680   0.330   6.493   3.644
 9594SOL    HW129681   0.234   6.516   3.629
 9594SOL    HW229682   0.354   6.507   3.740
 9595SOL     OW29683   0.712   3.452   3.385
 9595SOL    HW129684   0.695   3.418   3.478
 9595SOL    HW229685   0.804   3.492   3.381
 9596SOL     OW29686   0.517   6.931   1.151
 9596SOL    HW129687   0.496   6.855   1.089
 9596SOL    HW229688   0.506   0.002   1.102
 9597SOL     OW29689   1.159   3.315   2.389
 9597SOL    HW129690   1.180   3.255   2.312
 9597SOL    HW229691   1.069   3.293   2.425
 9598SOL     OW29692   1.451   3.948   3.762
 9598SOL    HW129693   1.369   3.900   3.730
 9598SOL    HW229694   1.511   3.884   3.810
 9599SOL     OW29695   4.238   0.157   3.804
 9599SOL    HW129696   4.156   0.127   3.756
 9599SOL    HW229697   4.242   0.113   3.894
 9600SOL     OW29698   3.133   1.040   1.497
 9600SOL    HW129699   3.142   1.111   1.566
 9600SOL    HW229700   3.075   0.966   1.532
 9601SOL     OW29701   0.236   3.948   1.499
 9601SOL    HW129702   0.266   4.040   1.521
 9601SOL    HW229703   0.297   3.881   1.542
 9602SOL     OW29704   4.319   5.032   5.672
 9602SOL    HW129705   4.375   5.045   5.591
 9602SOL    HW229706   4.328   5.111   5.732
 9603SOL     OW29707   5.115   5.637   5.305
 9603SOL    HW129708   5.137   5.588   5.390
 9603SOL    HW229709   5.190   5.698   5.281
 9604SOL     OW29710   5.356   6.705   0.486
 9604SOL    HW129711   5.421   6.709   0.410
 9604SOL    HW229712   5.335   6.610   0.507
 9605SOL     OW29713   6.491   6.167   2.951
 9605SOL    HW129714   6.468   6.258   2.916
 9605SOL    HW229715   6.483   6.167   3.050
 9606SOL     OW29716   1.630   1.837   6.541
 9606SOL    HW129717   1.706   1.863   6.601
 9606SOL    HW229718   1.544   1.841   6.592
 9607SOL     OW29719   3.286   2.858   6.016
 9607SOL    HW129720   3.250   2.881   6.106
 9607SOL    HW229721   3.381   2.829   6.025
 9608SOL     OW29722   6.270   3.737   3.612
 9608SOL    HW129723   6.256   3.820   3.557
 9608SOL    HW229724   6.250   3.757   3.708
 9609SOL     OW29725   4.525   2.642   6.408
 9609SOL    HW129726   4.450   2.632   6.474
 9609SOL    HW229727   4.490   2.627   6.315
 9610SOL     OW29728   1.122   4.214   3.112
 9610SOL    HW129729   1.098   4.146   3.044
 9610SOL    HW229730   1.222   4.218   3.123
 9611SOL     OW29731   1.258   0.106   0.557
 9611SOL    HW129732   1.320   0.116   0.480
 9611SOL    HW229733   1.164   0.102   0.524
 9612SOL     OW29734   0.575   3.059   3.397
 9612SOL    HW129735   0.524   3.138   3.430
 9612SOL    HW229736   0.664   3.056   3.442
 9613SOL     OW29737   5.705   5.760   3.438
 9613SOL    HW129738   5.723   5.712   3.524
 9613SOL    HW229739   5.678   5.854   3.457
 9614SOL     OW29740   4.859   2.485   3.231
 9614SOL    HW129741   4.774   2.537   3.236
 9614SOL    HW229742   4.921   2.529   3.166
 9615SOL     OW29743   2.567   3.251   1.086
 9615SOL    HW129744   2.651   3.231   1.037
 9615SOL    HW229745   2.532   3.341   1.057
 9616SOL     OW29746   4.106   2.993   0.054
 9616SOL    HW129747   4.129   3.036   6.983
 9616SOL    HW229748   4.166   2.914   0.069
 9617SOL     OW29749   2.337   2.309   3.915
 9617SOL    HW129750   2.394   2.388   3.937
 9617SOL    HW229751   2.252   2.340   3.871
 9618SOL     OW29752   2.712   1.287   0.816
 9618SOL    HW129753   2.753   1.234   0.891
 9618SOL    HW229754   2.663   1.225   0.755
 9619SOL     OW29755   2.761   1.126   4.647
 9619SOL    HW129756   2.686   1.142   4.583
 9619SOL    HW229757   2.806   1.212   4.669
 9620SOL     OW29758   5.951   0.330   5.671
 9620SOL    HW129759   5.969   0.367   5.580
 9620SOL    HW229760   5.887   0.391   5.719
 9621SOL     OW29761   1.749   2.724   3.322
 9621SOL    HW129762   1.845   2.751   3.330
 9621SOL    HW229763   1.690   2.798   3.355
 9622SOL     OW29764   5.756   0.291   1.432
 9622SOL    HW129765   5.752   0.210   1.491
 9622SOL    HW229766   5.842   0.291   1.381
 9623SOL     OW29767   2.984   3.734   6.298
 9623SOL    HW129768   3.047   3.811   6.295
 9623SOL    HW229769   2.993   3.686   6.386
 9624SOL     OW29770   6.246   3.563   3.309
 9624SOL    HW129771   6.268   3.498   3.236
 9624SOL    HW229772   6.284   3.530   3.395
 9625SOL     OW29773   6.063   6.054   0.198
 9625SOL    HW129774   5.974   6.036   0.155
 9625SOL    HW229775   6.086   5.979   0.260
 9626SOL     OW29776   3.199   6.833   6.548
 9626SOL    HW129777   3.123   6.777   6.582
 9626SOL    HW229778   3.211   6.912   6.609
 9627SOL     OW29779   1.608   6.513   6.772
 9627SOL    HW129780   1.572   6.447   6.706
 9627SOL    HW229781   1.561   6.502   6.860
 9628SOL     OW29782   4.049   6.107   1.970
 9628SOL    HW129783   4.097   6.194   1.960
 9628SOL    HW229784   4.000   6.106   2.057
 9629SOL     OW29785   2.728   6.767   1.087
 9629SOL    HW129786   2.689   6.835   1.149
 9629SOL    HW229787   2.824   6.751   1.111
 9630SOL     OW29788   6.540   0.887   6.069
 9630SOL    HW129789   6.453   0.929   6.092
 9630SOL    HW229790   6.536   0.850   5.976
 9631SOL     OW29791   5.833   5.999   0.025
 9631SOL    HW129792   5.862   5.926   6.980
 9631SOL    HW229793   5.776   5.962   0.099
 9632SOL     OW29794   1.408   6.059   1.946
 9632SOL    HW129795   1.435   6.091   2.037
 9632SOL    HW229796   1.459   6.110   1.877
 9633SOL     OW29797   6.479   5.344   6.973
 9633SOL    HW129798   6.481   5.393   6.886
 9633SOL    HW229799   6.413   5.269   6.968
 9634SOL     OW29800   0.899   5.868   4.654
 9634SOL    HW129801   0.817   5.870   4.712
 9634SOL    HW229802   0.955   5.949   4.672
 9635SOL     OW29803   1.767   5.404   5.463
 9635SOL    HW129804   1.819   5.366   5.387
 9635SOL    HW229805   1.673   5.371   5.459
 9636SOL     OW29806   4.189   1.309   6.611
 9636SOL    HW129807   4.156   1.229   6.562
 9636SOL    HW229808   4.202   1.384   6.546
 9637SOL     OW29809   2.374   1.217   0.119
 9637SOL    HW129810   2.304   1.277   0.081
 9637SOL    HW229811   2.361   1.123   0.086
 9638SOL     OW29812   6.647   2.479   5.537
 9638SOL    HW129813   6.552   2.453   5.520
 9638SOL    HW229814   6.689   2.509   5.452
 9639SOL     OW29815   4.166   1.036   2.929
 9639SOL    HW129816   4.099   1.110   2.923
 9639SOL    HW229817   4.233   1.046   2.856
 9640SOL     OW29818   2.135   2.435   1.990
 9640SOL    HW129819   2.170   2.364   2.051
 9640SOL    HW229820   2.211   2.487   1.951
 9641SOL     OW29821   6.042   5.863   0.393
 9641SOL    HW129822   6.038   5.861   0.493
 9641SOL    HW229823   5.984   5.790   0.357
 9642SOL     OW29824   3.251   0.347   4.361
 9642SOL    HW129825   3.194   0.429   4.366
 9642SOL    HW229826   3.347   0.373   4.350
 9643SOL     OW29827   4.372   4.786   3.506
 9643SOL    HW129828   4.453   4.838   3.532
 9643SOL    HW229829   4.329   4.749   3.588
 9644SOL     OW29830   2.510   1.738   6.562
 9644SOL    HW129831   2.431   1.797   6.545
 9644SOL    HW229832   2.591   1.781   6.522
 9645SOL     OW29833   2.909   5.326   5.261
 9645SOL    HW129834   2.997   5.336   5.307
 9645SOL    HW229835   2.841   5.293   5.327
 9646SOL     OW29836   4.251   5.000   3.366
 9646SOL    HW129837   4.281   4.908   3.393
 9646SOL    HW229838   4.164   5.021   3.411
 9647SOL     OW29839   6.541   2.629   0.441
 9647SOL    HW129840   6.476   2.562   0.405
 9647SOL    HW229841   6.634   2.602   0.416
 9648SOL     OW29842   4.446   2.915   0.916
 9648SOL    HW129843   4.461   2.990   0.851
 9648SOL    HW229844   4.361   2.931   0.966
 9649SOL     OW29845   2.276   5.676   0.517
 9649SOL    HW129846   2.346   5.631   0.463
 9649SOL    HW229847   2.214   5.726   0.456
 9650SOL     OW29848   0.004   0.094   1.943
 9650SOL    HW129849   6.957   0.148   1.999
 9650SOL    HW229850   6.968   0.023   1.894
 9651SOL     OW29851   0.232   2.048   5.451
 9651SOL    HW129852   0.322   2.054   5.494
 9651SOL    HW229853   0.228   2.111   5.374
 9652SOL     OW29854   0.551   5.606   2.666
 9652SOL    HW129855   0.501   5.560   2.593
 9652SOL    HW229856   0.526   5.564   2.754
 9653SOL     OW29857   6.114   5.057   4.285
 9653SOL    HW129858   6.138   5.086   4.378
 9653SOL    HW229859   6.016   5.035   4.282
 9654SOL     OW29860   2.286   2.784   2.366
 9654SOL    HW129861   2.373   2.786   2.318
 9654SOL    HW229862   2.230   2.708   2.332
 9655SOL     OW29863   5.841   2.761   6.763
 9655SOL    HW129864   5.842   2.773   6.862
 9655SOL    HW229865   5.863   2.667   6.740
 9656SOL     OW29866   3.577   0.698   2.635
 9656SOL    HW129867   3.621   0.627   2.690
 9656SOL    HW229868   3.590   0.787   2.679
 9657SOL     OW29869   0.125   0.140   5.020
 9657SOL    HW129870   0.074   0.134   5.106
 9657SOL    HW229871   0.174   0.227   5.016
 9658SOL     OW29872   6.204   2.493   2.904
 9658SOL    HW129873   6.198   2.395   2.890
 9658SOL    HW229874   6.114   2.534   2.895
 9659SOL     OW29875   0.819   5.258   6.995
 9659SOL    HW129876   0.799   5.305   6.909
 9659SOL    HW229877   0.869   5.174   6.977
 9660SOL     OW29878   0.500   5.395   0.265
 9660SOL    HW129879   0.496   5.493   0.249
 9660SOL    HW229880   0.407   5.359   0.276
 9661SOL     OW29881   4.350   6.610   1.439
 9661SOL    HW129882   4.321   6.705   1.445
 9661SOL    HW229883   4.379   6.589   1.346
 9662SOL     OW29884   4.863   0.784   4.091
 9662SOL    HW129885   4.818   0.728   4.161
 9662SOL    HW229886   4.960   0.794   4.113
 9663SOL     OW29887   2.393   5.858   3.093
 9663SOL    HW129888   2.474   5.822   3.046
 9663SOL    HW229889   2.400   5.839   3.191
 9664SOL     OW29890   2.915   5.946   1.564
 9664SOL    HW129891   2.923   5.909   1.472
 9664SOL    HW229892   2.866   5.881   1.622
 9665SOL     OW29893   5.091   3.897   4.582
 9665SOL    HW129894   5.043   3.983   4.601
 9665SOL    HW229895   5.185   3.903   4.616
 9666SOL     OW29896   5.864   4.952   4.269
 9666SOL    HW129897   5.865   4.876   4.334
 9666SOL    HW229898   5.873   4.917   4.176
 9667SOL     OW29899   4.140   3.598   3.791
 9667SOL    HW129900   4.152   3.592   3.692
 9667SOL    HW229901   4.140   3.693   3.820
 9668SOL     OW29902   0.409   1.126   4.986
 9668SOL    HW129903   0.503   1.105   4.958
 9668SOL    HW229904   0.365   1.180   4.914
 9669SOL     OW29905   1.800   5.738   0.419
 9669SOL    HW129906   1.851   5.683   0.486
 9669SOL    HW229907   1.832   5.832   0.422
 9670SOL     OW29908   5.668   4.728   0.267
 9670SOL    HW129909   5.701   4.762   0.179
 9670SOL    HW229910   5.601   4.655   0.252
 9671SOL     OW29911   0.089   0.101   6.470
 9671SOL    HW129912   0.123   0.045   6.546
 9671SOL    HW229913   0.156   0.171   6.448
 9672SOL     OW29914   1.071   6.489   5.084
 9672SOL    HW129915   1.062   6.587   5.101
 9672SOL    HW229916   1.147   6.473   5.021
 9673SOL     OW29917   2.352   2.649   6.295
 9673SOL    HW129918   2.321   2.727   6.350
 9673SOL    HW229919   2.329   2.665   6.199
 9674SOL     OW29920   2.664   0.069   1.944
 9674SOL    HW129921   2.587   0.096   2.002
 9674SOL    HW229922   2.717   7.013   1.991
 9675SOL     OW29923   0.200   2.830   2.022
 9675SOL    HW129924   0.276   2.894   2.009
 9675SOL    HW229925   0.236   2.741   2.049
 9676SOL     OW29926   0.402   3.741   4.678
 9676SOL    HW129927   0.339   3.815   4.701
 9676SOL    HW229928   0.350   3.658   4.659
 9677SOL     OW29929   2.075   3.670   4.911
 9677SOL    HW129930   2.116   3.583   4.939
 9677SOL    HW229931   2.030   3.659   4.822
 9678SOL     OW29932   3.820   2.976   3.172
 9678SOL    HW129933   3.847   2.920   3.250
 9678SOL    HW229934   3.765   2.921   3.108
 9679SOL     OW29935   0.782   3.102   1.445
 9679SOL    HW129936   0.701   3.138   1.397
 9679SOL    HW229937   0.811   3.017   1.401
 9680SOL     OW29938   5.911   4.949   3.311
 9680SOL    HW129939   5.981   4.884   3.282
 9680SOL    HW229940   5.934   4.984   3.402
 9681SOL     OW29941   0.832   1.430   4.037
 9681SOL    HW129942   0.792   1.340   4.055
 9681SOL    HW229943   0.857   1.436   3.940
 9682SOL     OW29944   6.655   4.612   2.723
 9682SOL    HW129945   6.605   4.647   2.802
 9682SOL    HW229946   6.696   4.523   2.746
 9683SOL     OW29947   4.535   6.051   6.296
 9683SOL    HW129948   4.628   6.014   6.296
 9683SOL    HW229949   4.500   6.053   6.389
 9684SOL     OW29950   1.312   4.684   3.983
 9684SOL    HW129951   1.362   4.618   3.927
 9684SOL    HW229952   1.218   4.693   3.949
 9685SOL     OW29953   2.014   2.124   0.136
 9685SOL    HW129954   1.966   2.039   0.114
 9685SOL    HW229955   2.112   2.105   0.145
 9686SOL     OW29956   5.466   0.553   1.837
 9686SOL    HW129957   5.423   0.519   1.754
 9686SOL    HW229958   5.484   0.651   1.827
 9687SOL     OW29959   3.417   0.157   3.514
 9687SOL    HW129960   3.384   0.252   3.512
 9687SOL    HW229961   3.477   0.142   3.436
 9688SOL     OW29962   0.181   1.422   3.341
 9688SOL    HW129963   0.195   1.520   3.356
 9688SOL    HW229964   0.235   1.392   3.262
 9689SOL     OW29965   2.143   6.082   6.452
 9689SOL    HW129966   2.101   6.169   6.426
 9689SOL    HW229967   2.074   6.010   6.446
 9690SOL     OW29968   6.053   4.435   0.911
 9690SOL    HW129969   5.996   4.354   0.896
 9690SOL    HW229970   6.003   4.501   0.968
 9691SOL     OW29971   1.092   4.119   1.323
 9691SOL    HW129972   1.100   4.218   1.313
 9691SOL    HW229973   1.157   4.074   1.262
 9692SOL     OW29974   2.660   5.768   1.398
 9692SOL    HW129975   2.619   5.747   1.309
 9692SOL    HW229976   2.758   5.747   1.396
 9693SOL     OW29977   5.555   5.658   1.609
 9693SOL    HW129978   5.491   5.731   1.585
 9693SOL    HW229979   5.618   5.692   1.680
 9694SOL     OW29980   2.282   1.983   0.120
 9694SOL    HW129981   2.316   1.948   0.207
 9694SOL    HW229982   2.358   2.016   0.065
 9695SOL     OW29983   5.946   4.335   1.314
 9695SOL    HW129984   6.023   4.346   1.377
 9695SOL    HW229985   5.950   4.243   1.273
 9696SOL     OW29986   3.987   3.504   1.120
 9696SOL    HW129987   4.022   3.546   1.203
 9696SOL    HW229988   3.950   3.574   1.060
 9697SOL     OW29989   0.751   6.055   6.917
 9697SOL    HW129990   0.767   5.965   6.877
 9697SOL    HW229991   0.654   6.078   6.910
 9698SOL     OW29992   5.701   1.945   5.185
 9698SOL    HW129993   5.658   2.033   5.204
 9698SOL    HW229994   5.769   1.926   5.256
 9699SOL     OW29995   1.822   3.155   0.128
 9699SOL    HW129996   1.826   3.218   0.205
 9699SOL    HW229997   1.752   3.086   0.145
 9700SOL     OW29998   3.327   4.140   4.290
 9700SOL    HW129999   3.419   4.172   4.313
 9700SOL    HW230000   3.279   4.115   4.374
 9701SOL     OW30001   5.454   4.000   4.990
 9701SOL    HW130002   5.497   4.046   4.912
 9701SOL    HW230003   5.438   3.904   4.967
 9702SOL     OW30004   4.415   0.585   0.833
 9702SOL    HW130005   4.409   0.620   0.740
 9702SOL    HW230006   4.430   0.662   0.896
 9703SOL     OW30007   3.106   6.396   4.050
 9703SOL    HW130008   3.130   6.491   4.070
 9703SOL    HW230009   3.007   6.387   4.041
 9704SOL     OW30010   2.648   0.384   3.217
 9704SOL    HW130011   2.595   0.460   3.179
 9704SOL    HW230012   2.647   0.390   3.317
 9705SOL     OW30013   3.286   3.815   0.916
 9705SOL    HW130014   3.274   3.719   0.889
 9705SOL    HW230015   3.340   3.820   1.000
 9706SOL     OW30016   5.735   2.585   2.955
 9706SOL    HW130017   5.691   2.537   2.879
 9706SOL    HW230018   5.773   2.518   3.018
 9707SOL     OW30019   2.845   5.051   3.002
 9707SOL    HW130020   2.861   4.974   2.941
 9707SOL    HW230021   2.925   5.111   3.004
 9708SOL     OW30022   2.594   1.500   2.792
 9708SOL    HW130023   2.509   1.546   2.817
 9708SOL    HW230024   2.596   1.484   2.693
 9709SOL     OW30025   1.716   4.967   2.752
 9709SOL    HW130026   1.804   5.010   2.774
 9709SOL    HW230027   1.728   4.868   2.746
 9710SOL     OW30028   0.158   0.494   3.799
 9710SOL    HW130029   0.081   0.522   3.742
 9710SOL    HW230030   0.162   0.553   3.880
 9711SOL     OW30031   1.258   4.249   5.389
 9711SOL    HW130032   1.175   4.291   5.353
 9711SOL    HW230033   1.243   4.151   5.402
 9712SOL     OW30034   4.684   2.717   4.315
 9712SOL    HW130035   4.594   2.692   4.350
 9712SOL    HW230036   4.685   2.707   4.215
 9713SOL     OW30037   6.738   4.865   2.349
 9713SOL    HW130038   6.831   4.830   2.360
 9713SOL    HW230039   6.703   4.838   2.259
 9714SOL     OW30040   1.981   2.269   1.546
 9714SOL    HW130041   2.072   2.254   1.585
 9714SOL    HW230042   1.914   2.212   1.593
 9715SOL     OW30043   5.503   5.430   4.762
 9715SOL    HW130044   5.495   5.354   4.826
 9715SOL    HW230045   5.462   5.404   4.674
 9716SOL     OW30046   4.296   1.761   6.676
 9716SOL    HW130047   4.250   1.828   6.618
 9716SOL    HW230048   4.364   1.711   6.622
 9717SOL     OW30049   5.873   4.619   3.284
 9717SOL    HW130050   5.787   4.652   3.322
 9717SOL    HW230051   5.877   4.640   3.186
 9718SOL     OW30052   4.344   3.391   1.760
 9718SOL    HW130053   4.316   3.480   1.724
 9718SOL    HW230054   4.309   3.380   1.853
 9719SOL     OW30055   0.406   1.802   0.341
 9719SOL    HW130056   0.454   1.865   0.279
 9719SOL    HW230057   0.367   1.727   0.288
 9720SOL     OW30058   0.200   0.563   1.575
 9720SOL    HW130059   0.287   0.539   1.618
 9720SOL    HW230060   0.188   0.510   1.492
 9721SOL     OW30061   6.611   3.545   2.707
 9721SOL    HW130062   6.637   3.504   2.794
 9721SOL    HW230063   6.590   3.642   2.720
 9722SOL     OW30064   6.967   0.136   4.506
 9722SOL    HW130065   6.888   0.168   4.558
 9722SOL    HW230066   0.018   0.096   4.568
 9723SOL     OW30067   6.782   1.308   3.631
 9723SOL    HW130068   6.803   1.226   3.578
 9723SOL    HW230069   6.692   1.343   3.604
 9724SOL     OW30070   3.846   2.957   1.271
 9724SOL    HW130071   3.808   2.923   1.357
 9724SOL    HW230072   3.942   2.929   1.264
 9725SOL     OW30073   4.143   3.136   5.838
 9725SOL    HW130074   4.186   3.053   5.803
 9725SOL    HW230075   4.094   3.116   5.922
 9726SOL     OW30076   5.752   6.537   4.969
 9726SOL    HW130077   5.823   6.531   5.040
 9726SOL    HW230078   5.665   6.509   5.008
 9727SOL     OW30079   1.489   2.172   6.500
 9727SOL    HW130080   1.511   2.125   6.414
 9727SOL    HW230081   1.563   2.235   6.522
 9728SOL     OW30082   3.224   5.437   0.154
 9728SOL    HW130083   3.270   5.410   0.239
 9728SOL    HW230084   3.150   5.501   0.174
 9729SOL     OW30085   3.258   5.314   2.605
 9729SOL    HW130086   3.260   5.410   2.577
 9729SOL    HW230087   3.238   5.257   2.525
 9730SOL     OW30088   6.201   3.749   3.142
 9730SOL    HW130089   6.235   3.691   3.216
 9730SOL    HW230090   6.183   3.841   3.177
 9731SOL     OW30091   4.892   5.276   0.882
 9731SOL    HW130092   4.833   5.309   0.956
 9731SOL    HW230093   4.840   5.214   0.823
 9732SOL     OW30094   6.498   5.389   3.167
 9732SOL    HW130095   6.400   5.400   3.186
 9732SOL    HW230096   6.523   5.446   3.088
 9733SOL     OW30097   5.250   4.254   6.595
 9733SOL    HW130098   5.314   4.252   6.518
 9733SOL    HW230099   5.162   4.217   6.566
 9734SOL     OW30100   5.315   2.432   4.911
 9734SOL    HW130101   5.366   2.442   4.996
 9734SOL    HW230102   5.223   2.399   4.931
 9735SOL     OW30103   1.654   3.995   0.276
 9735SOL    HW130104   1.565   4.040   0.287
 9735SOL    HW230105   1.644   3.897   0.295
 9736SOL     OW30106   3.401   1.362   0.986
 9736SOL    HW130107   3.402   1.343   1.084
 9736SOL    HW230108   3.483   1.413   0.961
 9737SOL     OW30109   4.068   2.199   5.010
 9737SOL    HW130110   4.099   2.134   5.080
 9737SOL    HW230111   4.124   2.281   5.013
 9738SOL     OW30112   2.098   0.703   2.249
 9738SOL    HW130113   2.120   0.785   2.302
 9738SOL    HW230114   2.164   0.631   2.270
 9739SOL     OW30115   5.068   4.976   2.103
 9739SOL    HW130116   5.043   5.035   2.026
 9739SOL    HW230117   5.076   5.032   2.186
 9740SOL     OW30118   6.803   3.896   3.019
 9740SOL    HW130119   6.722   3.901   3.077
 9740SOL    HW230120   6.870   3.834   3.060
 9741SOL     OW30121   4.132   2.022   1.278
 9741SOL    HW130122   4.089   2.110   1.300
 9741SOL    HW230123   4.221   2.016   1.325
 9742SOL     OW30124   4.745   1.734   4.274
 9742SOL    HW130125   4.645   1.729   4.262
 9742SOL    HW230126   4.781   1.642   4.288
 9743SOL     OW30127   2.003   2.053   5.295
 9743SOL    HW130128   1.995   2.141   5.342
 9743SOL    HW230129   2.099   2.026   5.290
 9744SOL     OW30130   1.702   0.514   1.794
 9744SOL    HW130131   1.617   0.491   1.747
 9744SOL    HW230132   1.736   0.433   1.842
 9745SOL     OW30133   0.339   2.162   4.679
 9745SOL    HW130134   0.286   2.246   4.672
 9745SOL    HW230135   0.432   2.177   4.644
 9746SOL     OW30136   5.795   1.467   4.454
 9746SOL    HW130137   5.723   1.445   4.388
 9746SOL    HW230138   5.854   1.388   4.467
 9747SOL     OW30139   0.541   0.054   6.684
 9747SOL    HW130140   0.530   7.003   6.609
 9747SOL    HW230141   0.455   0.104   6.697
 9748SOL     OW30142   0.309   5.685   3.959
 9748SOL    HW130143   0.374   5.751   3.997
 9748SOL    HW230144   0.305   5.604   4.017
 9749SOL     OW30145   0.701   4.263   4.101
 9749SOL    HW130146   0.709   4.331   4.028
 9749SOL    HW230147   0.786   4.210   4.108
 9750SOL     OW30148   3.681   4.976   3.443
 9750SOL    HW130149   3.614   4.922   3.392
 9750SOL    HW230150   3.661   5.073   3.432
 9751SOL     OW30151   2.037   2.277   0.512
 9751SOL    HW130152   2.056   2.219   0.433
 9751SOL    HW230153   2.100   2.253   0.587
 9752SOL     OW30154   3.571   1.745   6.360
 9752SOL    HW130155   3.607   1.655   6.339
 9752SOL    HW230156   3.612   1.778   6.446
 9753SOL     OW30157   6.895   6.361   5.046
 9753SOL    HW130158   6.866   6.297   4.975
 9753SOL    HW230159   6.899   6.453   5.008
 9754SOL     OW30160   6.743   2.195   6.829
 9754SOL    HW130161   6.720   2.286   6.796
 9754SOL    HW230162   6.730   2.128   6.756
 9755SOL     OW30163   4.207   4.713   5.238
 9755SOL    HW130164   4.250   4.668   5.160
 9755SOL    HW230165   4.129   4.767   5.207
 9756SOL     OW30166   5.663   2.071   5.890
 9756SOL    HW130167   5.681   2.142   5.957
 9756SOL    HW230168   5.674   1.981   5.932
 9757SOL     OW30169   6.246   2.463   3.835
 9757SOL    HW130170   6.163   2.449   3.782
 9757SOL    HW230171   6.286   2.375   3.860
 9758SOL     OW30172   2.833   0.744   0.047
 9758SOL    HW130173   2.923   0.779   0.021
 9758SOL    HW230174   2.789   0.704   6.983
 9759SOL     OW30175   3.138   6.247   1.484
 9759SOL    HW130176   3.073   6.304   1.534
 9759SOL    HW230177   3.090   6.196   1.412
 9760SOL     OW30178   5.318   4.610   6.138
 9760SOL    HW130179   5.273   4.552   6.206
 9760SOL    HW230180   5.259   4.618   6.057
 9761SOL     OW30181   5.481   5.903   2.639
 9761SOL    HW130182   5.515   5.818   2.598
 9761SOL    HW230183   5.454   5.966   2.566
 9762SOL     OW30184   2.455   1.542   3.384
 9762SOL    HW130185   2.485   1.490   3.304
 9762SOL    HW230186   2.416   1.629   3.355
 9763SOL     OW30187   1.940   1.727   1.900
 9763SOL    HW130188   1.945   1.627   1.901
 9763SOL    HW230189   1.871   1.757   1.966
 9764SOL     OW30190   1.125   2.576   1.933
 9764SOL    HW130191   1.210   2.573   1.881
 9764SOL    HW230192   1.060   2.510   1.896
 9765SOL     OW30193   0.186   1.570   5.484
 9765SOL    HW130194   0.240   1.502   5.436
 9765SOL    HW230195   0.183   1.654   5.430
 9766SOL     OW30196   2.934   0.432   2.208
 9766SOL    HW130197   2.895   0.518   2.241
 9766SOL    HW230198   2.995   0.451   2.131
 9767SOL     OW30199   4.622   0.488   5.278
 9767SOL    HW130200   4.661   0.482   5.370
 9767SOL    HW230201   4.642   0.578   5.239
 9768SOL     OW30202   5.070   2.782   3.366
 9768SOL    HW130203   5.054   2.752   3.460
 9768SOL    HW230204   4.994   2.751   3.308
 9769SOL     OW30205   0.621   2.059   2.082
 9769SOL    HW130206   0.592   2.133   2.143
 9769SOL    HW230207   0.690   2.003   2.128
 9770SOL     OW30208   6.275   4.521   6.566
 9770SOL    HW130209   6.372   4.504   6.579
 9770SOL    HW230210   6.227   4.434   6.555
 9771SOL     OW30211   3.524   5.661   4.904
 9771SOL    HW130212   3.594   5.595   4.876
 9771SOL    HW230213   3.455   5.668   4.832
 9772SOL     OW30214   6.650   0.538   1.900
 9772SOL    HW130215   6.605   0.618   1.860
 9772SOL    HW230216   6.586   0.461   1.903
 9773SOL     OW30217   5.404   5.566   3.291
 9773SOL    HW130218   5.324   5.517   3.327
 9773SOL    HW230219   5.458   5.600   3.368
 9774SOL     OW30220   7.012   4.813   3.203
 9774SOL    HW130221   0.036   4.902   3.229
 9774SOL    HW230222   0.063   4.741   3.222
 9775SOL     OW30223   2.755   2.314   4.844
 9775SOL    HW130224   2.740   2.316   4.943
 9775SOL    HW230225   2.838   2.262   4.824
 9776SOL     OW30226   0.369   4.907   4.587
 9776SOL    HW130227   0.332   4.831   4.640
 9776SOL    HW230228   0.357   4.888   4.490
 9777SOL     OW30229   5.488   5.067   6.991
 9777SOL    HW130230   5.450   5.115   0.054
 9777SOL    HW230231   5.501   5.133   6.916
 9778SOL     OW30232   4.221   0.997   3.718
 9778SOL    HW130233   4.127   1.015   3.690
 9778SOL    HW230234   4.258   0.921   3.664
 9779SOL     OW30235   2.881   1.972   6.231
 9779SOL    HW130236   2.903   1.893   6.175
 9779SOL    HW230237   2.952   1.984   6.301
 9780SOL     OW30238   3.511   4.453   0.541
 9780SOL    HW130239   3.524   4.356   0.565
 9780SOL    HW230240   3.581   4.479   0.474
 9781SOL     OW30241   1.666   6.089   4.078
 9781SOL    HW130242   1.727   6.113   4.153
 9781SOL    HW230243   1.597   6.024   4.110
 9782SOL     OW30244   6.450   0.427   1.311
 9782SOL    HW130245   6.440   0.494   1.386
 9782SOL    HW230246   6.528   0.367   1.330
 9783SOL     OW30247   5.897   1.454   2.935
 9783SOL    HW130248   5.854   1.454   3.026
 9783SOL    HW230249   5.955   1.535   2.926
 9784SOL     OW30250   5.287   0.803   4.159
 9784SOL    HW130251   5.324   0.892   4.131
 9784SOL    HW230252   5.354   0.756   4.216
 9785SOL     OW30253   0.918   2.995   0.903
 9785SOL    HW130254   0.862   3.020   0.824
 9785SOL    HW230255   0.860   2.954   0.973
 9786SOL     OW30256   2.193   0.124   5.081
 9786SOL    HW130257   2.209   0.027   5.066
 9786SOL    HW230258   2.228   0.151   5.171
 9787SOL     OW30259   5.993   4.627   2.132
 9787SOL    HW130260   5.990   4.696   2.059
 9787SOL    HW230261   6.006   4.536   2.091
 9788SOL     OW30262   0.381   1.369   5.297
 9788SOL    HW130263   0.345   1.374   5.204
 9788SOL    HW230264   0.432   1.453   5.318
 9789SOL     OW30265   1.414   6.046   4.601
 9789SOL    HW130266   1.386   6.142   4.597
 9789SOL    HW230267   1.385   6.007   4.688
 9790SOL     OW30268   6.778   1.279   4.120
 9790SOL    HW130269   6.771   1.220   4.201
 9790SOL    HW230270   6.794   1.373   4.149
 9791SOL     OW30271   0.997   2.391   1.570
 9791SOL    HW130272   0.995   2.491   1.573
 9791SOL    HW230273   1.090   2.359   1.587
 9792SOL     OW30274   4.000   5.855   2.180
 9792SOL    HW130275   3.978   5.952   2.170
 9792SOL    HW230276   4.089   5.845   2.224
 9793SOL     OW30277   5.116   6.565   2.828
 9793SOL    HW130278   5.214   6.580   2.845
 9793SOL    HW230279   5.104   6.528   2.735
 9794SOL     OW30280   3.026   3.024   6.768
 9794SOL    HW130281   2.984   3.115   6.772
 9794SOL    HW230282   3.052   3.004   6.674
 9795SOL     OW30283   2.557   4.577   3.941
 9795SOL    HW130284   2.524   4.655   3.994
 9795SOL    HW230285   2.631   4.606   3.881
 9796SOL     OW30286   3.706   4.543   0.380
 9796SOL    HW130287   3.765   4.537   0.460
 9796SOL    HW230288   3.749   4.496   0.303
 9797SOL     OW30289   4.973   2.533   4.766
 9797SOL    HW130290   4.905   2.506   4.698
 9797SOL    HW230291   4.986   2.460   4.832
 9798SOL     OW30292   2.437   1.863   1.763
 9798SOL    HW130293   2.427   1.807   1.845
 9798SOL    HW230294   2.347   1.884   1.726
 9799SOL     OW30295   3.274   3.732   1.941
 9799SOL    HW130296   3.207   3.778   1.884
 9799SOL    HW230297   3.248   3.636   1.954
 9800SOL     OW30298   3.588   4.791   0.301
 9800SOL    HW130299   3.536   4.845   0.367
 9800SOL    HW230300   3.628   4.712   0.347
 9801SOL     OW30301   4.772   5.543   6.819
 9801SOL    HW130302   4.695   5.578   6.872
 9801SOL    HW230303   4.790   5.448   6.844
 9802SOL     OW30304   0.570   5.081   1.511
 9802SOL    HW130305   0.546   5.090   1.414
 9802SOL    HW230306   0.511   5.014   1.554
 9803SOL     OW30307   5.359   0.733   6.579
 9803SOL    HW130308   5.387   0.657   6.638
 9803SOL    HW230309   5.264   0.756   6.598
 9804SOL     OW30310   5.881   5.243   4.157
 9804SOL    HW130311   5.973   5.213   4.180
 9804SOL    HW230312   5.875   5.343   4.164
 9805SOL     OW30313   3.211   4.620   1.424
 9805SOL    HW130314   3.214   4.527   1.389
 9805SOL    HW230315   3.229   4.620   1.522
 9806SOL     OW30316   6.852   2.192   2.896
 9806SOL    HW130317   6.782   2.222   2.961
 9806SOL    HW230318   6.935   2.168   2.946
 9807SOL     OW30319   3.476   2.564   0.672
 9807SOL    HW130320   3.434   2.593   0.586
 9807SOL    HW230321   3.422   2.490   0.713
 9808SOL     OW30322   1.802   2.031   5.027
 9808SOL    HW130323   1.796   2.126   4.998
 9808SOL    HW230324   1.726   2.009   5.088
 9809SOL     OW30325   0.765   0.642   4.364
 9809SOL    HW130326   0.739   0.724   4.415
 9809SOL    HW230327   0.847   0.602   4.404
 9810SOL     OW30328   4.043   1.195   3.389
 9810SOL    HW130329   4.131   1.201   3.436
 9810SOL    HW230330   4.058   1.162   3.296
 9811SOL     OW30331   1.135   0.004   2.739
 9811SOL    HW130332   1.125   0.062   2.658
 9811SOL    HW230333   1.135   6.923   2.712
 9812SOL     OW30334   5.276   2.732   4.935
 9812SOL    HW130335   5.301   2.794   4.861
 9812SOL    HW230336   5.262   2.640   4.899
 9813SOL     OW30337   6.301   4.614   0.950
 9813SOL    HW130338   6.263   4.528   0.915
 9813SOL    HW230339   6.398   4.620   0.927
 9814SOL     OW30340   6.580   0.895   5.229
 9814SOL    HW130341   6.589   0.985   5.273
 9814SOL    HW230342   6.631   0.827   5.282
 9815SOL     OW30343   6.867   3.855   2.744
 9815SOL    HW130344   6.841   3.897   2.831
 9815SOL    HW230345   6.884   3.757   2.758
 9816SOL     OW30346   6.572   0.737   6.302
 9816SOL    HW130347   6.540   0.792   6.380
 9816SOL    HW230348   6.560   0.789   6.218
 9817SOL     OW30349   2.500   0.657   0.236
 9817SOL    HW130350   2.523   0.700   0.148
 9817SOL    HW230351   2.482   0.727   0.304
 9818SOL     OW30352   1.075   7.010   2.989
 9818SOL    HW130353   0.985   6.966   2.998
 9818SOL    HW230354   1.102   7.010   2.893
 9819SOL     OW30355   0.003   2.566   4.263
 9819SOL    HW130356   0.007   2.615   4.350
 9819SOL    HW230357   0.051   2.619   4.193
 9820SOL     OW30358   3.635   2.504   5.961
 9820SOL    HW130359   3.548   2.528   5.919
 9820SOL    HW230360   3.620   2.433   6.029
 9821SOL     OW30361   3.796   2.575   1.279
 9821SOL    HW130362   3.698   2.569   1.258
 9821SOL    HW230363   3.808   2.608   1.373
 9822SOL     OW30364   3.254   5.914   4.563
 9822SOL    HW130365   3.155   5.903   4.552
 9822SOL    HW230366   3.301   5.861   4.492
 9823SOL     OW30367   4.009   6.333   3.288
 9823SOL    HW130368   3.912   6.342   3.309
 9823SOL    HW230369   4.060   6.404   3.338
 9824SOL     OW30370   0.830   5.788   6.005
 9824SOL    HW130371   0.751   5.847   6.019
 9824SOL    HW230372   0.858   5.792   5.909
 9825SOL     OW30373   0.036   6.645   5.196
 9825SOL    HW130374   7.011   6.637   5.105
 9825SOL    HW230375   0.095   6.566   5.213
 9826SOL     OW30376   2.057   5.830   5.425
 9826SOL    HW130377   1.979   5.887   5.401
 9826SOL    HW230378   2.037   5.778   5.508
 9827SOL     OW30379   1.714   4.305   1.703
 9827SOL    HW130380   1.668   4.294   1.615
 9827SOL    HW230381   1.661   4.259   1.774
 9828SOL     OW30382   4.018   1.793   5.247
 9828SOL    HW130383   3.972   1.845   5.320
 9828SOL    HW230384   3.998   1.696   5.258
 9829SOL     OW30385   5.031   4.889   5.162
 9829SOL    HW130386   5.089   4.945   5.221
 9829SOL    HW230387   5.031   4.794   5.195
 9830SOL     OW30388   5.311   1.759   3.788
 9830SOL    HW130389   5.399   1.730   3.750
 9830SOL    HW230390   5.238   1.711   3.740
 9831SOL     OW30391   0.659   4.280   1.894
 9831SOL    HW130392   0.593   4.215   1.855
 9831SOL    HW230393   0.749   4.265   1.853
 9832SOL     OW30394   4.625   5.827   4.539
 9832SOL    HW130395   4.667   5.749   4.492
 9832SOL    HW230396   4.556   5.869   4.479
 9833SOL     OW30397   3.932   3.508   4.143
 9833SOL    HW130398   4.005   3.576   4.141
 9833SOL    HW230399   3.967   3.422   4.179
 9834SOL     OW30400   3.113   6.004   5.600
 9834SOL    HW130401   3.096   5.917   5.555
 9834SOL    HW230402   3.026   6.054   5.611
 9835SOL     OW30403   4.050   3.833   3.858
 9835SOL    HW130404   4.009   3.813   3.947
 9835SOL    HW230405   3.996   3.902   3.811
 9836SOL     OW30406   6.478   3.635   5.766
 9836SOL    HW130407   6.414   3.638   5.689
 9836SOL    HW230408   6.554   3.698   5.749
 9837SOL     OW30409   5.759   1.786   3.428
 9837SOL    HW130410   5.778   1.834   3.342
 9837SOL    HW230411   5.707   1.703   3.409
 9838SOL     OW30412   1.218   5.700   0.997
 9838SOL    HW130413   1.304   5.662   1.032
 9838SOL    HW230414   1.238   5.774   0.933
 9839SOL     OW30415   5.050   6.603   3.832
 9839SOL    HW130416   4.996   6.595   3.748
 9839SOL    HW230417   5.066   6.512   3.870
 9840SOL     OW30418   6.536   1.803   6.574
 9840SOL    HW130419   6.586   1.798   6.487
 9840SOL    HW230420   6.569   1.731   6.635
 9841SOL     OW30421   6.742   6.227   2.826
 9841SOL    HW130422   6.654   6.190   2.855
 9841SOL    HW230423   6.774   6.293   2.894
 9842SOL     OW30424   3.429   0.010   6.887
 9842SOL    HW130425   3.491   0.038   6.814
 9842SOL    HW230426   3.481   6.974   6.956
 9843SOL     OW30427   0.398   0.770   1.381
 9843SOL    HW130428   0.468   0.711   1.341
 9843SOL    HW230429   0.394   0.755   1.480
 9844SOL     OW30430   4.768   0.517   4.913
 9844SOL    HW130431   4.793   0.452   4.841
 9844SOL    HW230432   4.850   0.541   4.965
 9845SOL     OW30433   1.389   3.932   2.146
 9845SOL    HW130434   1.297   3.943   2.110
 9845SOL    HW230435   1.432   3.851   2.107
 9846SOL     OW30436   5.953   2.244   1.175
 9846SOL    HW130437   5.948   2.144   1.173
 9846SOL    HW230438   5.997   2.273   1.260
 9847SOL     OW30439   4.008   4.074   6.830
 9847SOL    HW130440   3.914   4.089   6.800
 9847SOL    HW230441   4.009   4.042   6.924
 9848SOL     OW30442   3.071   3.370   5.495
 9848SOL    HW130443   3.079   3.349   5.398
 9848SOL    HW230444   3.113   3.460   5.513
 9849SOL     OW30445   1.529   2.304   4.461
 9849SOL    HW130446   1.607   2.249   4.429
 9849SOL    HW230447   1.497   2.268   4.549
 9850SOL     OW30448   2.077   6.742   4.041
 9850SOL    HW130449   2.151   6.748   3.974
 9850SOL    HW230450   2.010   6.673   4.010
 9851SOL     OW30451   3.691   5.554   3.755
 9851SOL    HW130452   3.718   5.584   3.664
 9851SOL    HW230453   3.629   5.476   3.748
 9852SOL     OW30454   1.906   6.644   0.388
 9852SOL    HW130455   1.997   6.616   0.357
 9852SOL    HW230456   1.895   6.622   0.484
 9853SOL     OW30457   0.236   4.510   3.491
 9853SOL    HW130458   0.146   4.514   3.447
 9853SOL    HW230459   0.307   4.516   3.421
 9854SOL     OW30460   0.198   3.616   6.868
 9854SOL    HW130461   0.216   3.708   6.904
 9854SOL    HW230462   0.123   3.575   6.920
 9855SOL     OW30463   0.635   5.846   0.522
 9855SOL    HW130464   0.678   5.768   0.567
 9855SOL    HW230465   0.602   5.820   0.431
 9856SOL     OW30466   5.527   3.323   2.951
 9856SOL    HW130467   5.432   3.314   2.921
 9856SOL    HW230468   5.588   3.310   2.873
 9857SOL     OW30469   4.893   0.114   5.547
 9857SOL    HW130470   4.850   0.079   5.464
 9857SOL    HW230471   4.895   0.042   5.616
 9858SOL     OW30472   6.482   6.379   1.926
 9858SOL    HW130473   6.525   6.350   2.012
 9858SOL    HW230474   6.415   6.450   1.945
 9859SOL     OW30475   0.226   5.416   2.796
 9859SOL    HW130476   0.310   5.456   2.831
 9859SOL    HW230477   0.167   5.488   2.759
 9860SOL     OW30478   1.697   3.181   4.157
 9860SOL    HW130479   1.782   3.156   4.204
 9860SOL    HW230480   1.678   3.116   4.084
 9861SOL     OW30481   3.378   1.964   3.294
 9861SOL    HW130482   3.343   1.871   3.305
 9861SOL    HW230483   3.323   2.012   3.225
 9862SOL     OW30484   1.346   3.669   6.455
 9862SOL    HW130485   1.342   3.569   6.447
 9862SOL    HW230486   1.421   3.704   6.400
 9863SOL     OW30487   3.873   6.990   2.030
 9863SOL    HW130488   3.904   6.922   2.096
 9863SOL    HW230489   3.783   0.009   2.056
 9864SOL     OW30490   2.035   6.083   5.865
 9864SOL    HW130491   1.956   6.023   5.853
 9864SOL    HW230492   2.006   6.178   5.858
 9865SOL     OW30493   1.995   5.692   6.072
 9865SOL    HW130494   1.917   5.670   6.013
 9865SOL    HW230495   2.079   5.694   6.017
 9866SOL     OW30496   6.797   5.321   5.862
 9866SOL    HW130497   6.790   5.223   5.883
 9866SOL    HW230498   6.733   5.372   5.919
 9867SOL     OW30499   4.403   1.406   1.993
 9867SOL    HW130500   4.392   1.502   2.019
 9867SOL    HW230501   4.322   1.375   1.943
 9868SOL     OW30502   2.401   4.816   3.706
 9868SOL    HW130503   2.469   4.882   3.676
 9868SOL    HW230504   2.374   4.835   3.800
 9869SOL     OW30505   0.262   2.063   1.525
 9869SOL    HW130506   0.228   2.089   1.616
 9869SOL    HW230507   0.209   1.984   1.492
 9870SOL     OW30508   2.079   2.477   2.600
 9870SOL    HW130509   2.156   2.537   2.621
 9870SOL    HW230510   1.993   2.528   2.613
 9871SOL     OW30511   5.868   5.892   3.162
 9871SOL    HW130512   5.824   5.927   3.080
 9871SOL    HW230513   5.820   5.810   3.194
 9872SOL     OW30514   0.577   5.313   5.434
 9872SOL    HW130515   0.549   5.260   5.514
 9872SOL    HW230516   0.524   5.397   5.430
 9873SOL     OW30517   1.052   1.417   5.461
 9873SOL    HW130518   1.028   1.322   5.481
 9873SOL    HW230519   1.149   1.423   5.439
 9874SOL     OW30520   0.526   2.108   3.879
 9874SOL    HW130521   0.604   2.167   3.855
 9874SOL    HW230522   0.444   2.141   3.833
 9875SOL     OW30523   6.205   6.056   0.822
 9875SOL    HW130524   6.179   5.979   0.764
 9875SOL    HW230525   6.146   6.135   0.802
 9876SOL     OW30526   0.092   6.759   3.480
 9876SOL    HW130527   0.099   6.707   3.565
 9876SOL    HW230528   0.072   6.697   3.404
 9877SOL     OW30529   0.630   6.085   5.148
 9877SOL    HW130530   0.559   6.144   5.109
 9877SOL    HW230531   0.720   6.113   5.115
 9878SOL     OW30532   3.262   2.947   6.880
 9878SOL    HW130533   3.327   2.917   6.809
 9878SOL    HW230534   3.170   2.947   6.842
 9879SOL     OW30535   6.354   5.553   5.451
 9879SOL    HW130536   6.279   5.606   5.492
 9879SOL    HW230537   6.417   5.524   5.523
 9880SOL     OW30538   2.611   0.992   0.990
 9880SOL    HW130539   2.607   0.893   1.005
 9880SOL    HW230540   2.594   1.011   0.893
 9881SOL     OW30541   6.060   0.855   3.171
 9881SOL    HW130542   6.116   0.937   3.156
 9881SOL    HW230543   5.970   0.868   3.130
 9882SOL     OW30544   3.645   3.236   4.622
 9882SOL    HW130545   3.612   3.192   4.705
 9882SOL    HW230546   3.572   3.240   4.554
 9883SOL     OW30547   2.074   6.223   2.438
 9883SOL    HW130548   2.029   6.266   2.516
 9883SOL    HW230549   2.065   6.124   2.445
 9884SOL     OW30550   3.481   2.997   5.527
 9884SOL    HW130551   3.450   2.932   5.457
 9884SOL    HW230552   3.440   3.087   5.509
 9885SOL     OW30553   4.850   2.194   5.268
 9885SOL    HW130554   4.841   2.110   5.322
 9885SOL    HW230555   4.866   2.271   5.330
 9886SOL     OW30556   3.311   5.823   1.232
 9886SOL    HW130557   3.294   5.862   1.322
 9886SOL    HW230558   3.237   5.849   1.170
 9887SOL     OW30559   2.959   1.530   0.351
 9887SOL    HW130560   2.880   1.545   0.410
 9887SOL    HW230561   2.928   1.516   0.257
 9888SOL     OW30562   6.444   6.680   3.883
 9888SOL    HW130563   6.348   6.670   3.858
 9888SOL    HW230564   6.478   6.594   3.922
 9889SOL     OW30565   0.077   5.366   2.547
 9889SOL    HW130566   7.004   5.326   2.569
 9889SOL    HW230567   0.074   5.465   2.564
 9890SOL     OW30568   0.975   3.308   2.597
 9890SOL    HW130569   1.030   3.270   2.671
 9890SOL    HW230570   0.893   3.252   2.584
 9891SOL     OW30571   4.967   6.805   1.803
 9891SOL    HW130572   4.878   6.765   1.778
 9891SOL    HW230573   4.966   6.903   1.784
 9892SOL     OW30574   1.909   5.769   3.905
 9892SOL    HW130575   1.893   5.858   3.862
 9892SOL    HW230576   1.840   5.754   3.977
 9893SOL     OW30577   5.911   4.733   4.645
 9893SOL    HW130578   5.835   4.747   4.582
 9893SOL    HW230579   5.876   4.729   4.739
 9894SOL     OW30580   4.482   3.749   5.344
 9894SOL    HW130581   4.480   3.693   5.426
 9894SOL    HW230582   4.556   3.717   5.284
 9895SOL     OW30583   5.335   2.034   6.430
 9895SOL    HW130584   5.405   1.990   6.374
 9895SOL    HW230585   5.344   2.005   6.525
 9896SOL     OW30586   3.909   3.742   0.136
 9896SOL    HW130587   3.978   3.669   0.145
 9896SOL    HW230588   3.818   3.704   0.153
 9897SOL     OW30589   0.207   0.895   3.089
 9897SOL    HW130590   0.274   0.867   3.157
 9897SOL    HW230591   0.159   0.976   3.120
 9898SOL     OW30592   1.529   4.752   6.659
 9898SOL    HW130593   1.548   4.717   6.567
 9898SOL    HW230594   1.432   4.774   6.667
 9899SOL     OW30595   4.790   4.617   2.850
 9899SOL    HW130596   4.822   4.567   2.930
 9899SOL    HW230597   4.858   4.685   2.823
 9900SOL     OW30598   1.762   4.437   4.115
 9900SOL    HW130599   1.761   4.346   4.156
 9900SOL    HW230600   1.853   4.476   4.122
 9901SOL     OW30601   2.238   1.918   6.122
 9901SOL    HW130602   2.224   2.016   6.137
 9901SOL    HW230603   2.182   1.888   6.045
 9902SOL     OW30604   4.543   3.616   6.624
 9902SOL    HW130605   4.601   3.559   6.683
 9902SOL    HW230606   4.597   3.689   6.583
 9903SOL     OW30607   3.648   1.523   1.519
 9903SOL    HW130608   3.643   1.619   1.491
 9903SOL    HW230609   3.625   1.464   1.442
 9904SOL     OW30610   0.458   0.246   1.858
 9904SOL    HW130611   0.457   0.218   1.954
 9904SOL    HW230612   0.527   0.193   1.809
 9905SOL     OW30613   1.374   6.671   5.784
 9905SOL    HW130614   1.368   6.635   5.690
 9905SOL    HW230615   1.362   6.596   5.849
 9906SOL     OW30616   3.750   3.986   5.969
 9906SOL    HW130617   3.697   3.916   5.920
 9906SOL    HW230618   3.813   3.941   6.033
 9907SOL     OW30619   1.153   6.468   2.831
 9907SOL    HW130620   1.167   6.383   2.780
 9907SOL    HW230621   1.238   6.495   2.875
 9908SOL     OW30622   6.359   3.756   5.101
 9908SOL    HW130623   6.416   3.720   5.175
 9908SOL    HW230624   6.275   3.702   5.094
 9909SOL     OW30625   3.697   6.681   2.165
 9909SOL    HW130626   3.669   6.723   2.079
 9909SOL    HW230627   3.620   6.630   2.203
 9910SOL     OW30628   0.916   4.659   0.839
 9910SOL    HW130629   0.847   4.608   0.788
 9910SOL    HW230630   0.907   4.639   0.937
 9911SOL     OW30631   3.718   5.233   3.243
 9911SOL    HW130632   3.805   5.234   3.195
 9911SOL    HW230633   3.643   5.237   3.177
 9912SOL     OW30634   4.107   6.882   1.095
 9912SOL    HW130635   4.106   6.973   1.136
 9912SOL    HW230636   4.065   6.885   1.004
 9913SOL     OW30637   4.377   2.403   2.686
 9913SOL    HW130638   4.338   2.418   2.777
 9913SOL    HW230639   4.446   2.472   2.667
 9914SOL     OW30640   2.011   5.363   5.017
 9914SOL    HW130641   1.927   5.414   4.999
 9914SOL    HW230642   2.010   5.277   4.966
 9915SOL     OW30643   5.945   3.812   4.101
 9915SOL    HW130644   5.915   3.889   4.044
 9915SOL    HW230645   5.888   3.809   4.183
 9916SOL     OW30646   2.677   3.349   0.835
 9916SOL    HW130647   2.730   3.293   0.771
 9916SOL    HW230648   2.593   3.379   0.790
 9917SOL     OW30649   2.219   3.041   4.785
 9917SOL    HW130650   2.268   3.033   4.872
 9917SOL    HW230651   2.209   2.951   4.744
 9918SOL     OW30652   2.748   0.805   4.800
 9918SOL    HW130653   2.710   0.801   4.892
 9918SOL    HW230654   2.846   0.826   4.805
 9919SOL     OW30655   0.754   5.619   2.253
 9919SOL    HW130656   0.692   5.669   2.193
 9919SOL    HW230657   0.740   5.520   2.240
 9920SOL     OW30658   3.976   6.724   2.631
 9920SOL    HW130659   4.012   6.630   2.632
 9920SOL    HW230660   4.053   6.788   2.622
 9921SOL     OW30661   5.441   0.089   2.718
 9921SOL    HW130662   5.398   0.135   2.641
 9921SOL    HW230663   5.541   0.094   2.709
 9922SOL     OW30664   5.135   3.166   1.849
 9922SOL    HW130665   5.196   3.100   1.805
 9922SOL    HW230666   5.172   3.193   1.937
 9923SOL     OW30667   6.325   0.714   6.480
 9923SOL    HW130668   6.286   0.623   6.496
 9923SOL    HW230669   6.329   0.731   6.382
 9924SOL     OW30670   5.048   0.954   3.900
 9924SOL    HW130671   4.977   0.888   3.876
 9924SOL    HW230672   5.030   0.990   3.991
 9925SOL     OW30673   3.756   2.100   4.566
 9925SOL    HW130674   3.771   2.028   4.634
 9925SOL    HW230675   3.657   2.117   4.557
 9926SOL     OW30676   1.376   0.873   5.884
 9926SOL    HW130677   1.373   0.946   5.815
 9926SOL    HW230678   1.308   0.892   5.955
 9927SOL     OW30679   1.121   3.178   2.786
 9927SOL    HW130680   1.214   3.164   2.822
 9927SOL    HW230681   1.056   3.122   2.838
 9928SOL     OW30682   0.185   3.051   2.280
 9928SOL    HW130683   0.242   3.126   2.312
 9928SOL    HW230684   0.241   2.987   2.227
 9929SOL     OW30685   0.573   4.530   5.695
 9929SOL    HW130686   0.592   4.450   5.639
 9929SOL    HW230687   0.642   4.600   5.678
 9930SOL     OW30688   6.618   5.494   6.730
 9930SOL    HW130689   6.579   5.585   6.715
 9930SOL    HW230690   6.583   5.430   6.662
 9931SOL     OW30691   2.731   5.032   6.634
 9931SOL    HW130692   2.795   4.981   6.692
 9931SOL    HW230693   2.775   5.054   6.547
 9932SOL     OW30694   2.475   2.475   1.226
 9932SOL    HW130695   2.565   2.487   1.184
 9932SOL    HW230696   2.460   2.548   1.293
 9933SOL     OW30697   0.785   1.617   2.403
 9933SOL    HW130698   0.727   1.653   2.476
 9933SOL    HW230699   0.822   1.528   2.430
 9934SOL     OW30700   5.264   0.409   6.189
 9934SOL    HW130701   5.328   0.463   6.245
 9934SOL    HW230702   5.313   0.335   6.145
 9935SOL     OW30703   2.741   2.629   0.906
 9935SOL    HW130704   2.714   2.545   0.858
 9935SOL    HW230705   2.662   2.688   0.916
 9936SOL     OW30706   5.166   0.110   6.262
 9936SOL    HW130707   5.189   0.205   6.240
 9936SOL    HW230708   5.177   0.054   6.180
 9937SOL     OW30709   1.473   6.652   3.743
 9937SOL    HW130710   1.469   6.736   3.689
 9937SOL    HW230711   1.533   6.586   3.697
 9938SOL     OW30712   0.114   1.140   3.163
 9938SOL    HW130713   0.096   1.196   3.083
 9938SOL    HW230714   0.187   1.182   3.217
 9939SOL     OW30715   2.717   4.027   1.640
 9939SOL    HW130716   2.699   4.000   1.545
 9939SOL    HW230717   2.759   4.117   1.642
 9940SOL     OW30718   6.584   0.846   3.200
 9940SOL    HW130719   6.666   0.902   3.188
 9940SOL    HW230720   6.608   0.762   3.251
 9941SOL     OW30721   5.647   3.696   0.796
 9941SOL    HW130722   5.706   3.628   0.839
 9941SOL    HW230723   5.626   3.668   0.702
 9942SOL     OW30724   6.279   6.007   2.993
 9942SOL    HW130725   6.237   5.965   2.912
 9942SOL    HW230726   6.362   6.055   2.966
 9943SOL     OW30727   1.792   4.100   5.379
 9943SOL    HW130728   1.797   4.002   5.363
 9943SOL    HW230729   1.882   4.141   5.367
 9944SOL     OW30730   2.001   5.865   6.444
 9944SOL    HW130731   1.988   5.782   6.389
 9944SOL    HW230732   1.923   5.876   6.506
 9945SOL     OW30733   6.674   3.512   6.842
 9945SOL    HW130734   6.689   3.453   6.921
 9945SOL    HW230735   6.591   3.567   6.856
 9946SOL     OW30736   4.906   2.229   1.824
 9946SOL    HW130737   4.816   2.263   1.851
 9946SOL    HW230738   4.927   2.263   1.732
 9947SOL     OW30739   1.310   1.505   2.357
 9947SOL    HW130740   1.325   1.571   2.431
 9947SOL    HW230741   1.255   1.548   2.285
 9948SOL     OW30742   6.213   0.467   5.342
 9948SOL    HW130743   6.289   0.447   5.405
 9948SOL    HW230744   6.244   0.534   5.274
 9949SOL     OW30745   6.855   3.739   3.370
 9949SOL    HW130746   6.882   3.706   3.280
 9949SOL    HW230747   6.922   3.707   3.438
 9950SOL     OW30748   4.417   4.255   5.558
 9950SOL    HW130749   4.383   4.250   5.464
 9950SOL    HW230750   4.446   4.164   5.588
 9951SOL     OW30751   0.148   1.909   2.892
 9951SOL    HW130752   0.202   1.826   2.884
 9951SOL    HW230753   0.184   1.978   2.829
 9952SOL     OW30754   1.381   4.377   1.231
 9952SOL    HW130755   1.385   4.327   1.144
 9952SOL    HW230756   1.461   4.438   1.238
 9953SOL     OW30757   6.418   4.111   3.735
 9953SOL    HW130758   6.516   4.129   3.737
 9953SOL    HW230759   6.382   4.113   3.829
 9954SOL     OW30760   3.793   1.219   1.396
 9954SOL    HW130761   3.826   1.265   1.479
 9954SOL    HW230762   3.864   1.222   1.326
 9955SOL     OW30763   5.778   5.324   1.335
 9955SOL    HW130764   5.808   5.334   1.429
 9955SOL    HW230765   5.713   5.396   1.312
 9956SOL     OW30766   1.690   3.439   3.014
 9956SOL    HW130767   1.707   3.538   3.013
 9956SOL    HW230768   1.774   3.391   3.039
 9957SOL     OW30769   5.433   0.309   0.217
 9957SOL    HW130770   5.389   0.396   0.239
 9957SOL    HW230771   5.451   0.258   0.300
 9958SOL     OW30772   5.903   5.562   6.766
 9958SOL    HW130773   5.991   5.517   6.755
 9958SOL    HW230774   5.830   5.493   6.769
 9959SOL     OW30775   5.908   4.719   0.409
 9959SOL    HW130776   5.812   4.701   0.388
 9959SOL    HW230777   5.956   4.632   0.423
 9960SOL     OW30778   6.195   0.110   0.075
 9960SOL    HW130779   6.130   0.062   0.133
 9960SOL    HW230780   6.276   0.134   0.128
 9961SOL     OW30781   3.411   5.645   0.757
 9961SOL    HW130782   3.420   5.727   0.813
 9961SOL    HW230783   3.501   5.623   0.718
 9962SOL     OW30784   3.128   0.835   1.179
 9962SOL    HW130785   3.197   0.905   1.200
 9962SOL    HW230786   3.089   0.801   1.265
 9963SOL     OW30787   0.833   0.174   6.459
 9963SOL    HW130788   0.817   0.089   6.508
 9963SOL    HW230789   0.748   0.207   6.418
 9964SOL     OW30790   4.465   5.138   5.443
 9964SOL    HW130791   4.535   5.069   5.462
 9964SOL    HW230792   4.408   5.108   5.367
 9965SOL     OW30793   2.645   5.091   4.160
 9965SOL    HW130794   2.577   5.165   4.158
 9965SOL    HW230795   2.737   5.130   4.165
 9966SOL     OW30796   3.781   5.710   3.113
 9966SOL    HW130797   3.820   5.786   3.165
 9966SOL    HW230798   3.706   5.669   3.166
 9967SOL     OW30799   0.227   0.470   3.297
 9967SOL    HW130800   0.288   0.403   3.339
 9967SOL    HW230801   0.205   0.442   3.203
 9968SOL     OW30802   4.518   6.779   0.205
 9968SOL    HW130803   4.457   6.700   0.209
 9968SOL    HW230804   4.611   6.748   0.190
 9969SOL     OW30805   0.268   5.967   3.679
 9969SOL    HW130806   0.195   5.987   3.613
 9969SOL    HW230807   0.343   6.032   3.666
 9970SOL     OW30808   6.182   3.298   2.293
 9970SOL    HW130809   6.253   3.273   2.359
 9970SOL    HW230810   6.173   3.397   2.290
 9971SOL     OW30811   0.275   5.223   4.437
 9971SOL    HW130812   0.270   5.189   4.343
 9971SOL    HW230813   0.287   5.322   4.436
 9972SOL     OW30814   2.718   4.601   5.929
 9972SOL    HW130815   2.644   4.540   5.900
 9972SOL    HW230816   2.764   4.639   5.849
 9973SOL     OW30817   2.872   1.828   3.354
 9973SOL    HW130818   2.942   1.781   3.408
 9973SOL    HW230819   2.910   1.855   3.265
 9974SOL     OW30820   1.478   2.532   3.127
 9974SOL    HW130821   1.393   2.529   3.075
 9974SOL    HW230822   1.554   2.505   3.068
 9975SOL     OW30823   2.428   4.485   6.383
 9975SOL    HW130824   2.501   4.459   6.319
 9975SOL    HW230825   2.469   4.522   6.466
 9976SOL     OW30826   4.299   5.767   5.057
 9976SOL    HW130827   4.282   5.839   4.991
 9976SOL    HW230828   4.398   5.754   5.067
 9977SOL     OW30829   4.063   0.440   5.304
 9977SOL    HW130830   3.993   0.507   5.328
 9977SOL    HW230831   4.154   0.480   5.316
 9978SOL     OW30832   0.621   2.357   0.298
 9978SOL    HW130833   0.644   2.312   0.384
 9978SOL    HW230834   0.590   2.450   0.316
 9979SOL     OW30835   3.402   4.161   4.878
 9979SOL    HW130836   3.412   4.237   4.942
 9979SOL    HW230837   3.332   4.098   4.911
 9980SOL     OW30838   1.405   0.873   0.820
 9980SOL    HW130839   1.484   0.822   0.854
 9980SOL    HW230840   1.418   0.891   0.722
 9981SOL     OW30841   5.684   1.271   0.499
 9981SOL    HW130842   5.781   1.259   0.519
 9981SOL    HW230843   5.668   1.253   0.402
 9982SOL     OW30844   2.299   2.429   4.762
 9982SOL    HW130845   2.382   2.456   4.810
 9982SOL    HW230846   2.319   2.349   4.705
 9983SOL     OW30847   1.057   3.724   2.211
 9983SOL    HW130848   1.125   3.652   2.222
 9983SOL    HW230849   1.004   3.734   2.296
 9984SOL     OW30850   0.269   5.237   1.002
 9984SOL    HW130851   0.260   5.202   1.095
 9984SOL    HW230852   0.310   5.328   1.005
 9985SOL     OW30853   4.963   4.176   6.822
 9985SOL    HW130854   4.955   4.123   6.906
 9985SOL    HW230855   5.020   4.257   6.838
 9986SOL     OW30856   5.593   4.919   0.447
 9986SOL    HW130857   5.502   4.960   0.443
 9986SOL    HW230858   5.596   4.840   0.386
 9987SOL     OW30859   5.562   1.996   1.089
 9987SOL    HW130860   5.611   2.024   1.172
 9987SOL    HW230861   5.472   2.040   1.088
 9988SOL     OW30862   6.014   0.104   3.831
 9988SOL    HW130863   6.065   0.018   3.823
 9988SOL    HW230864   5.934   0.101   3.771
 9989SOL     OW30865   6.684   5.805   2.183
 9989SOL    HW130866   6.747   5.765   2.117
 9989SOL    HW230867   6.601   5.750   2.187
 9990SOL     OW30868   6.950   0.238   3.436
 9990SOL    HW130869   6.897   0.220   3.519
 9990SOL    HW230870   6.983   0.152   3.399
 9991SOL     OW30871   2.144   4.520   2.315
 9991SOL    HW130872   2.194   4.563   2.239
 9991SOL    HW230873   2.046   4.542   2.307
 9992SOL     OW30874   2.631   5.266   0.391
 9992SOL    HW130875   2.563   5.259   0.319
 9992SOL    HW230876   2.637   5.179   0.440
 9993SOL     OW30877   3.789   0.249   5.051
 9993SOL    HW130878   3.889   0.245   5.041
 9993SOL    HW230879   3.765   0.318   5.119
 9994SOL     OW30880   6.000   5.004   5.124
 9994SOL    HW130881   6.087   5.053   5.129
 9994SOL    HW230882   5.930   5.054   5.175
 9995SOL     OW30883   3.899   1.755   6.181
 9995SOL    HW130884   3.841   1.674   6.188
 9995SOL    HW230885   3.851   1.827   6.131
 9996SOL     OW30886   3.136   4.394   0.862
 9996SOL    HW130887   3.079   4.424   0.939
 9996SOL    HW230888   3.171   4.302   0.881
 9997SOL     OW30889   6.944   1.915   2.730
 9997SOL    HW130890   0.010   1.918   2.789
 9997SOL    HW230891   6.963   1.856   2.652
 9998SOL     OW30892   5.107   4.084   2.290
 9998SOL    HW130893   5.026   4.027   2.278
 9998SOL    HW230894   5.183   4.046   2.236
 9999SOL     OW30895   0.696   0.024   5.005
 9999SOL    HW130896   0.738   0.019   5.096
 9999SOL    HW230897   0.686   6.948   4.967
10000SOL     OW30898   4.337   2.006   1.460
10000SOL    HW130899   4.335   2.095   1.505
10000SOL    HW230900   4.368   1.936   1.525
10001SOL     OW30901   3.766   6.112   1.336
10001SOL    HW130902   3.692   6.093   1.271
10001SOL    HW230903   3.779   6.211   1.344
10002SOL     OW30904   2.256   0.168   2.054
10002SOL    HW130905   2.345   0.172   2.099
10002SOL    HW230906   2.193   0.231   2.101
10003SOL     OW30907   1.318   1.074   2.390
10003SOL    HW130908   1.349   0.995   2.338
10003SOL    HW230909   1.357   1.071   2.482
10004SOL     OW30910   0.340   4.525   4.181
10004SOL    HW130911   0.405   4.581   4.131
10004SOL    HW230912   0.349   4.542   4.279
10005SOL     OW30913   2.665   5.540   3.375
10005SOL    HW130914   2.615   5.626   3.370
10005SOL    HW230915   2.620   5.479   3.440
10006SOL     OW30916   5.426   1.113   5.250
10006SOL    HW130917   5.335   1.152   5.266
10006SOL    HW230918   5.466   1.086   5.338
10007SOL     OW30919   0.875   5.350   3.958
10007SOL    HW130920   0.780   5.322   3.974
10007SOL    HW230921   0.936   5.272   3.970
10008SOL     OW30922   3.879   1.119   6.186
10008SOL    HW130923   3.780   1.121   6.193
10008SOL    HW230924   3.916   1.205   6.222
10009SOL     OW30925   0.781   4.416   2.252
10009SOL    HW130926   0.742   4.508   2.257
10009SOL    HW230927   0.779   4.385   2.157
10010SOL     OW30928   2.215   4.219   1.146
10010SOL    HW130929   2.146   4.148   1.136
10010SOL    HW230930   2.294   4.182   1.194
10011SOL     OW30931   2.361   2.864   0.038
10011SOL    HW130932   2.428   2.819   0.097
10011SOL    HW230933   2.408   2.907   6.976
10012SOL     OW30934   5.715   1.909   3.179
10012SOL    HW130935   5.677   1.831   3.130
10012SOL    HW230936   5.646   1.982   3.186
10013SOL     OW30937   0.752   6.421   4.580
10013SOL    HW130938   0.727   6.376   4.665
10013SOL    HW230939   0.800   6.356   4.521
10014SOL     OW30940   0.906   0.970   2.442
10014SOL    HW130941   0.889   0.888   2.388
10014SOL    HW230942   0.841   1.041   2.416
10015SOL     OW30943   4.083   6.247   6.237
10015SOL    HW130944   4.062   6.154   6.265
10015SOL    HW230945   4.026   6.311   6.289
10016SOL     OW30946   2.120   1.022   4.283
10016SOL    HW130947   2.136   1.091   4.213
10016SOL    HW230948   2.155   1.055   4.371
10017SOL     OW30949   2.835   2.005   2.551
10017SOL    HW130950   2.750   2.024   2.601
10017SOL    HW230951   2.829   2.045   2.460
10018SOL     OW30952   6.993   3.886   5.079
10018SOL    HW130953   6.983   3.834   4.994
10018SOL    HW230954   0.073   3.913   5.090
10019SOL     OW30955   0.489   2.043   1.857
10019SOL    HW130956   0.543   2.045   1.941
10019SOL    HW230957   0.510   2.124   1.802
10020SOL     OW30958   6.332   1.186   1.930
10020SOL    HW130959   6.334   1.176   2.030
10020SOL    HW230960   6.242   1.219   1.902
10021SOL     OW30961   0.916   3.301   2.102
10021SOL    HW130962   0.846   3.242   2.064
10021SOL    HW230963   0.943   3.369   2.033
10022SOL     OW30964   1.582   5.687   6.063
10022SOL    HW130965   1.577   5.594   6.027
10022SOL    HW230966   1.589   5.752   5.987
10023SOL     OW30967   0.794   0.992   5.577
10023SOL    HW130968   0.875   1.047   5.555
10023SOL    HW230969   0.775   0.999   5.675
10024SOL     OW30970   1.125   4.707   2.613
10024SOL    HW130971   1.030   4.689   2.635
10024SOL    HW230972   1.176   4.723   2.698
10025SOL     OW30973   1.331   3.829   0.565
10025SOL    HW130974   1.370   3.786   0.647
10025SOL    HW230975   1.232   3.832   0.573
10026SOL     OW30976   5.654   1.756   5.006
10026SOL    HW130977   5.678   1.833   5.066
10026SOL    HW230978   5.737   1.723   4.960
10027SOL     OW30979   3.377   1.720   5.226
10027SOL    HW130980   3.439   1.798   5.216
10027SOL    HW230981   3.282   1.751   5.219
10028SOL     OW30982   4.564   6.852   1.561
10028SOL    HW130983   4.490   6.862   1.628
10028SOL    HW230984   4.639   6.800   1.602
10029SOL     OW30985   0.246   4.173   4.539
10029SOL    HW130986   0.250   4.158   4.440
10029SOL    HW230987   0.324   4.229   4.567
10030SOL     OW30988   2.415   0.421   4.477
10030SOL    HW130989   2.321   0.405   4.508
10030SOL    HW230990   2.465   0.471   4.547
10031SOL     OW30991   2.390   5.858   2.657
10031SOL    HW130992   2.359   5.835   2.565
10031SOL    HW230993   2.484   5.891   2.653
10032SOL     OW30994   2.976   6.483   4.724
10032SOL    HW130995   2.977   6.505   4.626
10032SOL    HW230996   3.017   6.394   4.738
10033SOL     OW30997   3.356   1.454   4.444
10033SOL    HW130998   3.385   1.420   4.355
10033SOL    HW230999   3.263   1.490   4.437
10034SOL     OW31000   2.726   0.849   3.190
10034SOL    HW131001   2.752   0.768   3.138
10034SOL    HW231002   2.800   0.872   3.254
10035SOL     OW31003   6.599   2.794   2.649
10035SOL    HW131004   6.669   2.860   2.623
10035SOL    HW231005   6.642   2.706   2.670
10036SOL     OW31006   0.921   0.970   6.999
10036SOL    HW131007   0.961   1.041   6.943
10036SOL    HW231008   0.988   0.898   0.001
10037SOL     OW31009   5.710   6.746   6.684
10037SOL    HW131010   5.629   6.719   6.632
10037SOL    HW231011   5.685   6.762   6.779
10038SOL     OW31012   4.570   6.368   6.279
10038SOL    HW131013   4.655   6.389   6.329
10038SOL    HW231014   4.573   6.274   6.247
10039SOL     OW31015   0.550   5.897   2.608
10039SOL    HW131016   0.520   5.937   2.695
10039SOL    HW231017   0.639   5.853   2.621
10040SOL     OW31018   2.808   0.047   0.993
10040SOL    HW131019   2.727   0.037   1.051
10040SOL    HW231020   2.861   0.127   1.023
10041SOL     OW31021   6.248   5.742   4.956
10041SOL    HW131022   6.281   5.704   5.043
10041SOL    HW231023   6.185   5.678   4.914
10042SOL     OW31024   6.984   0.611   5.099
10042SOL    HW131025   0.001   0.697   5.138
10042SOL    HW231026   6.912   0.630   5.033
10043SOL     OW31027   0.528   0.760   3.566
10043SOL    HW131028   0.500   0.671   3.602
10043SOL    HW231029   0.609   0.748   3.508
10044SOL     OW31030   2.466   1.575   6.798
10044SOL    HW131031   2.431   1.632   6.872
10044SOL    HW231032   2.494   1.634   6.722
10045SOL     OW31033   3.632   6.784   4.838
10045SOL    HW131034   3.683   6.865   4.866
10045SOL    HW231035   3.539   6.810   4.811
10046SOL     OW31036   6.769   2.465   1.429
10046SOL    HW131037   6.728   2.380   1.396
10046SOL    HW231038   6.841   2.445   1.495
10047SOL     OW31039   0.658   1.342   3.342
10047SOL    HW131040   0.706   1.385   3.419
10047SOL    HW231041   0.584   1.284   3.377
10048SOL     OW31042   3.729   2.610   1.744
10048SOL    HW131043   3.629   2.610   1.746
10048SOL    HW231044   3.763   2.521   1.775
10049SOL     OW31045   1.643   7.002   4.136
10049SOL    HW131046   1.566   7.008   4.074
10049SOL    HW231047   1.728   7.003   4.084
10050SOL     OW31048   5.307   1.954   4.274
10050SOL    HW131049   5.298   1.916   4.367
10050SOL    HW231050   5.400   1.990   4.262
10051SOL     OW31051   6.205   2.573   6.327
10051SOL    HW131052   6.250   2.658   6.353
10051SOL    HW231053   6.261   2.524   6.261
10052SOL     OW31054   0.827   4.060   1.341
10052SOL    HW131055   0.925   4.060   1.359
10052SOL    HW231056   0.792   4.153   1.350
10053SOL     OW31057   3.178   6.313   3.807
10053SOL    HW131058   3.137   6.326   3.897
10053SOL    HW231059   3.200   6.216   3.793
10054SOL     OW31060   4.199   5.675   4.077
10054SOL    HW131061   4.137   5.703   4.151
10054SOL    HW231062   4.280   5.734   4.077
10055SOL     OW31063   6.779   3.241   6.208
10055SOL    HW131064   6.730   3.293   6.278
10055SOL    HW231065   6.794   3.298   6.127
10056SOL     OW31066   6.649   5.100   1.990
10056SOL    HW131067   6.743   5.069   2.004
10056SOL    HW231068   6.601   5.101   2.077
10057SOL     OW31069   2.644   2.405   3.803
10057SOL    HW131070   2.736   2.385   3.834
10057SOL    HW231071   2.585   2.326   3.818
10058SOL     OW31072   0.655   5.045   3.616
10058SOL    HW131073   0.714   4.978   3.660
10058SOL    HW231074   0.696   5.074   3.529
10059SOL     OW31075   5.385   0.040   1.040
10059SOL    HW131076   5.371   0.083   1.129
10059SOL    HW231077   5.415   0.109   0.974
10060SOL     OW31078   2.235   2.942   1.962
10060SOL    HW131079   2.242   2.844   1.945
10060SOL    HW231080   2.194   2.958   2.052
10061SOL     OW31081   6.304   2.146   4.822
10061SOL    HW131082   6.366   2.068   4.835
10061SOL    HW231083   6.209   2.115   4.826
10062SOL     OW31084   6.112   5.857   2.793
10062SOL    HW131085   6.015   5.849   2.771
10062SOL    HW231086   6.153   5.766   2.798
10063SOL     OW31087   0.661   3.081   2.765
10063SOL    HW131088   0.747   3.029   2.774
10063SOL    HW231089   0.644   3.133   2.849
10064SOL     OW31090   5.435   6.481   4.457
10064SOL    HW131091   5.448   6.406   4.522
10064SOL    HW231092   5.372   6.452   4.385
10065SOL     OW31093   0.941   6.417   3.074
10065SOL    HW131094   0.879   6.400   2.998
10065SOL    HW231095   0.996   6.335   3.092
10066SOL     OW31096   0.797   0.462   3.588
10066SOL    HW131097   0.794   0.486   3.685
10066SOL    HW231098   0.754   0.534   3.534
10067SOL     OW31099   3.779   5.749   3.592
10067SOL    HW131100   3.851   5.769   3.659
10067SOL    HW231101   3.778   5.821   3.523
10068SOL     OW31102   5.208   3.830   5.114
10068SOL    HW131103   5.194   3.881   5.029
10068SOL    HW231104   5.147   3.750   5.116
10069SOL     OW31105   3.696   0.854   3.570
10069SOL    HW131106   3.760   0.794   3.523
10069SOL    HW231107   3.622   0.880   3.507
10070SOL     OW31108   1.225   6.545   4.831
10070SOL    HW131109   1.323   6.542   4.816
10070SOL    HW231110   1.185   6.617   4.774
10071SOL     OW31111   5.584   5.751   5.094
10071SOL    HW131112   5.668   5.744   5.148
10071SOL    HW231113   5.602   5.804   5.012
10072SOL     OW31114   0.907   6.928   3.461
10072SOL    HW131115   0.958   7.005   3.500
10072SOL    HW231116   0.894   6.858   3.531
10073SOL     OW31117   0.204   5.771   6.382
10073SOL    HW131118   0.226   5.703   6.452
10073SOL    HW231119   0.234   5.736   6.293
10074SOL     OW31120   2.295   6.821   5.752
10074SOL    HW131121   2.347   6.905   5.734
10074SOL    HW231122   2.198   6.838   5.739
10075SOL     OW31123   1.737   2.251   3.823
10075SOL    HW131124   1.651   2.271   3.868
10075SOL    HW231125   1.797   2.331   3.826
10076SOL     OW31126   5.495   0.298   4.751
10076SOL    HW131127   5.428   0.326   4.820
10076SOL    HW231128   5.561   0.371   4.736
10077SOL     OW31129   3.902   1.286   6.709
10077SOL    HW131130   3.997   1.290   6.742
10077SOL    HW231131   3.846   1.349   6.761
10078SOL     OW31132   5.701   6.334   5.828
10078SOL    HW131133   5.616   6.386   5.827
10078SOL    HW231134   5.777   6.395   5.847
10079SOL     OW31135   0.090   4.220   6.930
10079SOL    HW131136   0.132   4.311   6.931
10079SOL    HW231137   0.064   4.195   0.008
10080SOL     OW31138   1.676   2.999   6.214
10080SOL    HW131139   1.623   3.080   6.190
10080SOL    HW231140   1.714   3.010   6.306
10081SOL     OW31141   7.007   0.441   6.280
10081SOL    HW131142   0.009   0.528   6.233
10081SOL    HW231143   6.914   0.410   6.258
10082SOL     OW31144   6.364   0.945   1.470
10082SOL    HW131145   6.323   1.036   1.483
10082SOL    HW231146   6.372   0.926   1.372
10083SOL     OW31147   5.070   0.974   4.253
10083SOL    HW131148   5.169   0.967   4.245
10083SOL    HW231149   5.035   0.897   4.306
10084SOL     OW31150   2.345   1.132   5.992
10084SOL    HW131151   2.381   1.044   6.025
10084SOL    HW231152   2.367   1.203   6.058
10085SOL     OW31153   0.465   5.482   2.897
10085SOL    HW131154   0.484   5.573   2.931
10085SOL    HW231155   0.493   5.414   2.964
10086SOL     OW31156   6.167   3.622   2.348
10086SOL    HW131157   6.153   3.605   2.446
10086SOL    HW231158   6.079   3.638   2.303
10087SOL     OW31159   1.114   0.273   4.091
10087SOL    HW131160   1.146   0.243   4.181
10087SOL    HW231161   1.191   0.277   4.028
10088SOL     OW31162   0.177   0.377   4.599
10088SOL    HW131163   0.264   0.327   4.604
10088SOL    HW231164   0.132   0.356   4.512
10089SOL     OW31165   1.346   3.105   2.508
10089SOL    HW131166   1.316   3.071   2.598
10089SOL    HW231167   1.297   3.189   2.487
10090SOL     OW31168   0.426   4.966   1.054
10090SOL    HW131169   0.501   4.910   1.019
10090SOL    HW231170   0.371   4.999   0.978
10091SOL     OW31171   0.454   2.555   4.006
10091SOL    HW131172   0.546   2.591   4.018
10091SOL    HW231173   0.414   2.593   3.922
10092SOL     OW31174   1.803   3.879   4.983
10092SOL    HW131175   1.882   3.939   4.990
10092SOL    HW231176   1.789   3.831   5.070
10093SOL     OW31177   6.673   4.926   6.394
10093SOL    HW131178   6.722   5.007   6.425
10093SOL    HW231179   6.668   4.859   6.468
10094SOL     OW31180   1.312   0.780   1.844
10094SOL    HW131181   1.230   0.743   1.888
10094SOL    HW231182   1.390   0.773   1.906
10095SOL     OW31183   6.890   0.951   5.935
10095SOL    HW131184   6.917   0.916   5.845
10095SOL    HW231185   6.878   0.874   5.998
10096SOL     OW31186   0.392   5.092   2.324
10096SOL    HW131187   0.347   5.149   2.256
10096SOL    HW231188   0.463   5.145   2.371
10097SOL     OW31189   1.456   1.869   6.757
10097SOL    HW131190   1.385   1.932   6.724
10097SOL    HW231191   1.484   1.896   6.849
10098SOL     OW31192   3.035   4.728   6.286
10098SOL    HW131193   3.000   4.700   6.196
10098SOL    HW231194   3.095   4.808   6.275
10099SOL     OW31195   6.438   4.811   4.692
10099SOL    HW131196   6.525   4.861   4.687
10099SOL    HW231197   6.419   4.769   4.604
10100SOL     OW31198   5.772   1.068   5.535
10100SOL    HW131199   5.798   1.144   5.595
10100SOL    HW231200   5.854   1.027   5.495
10101SOL     OW31201   0.169   4.387   1.755
10101SOL    HW131202   0.217   4.409   1.840
10101SOL    HW231203   0.211   4.307   1.712
10102SOL     OW31204   3.605   1.016   3.077
10102SOL    HW131205   3.654   1.100   3.055
10102SOL    HW231206   3.507   1.037   3.088
10103SOL     OW31207   2.683   1.893   6.886
10103SOL    HW131208   2.775   1.857   6.905
10103SOL    HW231209   2.690   1.986   6.853
10104SOL     OW31210   1.577   6.111   4.918
10104SOL    HW131211   1.531   6.192   4.955
10104SOL    HW231212   1.521   6.030   4.935
10105SOL     OW31213   2.295   0.696   6.164
10105SOL    HW131214   2.232   0.625   6.195
10105SOL    HW231215   2.370   0.705   6.229
10106SOL     OW31216   5.297   5.402   0.553
10106SOL    HW131217   5.252   5.398   0.642
10106SOL    HW231218   5.358   5.482   0.550
10107SOL     OW31219   5.650   1.248   5.905
10107SOL    HW131220   5.565   1.241   5.957
10107SOL    HW231221   5.713   1.311   5.951
10108SOL     OW31222   6.093   6.690   0.402
10108SOL    HW131223   6.162   6.759   0.383
10108SOL    HW231224   6.004   6.734   0.414
10109SOL     OW31225   4.812   5.350   3.044
10109SOL    HW131226   4.868   5.283   3.093
10109SOL    HW231227   4.872   5.413   2.994
10110SOL     OW31228   3.111   0.864   5.577
10110SOL    HW131229   3.191   0.863   5.637
10110SOL    HW231230   3.118   0.940   5.513
10111SOL     OW31231   0.398   2.347   3.018
10111SOL    HW131232   0.418   2.342   2.920
10111SOL    HW231233   0.300   2.331   3.032
10112SOL     OW31234   4.251   4.044   5.763
10112SOL    HW131235   4.261   3.993   5.848
10112SOL    HW231236   4.320   4.013   5.697
10113SOL     OW31237   3.543   6.123   6.790
10113SOL    HW131238   3.447   6.100   6.804
10113SOL    HW231239   3.550   6.209   6.739
10114SOL     OW31240   4.321   1.224   1.269
10114SOL    HW131241   4.344   1.130   1.243
10114SOL    HW231242   4.381   1.253   1.343
10115SOL     OW31243   1.369   2.258   3.637
10115SOL    HW131244   1.383   2.349   3.599
10115SOL    HW231245   1.399   2.189   3.571
10116SOL     OW31246   1.315   0.940   1.249
10116SOL    HW131247   1.288   1.037   1.250
10116SOL    HW231248   1.391   0.927   1.313
10117SOL     OW31249   5.005   0.594   5.740
10117SOL    HW131250   4.921   0.563   5.784
10117SOL    HW231251   5.028   0.686   5.772
10118SOL     OW31252   6.296   5.249   2.441
10118SOL    HW131253   6.232   5.326   2.450
10118SOL    HW231254   6.383   5.273   2.484
10119SOL     OW31255   2.422   0.350   5.715
10119SOL    HW131256   2.430   0.417   5.641
10119SOL    HW231257   2.510   0.342   5.763
10120SOL     OW31258   6.770   3.285   3.647
10120SOL    HW131259   6.768   3.211   3.714
10120SOL    HW231260   6.759   3.248   3.555
10121SOL     OW31261   6.778   4.902   4.733
10121SOL    HW131262   6.782   4.817   4.786
10121SOL    HW231263   6.748   4.881   4.639
10122SOL     OW31264   5.055   2.817   0.141
10122SOL    HW131265   5.061   2.914   0.161
10122SOL    HW231266   5.146   2.776   0.152
10123SOL     OW31267   0.249   0.008   0.347
10123SOL    HW131268   0.300   0.091   0.367
10123SOL    HW231269   0.309   6.958   0.302
10124SOL     OW31270   3.502   4.435   1.010
10124SOL    HW131271   3.447   4.493   0.950
10124SOL    HW231272   3.514   4.345   0.968
10125SOL     OW31273   1.372   6.805   1.847
10125SOL    HW131274   1.455   6.754   1.872
10125SOL    HW231275   1.292   6.752   1.874
10126SOL     OW31276   6.231   4.790   0.449
10126SOL    HW131277   6.247   4.732   0.369
10126SOL    HW231278   6.133   4.808   0.458
10127SOL     OW31279   3.775   4.796   5.443
10127SOL    HW131280   3.678   4.821   5.439
10127SOL    HW231281   3.829   4.865   5.395
10128SOL     OW31282   0.365   1.818   1.105
10128SOL    HW131283   0.388   1.901   1.156
10128SOL    HW231284   0.436   1.750   1.119
10129SOL     OW31285   5.614   2.243   2.934
10129SOL    HW131286   5.663   2.171   2.886
10129SOL    HW231287   5.616   2.224   3.032
10130SOL     OW31288   6.560   5.130   1.704
10130SOL    HW131289   6.485   5.190   1.675
10130SOL    HW231290   6.578   5.144   1.802
10131SOL     OW31291   0.110   0.833   0.856
10131SOL    HW131292   0.045   0.852   0.929
10131SOL    HW231293   0.134   0.918   0.810
10132SOL     OW31294   3.343   6.967   2.913
10132SOL    HW131295   3.429   0.001   2.905
10132SOL    HW231296   3.361   6.870   2.928
10133SOL     OW31297   5.229   5.818   3.301
10133SOL    HW131298   5.183   5.767   3.229
10133SOL    HW231299   5.265   5.755   3.369
10134SOL     OW31300   0.046   1.340   2.603
10134SOL    HW131301   0.016   1.416   2.662
10134SOL    HW231302   0.141   1.355   2.575
10135SOL     OW31303   3.891   5.548   3.377
10135SOL    HW131304   3.908   5.568   3.474
10135SOL    HW231305   3.792   5.538   3.363
10136SOL     OW31306   5.702   6.673   2.394
10136SOL    HW131307   5.762   6.739   2.440
10136SOL    HW231308   5.609   6.681   2.431
10137SOL     OW31309   5.924   5.058   3.951
10137SOL    HW131310   5.885   5.095   3.866
10137SOL    HW231311   5.893   5.114   4.028
10138SOL     OW31312   5.653   2.218   6.102
10138SOL    HW131313   5.654   2.212   6.201
10138SOL    HW231314   5.661   2.314   6.074
10139SOL     OW31315   4.071   3.555   3.243
10139SOL    HW131316   4.076   3.655   3.247
10139SOL    HW231317   4.069   3.526   3.147
10140SOL     OW31318   0.118   4.794   5.944
10140SOL    HW131319   0.084   4.718   5.890
10140SOL    HW231320   0.129   4.765   6.039
10141SOL     OW31321   1.747   0.900   3.676
10141SOL    HW131322   1.721   0.901   3.772
10141SOL    HW231323   1.681   0.846   3.624
10142SOL     OW31324   4.899   5.658   4.704
10142SOL    HW131325   4.967   5.681   4.635
10142SOL    HW231326   4.847   5.740   4.728
10143SOL     OW31327   5.007   6.848   1.441
10143SOL    HW131328   4.944   6.771   1.450
10143SOL    HW231329   5.098   6.814   1.416
10144SOL     OW31330   3.059   5.422   3.559
10144SOL    HW131331   3.053   5.513   3.518
10144SOL    HW231332   3.091   5.356   3.490
10145SOL     OW31333   3.146   5.771   6.033
10145SOL    HW131334   3.219   5.703   6.026
10145SOL    HW231335   3.162   5.844   5.967
10146SOL     OW31336   4.740   4.912   4.284
10146SOL    HW131337   4.796   4.890   4.205
10146SOL    HW231338   4.787   4.886   4.368
10147SOL     OW31339   5.254   5.187   4.866
10147SOL    HW131340   5.186   5.123   4.900
10147SOL    HW231341   5.344   5.143   4.867
10148SOL     OW31342   5.519   5.487   1.053
10148SOL    HW131343   5.421   5.481   1.031
10148SOL    HW231344   5.530   5.496   1.151
10149SOL     OW31345   4.246   2.716   0.833
10149SOL    HW131346   4.184   2.792   0.850
10149SOL    HW231347   4.339   2.750   0.821
10150SOL     OW31348   4.755   4.390   1.275
10150SOL    HW131349   4.734   4.410   1.371
10150SOL    HW231350   4.842   4.434   1.251
10151SOL     OW31351   1.612   0.028   5.450
10151SOL    HW131352   1.604   0.113   5.501
10151SOL    HW231353   1.552   6.974   5.491
10152SOL     OW31354   0.199   5.643   3.422
10152SOL    HW131355   0.225   5.658   3.518
10152SOL    HW231356   0.141   5.562   3.416
10153SOL     OW31357   5.286   6.716   4.297
10153SOL    HW131358   5.381   6.746   4.306
10153SOL    HW231359   5.237   6.778   4.237
10154SOL     OW31360   6.655   5.114   5.650
10154SOL    HW131361   6.681   5.052   5.724
10154SOL    HW231362   6.725   5.184   5.638
10155SOL     OW31363   3.613   1.472   6.399
10155SOL    HW131364   3.668   1.390   6.415
10155SOL    HW231365   3.589   1.513   6.487
10156SOL     OW31366   5.883   0.780   2.173
10156SOL    HW131367   5.921   0.688   2.177
10156SOL    HW231368   5.854   0.809   2.264
10157SOL     OW31369   5.578   0.857   6.037
10157SOL    HW131370   5.636   0.913   5.978
10157SOL    HW231371   5.621   0.848   6.127
10158SOL     OW31372   4.171   3.495   6.947
10158SOL    HW131373   4.236   3.443   7.004
10158SOL    HW231374   4.191   3.478   6.851
10159SOL     OW31375   1.440   1.410   5.836
10159SOL    HW131376   1.484   1.499   5.848
10159SOL    HW231377   1.391   1.408   5.749
10160SOL     OW31378   0.498   6.118   3.695
10160SOL    HW131379   0.499   6.038   3.635
10160SOL    HW231380   0.576   6.177   3.674
10161SOL     OW31381   2.938   5.579   5.804
10161SOL    HW131382   2.908   5.573   5.709
10161SOL    HW231383   3.011   5.512   5.820
10162SOL     OW31384   3.293   2.052   6.857
10162SOL    HW131385   3.389   2.037   6.837
10162SOL    HW231386   3.281   2.071   6.954
10163SOL     OW31387   5.928   3.148   5.600
10163SOL    HW131388   5.915   3.202   5.684
10163SOL    HW231389   5.981   3.066   5.621
10164SOL     OW31390   0.059   2.930   4.707
10164SOL    HW131391   0.044   3.015   4.657
10164SOL    HW231392   0.103   2.950   4.794
10165SOL     OW31393   0.009   1.726   3.381
10165SOL    HW131394   7.009   1.642   3.434
10165SOL    HW231395   6.944   1.784   3.386
10166SOL     OW31396   1.609   0.745   1.980
10166SOL    HW131397   1.633   0.670   1.917
10166SOL    HW231398   1.575   0.706   2.066
10167SOL     OW31399   4.843   0.032   0.307
10167SOL    HW131400   4.886   0.113   0.347
10167SOL    HW231401   4.756   0.058   0.264
10168SOL     OW31402   6.421   4.532   4.325
10168SOL    HW131403   6.476   4.548   4.407
10168SOL    HW231404   6.480   4.500   4.251
10169SOL     OW31405   6.224   4.121   3.943
10169SOL    HW131406   6.228   4.128   4.043
10169SOL    HW231407   6.222   4.213   3.904
10170SOL     OW31408   1.924   4.308   4.959
10170SOL    HW131409   1.875   4.295   4.872
10170SOL    HW231410   1.976   4.225   4.980
10171SOL     OW31411   5.765   4.239   6.015
10171SOL    HW131412   5.786   4.236   5.918
10171SOL    HW231413   5.850   4.238   6.068
10172SOL     OW31414   5.249   0.943   2.903
10172SOL    HW131415   5.153   0.947   2.876
10172SOL    HW231416   5.287   1.035   2.903
10173SOL     OW31417   2.291   1.480   2.242
10173SOL    HW131418   2.264   1.389   2.211
10173SOL    HW231419   2.383   1.500   2.209
10174SOL     OW31420   0.028   4.454   2.174
10174SOL    HW131421   6.947   4.446   2.199
10174SOL    HW231422   0.085   4.444   2.255
10175SOL     OW31423   6.154   2.659   5.797
10175SOL    HW131424   6.147   2.669   5.698
10175SOL    HW231425   6.248   2.679   5.826
10176SOL     OW31426   2.062   4.249   6.841
10176SOL    HW131427   2.054   4.303   6.757
10176SOL    HW231428   1.983   4.264   6.900
10177SOL     OW31429   2.019   6.689   6.727
10177SOL    HW131430   2.097   6.630   6.706
10177SOL    HW231431   1.955   6.640   6.786
10178SOL     OW31432   5.575   2.428   4.859
10178SOL    HW131433   5.478   2.403   4.849
10178SOL    HW231434   5.592   2.457   4.953
10179SOL     OW31435   1.036   3.103   6.445
10179SOL    HW131436   1.135   3.111   6.436
10179SOL    HW231437   0.996   3.083   6.356
10180SOL     OW31438   2.751   6.083   5.784
10180SOL    HW131439   2.664   6.075   5.735
10180SOL    HW231440   2.784   5.992   5.809
10181SOL     OW31441   5.630   3.389   1.456
10181SOL    HW131442   5.585   3.468   1.415
10181SOL    HW231443   5.631   3.313   1.391
10182SOL     OW31444   5.717   1.308   0.883
10182SOL    HW131445   5.709   1.212   0.856
10182SOL    HW231446   5.656   1.364   0.827
10183SOL     OW31447   1.747   1.617   6.470
10183SOL    HW131448   1.839   1.626   6.508
10183SOL    HW231449   1.686   1.685   6.511
10184SOL     OW31450   3.869   1.308   5.936
10184SOL    HW131451   3.915   1.224   5.965
10184SOL    HW231452   3.780   1.314   5.980
10185SOL     OW31453   5.105   6.460   0.923
10185SOL    HW131454   5.202   6.486   0.926
10185SOL    HW231455   5.093   6.372   0.968
10186SOL     OW31456   4.457   1.894   3.178
10186SOL    HW131457   4.405   1.920   3.260
10186SOL    HW231458   4.401   1.832   3.122
10187SOL     OW31459   0.849   2.030   1.383
10187SOL    HW131460   0.834   2.110   1.441
10187SOL    HW231461   0.803   1.951   1.423
10188SOL     OW31462   4.236   6.151   1.086
10188SOL    HW131463   4.238   6.248   1.059
10188SOL    HW231464   4.261   6.144   1.183
10189SOL     OW31465   1.377   6.532   5.482
10189SOL    HW131466   1.451   6.475   5.518
10189SOL    HW231467   1.353   6.501   5.390
10190SOL     OW31468   5.365   2.677   0.086
10190SOL    HW131469   5.414   2.592   0.103
10190SOL    HW231470   5.428   2.745   0.048
10191SOL     OW31471   6.225   4.328   0.362
10191SOL    HW131472   6.315   4.291   0.386
10191SOL    HW231473   6.224   4.351   0.265
10192SOL     OW31474   3.061   1.072   5.995
10192SOL    HW131475   3.097   1.161   6.023
10192SOL    HW231476   3.020   1.026   6.073
10193SOL     OW31477   4.907   3.877   0.382
10193SOL    HW131478   4.950   3.786   0.377
10193SOL    HW231479   4.889   3.911   0.290
10194SOL     OW31480   5.443   3.668   5.130
10194SOL    HW131481   5.460   3.570   5.122
10194SOL    HW231482   5.346   3.686   5.110
10195SOL     OW31483   6.831   4.265   1.736
10195SOL    HW131484   6.852   4.173   1.704
10195SOL    HW231485   6.889   4.287   1.815
10196SOL     OW31486   0.619   1.903   4.413
10196SOL    HW131487   0.567   1.896   4.328
10196SOL    HW231488   0.674   1.987   4.411
10197SOL     OW31489   5.885   0.694   5.845
10197SOL    HW131490   5.827   0.743   5.780
10197SOL    HW231491   5.861   0.597   5.845
10198SOL     OW31492   3.638   6.852   2.915
10198SOL    HW131493   3.629   6.906   2.831
10198SOL    HW231494   3.556   6.797   2.929
10199SOL     OW31495   1.559   2.435   5.276
10199SOL    HW131496   1.640   2.376   5.274
10199SOL    HW231497   1.547   2.479   5.187
10200SOL     OW31498   5.828   3.137   1.422
10200SOL    HW131499   5.796   3.139   1.516
10200SOL    HW231500   5.891   3.059   1.409
10201SOL     OW31501   1.220   3.083   0.507
10201SOL    HW131502   1.189   3.174   0.534
10201SOL    HW231503   1.316   3.087   0.480
10202SOL     OW31504   3.642   0.231   5.422
10202SOL    HW131505   3.639   0.238   5.521
10202SOL    HW231506   3.630   0.321   5.382
10203SOL     OW31507   6.665   2.381   4.548
10203SOL    HW131508   6.666   2.386   4.449
10203SOL    HW231509   6.585   2.329   4.579
10204SOL     OW31510   5.348   6.139   6.779
10204SOL    HW131511   5.249   6.134   6.765
10204SOL    HW231512   5.377   6.235   6.771
10205SOL     OW31513   0.809   0.806   6.257
10205SOL    HW131514   0.856   0.887   6.222
10205SOL    HW231515   0.735   0.780   6.195
10206SOL     OW31516   1.483   1.044   5.123
10206SOL    HW131517   1.435   0.959   5.106
10206SOL    HW231518   1.466   1.108   5.049
10207SOL     OW31519   1.588   1.930   5.159
10207SOL    HW131520   1.593   1.868   5.237
10207SOL    HW231521   1.493   1.956   5.142
10208SOL     OW31522   6.690   4.736   5.525
10208SOL    HW131523   6.769   4.798   5.524
10208SOL    HW231524   6.632   4.756   5.604
10209SOL     OW31525   6.643   6.560   6.142
10209SOL    HW131526   6.665   6.464   6.157
10209SOL    HW231527   6.656   6.582   6.045
10210SOL     OW31528   3.486   6.488   2.179
10210SOL    HW131529   3.553   6.414   2.172
10210SOL    HW231530   3.436   6.495   2.093
10211SOL     OW31531   5.129   6.051   5.458
10211SOL    HW131532   5.065   5.988   5.415
10211SOL    HW231533   5.189   6.091   5.389
10212SOL     OW31534   0.244   0.338   6.378
10212SOL    HW131535   0.152   0.379   6.374
10212SOL    HW231536   0.305   0.398   6.429
10213SOL     OW31537   5.989   1.671   1.045
10213SOL    HW131538   5.955   1.617   0.967
10213SOL    HW231539   6.078   1.635   1.074
10214SOL     OW31540   0.640   2.454   0.769
10214SOL    HW131541   0.682   2.417   0.852
10214SOL    HW231542   0.629   2.380   0.702
10215SOL     OW31543   2.966   3.186   2.176
10215SOL    HW131544   3.040   3.189   2.108
10215SOL    HW231545   2.898   3.255   2.155
10216SOL     OW31546   6.521   6.554   3.100
10216SOL    HW131547   6.507   6.484   3.171
10216SOL    HW231548   6.525   6.510   3.011
10217SOL     OW31549   3.212   0.875   3.859
10217SOL    HW131550   3.275   0.949   3.837
10217SOL    HW231551   3.124   0.914   3.889
10218SOL     OW31552   1.515   2.927   2.747
10218SOL    HW131553   1.444   2.863   2.720
10218SOL    HW231554   1.487   2.975   2.830
10219SOL     OW31555   6.767   0.130   3.085
10219SOL    HW131556   6.817   0.074   3.019
10219SOL    HW231557   6.832   0.173   3.148
10220SOL     OW31558   3.564   2.542   1.141
10220SOL    HW131559   3.568   2.462   1.081
10220SOL    HW231560   3.480   2.594   1.121
10221SOL     OW31561   0.782   5.617   4.099
10221SOL    HW131562   0.779   5.530   4.050
10221SOL    HW231563   0.776   5.693   4.034
10222SOL     OW31564   2.875   3.649   4.231
10222SOL    HW131565   2.912   3.724   4.177
10222SOL    HW231566   2.784   3.674   4.264
10223SOL     OW31567   0.583   6.165   1.698
10223SOL    HW131568   0.663   6.206   1.742
10223SOL    HW231569   0.613   6.100   1.629
10224SOL     OW31570   5.507   3.996   3.335
10224SOL    HW131571   5.568   4.075   3.324
10224SOL    HW231572   5.553   3.925   3.388
10225SOL     OW31573   2.589   3.619   5.722
10225SOL    HW131574   2.558   3.711   5.698
10225SOL    HW231575   2.658   3.624   5.793
10226SOL     OW31576   4.826   2.767   6.951
10226SOL    HW131577   4.870   2.677   6.951
10226SOL    HW231578   4.833   2.808   0.026
10227SOL     OW31579   5.148   3.763   1.360
10227SOL    HW131580   5.245   3.784   1.347
10227SOL    HW231581   5.123   3.779   1.456
10228SOL     OW31582   5.751   0.624   1.174
10228SOL    HW131583   5.765   0.723   1.169
10228SOL    HW231584   5.709   0.593   1.088
10229SOL     OW31585   6.355   3.305   4.814
10229SOL    HW131586   6.429   3.260   4.863
10229SOL    HW231587   6.385   3.396   4.785
10230SOL     OW31588   0.248   6.116   2.501
10230SOL    HW131589   0.302   6.132   2.584
10230SOL    HW231590   0.282   6.175   2.428
10231SOL     OW31591   1.402   5.448   3.034
10231SOL    HW131592   1.333   5.514   3.004
10231SOL    HW231593   1.380   5.415   3.125
10232SOL     OW31594   5.113   4.711   4.097
10232SOL    HW131595   5.108   4.634   4.033
10232SOL    HW231596   5.029   4.765   4.089
10233SOL     OW31597   3.359   3.878   6.225
10233SOL    HW131598   3.272   3.926   6.230
10233SOL    HW231599   3.421   3.914   6.295
10234SOL     OW31600   0.345   1.256   2.422
10234SOL    HW131601   0.412   1.298   2.360
10234SOL    HW231602   0.313   1.170   2.382
10235SOL     OW31603   1.300   0.804   2.692
10235SOL    HW131604   1.282   0.822   2.789
10235SOL    HW231605   1.369   0.868   2.659
10236SOL     OW31606   2.411   6.297   2.048
10236SOL    HW131607   2.391   6.289   1.950
10236SOL    HW231608   2.484   6.364   2.061
10237SOL     OW31609   0.398   3.211   5.481
10237SOL    HW131610   0.411   3.306   5.453
10237SOL    HW231611   0.441   3.196   5.570
10238SOL     OW31612   3.546   0.020   1.984
10238SOL    HW131613   3.448   0.039   1.973
10238SOL    HW231614   3.565   7.015   2.080
10239SOL     OW31615   0.755   2.553   3.901
10239SOL    HW131616   0.771   2.460   3.867
10239SOL    HW231617   0.820   2.573   3.975
10240SOL     OW31618   2.396   6.615   0.570
10240SOL    HW131619   2.462   6.686   0.545
10240SOL    HW231620   2.445   6.533   0.597
10241SOL     OW31621   4.036   2.486   1.499
10241SOL    HW131622   4.084   2.571   1.477
10241SOL    HW231623   4.000   2.491   1.592
10242SOL     OW31624   6.531   2.667   6.992
10242SOL    HW131625   6.559   2.704   6.904
10242SOL    HW231626   6.560   2.572   6.999
10243SOL     OW31627   2.748   5.219   1.388
10243SOL    HW131628   2.723   5.302   1.437
10243SOL    HW231629   2.813   5.166   1.442
10244SOL     OW31630   2.969   4.378   1.430
10244SOL    HW131631   2.948   4.475   1.427
10244SOL    HW231632   2.947   4.341   1.520
10245SOL     OW31633   4.773   3.927   0.681
10245SOL    HW131634   4.866   3.949   0.711
10245SOL    HW231635   4.753   3.832   0.703
10246SOL     OW31636   3.535   2.874   4.128
10246SOL    HW131637   3.618   2.922   4.156
10246SOL    HW231638   3.514   2.802   4.195
10247SOL     OW31639   0.510   3.016   4.283
10247SOL    HW131640   0.473   2.969   4.203
10247SOL    HW231641   0.435   3.055   4.336
10248SOL     OW31642   1.114   0.498   3.708
10248SOL    HW131643   1.139   0.464   3.618
10248SOL    HW231644   1.073   0.424   3.762
10249SOL     OW31645   2.936   5.404   6.130
10249SOL    HW131646   2.858   5.386   6.071
10249SOL    HW231647   2.939   5.501   6.153
10250SOL     OW31648   4.406   2.316   1.000
10250SOL    HW131649   4.333   2.379   0.972
10250SOL    HW231650   4.400   2.301   1.099
10251SOL     OW31651   1.463   0.481   4.192
10251SOL    HW131652   1.382   0.523   4.232
10251SOL    HW231653   1.463   0.383   4.212
10252SOL     OW31654   5.475   4.266   6.395
10252SOL    HW131655   5.537   4.331   6.440
10252SOL    HW231656   5.495   4.265   6.296
10253SOL     OW31657   3.523   5.934   6.457
10253SOL    HW131658   3.470   5.858   6.421
10253SOL    HW231659   3.512   6.015   6.399
10254SOL     OW31660   5.906   1.323   5.644
10254SOL    HW131661   5.906   1.357   5.738
10254SOL    HW231662   5.887   1.399   5.581
10255SOL     OW31663   4.137   4.438   1.446
10255SOL    HW131664   4.119   4.459   1.349
10255SOL    HW231665   4.051   4.413   1.491
10256SOL     OW31666   3.677   1.562   3.450
10256SOL    HW131667   3.776   1.547   3.450
10256SOL    HW231668   3.631   1.478   3.478
10257SOL     OW31669   4.097   5.477   2.895
10257SOL    HW131670   4.006   5.458   2.932
10257SOL    HW231671   4.097   5.462   2.796
10258SOL     OW31672   1.727   1.398   1.881
10258SOL    HW131673   1.682   1.366   1.797
10258SOL    HW231674   1.685   1.354   1.960
10259SOL     OW31675   1.862   4.424   3.712
10259SOL    HW131676   1.773   4.422   3.667
10259SOL    HW231677   1.863   4.360   3.788
10260SOL     OW31678   1.025   0.712   3.557
10260SOL    HW131679   1.069   0.644   3.616
10260SOL    HW231680   1.024   0.678   3.463
10261SOL     OW31681   6.890   3.549   1.230
10261SOL    HW131682   6.827   3.481   1.267
10261SOL    HW231683   6.869   3.639   1.269
10262SOL     OW31684   4.536   1.651   0.903
10262SOL    HW131685   4.464   1.640   0.835
10262SOL    HW231686   4.502   1.705   0.981
10263SOL     OW31687   6.110   0.874   2.040
10263SOL    HW131688   6.158   0.934   2.103
10263SOL    HW231689   6.029   0.837   2.085
10264SOL     OW31690   6.640   6.408   6.628
10264SOL    HW131691   6.587   6.356   6.560
10264SOL    HW231692   6.716   6.352   6.661
10265SOL     OW31693   1.823   1.836   0.843
10265SOL    HW131694   1.753   1.769   0.818
10265SOL    HW231695   1.875   1.803   0.922
10266SOL     OW31696   2.568   3.407   1.765
10266SOL    HW131697   2.486   3.449   1.805
10266SOL    HW231698   2.647   3.467   1.782
10267SOL     OW31699   5.731   0.807   1.549
10267SOL    HW131700   5.724   0.838   1.644
10267SOL    HW231701   5.686   0.718   1.540
10268SOL     OW31702   3.713   6.817   1.319
10268SOL    HW131703   3.640   6.833   1.386
10268SOL    HW231704   3.674   6.783   1.234
10269SOL     OW31705   2.996   2.309   0.599
10269SOL    HW131706   2.950   2.255   0.529
10269SOL    HW231707   3.074   2.257   0.635
10270SOL     OW31708   2.699   0.339   2.575
10270SOL    HW131709   2.709   0.431   2.538
10270SOL    HW231710   2.776   0.283   2.545
10271SOL     OW31711   1.299   2.022   6.611
10271SOL    HW131712   1.379   2.076   6.584
10271SOL    HW231713   1.216   2.062   6.573
10272SOL     OW31714   6.166   0.083   4.646
10272SOL    HW131715   6.165   0.171   4.693
10272SOL    HW231716   6.218   0.017   4.701
10273SOL     OW31717   2.110   5.529   3.260
10273SOL    HW131718   2.094   5.535   3.161
10273SOL    HW231719   2.205   5.504   3.277
10274SOL     OW31720   0.968   5.030   5.428
10274SOL    HW131721   0.962   5.107   5.492
10274SOL    HW231722   0.877   4.990   5.415
10275SOL     OW31723   6.843   0.233   2.546
10275SOL    HW131724   6.794   0.317   2.565
10275SOL    HW231725   6.931   0.254   2.502
10276SOL     OW31726   3.388   5.288   5.591
10276SOL    HW131727   3.388   5.381   5.625
10276SOL    HW231728   3.450   5.232   5.647
10277SOL     OW31729   0.172   6.303   4.398
10277SOL    HW131730   0.259   6.276   4.356
10277SOL    HW231731   0.113   6.223   4.404
10278SOL     OW31732   6.605   0.459   4.938
10278SOL    HW131733   6.570   0.443   5.030
10278SOL    HW231734   6.663   0.541   4.939
10279SOL     OW31735   2.187   5.904   4.158
10279SOL    HW131736   2.239   5.953   4.228
10279SOL    HW231737   2.188   5.956   4.073
10280SOL     OW31738   6.320   4.142   0.653
10280SOL    HW131739   6.285   4.090   0.730
10280SOL    HW231740   6.408   4.183   0.677
10281SOL     OW31741   6.869   1.464   3.132
10281SOL    HW131742   6.792   1.402   3.151
10281SOL    HW231743   6.914   1.489   3.218
10282SOL     OW31744   4.822   3.191   3.555
10282SOL    HW131745   4.835   3.132   3.475
10282SOL    HW231746   4.736   3.241   3.546
10283SOL     OW31747   0.488   2.913   1.193
10283SOL    HW131748   0.441   2.883   1.110
10283SOL    HW231749   0.468   2.848   1.267
10284SOL     OW31750   0.036   3.455   4.006
10284SOL    HW131751   0.105   3.507   3.955
10284SOL    HW231752   6.961   3.497   3.992
10285SOL     OW31753   5.790   5.786   5.411
10285SOL    HW131754   5.803   5.729   5.493
10285SOL    HW231755   5.801   5.882   5.436
10286SOL     OW31756   2.898   1.089   3.184
10286SOL    HW131757   2.906   1.141   3.269
10286SOL    HW231758   2.816   1.116   3.135
10287SOL     OW31759   2.310   5.705   2.881
10287SOL    HW131760   2.329   5.763   2.961
10287SOL    HW231761   2.333   5.755   2.798
10288SOL     OW31762   3.607   6.659   5.385
10288SOL    HW131763   3.523   6.667   5.331
10288SOL    HW231764   3.587   6.687   5.480
10289SOL     OW31765   3.128   5.418   6.759
10289SOL    HW131766   3.093   5.336   6.804
10289SOL    HW231767   3.123   5.407   6.660
10290SOL     OW31768   3.452   2.909   1.797
10290SOL    HW131769   3.547   2.914   1.828
10290SOL    HW231770   3.434   2.817   1.760
10291SOL     OW31771   2.128   1.716   2.172
10291SOL    HW131772   2.146   1.809   2.139
10291SOL    HW231773   2.214   1.666   2.179
10292SOL     OW31774   6.139   6.784   6.491
10292SOL    HW131775   6.111   6.843   6.415
10292SOL    HW231776   6.201   6.833   6.551
10293SOL     OW31777   1.280   4.136   4.540
10293SOL    HW131778   1.377   4.111   4.544
10293SOL    HW231779   1.253   4.178   4.627
10294SOL     OW31780   3.751   1.500   2.153
10294SOL    HW131781   3.772   1.561   2.077
10294SOL    HW231782   3.750   1.552   2.239
10295SOL     OW31783   0.762   1.805   6.755
10295SOL    HW131784   0.839   1.741   6.746
10295SOL    HW231785   0.679   1.760   6.722
10296SOL     OW31786   5.756   1.000   5.852
10296SOL    HW131787   5.774   0.978   5.756
10296SOL    HW231788   5.731   1.096   5.861
10297SOL     OW31789   3.726   0.970   6.696
10297SOL    HW131790   3.825   0.984   6.708
10297SOL    HW231791   3.677   1.053   6.722
10298SOL     OW31792   0.579   2.284   2.281
10298SOL    HW131793   0.480   2.284   2.269
10298SOL    HW231794   0.613   2.378   2.273
10299SOL     OW31795   4.115   6.267   3.036
10299SOL    HW131796   4.115   6.285   3.135
10299SOL    HW231797   4.168   6.185   3.017
10300SOL     OW31798   0.966   3.762   1.347
10300SOL    HW131799   0.903   3.838   1.359
10300SOL    HW231800   0.968   3.706   1.430
10301SOL     OW31801   4.465   0.259   6.227
10301SOL    HW131802   4.416   0.191   6.283
10301SOL    HW231803   4.558   0.270   6.262
10302SOL     OW31804   2.847   5.971   5.172
10302SOL    HW131805   2.801   6.035   5.233
10302SOL    HW231806   2.866   5.886   5.221
10303SOL     OW31807   0.707   5.943   4.852
10303SOL    HW131808   0.609   5.954   4.867
10303SOL    HW231809   0.739   5.860   4.899
10304SOL     OW31810   6.153   6.418   0.556
10304SOL    HW131811   6.101   6.369   0.486
10304SOL    HW231812   6.160   6.514   0.531
10305SOL     OW31813   2.996   4.073   6.038
10305SOL    HW131814   2.946   4.158   6.054
10305SOL    HW231815   2.938   4.008   5.988
10306SOL     OW31816   4.534   0.617   1.300
10306SOL    HW131817   4.481   0.551   1.354
10306SOL    HW231818   4.492   0.708   1.308
10307SOL     OW31819   2.075   0.372   5.059
10307SOL    HW131820   2.097   0.274   5.057
10307SOL    HW231821   2.120   0.414   5.138
10308SOL     OW31822   2.576   5.006   2.315
10308SOL    HW131823   2.667   4.974   2.289
10308SOL    HW231824   2.513   4.929   2.318
10309SOL     OW31825   0.098   1.729   4.846
10309SOL    HW131826   0.123   1.820   4.880
10309SOL    HW231827   0.180   1.672   4.842
10310SOL     OW31828   2.214   4.169   5.918
10310SOL    HW131829   2.265   4.221   5.849
10310SOL    HW231830   2.187   4.081   5.879
10311SOL     OW31831   4.803   5.482   0.269
10311SOL    HW131832   4.891   5.506   0.228
10311SOL    HW231833   4.761   5.563   0.309
10312SOL     OW31834   4.390   0.731   2.361
10312SOL    HW131835   4.335   0.754   2.280
10312SOL    HW231836   4.353   0.779   2.440
10313SOL     OW31837   4.908   0.260   3.282
10313SOL    HW131838   4.859   0.325   3.341
10313SOL    HW231839   4.842   0.210   3.226
10314SOL     OW31840   0.359   0.337   1.194
10314SOL    HW131841   0.351   0.424   1.147
10314SOL    HW231842   0.287   0.329   1.263
10315SOL     OW31843   5.449   5.557   3.642
10315SOL    HW131844   5.541   5.591   3.625
10315SOL    HW231845   5.451   5.457   3.650
10316SOL     OW31846   0.520   1.932   6.547
10316SOL    HW131847   0.539   1.862   6.615
10316SOL    HW231848   0.486   2.015   6.593
10317SOL     OW31849   3.621   5.475   5.513
10317SOL    HW131850   3.612   5.388   5.465
10317SOL    HW231851   3.607   5.551   5.449
10318SOL     OW31852   6.308   6.890   0.368
10318SOL    HW131853   6.381   6.847   0.421
10318SOL    HW231854   6.342   6.913   0.277
10319SOL     OW31855   0.520   4.698   4.068
10319SOL    HW131856   0.575   4.629   4.021
10319SOL    HW231857   0.581   4.764   4.113
10320SOL     OW31858   0.298   6.811   3.853
10320SOL    HW131859   0.373   6.839   3.794
10320SOL    HW231860   0.252   6.892   3.890
10321SOL     OW31861   5.166   2.434   2.278
10321SOL    HW131862   5.265   2.438   2.291
10321SOL    HW231863   5.145   2.382   2.195
10322SOL     OW31864   4.601   4.454   5.012
10322SOL    HW131865   4.509   4.422   5.034
10322SOL    HW231866   4.618   4.542   5.058
10323SOL     OW31867   0.418   4.186   5.212
10323SOL    HW131868   0.338   4.231   5.174
10323SOL    HW231869   0.392   4.135   5.294
10324SOL     OW31870   3.191   3.214   1.989
10324SOL    HW131871   3.258   3.240   1.919
10324SOL    HW231872   3.166   3.118   1.976
10325SOL     OW31873   6.904   5.739   3.137
10325SOL    HW131874   6.990   5.688   3.134
10325SOL    HW231875   6.905   5.810   3.067
10326SOL     OW31876   5.337   3.503   6.636
10326SOL    HW131877   5.394   3.499   6.554
10326SOL    HW231878   5.263   3.436   6.629
10327SOL     OW31879   2.373   4.569   1.553
10327SOL    HW131880   2.441   4.577   1.481
10327SOL    HW231881   2.311   4.648   1.550
10328SOL     OW31882   5.895   2.393   1.738
10328SOL    HW131883   5.844   2.412   1.822
10328SOL    HW231884   5.968   2.460   1.728
10329SOL     OW31885   3.741   1.633   2.756
10329SOL    HW131886   3.760   1.634   2.658
10329SOL    HW231887   3.793   1.706   2.801
10330SOL     OW31888   4.217   1.168   1.569
10330SOL    HW131889   4.306   1.124   1.564
10330SOL    HW231890   4.228   1.267   1.560
10331SOL     OW31891   6.144   5.358   6.673
10331SOL    HW131892   6.149   5.365   6.574
10331SOL    HW231893   6.088   5.279   6.698
10332SOL     OW31894   1.043   1.255   6.950
10332SOL    HW131895   1.094   1.336   6.922
10332SOL    HW231896   1.061   1.236   0.032
10333SOL     OW31897   0.614   4.933   4.706
10333SOL    HW131898   0.533   4.912   4.651
10333SOL    HW231899   0.653   4.848   4.742
10334SOL     OW31900   3.352   6.646   3.555
10334SOL    HW131901   3.393   6.734   3.532
10334SOL    HW231902   3.359   6.631   3.654
10335SOL     OW31903   0.644   2.433   5.265
10335SOL    HW131904   0.572   2.500   5.245
10335SOL    HW231905   0.650   2.420   5.364
10336SOL     OW31906   4.900   6.880   3.584
10336SOL    HW131907   4.959   6.952   3.621
10336SOL    HW231908   4.957   6.806   3.549
10337SOL     OW31909   6.418   5.128   6.733
10337SOL    HW131910   6.436   5.214   6.684
10337SOL    HW231911   6.378   5.148   6.822
10338SOL     OW31912   1.268   6.355   1.706
10338SOL    HW131913   1.186   6.298   1.702
10338SOL    HW231914   1.347   6.301   1.677
10339SOL     OW31915   6.295   2.188   5.441
10339SOL    HW131916   6.289   2.155   5.535
10339SOL    HW231917   6.373   2.144   5.395
10340SOL     OW31918   2.339   3.107   6.433
10340SOL    HW131919   2.357   3.163   6.352
10340SOL    HW231920   2.420   3.054   6.456
10341SOL     OW31921   2.270   2.955   2.854
10341SOL    HW131922   2.316   2.959   2.943
10341SOL    HW231923   2.209   3.034   2.844
10342SOL     OW31924   1.241   1.287   3.266
10342SOL    HW131925   1.287   1.272   3.178
10342SOL    HW231926   1.286   1.232   3.336
10343SOL     OW31927   2.976   5.247   1.935
10343SOL    HW131928   2.944   5.303   2.011
10343SOL    HW231929   3.025   5.166   1.970
10344SOL     OW31930   4.261   5.789   5.956
10344SOL    HW131931   4.271   5.847   6.036
10344SOL    HW231932   4.285   5.842   5.874
10345SOL     OW31933   1.800   3.643   4.302
10345SOL    HW131934   1.773   3.560   4.351
10345SOL    HW231935   1.855   3.701   4.363
10346SOL     OW31936   0.118   5.925   0.598
10346SOL    HW131937   0.062   6.008   0.600
10346SOL    HW231938   0.200   5.939   0.653
10347SOL     OW31939   5.069   1.597   3.779
10347SOL    HW131940   5.039   1.657   3.853
10347SOL    HW231941   5.010   1.516   3.776
10348SOL     OW31942   6.620   3.991   0.812
10348SOL    HW131943   6.642   4.077   0.765
10348SOL    HW231944   6.521   3.988   0.828
10349SOL     OW31945   1.244   6.300   6.716
10349SOL    HW131946   1.162   6.243   6.705
10349SOL    HW231947   1.300   6.293   6.634
10350SOL     OW31948   3.502   0.001   5.907
10350SOL    HW131949   3.565   6.971   5.970
10350SOL    HW231950   3.461   0.080   5.952
10351SOL     OW31951   3.950   5.008   6.046
10351SOL    HW131952   3.987   5.009   5.953
10351SOL    HW231953   4.010   4.954   6.105
10352SOL     OW31954   3.474   3.362   5.951
10352SOL    HW131955   3.494   3.459   5.963
10352SOL    HW231956   3.516   3.330   5.866
10353SOL     OW31957   0.489   2.297   4.982
10353SOL    HW131958   0.578   2.279   4.939
10353SOL    HW231959   0.458   2.216   5.031
10354SOL     OW31960   5.654   1.823   1.755
10354SOL    HW131961   5.629   1.793   1.846
10354SOL    HW231962   5.622   1.757   1.687
10355SOL     OW31963   1.713   4.671   2.178
10355SOL    HW131964   1.771   4.729   2.122
10355SOL    HW231965   1.729   4.575   2.154
10356SOL     OW31966   0.110   3.339   4.412
10356SOL    HW131967   0.065   3.352   4.324
10356SOL    HW231968   0.161   3.421   4.436
10357SOL     OW31969   2.619   1.767   0.528
10357SOL    HW131970   2.559   1.723   0.595
10357SOL    HW231971   2.643   1.701   0.457
10358SOL     OW31972   0.332   1.497   2.098
10358SOL    HW131973   0.307   1.584   2.140
10358SOL    HW231974   0.385   1.442   2.163
10359SOL     OW31975   0.746   1.311   1.536
10359SOL    HW131976   0.802   1.354   1.607
10359SOL    HW231977   0.732   1.376   1.461
10360SOL     OW31978   6.275   6.197   3.928
10360SOL    HW131979   6.371   6.175   3.911
10360SOL    HW231980   6.238   6.135   3.997
10361SOL     OW31981   2.000   4.720   1.345
10361SOL    HW131982   1.931   4.647   1.339
10361SOL    HW231983   2.084   4.689   1.301
10362SOL     OW31984   1.557   5.174   4.052
10362SOL    HW131985   1.520   5.143   4.140
10362SOL    HW231986   1.652   5.145   4.043
10363SOL     OW31987   5.449   0.518   3.959
10363SOL    HW131988   5.537   0.514   4.006
10363SOL    HW231989   5.462   0.501   3.861
10364SOL     OW31990   1.120   4.691   1.583
10364SOL    HW131991   1.152   4.770   1.635
10364SOL    HW231992   1.103   4.718   1.488
10365SOL     OW31993   4.268   5.365   6.984
10365SOL    HW131994   4.200   5.382   0.040
10365SOL    HW231995   4.226   5.311   6.911
10366SOL     OW31996   3.373   6.932   3.863
10366SOL    HW131997   3.410   6.868   3.931
10366SOL    HW231998   3.449   6.970   3.809
10367SOL     OW31999   6.882   2.365   3.227
10367SOL    HW132000   6.819   2.294   3.257
10367SOL    HW232001   6.962   2.367   3.287
10368SOL     OW32002   2.695   0.426   1.383
10368SOL    HW132003   2.698   0.404   1.480
10368SOL    HW232004   2.699   0.526   1.371
10369SOL     OW32005   3.993   2.819   0.275
10369SOL    HW132006   4.029   2.887   0.211
10369SOL    HW232007   3.919   2.860   0.328
10370SOL     OW32008   3.454   0.737   5.008
10370SOL    HW132009   3.390   0.772   5.077
10370SOL    HW232010   3.404   0.721   4.923
10371SOL     OW32011   5.068   6.613   5.977
10371SOL    HW132012   5.070   6.516   5.997
10371SOL    HW232013   5.024   6.663   6.052
10372SOL     OW32014   0.656   0.327   3.026
10372SOL    HW132015   0.649   0.230   3.050
10372SOL    HW232016   0.714   0.374   3.092
10373SOL     OW32017   1.306   5.512   4.915
10373SOL    HW132018   1.358   5.438   4.872
10373SOL    HW232019   1.333   5.599   4.873
10374SOL     OW32020   2.782   2.369   4.260
10374SOL    HW132021   2.780   2.360   4.359
10374SOL    HW232022   2.694   2.405   4.228
10375SOL     OW32023   6.307   2.453   0.375
10375SOL    HW132024   6.363   2.370   0.375
10375SOL    HW232025   6.262   2.463   0.464
10376SOL     OW32026   6.542   1.423   3.519
10376SOL    HW132027   6.465   1.411   3.457
10376SOL    HW232028   6.519   1.492   3.588
10377SOL     OW32029   1.226   6.787   4.653
10377SOL    HW132030   1.195   6.778   4.558
10377SOL    HW232031   1.263   6.879   4.667
10378SOL     OW32032   6.712   6.645   6.760
10378SOL    HW132033   6.674   6.569   6.708
10378SOL    HW232034   6.679   6.731   6.723
10379SOL     OW32035   4.993   1.613   4.639
10379SOL    HW132036   4.931   1.663   4.700
10379SOL    HW232037   5.048   1.679   4.587
10380SOL     OW32038   4.377   0.990   3.112
10380SOL    HW132039   4.372   0.898   3.150
10380SOL    HW232040   4.303   1.002   3.045
10381SOL     OW32041   4.446   5.361   4.867
10381SOL    HW132042   4.360   5.326   4.904
10381SOL    HW232043   4.509   5.381   4.943
10382SOL     OW32044   1.886   5.226   0.523
10382SOL    HW132045   1.852   5.176   0.602
10382SOL    HW232046   1.984   5.242   0.534
10383SOL     OW32047   6.771   2.921   6.387
10383SOL    HW132048   6.767   2.828   6.350
10383SOL    HW232049   6.765   2.918   6.486
10384SOL     OW32050   6.123   0.481   0.177
10384SOL    HW132051   6.118   0.580   0.188
10384SOL    HW232052   6.128   0.458   0.080
10385SOL     OW32053   5.381   2.267   6.659
10385SOL    HW132054   5.309   2.280   6.728
10385SOL    HW232055   5.358   2.318   6.577
10386SOL     OW32056   6.098   2.451   6.567
10386SOL    HW132057   6.078   2.500   6.482
10386SOL    HW232058   6.054   2.499   6.643
10387SOL     OW32059   2.138   3.376   3.043
10387SOL    HW132060   2.158   3.381   3.141
10387SOL    HW232061   2.137   3.468   3.004
10388SOL     OW32062   1.402   4.322   2.371
10388SOL    HW132063   1.465   4.254   2.408
10388SOL    HW232064   1.314   4.315   2.418
10389SOL     OW32065   0.174   5.685   2.996
10389SOL    HW132066   0.268   5.688   3.028
10389SOL    HW232067   0.150   5.773   2.955
10390SOL     OW32068   1.885   3.295   3.222
10390SOL    HW132069   1.880   3.227   3.149
10390SOL    HW232070   1.981   3.310   3.247
10391SOL     OW32071   3.538   6.245   5.149
10391SOL    HW132072   3.486   6.290   5.221
10391SOL    HW232073   3.475   6.210   5.079
10392SOL     OW32074   6.629   4.734   6.614
10392SOL    HW132075   6.690   4.665   6.653
10392SOL    HW232076   6.574   4.775   6.686
10393SOL     OW32077   1.504   1.127   3.911
10393SOL    HW132078   1.574   1.186   3.871
10393SOL    HW232079   1.430   1.114   3.846
10394SOL     OW32080   3.148   6.732   6.983
10394SOL    HW132081   3.226   6.692   6.935
10394SOL    HW232082   3.113   6.667   0.035
10395SOL     OW32083   1.198   1.875   4.899
10395SOL    HW132084   1.233   1.815   4.827
10395SOL    HW232085   1.157   1.956   4.857
10396SOL     OW32086   0.481   0.440   5.235
10396SOL    HW132087   0.471   0.490   5.321
10396SOL    HW232088   0.576   0.445   5.204
10397SOL     OW32089   3.891   2.139   2.849
10397SOL    HW132090   3.804   2.096   2.875
10397SOL    HW232091   3.924   2.195   2.925
10398SOL     OW32092   6.654   3.135   2.614
10398SOL    HW132093   6.639   3.143   2.515
10398SOL    HW232094   6.738   3.085   2.632
10399SOL     OW32095   6.374   2.428   5.534
10399SOL    HW132096   6.336   2.414   5.625
10399SOL    HW232097   6.363   2.344   5.480
10400SOL     OW32098   2.170   4.781   1.562
10400SOL    HW132099   2.109   4.736   1.497
10400SOL    HW232100   2.257   4.801   1.517
10401SOL     OW32101   1.226   6.143   1.204
10401SOL    HW132102   1.160   6.084   1.158
10401SOL    HW232103   1.179   6.219   1.248
10402SOL     OW32104   0.324   2.609   4.291
10402SOL    HW132105   0.415   2.646   4.271
10402SOL    HW232106   0.265   2.624   4.211
10403SOL     OW32107   4.426   1.651   2.367
10403SOL    HW132108   4.467   1.609   2.286
10403SOL    HW232109   4.349   1.595   2.397
10404SOL     OW32110   0.085   6.645   3.731
10404SOL    HW132111   0.021   6.633   3.806
10404SOL    HW232112   0.158   6.707   3.759
10405SOL     OW32113   2.068   6.943   6.662
10405SOL    HW132114   2.166   6.946   6.686
10405SOL    HW232115   2.037   6.848   6.663
10406SOL     OW32116   1.896   5.657   5.568
10406SOL    HW132117   1.824   5.595   5.538
10406SOL    HW232118   1.984   5.610   5.568
10407SOL     OW32119   1.236   1.228   5.661
10407SOL    HW132120   1.257   1.318   5.625
10407SOL    HW232121   1.319   1.173   5.663
10408SOL     OW32122   4.098   6.049   3.392
10408SOL    HW132123   4.033   6.116   3.427
10408SOL    HW232124   4.173   6.040   3.457
10409SOL     OW32125   6.393   4.860   2.269
10409SOL    HW132126   6.441   4.826   2.350
10409SOL    HW232127   6.448   4.931   2.225
10410SOL     OW32128   5.957   6.696   0.802
10410SOL    HW132129   6.054   6.671   0.793
10410SOL    HW232130   5.947   6.794   0.783
10411SOL     OW32131   1.839   4.175   2.591
10411SOL    HW132132   1.908   4.172   2.518
10411SOL    HW232133   1.850   4.259   2.644
10412SOL     OW32134   0.097   2.354   6.683
10412SOL    HW132135   0.051   2.442   6.690
10412SOL    HW232136   0.064   2.305   6.602
10413SOL     OW32137   0.103   2.071   5.844
10413SOL    HW132138   0.073   2.053   5.750
10413SOL    HW232139   0.150   1.990   5.880
10414SOL     OW32140   5.769   0.212   4.923
10414SOL    HW132141   5.719   0.190   4.839
10414SOL    HW232142   5.857   0.164   4.922
10415SOL     OW32143   0.504   5.303   3.104
10415SOL    HW132144   0.566   5.317   3.182
10415SOL    HW232145   0.419   5.261   3.136
10416SOL     OW32146   5.063   6.878   0.254
10416SOL    HW132147   4.974   6.921   0.243
10416SOL    HW232148   5.094   6.890   0.349
10417SOL     OW32149   4.254   4.795   4.315
10417SOL    HW132150   4.209   4.820   4.400
10417SOL    HW232151   4.189   4.800   4.239
10418SOL     OW32152   6.829   3.766   0.122
10418SOL    HW132153   6.773   3.790   0.042
10418SOL    HW232154   6.771   3.720   0.190
10419SOL     OW32155   2.155   1.529   4.122
10419SOL    HW132156   2.116   1.456   4.178
10419SOL    HW232157   2.082   1.594   4.097
10420SOL     OW32158   5.591   3.203   4.110
10420SOL    HW132159   5.691   3.196   4.100
10420SOL    HW232160   5.564   3.170   4.200
10421SOL     OW32161   1.382   4.484   3.496
10421SOL    HW132162   1.405   4.475   3.400
10421SOL    HW232163   1.372   4.581   3.519
10422SOL     OW32164   5.990   3.111   5.323
10422SOL    HW132165   5.947   3.020   5.321
10422SOL    HW232166   5.985   3.147   5.416
10423SOL     OW32167   2.281   5.361   3.897
10423SOL    HW132168   2.292   5.429   3.824
10423SOL    HW232169   2.184   5.351   3.919
10424SOL     OW32170   3.346   1.602   0.790
10424SOL    HW132171   3.361   1.699   0.813
10424SOL    HW232172   3.273   1.566   0.848
10425SOL     OW32173   1.930   3.749   0.553
10425SOL    HW132174   2.024   3.754   0.588
10425SOL    HW232175   1.904   3.653   0.544
10426SOL     OW32176   5.926   2.332   5.848
10426SOL    HW132177   5.869   2.414   5.848
10426SOL    HW232178   5.883   2.261   5.903
10427SOL     OW32179   5.491   1.105   3.935
10427SOL    HW132180   5.468   1.181   3.874
10427SOL    HW232181   5.467   1.018   3.891
10428SOL     OW32182   1.893   6.507   5.258
10428SOL    HW132183   1.906   6.545   5.349
10428SOL    HW232184   1.967   6.537   5.198
10429SOL     OW32185   1.577   3.617   1.593
10429SOL    HW132186   1.611   3.618   1.499
10429SOL    HW232187   1.654   3.616   1.656
10430SOL     OW32188   3.096   0.590   4.350
10430SOL    HW132189   3.021   0.572   4.286
10430SOL    HW232190   3.059   0.637   4.431
10431SOL     OW32191   3.963   1.192   4.183
10431SOL    HW132192   3.897   1.169   4.254
10431SOL    HW232193   3.957   1.289   4.161
10432SOL     OW32194   1.209   5.216   0.118
10432SOL    HW132195   1.211   5.241   0.215
10432SOL    HW232196   1.179   5.121   0.109
10433SOL     OW32197   3.991   6.560   3.855
10433SOL    HW132198   3.954   6.513   3.936
10433SOL    HW232199   3.973   6.506   3.774
10434SOL     OW32200   4.653   0.661   6.221
10434SOL    HW132201   4.688   0.684   6.130
10434SOL    HW232202   4.602   0.575   6.217
10435SOL     OW32203   2.461   1.509   1.198
10435SOL    HW132204   2.415   1.590   1.234
10435SOL    HW232205   2.543   1.491   1.252
10436SOL     OW32206   0.894   3.426   4.847
10436SOL    HW132207   0.940   3.339   4.859
10436SOL    HW232208   0.855   3.455   4.935
10437SOL     OW32209   6.672   6.598   5.482
10437SOL    HW132210   6.707   6.627   5.393
10437SOL    HW232211   6.599   6.531   5.469
10438SOL     OW32212   6.771   5.935   0.028
10438SOL    HW132213   6.699   5.995   0.063
10438SOL    HW232214   6.821   5.982   6.971
10439SOL     OW32215   6.518   5.484   5.051
10439SOL    HW132216   6.467   5.542   5.114
10439SOL    HW232217   6.535   5.533   4.966
10440SOL     OW32218   6.238   2.128   0.780
10440SOL    HW132219   6.204   2.036   0.797
10440SOL    HW232220   6.231   2.182   0.864
10441SOL     OW32221   4.688   1.999   6.501
10441SOL    HW132222   4.648   1.989   6.592
10441SOL    HW232223   4.690   2.096   6.476
10442SOL     OW32224   2.136   1.078   4.873
10442SOL    HW132225   2.130   0.985   4.836
10442SOL    HW232226   2.046   1.109   4.902
10443SOL     OW32227   1.249   0.550   0.747
10443SOL    HW132228   1.254   0.457   0.710
10443SOL    HW232229   1.207   0.548   0.837
10444SOL     OW32230   4.375   4.750   4.022
10444SOL    HW132231   4.449   4.722   4.083
10444SOL    HW232232   4.287   4.732   4.066
10445SOL     OW32233   1.173   3.141   4.101
10445SOL    HW132234   1.173   3.157   4.199
10445SOL    HW232235   1.158   3.228   4.053
10446SOL     OW32236   2.181   5.166   5.489
10446SOL    HW132237   2.185   5.080   5.541
10446SOL    HW232238   2.243   5.160   5.411
10447SOL     OW32239   0.977   1.623   2.733
10447SOL    HW132240   1.012   1.530   2.730
10447SOL    HW232241   0.879   1.623   2.717
10448SOL     OW32242   1.872   5.748   2.169
10448SOL    HW132243   1.887   5.649   2.178
10448SOL    HW232244   1.960   5.795   2.163
10449SOL     OW32245   4.190   5.056   4.473
10449SOL    HW132246   4.142   5.047   4.560
10449SOL    HW232247   4.236   4.970   4.451
10450SOL     OW32248   0.044   1.059   4.330
10450SOL    HW132249   6.989   1.105   4.383
10450SOL    HW232250   0.130   1.059   4.381
10451SOL     OW32251   3.456   1.709   4.319
10451SOL    HW132252   3.485   1.622   4.359
10451SOL    HW232253   3.527   1.778   4.334
10452SOL     OW32254   6.379   2.810   4.596
10452SOL    HW132255   6.322   2.893   4.595
10452SOL    HW232256   6.329   2.736   4.641
10453SOL     OW32257   4.389   5.901   4.423
10453SOL    HW132258   4.384   6.000   4.435
10453SOL    HW232259   4.297   5.862   4.429
10454SOL     OW32260   6.913   1.131   6.716
10454SOL    HW132261   6.880   1.037   6.711
10454SOL    HW232262   7.012   1.131   6.728
10455SOL     OW32263   0.432   5.970   3.279
10455SOL    HW132264   0.515   6.014   3.244
10455SOL    HW232265   0.352   6.018   3.245
10456SOL     OW32266   0.925   5.691   6.614
10456SOL    HW132267   0.841   5.688   6.559
10456SOL    HW232268   0.995   5.741   6.565
10457SOL     OW32269   3.895   2.026   6.687
10457SOL    HW132270   3.902   1.928   6.708
10457SOL    HW232271   3.944   2.045   6.602
10458SOL     OW32272   1.086   6.001   6.646
10458SOL    HW132273   1.100   6.006   6.547
10458SOL    HW232274   0.991   5.980   6.665
10459SOL     OW32275   6.035   5.701   1.517
10459SOL    HW132276   6.004   5.724   1.609
10459SOL    HW232277   5.956   5.678   1.460
10460SOL     OW32278   6.399   0.548   0.636
10460SOL    HW132279   6.343   0.610   0.690
10460SOL    HW232280   6.349   0.521   0.553
10461SOL     OW32281   0.027   4.703   6.408
10461SOL    HW132282   0.059   4.792   6.439
10461SOL    HW232283   0.102   4.655   6.361
10462SOL     OW32284   3.559   3.679   6.401
10462SOL    HW132285   3.646   3.708   6.362
10462SOL    HW232286   3.485   3.733   6.361
10463SOL     OW32287   5.026   2.599   6.593
10463SOL    HW132288   5.040   2.500   6.596
10463SOL    HW232289   5.066   2.641   6.675
10464SOL     OW32290   6.687   4.677   1.786
10464SOL    HW132291   6.667   4.632   1.873
10464SOL    HW232292   6.607   4.731   1.758
10465SOL     OW32293   5.674   4.717   1.347
10465SOL    HW132294   5.714   4.735   1.257
10465SOL    HW232295   5.684   4.797   1.406
10466SOL     OW32296   6.067   4.452   6.172
10466SOL    HW132297   6.044   4.355   6.179
10466SOL    HW232298   6.033   4.488   6.085
10467SOL     OW32299   0.089   2.678   6.868
10467SOL    HW132300   0.053   2.652   6.957
10467SOL    HW232301   0.122   2.773   6.871
10468SOL     OW32302   1.497   4.796   4.162
10468SOL    HW132303   1.420   4.786   4.100
10468SOL    HW232304   1.531   4.705   4.188
10469SOL     OW32305   1.202   1.810   3.892
10469SOL    HW132306   1.262   1.858   3.956
10469SOL    HW232307   1.221   1.712   3.896
10470SOL     OW32308   1.965   3.489   2.776
10470SOL    HW132309   2.005   3.472   2.686
10470SOL    HW232310   1.867   3.468   2.774
10471SOL     OW32311   2.265   5.750   6.421
10471SOL    HW132312   2.353   5.793   6.405
10471SOL    HW232313   2.201   5.817   6.459
10472SOL     OW32314   3.846   4.913   6.635
10472SOL    HW132315   3.899   4.965   6.569
10472SOL    HW232316   3.768   4.968   6.667
10473SOL     OW32317   6.185   4.546   0.702
10473SOL    HW132318   6.142   4.499   0.779
10473SOL    HW232319   6.115   4.575   0.638
10474SOL     OW32320   6.481   0.035   4.959
10474SOL    HW132321   6.502   0.123   4.916
10474SOL    HW232322   6.511   6.976   4.900
10475SOL     OW32323   1.019   5.173   1.223
10475SOL    HW132324   0.940   5.123   1.260
10475SOL    HW232325   1.027   5.261   1.269
10476SOL     OW32326   5.216   6.475   1.599
10476SOL    HW132327   5.185   6.449   1.690
10476SOL    HW232328   5.140   6.514   1.547
10477SOL     OW32329   0.042   5.918   3.461
10477SOL    HW132330   0.117   5.860   3.430
10477SOL    HW232331   6.970   5.872   3.442
10478SOL     OW32332   6.880   0.855   6.673
10478SOL    HW132333   6.824   0.777   6.646
10478SOL    HW232334   6.895   0.854   6.772
10479SOL     OW32335   0.681   2.776   1.912
10479SOL    HW132336   0.691   2.839   1.835
10479SOL    HW232337   0.724   2.688   1.889
10480SOL     OW32338   2.669   1.059   3.515
10480SOL    HW132339   2.667   1.095   3.608
10480SOL    HW232340   2.592   1.097   3.463
10481SOL     OW32341   6.722   1.208   0.783
10481SOL    HW132342   6.768   1.149   0.716
10481SOL    HW232343   6.767   1.297   0.785
10482SOL     OW32344   5.719   2.654   3.682
10482SOL    HW132345   5.709   2.724   3.754
10482SOL    HW232346   5.744   2.698   3.596
10483SOL     OW32347   6.378   6.480   0.284
10483SOL    HW132348   6.413   6.520   0.200
10483SOL    HW232349   6.383   6.381   0.279
10484SOL     OW32350   6.438   0.814   2.286
10484SOL    HW132351   6.513   0.753   2.311
10484SOL    HW232352   6.430   0.888   2.353
10485SOL     OW32353   5.146   3.373   5.151
10485SOL    HW132354   5.206   3.312   5.101
10485SOL    HW232355   5.051   3.349   5.132
10486SOL     OW32356   5.322   2.800   2.483
10486SOL    HW132357   5.313   2.784   2.385
10486SOL    HW232358   5.345   2.896   2.499
10487SOL     OW32359   5.345   6.806   1.736
10487SOL    HW132360   5.393   6.835   1.819
10487SOL    HW232361   5.270   6.869   1.717
10488SOL     OW32362   2.986   3.749   6.950
10488SOL    HW132363   2.952   3.694   0.011
10488SOL    HW232364   3.047   3.693   6.894
10489SOL     OW32365   1.303   5.964   4.887
10489SOL    HW132366   1.249   5.921   4.959
10489SOL    HW232367   1.281   6.062   4.882
10490SOL     OW32368   6.344   0.405   4.473
10490SOL    HW132369   6.261   0.352   4.493
10490SOL    HW232370   6.418   0.342   4.449
10491SOL     OW32371   0.500   5.092   5.268
10491SOL    HW132372   0.549   5.157   5.326
10491SOL    HW232373   0.406   5.123   5.255
10492SOL     OW32374   4.272   4.594   5.869
10492SOL    HW132375   4.365   4.578   5.836
10492SOL    HW232376   4.227   4.507   5.885
10493SOL     OW32377   3.302   1.168   0.533
10493SOL    HW132378   3.340   1.260   0.522
10493SOL    HW232379   3.325   1.133   0.623
10494SOL     OW32380   5.591   2.261   4.647
10494SOL    HW132381   5.682   2.247   4.607
10494SOL    HW232382   5.599   2.324   4.725
10495SOL     OW32383   1.858   6.692   0.662
10495SOL    HW132384   1.783   6.628   0.678
10495SOL    HW232385   1.821   6.780   0.632
10496SOL     OW32386   6.544   0.399   5.182
10496SOL    HW132387   6.488   0.328   5.225
10496SOL    HW232388   6.639   0.391   5.213
10497SOL     OW32389   0.573   1.782   6.986
10497SOL    HW132390   0.658   1.790   6.935
10497SOL    HW232391   0.507   1.849   6.953
10498SOL     OW32392   2.897   5.043   6.077
10498SOL    HW132393   2.899   4.943   6.072
10498SOL    HW232394   2.990   5.077   6.093
10499SOL     OW32395   2.812   5.232   3.209
10499SOL    HW132396   2.807   5.157   3.142
10499SOL    HW232397   2.780   5.317   3.166
10500SOL     OW32398   1.616   2.305   6.890
10500SOL    HW132399   1.684   2.244   6.848
10500SOL    HW232400   1.604   2.385   6.831
10501SOL     OW32401   1.094   2.209   3.336
10501SOL    HW132402   1.077   2.196   3.238
10501SOL    HW232403   1.163   2.281   3.348
10502SOL     OW32404   3.160   6.003   5.179
10502SOL    HW132405   3.182   5.906   5.188
10502SOL    HW232406   3.061   6.016   5.186
10503SOL     OW32407   2.632   3.688   5.394
10503SOL    HW132408   2.568   3.618   5.362
10503SOL    HW232409   2.597   3.730   5.478
10504SOL     OW32410   2.389   3.504   1.069
10504SOL    HW132411   2.400   3.586   1.012
10504SOL    HW232412   2.309   3.453   1.038
10505SOL     OW32413   0.380   0.112   1.021
10505SOL    HW132414   0.406   0.168   1.100
10505SOL    HW232415   0.425   0.146   0.939
10506SOL     OW32416   6.930   4.076   5.449
10506SOL    HW132417   6.912   4.049   5.543
10506SOL    HW232418   6.887   4.011   5.387
10507SOL     OW32419   1.025   0.484   4.463
10507SOL    HW132420   1.108   0.479   4.520
10507SOL    HW232421   0.953   0.428   4.505
10508SOL     OW32422   5.145   3.842   2.146
10508SOL    HW132423   5.230   3.812   2.189
10508SOL    HW232424   5.072   3.777   2.167
10509SOL     OW32425   1.671   0.692   5.613
10509SOL    HW132426   1.738   0.624   5.582
10509SOL    HW232427   1.709   0.784   5.603
10510SOL     OW32428   6.032   6.251   0.379
10510SOL    HW132429   6.035   6.334   0.324
10510SOL    HW232430   6.051   6.172   0.321
10511SOL     OW32431   6.851   2.122   0.640
10511SOL    HW132432   6.797   2.042   0.668
10511SOL    HW232433   6.870   2.116   0.542
10512SOL     OW32434   3.234   6.085   6.702
10512SOL    HW132435   3.167   6.127   6.763
10512SOL    HW232436   3.288   6.017   6.752
10513SOL     OW32437   6.586   2.028   0.357
10513SOL    HW132438   6.503   1.972   0.357
10513SOL    HW232439   6.666   1.968   0.362
10514SOL     OW32440   6.600   3.824   1.490
10514SOL    HW132441   6.679   3.767   1.466
10514SOL    HW232442   6.632   3.908   1.533
10515SOL     OW32443   5.984   2.464   4.493
10515SOL    HW132444   6.057   2.401   4.469
10515SOL    HW232445   6.023   2.548   4.532
10516SOL     OW32446   3.820   0.154   0.209
10516SOL    HW132447   3.839   0.066   0.165
10516SOL    HW232448   3.721   0.167   0.215
10517SOL     OW32449   6.820   2.613   2.712
10517SOL    HW132450   6.831   2.600   2.811
10517SOL    HW232451   6.764   2.540   2.675
10518SOL     OW32452   0.830   6.799   2.521
10518SOL    HW132453   0.773   6.795   2.438
10518SOL    HW232454   0.923   6.823   2.495
10519SOL     OW32455   3.289   3.681   5.275
10519SOL    HW132456   3.238   3.608   5.229
10519SOL    HW232457   3.381   3.687   5.237
10520SOL     OW32458   3.940   4.273   6.349
10520SOL    HW132459   3.853   4.286   6.301
10520SOL    HW232460   4.008   4.336   6.312
10521SOL     OW32461   6.542   5.114   2.232
10521SOL    HW132462   6.453   5.158   2.218
10521SOL    HW232463   6.555   5.095   2.329
10522SOL     OW32464   6.427   0.084   1.903
10522SOL    HW132465   6.357   0.043   1.961
10522SOL    HW232466   6.500   0.017   1.886
10523SOL     OW32467   6.980   5.919   6.822
10523SOL    HW132468   0.014   5.919   6.735
10523SOL    HW232469   0.029   5.936   6.896
10524SOL     OW32470   4.231   0.647   4.255
10524SOL    HW132471   4.222   0.623   4.351
10524SOL    HW232472   4.147   0.692   4.223
10525SOL     OW32473   2.815   6.344   4.906
10525SOL    HW132474   2.866   6.413   4.855
10525SOL    HW232475   2.866   6.318   4.988
10526SOL     OW32476   5.893   7.001   1.957
10526SOL    HW132477   5.927   6.953   1.876
10526SOL    HW232478   5.853   0.073   1.930
10527SOL     OW32479   1.688   2.862   4.508
10527SOL    HW132480   1.635   2.784   4.476
10527SOL    HW232481   1.754   2.832   4.576
10528SOL     OW32482   6.668   4.564   5.325
10528SOL    HW132483   6.662   4.620   5.408
10528SOL    HW232484   6.762   4.531   5.314
10529SOL     OW32485   6.069   6.181   3.699
10529SOL    HW132486   6.142   6.192   3.767
10529SOL    HW232487   6.029   6.270   3.679
10530SOL     OW32488   2.077   1.588   5.795
10530SOL    HW132489   2.155   1.617   5.741
10530SOL    HW232490   2.098   1.501   5.840
10531SOL     OW32491   2.146   2.153   5.772
10531SOL    HW132492   2.055   2.191   5.754
10531SOL    HW232493   2.137   2.066   5.821
10532SOL     OW32494   3.300   3.174   5.217
10532SOL    HW132495   3.394   3.143   5.200
10532SOL    HW232496   3.237   3.098   5.200
10533SOL     OW32497   2.507   0.679   5.956
10533SOL    HW132498   2.423   0.668   6.008
10533SOL    HW232499   2.583   0.697   6.018
10534SOL     OW32500   6.018   5.985   1.409
10534SOL    HW132501   5.928   5.977   1.452
10534SOL    HW232502   6.088   5.954   1.473
10535SOL     OW32503   0.889   1.351   2.494
10535SOL    HW132504   0.983   1.317   2.501
10535SOL    HW232505   0.848   1.355   2.585
10536SOL     OW32506   4.889   6.552   4.106
10536SOL    HW132507   4.795   6.582   4.091
10536SOL    HW232508   4.947   6.631   4.122
10537SOL     OW32509   0.262   5.182   1.286
10537SOL    HW132510   0.251   5.278   1.312
10537SOL    HW232511   0.359   5.160   1.278
10538SOL     OW32512   4.631   3.953   6.810
10538SOL    HW132513   4.539   3.963   6.774
10538SOL    HW232514   4.628   3.898   6.894
10539SOL     OW32515   0.870   3.658   5.772
10539SOL    HW132516   0.934   3.619   5.838
10539SOL    HW232517   0.800   3.590   5.749
10540SOL     OW32518   3.232   0.576   0.170
10540SOL    HW132519   3.327   0.561   0.141
10540SOL    HW232520   3.219   0.538   0.262
10541SOL     OW32521   4.863   2.218   0.520
10541SOL    HW132522   4.804   2.213   0.601
10541SOL    HW232523   4.832   2.293   0.461
10542SOL     OW32524   1.637   2.490   0.080
10542SOL    HW132525   1.657   2.414   0.018
10542SOL    HW232526   1.539   2.493   0.098
10543SOL     OW32527   2.507   0.730   5.539
10543SOL    HW132528   2.491   0.817   5.584
10543SOL    HW232529   2.532   0.661   5.607
10544SOL     OW32530   0.307   2.318   2.198
10544SOL    HW132531   0.287   2.409   2.162
10544SOL    HW232532   0.252   2.250   2.150
10545SOL     OW32533   5.368   0.760   3.342
10545SOL    HW132534   5.389   0.755   3.439
10545SOL    HW232535   5.269   0.753   3.329
10546SOL     OW32536   3.841   0.947   5.060
10546SOL    HW132537   3.910   0.875   5.055
10546SOL    HW232538   3.804   0.965   4.969
10547SOL     OW32539   4.228   1.071   1.024
10547SOL    HW132540   4.162   0.997   1.040
10547SOL    HW232541   4.203   1.119   0.940
10548SOL     OW32542   4.844   4.588   5.151
10548SOL    HW132543   4.827   4.630   5.061
10548SOL    HW232544   4.899   4.505   5.139
10549SOL     OW32545   1.357   0.951   1.607
10549SOL    HW132546   1.324   0.890   1.679
10549SOL    HW232547   1.456   0.961   1.616
10550SOL     OW32548   5.340   0.105   5.182
10550SOL    HW132549   5.268   0.152   5.232
10550SOL    HW232550   5.403   0.172   5.143
10551SOL     OW32551   1.713   2.735   5.816
10551SOL    HW132552   1.782   2.808   5.811
10551SOL    HW232553   1.631   2.770   5.862
10552SOL     OW32554   3.091   2.029   5.133
10552SOL    HW132555   3.124   1.950   5.082
10552SOL    HW232556   3.129   2.113   5.093
10553SOL     OW32557   2.911   4.769   6.054
10553SOL    HW132558   2.839   4.714   6.011
10553SOL    HW232559   2.975   4.800   5.984
10554SOL     OW32560   6.436   4.460   5.399
10554SOL    HW132561   6.515   4.491   5.348
10554SOL    HW232562   6.353   4.500   5.361
10555SOL     OW32563   3.360   2.408   1.353
10555SOL    HW132564   3.421   2.350   1.407
10555SOL    HW232565   3.390   2.503   1.359
10556SOL     OW32566   2.086   3.330   4.218
10556SOL    HW132567   2.160   3.263   4.227
10556SOL    HW232568   2.014   3.309   4.284
10557SOL     OW32569   5.959   1.850   3.615
10557SOL    HW132570   5.888   1.820   3.552
10557SOL    HW232571   6.043   1.798   3.598
10558SOL     OW32572   5.350   6.031   4.910
10558SOL    HW132573   5.320   6.037   4.815
10558SOL    HW232574   5.439   5.985   4.915
10559SOL     OW32575   4.727   2.228   0.760
10559SOL    HW132576   4.631   2.255   0.754
10559SOL    HW232577   4.745   2.189   0.850
10560SOL     OW32578   0.202   3.253   4.070
10560SOL    HW132579   0.142   3.332   4.056
10560SOL    HW232580   0.259   3.240   3.989
10561SOL     OW32581   2.797   4.351   6.201
10561SOL    HW132582   2.740   4.433   6.208
10561SOL    HW232583   2.875   4.371   6.140
10562SOL     OW32584   3.385   1.418   0.512
10562SOL    HW132585   3.289   1.434   0.539
10562SOL    HW232586   3.402   1.460   0.423
10563SOL     OW32587   1.584   1.784   3.844
10563SOL    HW132588   1.670   1.832   3.859
10563SOL    HW232589   1.578   1.707   3.907
10564SOL     OW32590   0.170   2.162   1.781
10564SOL    HW132591   0.075   2.137   1.798
10564SOL    HW232592   0.181   2.261   1.788
10565SOL     OW32593   5.298   1.557   5.083
10565SOL    HW132594   5.391   1.523   5.066
10565SOL    HW232595   5.276   1.628   5.015
10566SOL     OW32596   4.023   5.053   6.479
10566SOL    HW132597   4.032   4.979   6.411
10566SOL    HW232598   4.111   5.097   6.493
10567SOL     OW32599   2.182   4.718   3.860
10567SOL    HW132600   2.082   4.715   3.869
10567SOL    HW232601   2.207   4.742   3.766
10568SOL     OW32602   4.003   1.878   3.165
10568SOL    HW132603   3.924   1.827   3.131
10568SOL    HW232604   4.086   1.825   3.152
10569SOL     OW32605   6.010   3.011   3.104
10569SOL    HW132606   6.035   2.914   3.096
10569SOL    HW232607   5.930   3.021   3.162
10570SOL     OW32608   0.889   4.217   1.772
10570SOL    HW132609   0.960   4.218   1.842
10570SOL    HW232610   0.929   4.233   1.682
10571SOL     OW32611   6.262   6.675   5.303
10571SOL    HW132612   6.279   6.607   5.232
10571SOL    HW232613   6.290   6.765   5.271
10572SOL     OW32614   6.446   2.821   1.550
10572SOL    HW132615   6.440   2.874   1.635
10572SOL    HW232616   6.535   2.838   1.507
10573SOL     OW32617   6.325   4.527   6.256
10573SOL    HW132618   6.228   4.507   6.238
10573SOL    HW232619   6.365   4.452   6.309
10574SOL     OW32620   0.584   2.241   3.160
10574SOL    HW132621   0.539   2.168   3.211
10574SOL    HW232622   0.518   2.288   3.102
10575SOL     OW32623   0.629   6.588   6.097
10575SOL    HW132624   0.596   6.496   6.122
10575SOL    HW232625   0.672   6.584   6.007
10576SOL     OW32626   1.474   4.968   3.100
10576SOL    HW132627   1.419   5.044   3.064
10576SOL    HW232628   1.414   4.903   3.147
10577SOL     OW32629   0.701   3.444   5.684
10577SOL    HW132630   0.640   3.485   5.751
10577SOL    HW232631   0.659   3.362   5.645
10578SOL     OW32632   5.730   0.818   5.615
10578SOL    HW132633   5.743   0.902   5.562
10578SOL    HW232634   5.637   0.784   5.602
10579SOL     OW32635   4.892   0.344   0.577
10579SOL    HW132636   4.793   0.345   0.592
10579SOL    HW232637   4.939   0.340   0.665
10580SOL     OW32638   5.962   5.793   0.662
10580SOL    HW132639   5.964   5.714   0.723
10580SOL    HW232640   5.890   5.856   0.691
10581SOL     OW32641   4.383   1.828   3.562
10581SOL    HW132642   4.457   1.761   3.570
10581SOL    HW232643   4.338   1.818   3.474
10582SOL     OW32644   3.157   4.825   0.159
10582SOL    HW132645   3.086   4.785   0.101
10582SOL    HW232646   3.217   4.752   0.194
10583SOL     OW32647   4.241   1.064   0.616
10583SOL    HW132648   4.144   1.060   0.640
10583SOL    HW232649   4.286   1.133   0.673
10584SOL     OW32650   6.681   0.276   1.465
10584SOL    HW132651   6.716   0.270   1.559
10584SOL    HW232652   6.684   0.186   1.422
10585SOL     OW32653   1.988   4.460   6.380
10585SOL    HW132654   2.020   4.436   6.288
10585SOL    HW232655   1.947   4.551   6.378
10586SOL     OW32656   4.624   1.440   0.280
10586SOL    HW132657   4.684   1.519   0.293
10586SOL    HW232658   4.615   1.420   0.183
10587SOL     OW32659   6.317   3.479   0.703
10587SOL    HW132660   6.336   3.577   0.716
10587SOL    HW232661   6.385   3.440   0.641
10588SOL     OW32662   1.086   5.095   3.439
10588SOL    HW132663   1.170   5.144   3.419
10588SOL    HW232664   1.102   4.997   3.434
10589SOL     OW32665   6.029   1.285   4.224
10589SOL    HW132666   5.991   1.270   4.315
10589SOL    HW232667   5.997   1.372   4.188
10590SOL     OW32668   1.648   0.628   4.646
10590SOL    HW132669   1.682   0.539   4.614
10590SOL    HW232670   1.715   0.699   4.623
10591SOL     OW32671   1.353   2.260   0.633
10591SOL    HW132672   1.435   2.223   0.678
10591SOL    HW232673   1.286   2.187   0.622
10592SOL     OW32674   6.369   1.409   6.883
10592SOL    HW132675   6.395   1.321   6.921
10592SOL    HW232676   6.338   1.469   6.957
10593SOL     OW32677   1.869   4.672   1.683
10593SOL    HW132678   1.890   4.763   1.720
10593SOL    HW232679   1.929   4.604   1.726
10594SOL     OW32680   1.070   2.184   4.335
10594SOL    HW132681   1.047   2.158   4.241
10594SOL    HW232682   1.100   2.103   4.385
10595SOL     OW32683   2.123   6.248   5.345
10595SOL    HW132684   2.149   6.162   5.301
10595SOL    HW232685   2.184   6.321   5.312
10596SOL     OW32686   3.721   0.670   2.074
10596SOL    HW132687   3.687   0.663   2.168
10596SOL    HW232688   3.735   0.766   2.050
10597SOL     OW32689   1.859   0.578   3.741
10597SOL    HW132690   1.939   0.590   3.801
10597SOL    HW232691   1.885   0.596   3.646
10598SOL     OW32692   1.953   1.659   6.941
10598SOL    HW132693   2.013   1.697   6.872
10598SOL    HW232694   1.992   1.675   0.016
10599SOL     OW32695   5.058   0.676   6.583
10599SOL    HW132696   4.974   0.683   6.530
10599SOL    HW232697   5.080   0.579   6.598
10600SOL     OW32698   1.497   2.340   5.605
10600SOL    HW132699   1.567   2.349   5.675
10600SOL    HW232700   1.520   2.396   5.526
10601SOL     OW32701   3.591   5.845   5.823
10601SOL    HW132702   3.639   5.766   5.785
10601SOL    HW232703   3.609   5.926   5.766
10602SOL     OW32704   4.489   1.062   1.578
10602SOL    HW132705   4.563   1.116   1.620
10602SOL    HW232706   4.509   0.965   1.589
10603SOL     OW32707   0.603   4.919   4.245
10603SOL    HW132708   0.578   4.996   4.304
10603SOL    HW232709   0.697   4.931   4.213
10604SOL     OW32710   6.604   4.104   5.147
10604SOL    HW132711   6.652   4.172   5.092
10604SOL    HW232712   6.525   4.070   5.096
10605SOL     OW32713   2.089   5.368   5.910
10605SOL    HW132714   2.116   5.344   6.003
10605SOL    HW232715   1.990   5.357   5.900
10606SOL     OW32716   0.373   0.727   2.850
10606SOL    HW132717   0.386   0.774   2.937
10606SOL    HW232718   0.390   0.630   2.861
10607SOL     OW32719   5.668   4.855   0.016
10607SOL    HW132720   5.607   4.934   0.007
10607SOL    HW232721   5.662   4.799   6.948
10608SOL     OW32722   5.896   0.497   2.680
10608SOL    HW132723   5.988   0.492   2.639
10608SOL    HW232724   5.888   0.428   2.751
10609SOL     OW32725   3.860   6.840   1.734
10609SOL    HW132726   3.914   6.817   1.815
10609SOL    HW232727   3.830   6.936   1.739
10610SOL     OW32728   1.920   3.890   4.735
10610SOL    HW132729   1.861   3.893   4.815
10610SOL    HW232730   1.999   3.950   4.750
10611SOL     OW32731   5.103   2.172   6.179
10611SOL    HW132732   5.110   2.072   6.189
10611SOL    HW232733   5.180   2.205   6.124
10612SOL     OW32734   1.029   6.565   0.808
10612SOL    HW132735   1.016   6.579   0.906
10612SOL    HW232736   1.106   6.504   0.793
10613SOL     OW32737   0.534   6.392   6.804
10613SOL    HW132738   0.583   6.311   6.837
10613SOL    HW232739   0.455   6.362   6.750
10614SOL     OW32740   6.755   0.787   4.245
10614SOL    HW132741   6.656   0.798   4.231
10614SOL    HW232742   6.771   0.709   4.305
10615SOL     OW32743   0.146   5.773   5.448
10615SOL    HW132744   0.060   5.774   5.500
10615SOL    HW232745   0.202   5.851   5.476
10616SOL     OW32746   3.088   6.113   0.524
10616SOL    HW132747   3.133   6.197   0.492
10616SOL    HW232748   3.155   6.039   0.531
10617SOL     OW32749   6.992   2.078   6.534
10617SOL    HW132750   0.046   2.009   6.512
10617SOL    HW232751   6.914   2.033   6.577
10618SOL     OW32752   5.930   3.980   1.434
10618SOL    HW132753   5.977   3.902   1.476
10618SOL    HW232754   5.919   4.053   1.501
10619SOL     OW32755   0.350   3.958   3.425
10619SOL    HW132756   0.256   3.985   3.443
10619SOL    HW232757   0.394   3.932   3.510
10620SOL     OW32758   1.364   5.807   4.430
10620SOL    HW132759   1.273   5.772   4.452
10620SOL    HW232760   1.396   5.865   4.505
10621SOL     OW32761   2.752   6.443   0.708
10621SOL    HW132762   2.772   6.346   0.720
10621SOL    HW232763   2.756   6.489   0.797
10622SOL     OW32764   4.489   1.826   1.664
10622SOL    HW132765   4.568   1.855   1.718
10622SOL    HW232766   4.454   1.740   1.698
10623SOL     OW32767   6.979   0.838   4.070
10623SOL    HW132768   6.987   0.938   4.072
10623SOL    HW232769   6.896   0.810   4.119
10624SOL     OW32770   2.641   1.815   4.298
10624SOL    HW132771   2.559   1.768   4.330
10624SOL    HW232772   2.637   1.911   4.325
10625SOL     OW32773   0.262   3.281   0.433
10625SOL    HW132774   0.315   3.313   0.354
10625SOL    HW232775   0.281   3.184   0.448
10626SOL     OW32776   6.356   1.624   1.669
10626SOL    HW132777   6.413   1.696   1.710
10626SOL    HW232778   6.295   1.664   1.601
10627SOL     OW32779   6.491   5.335   4.630
10627SOL    HW132780   6.482   5.357   4.533
10627SOL    HW232781   6.406   5.358   4.677
10628SOL     OW32782   0.058   6.171   6.125
10628SOL    HW132783   6.977   6.181   6.099
10628SOL    HW232784   0.116   6.195   6.047
10629SOL     OW32785   2.731   5.245   5.999
10629SOL    HW132786   2.784   5.171   6.039
10629SOL    HW232787   2.648   5.259   6.053
10630SOL     OW32788   6.454   0.728   2.999
10630SOL    HW132789   6.491   0.785   3.072
10630SOL    HW232790   6.528   0.674   2.959
10631SOL     OW32791   0.986   0.042   5.168
10631SOL    HW132792   1.000   0.091   5.253
10631SOL    HW232793   1.053   0.071   5.100
10632SOL     OW32794   0.574   3.181   5.225
10632SOL    HW132795   0.672   3.175   5.210
10632SOL    HW232796   0.544   3.105   5.283
10633SOL     OW32797   1.326   4.818   0.545
10633SOL    HW132798   1.271   4.762   0.606
10633SOL    HW232799   1.306   4.793   0.450
10634SOL     OW32800   4.110   6.610   1.626
10634SOL    HW132801   4.029   6.628   1.569
10634SOL    HW232802   4.192   6.618   1.570
10635SOL     OW32803   1.560   0.877   1.357
10635SOL    HW132804   1.565   0.910   1.451
10635SOL    HW232805   1.647   0.834   1.331
10636SOL     OW32806   6.429   1.244   0.686
10636SOL    HW132807   6.375   1.167   0.721
10636SOL    HW232808   6.470   1.293   0.763
10637SOL     OW32809   4.160   4.743   5.577
10637SOL    HW132810   4.135   4.797   5.498
10637SOL    HW232811   4.187   4.651   5.548
10638SOL     OW32812   6.805   0.559   5.612
10638SOL    HW132813   6.794   0.487   5.680
10638SOL    HW232814   6.895   0.552   5.569
10639SOL     OW32815   3.056   1.608   5.439
10639SOL    HW132816   2.977   1.633   5.382
10639SOL    HW232817   3.072   1.679   5.507
10640SOL     OW32818   4.102   6.381   1.287
10640SOL    HW132819   4.099   6.454   1.219
10640SOL    HW232820   4.010   6.368   1.326
10641SOL     OW32821   4.189   0.674   6.284
10641SOL    HW132822   4.161   0.724   6.367
10641SOL    HW232823   4.111   0.668   6.221
10642SOL     OW32824   6.965   4.203   0.602
10642SOL    HW132825   6.976   4.159   0.513
10642SOL    HW232826   6.927   4.137   0.667
10643SOL     OW32827   4.139   3.106   5.319
10643SOL    HW132828   4.095   3.100   5.409
10643SOL    HW232829   4.202   3.030   5.308
10644SOL     OW32830   3.355   1.572   4.840
10644SOL    HW132831   3.307   1.520   4.910
10644SOL    HW232832   3.431   1.518   4.804
10645SOL     OW32833   2.152   6.839   5.436
10645SOL    HW132834   2.226   6.906   5.435
10645SOL    HW232835   2.064   6.886   5.444
10646SOL     OW32836   0.911   4.354   6.678
10646SOL    HW132837   0.814   4.330   6.679
10646SOL    HW232838   0.960   4.292   6.616
10647SOL     OW32839   0.543   5.307   0.727
10647SOL    HW132840   0.466   5.261   0.683
10647SOL    HW232841   0.629   5.264   0.698
10648SOL     OW32842   4.712   5.031   6.302
10648SOL    HW132843   4.644   5.090   6.346
10648SOL    HW232844   4.801   5.078   6.300
10649SOL     OW32845   0.210   4.396   6.049
10649SOL    HW132846   0.294   4.342   6.049
10649SOL    HW232847   0.201   4.443   6.137
10650SOL     OW32848   3.029   1.134   4.193
10650SOL    HW132849   3.057   1.048   4.236
10650SOL    HW232850   3.000   1.199   4.264
10651SOL     OW32851   2.676   0.072   5.365
10651SOL    HW132852   2.765   0.047   5.326
10651SOL    HW232853   2.690   0.114   5.454
10652SOL     OW32854   4.005   0.750   0.349
10652SOL    HW132855   4.004   0.839   0.395
10652SOL    HW232856   3.983   0.678   0.414
10653SOL     OW32857   5.806   2.623   4.003
10653SOL    HW132858   5.759   2.709   4.024
10653SOL    HW232859   5.901   2.642   3.980
10654SOL     OW32860   4.574   1.083   1.266
10654SOL    HW132861   4.665   1.092   1.308
10654SOL    HW232862   4.536   0.993   1.289
10655SOL     OW32863   3.256   5.505   1.388
10655SOL    HW132864   3.187   5.472   1.453
10655SOL    HW232865   3.279   5.600   1.409
10656SOL     OW32866   6.444   2.915   6.040
10656SOL    HW132867   6.539   2.943   6.054
10656SOL    HW232868   6.384   2.972   6.096
10657SOL     OW32869   6.144   0.152   1.574
10657SOL    HW132870   6.236   0.125   1.601
10657SOL    HW232871   6.132   0.250   1.589
10658SOL     OW32872   0.745   6.739   4.937
10658SOL    HW132873   0.779   6.656   4.891
10658SOL    HW232874   0.767   6.734   5.034
10659SOL     OW32875   5.149   0.938   0.779
10659SOL    HW132876   5.123   0.843   0.794
10659SOL    HW232877   5.161   0.984   0.867
10660SOL     OW32878   5.424   5.198   5.493
10660SOL    HW132879   5.327   5.220   5.499
10660SOL    HW232880   5.436   5.099   5.492
10661SOL     OW32881   1.032   0.456   2.239
10661SOL    HW132882   0.969   0.514   2.187
10661SOL    HW232883   1.042   0.368   2.193
10662SOL     OW32884   5.472   1.714   0.587
10662SOL    HW132885   5.488   1.796   0.643
10662SOL    HW232886   5.383   1.675   0.609
10663SOL     OW32887   0.775   1.074   0.444
10663SOL    HW132888   0.867   1.060   0.410
10663SOL    HW232889   0.754   1.172   0.445
10664SOL     OW32890   2.041   5.055   6.182
10664SOL    HW132891   1.956   5.003   6.181
10664SOL    HW232892   2.106   5.015   6.117
10665SOL     OW32893   5.800   1.172   6.758
10665SOL    HW132894   5.845   1.178   6.847
10665SOL    HW232895   5.830   1.090   6.710
10666SOL     OW32896   0.747   0.150   0.361
10666SOL    HW132897   0.797   0.237   0.361
10666SOL    HW232898   0.702   0.137   0.273
10667SOL     OW32899   3.447   2.344   5.331
10667SOL    HW132900   3.387   2.343   5.251
10667SOL    HW232901   3.469   2.250   5.357
10668SOL     OW32902   2.443   0.747   6.677
10668SOL    HW132903   2.499   0.817   6.632
10668SOL    HW232904   2.436   0.667   6.618
10669SOL     OW32905   1.340   6.394   6.978
10669SOL    HW132906   1.393   6.324   0.010
10669SOL    HW232907   1.304   6.355   6.893
10670SOL     OW32908   6.909   4.921   5.183
10670SOL    HW132909   6.978   4.974   5.134
10670SOL    HW232910   6.952   4.841   5.224
10671SOL     OW32911   1.767   2.111   3.591
10671SOL    HW132912   1.806   2.170   3.520
10671SOL    HW232913   1.768   2.160   3.679
10672SOL     OW32914   0.039   2.419   1.114
10672SOL    HW132915   0.095   2.425   1.031
10672SOL    HW232916   0.070   2.342   1.169
10673SOL     OW32917   3.183   3.405   4.718
10673SOL    HW132918   3.217   3.436   4.630
10673SOL    HW232919   3.251   3.424   4.789
10674SOL     OW32920   3.833   1.620   2.497
10674SOL    HW132921   3.812   1.522   2.496
10674SOL    HW232922   3.880   1.644   2.412
10675SOL     OW32923   0.289   0.882   6.330
10675SOL    HW132924   0.290   0.842   6.238
10675SOL    HW232925   0.374   0.932   6.345
10676SOL     OW32926   6.488   0.030   0.149
10676SOL    HW132927   6.449   6.996   0.071
10676SOL    HW232928   6.588   0.035   0.138
10677SOL     OW32929   6.469   1.308   0.419
10677SOL    HW132930   6.458   1.279   0.515
10677SOL    HW232931   6.545   1.258   0.377
10678SOL     OW32932   1.938   5.346   3.597
10678SOL    HW132933   1.915   5.428   3.545
10678SOL    HW232934   1.895   5.350   3.687
10679SOL     OW32935   5.195   5.442   3.447
10679SOL    HW132936   5.103   5.439   3.410
10679SOL    HW232937   5.190   5.450   3.547
10680SOL     OW32938   1.172   2.587   3.735
10680SOL    HW132939   1.192   2.676   3.695
10680SOL    HW232940   1.106   2.539   3.678
10681SOL     OW32941   0.355   2.064   6.332
10681SOL    HW132942   0.282   2.019   6.281
10681SOL    HW232943   0.413   1.996   6.376
10682SOL     OW32944   6.286   1.829   2.507
10682SOL    HW132945   6.359   1.763   2.522
10682SOL    HW232946   6.307   1.913   2.557
10683SOL     OW32947   1.780   0.827   3.945
10683SOL    HW132948   1.870   0.788   3.927
10683SOL    HW232949   1.790   0.915   3.991
10684SOL     OW32950   5.695   6.202   0.810
10684SOL    HW132951   5.731   6.214   0.717
10684SOL    HW232952   5.722   6.112   0.844
10685SOL     OW32953   6.450   2.570   2.145
10685SOL    HW132954   6.407   2.486   2.177
10685SOL    HW232955   6.505   2.609   2.218
10686SOL     OW32956   4.575   4.412   0.576
10686SOL    HW132957   4.547   4.324   0.538
10686SOL    HW232958   4.497   4.457   0.619
10687SOL     OW32959   6.900   5.370   1.219
10687SOL    HW132960   6.820   5.402   1.169
10687SOL    HW232961   6.880   5.281   1.260
10688SOL     OW32962   6.843   5.634   0.837
10688SOL    HW132963   6.917   5.575   0.871
10688SOL    HW232964   6.760   5.580   0.824
10689SOL     OW32965   0.815   0.323   1.491
10689SOL    HW132966   0.827   0.355   1.397
10689SOL    HW232967   0.846   0.228   1.498
10690SOL     OW32968   4.732   6.381   2.712
10690SOL    HW132969   4.701   6.346   2.623
10690SOL    HW232970   4.812   6.328   2.742
10691SOL     OW32971   6.229   1.661   1.394
10691SOL    HW132972   6.300   1.590   1.393
10691SOL    HW232973   6.149   1.628   1.344
10692SOL     OW32974   5.679   6.243   4.248
10692SOL    HW132975   5.774   6.218   4.232
10692SOL    HW232976   5.654   6.218   4.342
10693SOL     OW32977   4.703   2.827   3.538
10693SOL    HW132978   4.721   2.840   3.635
10693SOL    HW232979   4.716   2.731   3.514
10694SOL     OW32980   3.306   6.592   0.903
10694SOL    HW132981   3.243   6.530   0.856
10694SOL    HW232982   3.256   6.642   0.974
10695SOL     OW32983   5.889   2.438   5.248
10695SOL    HW132984   5.809   2.474   5.296
10695SOL    HW232985   5.964   2.504   5.255
10696SOL     OW32986   0.006   6.668   1.853
10696SOL    HW132987   6.931   6.652   1.813
10696SOL    HW232988   7.014   6.675   1.952
10697SOL     OW32989   2.332   6.767   3.097
10697SOL    HW132990   2.355   6.861   3.122
10697SOL    HW232991   2.370   6.704   3.165
10698SOL     OW32992   2.982   0.469   3.569
10698SOL    HW132993   2.962   0.504   3.478
10698SOL    HW232994   3.050   0.528   3.614
10699SOL     OW32995   2.343   2.823   3.179
10699SOL    HW132996   2.387   2.748   3.130
10699SOL    HW232997   2.343   2.803   3.277
10700SOL     OW32998   0.386   1.134   1.991
10700SOL    HW132999   0.406   1.040   1.962
10700SOL    HW233000   0.438   1.198   1.935
10701SOL     OW33001   3.103   0.060   1.197
10701SOL    HW133002   3.086   6.998   1.136
10701SOL    HW233003   3.090   0.146   1.147
10702SOL     OW33004   4.982   2.487   0.676
10702SOL    HW133005   4.961   2.390   0.676
10702SOL    HW233006   5.021   2.513   0.765
10703SOL     OW33007   4.028   3.149   3.944
10703SOL    HW133008   4.097   3.134   3.872
10703SOL    HW233009   3.986   3.239   3.931
10704SOL     OW33010   5.938   6.318   2.106
10704SOL    HW133011   5.917   6.361   2.194
10704SOL    HW233012   5.886   6.363   2.033
10705SOL     OW33013   1.470   3.216   6.193
10705SOL    HW133014   1.489   3.313   6.177
10705SOL    HW233015   1.405   3.183   6.124
10706SOL     OW33016   3.550   2.247   1.066
10706SOL    HW133017   3.451   2.252   1.085
10706SOL    HW233018   3.600   2.266   1.150
10707SOL     OW33019   6.162   6.933   6.267
10707SOL    HW133020   6.093   6.994   6.305
10707SOL    HW233021   6.170   6.949   6.168
10708SOL     OW33022   4.709   1.470   1.304
10708SOL    HW133023   4.747   1.558   1.275
10708SOL    HW233024   4.686   1.415   1.223
10709SOL     OW33025   0.901   0.078   6.192
10709SOL    HW133026   0.898   0.034   6.281
10709SOL    HW233027   0.841   0.158   6.192
10710SOL     OW33028   6.849   5.895   4.125
10710SOL    HW133029   6.910   5.819   4.102
10710SOL    HW233030   6.901   5.980   4.126
10711SOL     OW33031   2.243   5.686   5.261
10711SOL    HW133032   2.331   5.711   5.302
10711SOL    HW233033   2.170   5.741   5.303
10712SOL     OW33034   4.193   1.744   6.106
10712SOL    HW133035   4.095   1.732   6.124
10712SOL    HW233036   4.230   1.662   6.064
10713SOL     OW33037   2.130   6.028   0.590
10713SOL    HW133038   2.078   6.002   0.671
10713SOL    HW233039   2.106   6.122   0.564
10714SOL     OW33040   6.375   5.698   5.213
10714SOL    HW133041   6.431   5.769   5.255
10714SOL    HW233042   6.343   5.634   5.283
10715SOL     OW33043   6.013   1.209   3.405
10715SOL    HW133044   6.107   1.207   3.437
10715SOL    HW233045   5.968   1.123   3.429
10716SOL     OW33046   6.949   0.835   2.590
10716SOL    HW133047   0.011   0.837   2.527
10716SOL    HW233048   6.959   0.909   2.657
10717SOL     OW33049   0.252   6.775   2.064
10717SOL    HW133050   0.166   6.725   2.064
10717SOL    HW233051   0.313   6.736   1.995
10718SOL     OW33052   1.044   4.090   5.748
10718SOL    HW133053   1.083   4.178   5.776
10718SOL    HW233054   1.092   4.057   5.667
10719SOL     OW33055   3.729   6.352   2.175
10719SOL    HW133056   3.792   6.381   2.247
10719SOL    HW233057   3.764   6.383   2.087
10720SOL     OW33058   0.198   3.402   6.475
10720SOL    HW133059   0.099   3.404   6.470
10720SOL    HW233060   0.228   3.445   6.560
10721SOL     OW33061   5.227   1.965   4.868
10721SOL    HW133062   5.248   1.966   4.965
10721SOL    HW233063   5.294   2.021   4.819
10722SOL     OW33064   6.949   4.734   0.424
10722SOL    HW133065   6.906   4.823   0.411
10722SOL    HW233066   6.928   4.699   0.515
10723SOL     OW33067   6.220   4.396   0.087
10723SOL    HW133068   6.131   4.418   0.047
10723SOL    HW233069   6.292   4.413   0.019
10724SOL     OW33070   2.972   0.254   5.615
10724SOL    HW133071   2.930   0.337   5.649
10724SOL    HW233072   3.015   0.205   5.691
10725SOL     OW33073   6.806   0.414   5.263
10725SOL    HW133074   6.876   0.475   5.226
10725SOL    HW233075   6.801   0.331   5.207
10726SOL     OW33076   6.245   0.972   3.755
10726SOL    HW133077   6.181   1.036   3.795
10726SOL    HW233078   6.337   0.990   3.790
10727SOL     OW33079   3.735   6.723   6.355
10727SOL    HW133080   3.704   6.780   6.431
10727SOL    HW233081   3.823   6.681   6.377
10728SOL     OW33082   5.907   5.508   3.847
10728SOL    HW133083   5.973   5.583   3.837
10728SOL    HW233084   5.902   5.481   3.943
10729SOL     OW33085   5.841   3.240   3.854
10729SOL    HW133086   5.820   3.149   3.818
10729SOL    HW233087   5.923   3.234   3.911
10730SOL     OW33088   1.268   5.898   3.908
10730SOL    HW133089   1.288   5.986   3.864
10730SOL    HW233090   1.192   5.909   3.972
10731SOL     OW33091   4.933   5.636   6.581
10731SOL    HW133092   4.939   5.557   6.520
10731SOL    HW233093   4.839   5.668   6.585
10732SOL     OW33094   6.662   5.987   2.424
10732SOL    HW133095   6.670   5.934   2.340
10732SOL    HW233096   6.615   5.932   2.494
10733SOL     OW33097   0.469   1.721   6.024
10733SOL    HW133098   0.477   1.732   6.123
10733SOL    HW233099   0.449   1.625   6.002
10734SOL     OW33100   0.989   0.705   4.691
10734SOL    HW133101   0.953   0.614   4.708
10734SOL    HW233102   1.084   0.710   4.722
10735SOL     OW33103   0.457   0.195   2.131
10735SOL    HW133104   0.365   0.196   2.170
10735SOL    HW233105   0.497   0.286   2.139
10736SOL     OW33106   5.706   5.569   3.261
10736SOL    HW133107   5.718   5.634   3.335
10736SOL    HW233108   5.621   5.589   3.212
10737SOL     OW33109   6.444   0.723   1.795
10737SOL    HW133110   6.427   0.723   1.894
10737SOL    HW233111   6.504   0.799   1.771
10738SOL     OW33112   2.508   6.804   1.730
10738SOL    HW133113   2.584   6.740   1.715
10738SOL    HW233114   2.514   6.840   1.824
10739SOL     OW33115   5.198   3.289   4.120
10739SOL    HW133116   5.254   3.372   4.128
10739SOL    HW233117   5.104   3.315   4.097
10740SOL     OW33118   3.029   6.990   5.926
10740SOL    HW133119   3.080   0.031   5.861
10740SOL    HW233120   3.013   6.900   5.886
10741SOL     OW33121   1.443   2.514   3.541
10741SOL    HW133122   1.354   2.502   3.497
10741SOL    HW233123   1.442   2.598   3.595
10742SOL     OW33124   6.670   6.938   1.869
10742SOL    HW133125   6.752   6.944   1.812
10742SOL    HW233126   6.667   0.001   1.932
10743SOL     OW33127   3.671   1.855   5.808
10743SOL    HW133128   3.765   1.825   5.829
10743SOL    HW233129   3.657   1.852   5.709
10744SOL     OW33130   2.552   1.771   1.534
10744SOL    HW133131   2.500   1.709   1.474
10744SOL    HW233132   2.502   1.784   1.619
10745SOL     OW33133   2.895   4.791   1.181
10745SOL    HW133134   2.800   4.779   1.153
10745SOL    HW233135   2.937   4.862   1.125
10746SOL     OW33136   2.660   5.317   6.411
10746SOL    HW133137   2.726   5.393   6.408
10746SOL    HW233138   2.603   5.326   6.493
10747SOL     OW33139   0.002   1.300   4.701
10747SOL    HW133140   0.029   1.268   4.792
10747SOL    HW233141   0.005   1.400   4.699
10748SOL     OW33142   3.030   6.431   2.473
10748SOL    HW133143   3.059   6.343   2.509
10748SOL    HW233144   3.059   6.440   2.378
10749SOL     OW33145   5.989   4.375   1.998
10749SOL    HW133146   6.051   4.317   1.944
10749SOL    HW233147   5.929   4.317   2.054
10750SOL     OW33148   4.135   2.266   4.476
10750SOL    HW133149   4.142   2.248   4.574
10750SOL    HW233150   4.045   2.238   4.443
10751SOL     OW33151   6.580   6.242   4.401
10751SOL    HW133152   6.548   6.147   4.394
10751SOL    HW233153   6.555   6.278   4.491
10752SOL     OW33154   6.569   6.514   0.109
10752SOL    HW133155   6.624   6.595   0.089
10752SOL    HW233156   6.612   6.462   0.183
10753SOL     OW33157   5.488   6.886   5.245
10753SOL    HW133158   5.573   6.920   5.204
10753SOL    HW233159   5.420   6.960   5.247
10754SOL     OW33160   0.959   5.419   1.929
10754SOL    HW133161   0.901   5.342   1.955
10754SOL    HW233162   0.981   5.473   2.011
10755SOL     OW33163   0.779   2.217   1.604
10755SOL    HW133164   0.859   2.276   1.592
10755SOL    HW233165   0.792   2.160   1.685
10756SOL     OW33166   1.199   0.423   6.851
10756SOL    HW133167   1.136   0.345   6.865
10756SOL    HW233168   1.240   0.449   6.939
10757SOL     OW33169   0.411   2.682   2.470
10757SOL    HW133170   0.402   2.642   2.561
10757SOL    HW233171   0.329   2.660   2.416
10758SOL     OW33172   1.054   0.651   0.226
10758SOL    HW133173   1.088   0.704   0.148
10758SOL    HW233174   1.128   0.592   0.260
10759SOL     OW33175   3.382   2.811   5.052
10759SOL    HW133176   3.481   2.830   5.056
10759SOL    HW233177   3.354   2.801   4.957
10760SOL     OW33178   0.772   4.933   0.020
10760SOL    HW133179   0.699   4.967   0.078
10760SOL    HW233180   0.741   4.929   6.941
10761SOL     OW33181   1.255   1.825   5.970
10761SOL    HW133182   1.298   1.881   6.042
10761SOL    HW233183   1.238   1.882   5.890
10762SOL     OW33184   1.982   5.796   0.127
10762SOL    HW133185   2.035   5.793   0.211
10762SOL    HW233186   1.889   5.765   0.145
10763SOL     OW33187   4.726   0.600   3.300
10763SOL    HW133188   4.770   0.545   3.371
10763SOL    HW233189   4.626   0.590   3.307
10764SOL     OW33190   4.879   6.167   4.574
10764SOL    HW133191   4.934   6.193   4.654
10764SOL    HW233192   4.787   6.143   4.604
10765SOL     OW33193   0.933   2.375   1.183
10765SOL    HW133194   0.971   2.347   1.095
10765SOL    HW233195   0.979   2.458   1.214
10766SOL     OW33196   2.790   5.109   6.325
10766SOL    HW133197   2.802   5.111   6.226
10766SOL    HW233198   2.756   5.197   6.357
10767SOL     OW33199   1.485   4.656   6.912
10767SOL    HW133200   1.519   4.669   6.819
10767SOL    HW233201   1.550   4.602   6.965
10768SOL     OW33202   5.409   6.512   6.974
10768SOL    HW133203   5.401   6.594   6.917
10768SOL    HW233204   5.321   6.465   6.977
10769SOL     OW33205   3.180   3.048   4.862
10769SOL    HW133206   3.224   3.027   4.774
10769SOL    HW233207   3.210   3.138   4.893
10770SOL     OW33208   5.806   0.302   3.186
10770SOL    HW133209   5.739   0.272   3.254
10770SOL    HW233210   5.897   0.303   3.228
10771SOL     OW33211   5.047   6.295   5.809
10771SOL    HW133212   5.068   6.313   5.712
10771SOL    HW233213   4.999   6.208   5.817
10772SOL     OW33214   5.523   4.693   2.521
10772SOL    HW133215   5.522   4.706   2.620
10772SOL    HW233216   5.437   4.727   2.482
10773SOL     OW33217   0.835   3.518   0.379
10773SOL    HW133218   0.789   3.530   0.468
10773SOL    HW233219   0.898   3.594   0.364
10774SOL     OW33220   0.894   3.120   0.610
10774SOL    HW133221   0.941   3.050   0.556
10774SOL    HW233222   0.925   3.210   0.580
10775SOL     OW33223   2.092   3.522   0.112
10775SOL    HW133224   2.034   3.557   0.185
10775SOL    HW233225   2.055   3.552   0.024
10776SOL     OW33226   1.111   3.126   3.364
10776SOL    HW133227   1.025   3.120   3.415
10776SOL    HW233228   1.122   3.043   3.309
10777SOL     OW33229   1.477   7.009   0.991
10777SOL    HW133230   1.446   6.927   1.039
10777SOL    HW233231   1.577   7.015   0.997
10778SOL     OW33232   4.467   0.328   3.260
10778SOL    HW133233   4.524   0.299   3.183
10778SOL    HW233234   4.372   0.330   3.232
10779SOL     OW33235   5.861   3.130   6.131
10779SOL    HW133236   5.793   3.176   6.074
10779SOL    HW233237   5.819   3.053   6.178
10780SOL     OW33238   1.875   5.021   4.708
10780SOL    HW133239   1.895   4.977   4.620
10780SOL    HW233240   1.791   4.981   4.746
10781SOL     OW33241   5.455   1.873   5.454
10781SOL    HW133242   5.546   1.855   5.491
10781SOL    HW233243   5.427   1.798   5.394
10782SOL     OW33244   1.174   2.740   5.424
10782SOL    HW133245   1.192   2.652   5.380
10782SOL    HW233246   1.205   2.737   5.520
10783SOL     OW33247   1.679   3.370   3.364
10783SOL    HW133248   1.760   3.352   3.309
10783SOL    HW233249   1.641   3.459   3.340
10784SOL     OW33250   4.378   5.531   3.834
10784SOL    HW133251   4.298   5.589   3.851
10784SOL    HW233252   4.393   5.472   3.914
10785SOL     OW33253   2.114   5.357   1.799
10785SOL    HW133254   2.128   5.433   1.862
10785SOL    HW233255   2.173   5.281   1.824
10786SOL     OW33256   4.667   1.753   2.469
10786SOL    HW133257   4.569   1.729   2.466
10786SOL    HW233258   4.716   1.699   2.401
10787SOL     OW33259   3.809   2.144   3.806
10787SOL    HW133260   3.856   2.088   3.873
10787SOL    HW233261   3.867   2.222   3.781
10788SOL     OW33262   2.064   3.092   0.011
10788SOL    HW133263   2.078   3.150   6.946
10788SOL    HW233264   2.016   3.145   0.082
10789SOL     OW33265   6.780   1.273   2.130
10789SOL    HW133266   6.840   1.270   2.211
10789SOL    HW233267   6.836   1.277   2.047
10790SOL     OW33268   6.791   2.246   5.582
10790SOL    HW133269   6.811   2.223   5.487
10790SOL    HW233270   6.737   2.330   5.585
10791SOL     OW33271   1.688   2.466   3.450
10791SOL    HW133272   1.595   2.470   3.487
10791SOL    HW233273   1.708   2.553   3.404
10792SOL     OW33274   3.710   1.796   2.275
10792SOL    HW133275   3.690   1.889   2.304
10792SOL    HW233276   3.708   1.735   2.354
10793SOL     OW33277   3.476   2.075   4.556
10793SOL    HW133278   3.392   2.129   4.557
10793SOL    HW233279   3.461   1.991   4.608
10794SOL     OW33280   5.095   2.335   6.651
10794SOL    HW133281   5.109   2.288   6.738
10794SOL    HW233282   5.053   2.273   6.585
10795SOL     OW33283   6.979   3.700   3.114
10795SOL    HW133284   0.050   3.749   3.103
10795SOL    HW233285   6.968   3.635   3.039
10796SOL     OW33286   0.219   1.532   5.958
10796SOL    HW133287   0.288   1.461   5.972
10796SOL    HW233288   0.161   1.507   5.881
10797SOL     OW33289   4.705   4.185   0.127
10797SOL    HW133290   4.707   4.204   0.225
10797SOL    HW233291   4.711   4.271   0.075
10798SOL     OW33292   2.389   6.102   0.289
10798SOL    HW133293   2.431   6.146   0.368
10798SOL    HW233294   2.370   6.170   0.219
10799SOL     OW33295   3.440   0.451   2.465
10799SOL    HW133296   3.368   0.436   2.397
10799SOL    HW233297   3.427   0.540   2.509
10800SOL     OW33298   1.829   6.701   5.501
10800SOL    HW133299   1.832   6.793   5.462
10800SOL    HW233300   1.747   6.691   5.557
10801SOL     OW33301   2.605   6.347   6.805
10801SOL    HW133302   2.573   6.257   6.835
10801SOL    HW233303   2.531   6.414   6.815
10802SOL     OW33304   0.590   4.687   4.394
10802SOL    HW133305   0.670   4.631   4.371
10802SOL    HW233306   0.599   4.776   4.351
10803SOL     OW33307   6.662   4.543   4.062
10803SOL    HW133308   6.617   4.482   3.996
10803SOL    HW233309   6.746   4.579   4.021
10804SOL     OW33310   4.552   4.376   1.070
10804SOL    HW133311   4.565   4.311   0.995
10804SOL    HW233312   4.580   4.333   1.156
10805SOL     OW33313   4.065   6.120   0.869
10805SOL    HW133314   4.143   6.133   0.930
10805SOL    HW233315   4.021   6.033   0.888
10806SOL     OW33316   5.542   3.819   6.320
10806SOL    HW133317   5.467   3.776   6.269
10806SOL    HW233318   5.614   3.846   6.257
10807SOL     OW33319   4.616   2.271   4.302
10807SOL    HW133320   4.621   2.370   4.296
10807SOL    HW233321   4.520   2.242   4.296
10808SOL     OW33322   0.624   1.585   0.164
10808SOL    HW133323   0.659   1.657   0.224
10808SOL    HW233324   0.574   1.627   0.088
10809SOL     OW33325   2.436   1.065   2.332
10809SOL    HW133326   2.383   0.991   2.373
10809SOL    HW233327   2.401   1.153   2.365
10810SOL     OW33328   1.957   0.998   6.557
10810SOL    HW133329   1.957   1.091   6.592
10810SOL    HW233330   1.883   0.986   6.492
10811SOL     OW33331   4.571   5.210   6.508
10811SOL    HW133332   4.612   5.147   6.574
10811SOL    HW233333   4.617   5.299   6.514
10812SOL     OW33334   6.242   2.688   1.968
10812SOL    HW133335   6.280   2.656   2.055
10812SOL    HW233336   6.262   2.622   1.896
10813SOL     OW33337   3.596   5.829   2.486
10813SOL    HW133338   3.690   5.855   2.462
10813SOL    HW233339   3.585   5.731   2.475
10814SOL     OW33340   1.913   5.923   4.265
10814SOL    HW133341   2.005   5.921   4.225
10814SOL    HW233342   1.885   6.018   4.278
10815SOL     OW33343   4.622   1.550   4.593
10815SOL    HW133344   4.693   1.481   4.576
10815SOL    HW233345   4.588   1.584   4.505
10816SOL     OW33346   2.505   2.077   1.543
10816SOL    HW133347   2.597   2.111   1.525
10816SOL    HW233348   2.510   1.983   1.579
10817SOL     OW33349   4.316   0.951   1.897
10817SOL    HW133350   4.394   1.013   1.899
10817SOL    HW233351   4.325   0.888   1.820
10818SOL     OW33352   4.172   3.033   6.815
10818SOL    HW133353   4.156   2.968   6.741
10818SOL    HW233354   4.269   3.057   6.819
10819SOL     OW33355   1.171   3.600   5.379
10819SOL    HW133356   1.108   3.532   5.345
10819SOL    HW233357   1.163   3.606   5.479
10820SOL     OW33358   0.628   6.882   4.740
10820SOL    HW133359   0.692   6.958   4.752
10820SOL    HW233360   0.657   6.804   4.796
10821SOL     OW33361   0.625   0.493   0.409
10821SOL    HW133362   0.651   0.421   0.344
10821SOL    HW233363   0.638   0.582   0.366
10822SOL     OW33364   0.620   4.256   6.705
10822SOL    HW133365   0.544   4.310   6.742
10822SOL    HW233366   0.583   4.175   6.658
10823SOL     OW33367   2.068   2.288   1.254
10823SOL    HW133368   2.131   2.240   1.315
10823SOL    HW233369   2.047   2.378   1.291
10824SOL     OW33370   5.043   0.922   3.589
10824SOL    HW133371   5.059   0.833   3.632
10824SOL    HW233372   4.959   0.918   3.535
10825SOL     OW33373   2.963   1.139   2.792
10825SOL    HW133374   2.885   1.079   2.776
10825SOL    HW233375   2.934   1.218   2.846
10826SOL     OW33376   6.819   2.957   1.212
10826SOL    HW133377   6.866   3.024   1.269
10826SOL    HW233378   6.858   2.866   1.229
10827SOL     OW33379   0.766   2.939   4.363
10827SOL    HW133380   0.673   2.966   4.338
10827SOL    HW233381   0.832   3.003   4.323
10828SOL     OW33382   2.471   5.514   0.403
10828SOL    HW133383   2.414   5.465   0.337
10828SOL    HW233384   2.548   5.456   0.430
10829SOL     OW33385   2.122   3.629   1.556
10829SOL    HW133386   2.146   3.538   1.520
10829SOL    HW233387   2.104   3.622   1.654
10830SOL     OW33388   5.835   1.030   3.639
10830SOL    HW133389   5.745   1.059   3.605
10830SOL    HW233390   5.878   0.970   3.572
10831SOL     OW33391   5.316   3.084   2.186
10831SOL    HW133392   5.282   3.169   2.146
10831SOL    HW233393   5.360   3.030   2.115
10832SOL     OW33394   0.813   3.902   2.737
10832SOL    HW133395   0.765   3.851   2.665
10832SOL    HW233396   0.895   3.853   2.763
10833SOL     OW33397   3.054   6.722   4.101
10833SOL    HW133398   3.103   6.800   4.063
10833SOL    HW233399   2.973   6.703   4.045
10834SOL     OW33400   6.731   1.266   5.592
10834SOL    HW133401   6.764   1.360   5.605
10834SOL    HW233402   6.732   1.218   5.679
10835SOL     OW33403   0.398   2.181   0.954
10835SOL    HW133404   0.476   2.150   0.899
10835SOL    HW233405   0.372   2.274   0.926
10836SOL     OW33406   1.455   2.989   0.800
10836SOL    HW133407   1.361   2.955   0.796
10836SOL    HW233408   1.518   2.914   0.778
10837SOL     OW33409   1.108   5.847   1.184
10837SOL    HW133410   1.014   5.816   1.203
10837SOL    HW233411   1.149   5.788   1.114
10838SOL     OW33412   6.462   6.565   0.542
10838SOL    HW133413   6.509   6.502   0.603
10838SOL    HW233414   6.438   6.518   0.457
10839SOL     OW33415   1.258   1.435   6.841
10839SOL    HW133416   1.238   1.512   6.780
10839SOL    HW233417   1.318   1.370   6.794
10840SOL     OW33418   2.611   0.034   2.559
10840SOL    HW133419   2.524   0.081   2.573
10840SOL    HW233420   2.686   0.101   2.566
10841SOL     OW33421   4.528   3.256   0.446
10841SOL    HW133422   4.577   3.330   0.493
10841SOL    HW233423   4.432   3.282   0.435
10842SOL     OW33424   5.938   2.874   1.435
10842SOL    HW133425   6.026   2.839   1.405
10842SOL    HW233426   5.914   2.833   1.523
10843SOL     OW33427   0.452   1.699   1.413
10843SOL    HW133428   0.433   1.621   1.472
10843SOL    HW233429   0.370   1.756   1.405
10844SOL     OW33430   4.479   0.527   3.416
10844SOL    HW133431   4.492   0.443   3.363
10844SOL    HW233432   4.490   0.507   3.514
10845SOL     OW33433   2.423   3.157   0.736
10845SOL    HW133434   2.466   3.071   0.706
10845SOL    HW233435   2.324   3.147   0.734
10846SOL     OW33436   3.195   2.095   1.562
10846SOL    HW133437   3.206   2.046   1.648
10846SOL    HW233438   3.273   2.074   1.502
10847SOL     OW33439   4.925   2.529   5.181
10847SOL    HW133440   4.849   2.488   5.130
10847SOL    HW233441   4.891   2.564   5.268
10848SOL     OW33442   1.368   0.861   6.667
10848SOL    HW133443   1.376   0.853   6.568
10848SOL    HW233444   1.444   0.812   6.710
10849SOL     OW33445   1.831   5.090   4.027
10849SOL    HW133446   1.815   4.992   4.021
10849SOL    HW233447   1.860   5.124   3.937
10850SOL     OW33448   5.753   0.583   1.912
10850SOL    HW133449   5.653   0.583   1.919
10850SOL    HW233450   5.792   0.562   2.002
10851SOL     OW33451   4.320   2.347   7.014
10851SOL    HW133452   4.260   2.400   6.955
10851SOL    HW233453   4.390   2.301   6.959
10852SOL     OW33454   6.431   0.494   6.204
10852SOL    HW133455   6.487   0.575   6.224
10852SOL    HW233456   6.396   0.499   6.111
10853SOL     OW33457   2.420   0.878   4.244
10853SOL    HW133458   2.410   0.974   4.218
10853SOL    HW233459   2.334   0.830   4.230
10854SOL     OW33460   0.001   0.490   0.862
10854SOL    HW133461   7.006   0.420   0.932
10854SOL    HW233462   0.094   0.486   0.824
10855SOL     OW33463   6.913   5.876   0.946
10855SOL    HW133464   6.869   5.791   0.917
10855SOL    HW233465   7.008   5.878   0.915
10856SOL     OW33466   5.467   0.080   6.447
10856SOL    HW133467   5.384   0.116   6.489
10856SOL    HW233468   5.545   0.102   6.505
10857SOL     OW33469   6.250   0.358   4.777
10857SOL    HW133470   6.245   0.458   4.784
10857SOL    HW233471   6.346   0.330   4.771
10858SOL     OW33472   2.010   1.882   0.441
10858SOL    HW133473   1.966   1.942   0.508
10858SOL    HW233474   2.099   1.854   0.475
10859SOL     OW33475   1.543   4.946   2.491
10859SOL    HW133476   1.502   4.858   2.468
10859SOL    HW233477   1.637   4.948   2.459
10860SOL     OW33478   5.714   2.401   1.517
10860SOL    HW133479   5.767   2.381   1.598
10860SOL    HW233480   5.762   2.470   1.461
10861SOL     OW33481   1.566   4.153   1.910
10861SOL    HW133482   1.524   4.101   1.836
10861SOL    HW233483   1.517   4.136   1.995
10862SOL     OW33484   3.547   4.206   5.403
10862SOL    HW133485   3.544   4.141   5.328
10862SOL    HW233486   3.641   4.235   5.419
10863SOL     OW33487   1.950   0.082   3.468
10863SOL    HW133488   2.012   0.004   3.470
10863SOL    HW233489   2.000   0.165   3.490
10864SOL     OW33490   2.786   3.595   1.792
10864SOL    HW133491   2.838   3.519   1.831
10864SOL    HW233492   2.724   3.632   1.862
10865SOL     OW33493   3.477   1.686   2.763
10865SOL    HW133494   3.566   1.653   2.794
10865SOL    HW233495   3.432   1.736   2.836
10866SOL     OW33496   0.803   3.745   3.900
10866SOL    HW133497   0.826   3.758   3.804
10866SOL    HW233498   0.716   3.792   3.919
10867SOL     OW33499   4.286   3.177   0.196
10867SOL    HW133500   4.329   3.264   0.172
10867SOL    HW233501   4.335   3.103   0.150
10868SOL     OW33502   1.486   6.395   5.007
10868SOL    HW133503   1.534   6.415   5.092
10868SOL    HW233504   1.507   6.465   4.939
10869NA      NA33505   6.916   1.043   6.385
10870NA      NA33506   4.583   4.736   5.347
10871NA      NA33507   0.980   4.983   2.732
10872NA      NA33508   5.813   3.560   3.279
10873NA      NA33509   3.906   2.793   5.496
10874NA      NA33510   2.351   4.642   6.785
10875NA      NA33511   1.605   5.429   6.832
10876NA      NA33512   4.271   4.936   1.594
10877NA      NA33513   5.055   4.223   0.694
10878NA      NA33514   3.546   1.459   0.687
10879NA      NA33515   5.636   6.930   1.444
10880NA      NA33516   2.246   6.683   5.289
10881NA      NA33517   4.331   4.817   2.937
10882NA      NA33518   4.172   3.978   6.684
   7.01555   7.01555   7.01555
