Generated by trjconv : CNT in water t= 213.00000
33518
    1C        C    1   2.844   2.769   4.746
    1C        C    2   2.899   2.721   4.866
    1C        C    3   2.838   2.772   4.982
    1C        C    4   2.846   2.771   4.260
    1C        C    5   2.901   2.726   4.382
    1C        C    6   2.845   2.771   4.504
    1C        C    7   3.012   2.639   4.624
    1C        C    8   2.895   2.718   4.625
    1C        C    9   3.077   2.602   4.745
    1C        C   10   3.008   2.631   4.865
    1C        C   11   3.181   2.501   4.983
    1C        C   12   3.056   2.563   4.978
    1C        C   13   2.852   2.773   3.769
    1C        C   14   2.899   2.723   3.893
    1C        C   15   2.849   2.771   4.016
    1C        C   16   3.018   2.646   4.137
    1C        C   17   2.899   2.723   4.139
    1C        C   18   3.081   2.618   4.260
    1C        C   19   3.019   2.648   4.383
    1C        C   20   3.209   2.553   4.505
    1C        C   21   3.080   2.608   4.504
    1C        C   22   3.277   2.532   4.627
    1C        C   23   3.208   2.547   4.750
    1C        C   24   3.411   2.479   4.865
    1C        C   25   3.269   2.503   4.870
    1C        C   26   3.490   2.481   4.981
    1C        C   27   2.849   2.770   3.281
    1C        C   28   2.906   2.725   3.403
    1C        C   29   2.851   2.774   3.523
    1C        C   30   3.021   2.648   3.646
    1C        C   31   2.905   2.730   3.646
    1C        C   32   3.078   2.610   3.769
    1C        C   33   3.018   2.647   3.892
    1C        C   34   3.207   2.552   4.015
    1C        C   35   3.077   2.608   4.014
    1C        C   36   3.274   2.533   4.138
    1C        C   37   3.210   2.561   4.261
    1C        C   38   3.416   2.505   4.381
    1C        C   39   3.278   2.536   4.382
    1C        C   40   3.487   2.500   4.503
    1C        C   41   3.415   2.503   4.625
    1C        C   42   3.628   2.487   4.744
    1C        C   43   3.486   2.482   4.745
    1C        C   44   3.705   2.486   4.862
    1C        C   45   3.629   2.476   4.979
    1C        C   46   2.842   2.757   2.790
    1C        C   47   2.898   2.717   2.914
    1C        C   48   2.850   2.765   3.038
    1C        C   49   3.020   2.642   3.158
    1C        C   50   2.901   2.718   3.160
    1C        C   51   3.081   2.606   3.281
    1C        C   52   3.021   2.644   3.404
    1C        C   53   3.209   2.545   3.528
    1C        C   54   3.082   2.608   3.526
    1C        C   55   3.274   2.526   3.652
    1C        C   56   3.206   2.550   3.774
    1C        C   57   3.416   2.507   3.893
    1C        C   58   3.277   2.530   3.895
    1C        C   59   3.486   2.501   4.016
    1C        C   60   3.413   2.509   4.137
    1C        C   61   3.626   2.506   4.257
    1C        C   62   3.485   2.498   4.258
    1C        C   63   3.696   2.512   4.380
    1C        C   64   3.628   2.502   4.503
    1C        C   65   3.835   2.545   4.621
    1C        C   66   3.702   2.497   4.624
    1C        C   67   3.903   2.564   4.743
    1C        C   68   3.839   2.531   4.864
    1C        C   69   4.050   2.590   4.979
    1C        C   70   3.923   2.532   4.977
    1C        C   71   2.820   2.729   2.304
    1C        C   72   2.879   2.688   2.425
    1C        C   73   2.834   2.746   2.546
    1C        C   74   3.008   2.625   2.670
    1C        C   75   2.892   2.705   2.668
    1C        C   76   3.072   2.595   2.792
    1C        C   77   3.014   2.637   2.914
    1C        C   78   3.208   2.545   3.037
    1C        C   79   3.080   2.605   3.035
    1C        C   80   3.275   2.524   3.160
    1C        C   81   3.208   2.546   3.283
    1C        C   82   3.413   2.501   3.402
    1C        C   83   3.273   2.519   3.405
    1C        C   84   3.484   2.497   3.525
    1C        C   85   3.413   2.503   3.647
    1C        C   86   3.625   2.497   3.769
    1C        C   87   3.483   2.495   3.769
    1C        C   88   3.696   2.512   3.890
    1C        C   89   3.627   2.505   4.013
    1C        C   90   3.833   2.552   4.134
    1C        C   91   3.698   2.512   4.135
    1C        C   92   3.896   2.579   4.258
    1C        C   93   3.832   2.548   4.380
    1C        C   94   4.027   2.639   4.497
    1C        C   95   3.903   2.571   4.500
    1C        C   96   4.086   2.677   4.619
    1C        C   97   4.030   2.628   4.740
    1C        C   98   4.190   2.767   4.861
    1C        C   99   4.094   2.661   4.863
    1C        C  100   4.220   2.838   4.978
    1C        C  101   2.828   2.733   2.067
    1C        C  102   2.992   2.591   2.189
    1C        C  103   2.875   2.674   2.185
    1C        C  104   3.065   2.571   2.309
    1C        C  105   3.000   2.615   2.427
    1C        C  106   3.199   2.535   2.549
    1C        C  107   3.067   2.584   2.548
    1C        C  108   3.270   2.518   2.670
    1C        C  109   3.202   2.541   2.792
    1C        C  110   3.409   2.494   2.915
    1C        C  111   3.270   2.517   2.913
    1C        C  112   3.483   2.494   3.035
    1C        C  113   3.414   2.499   3.158
    1C        C  114   3.626   2.497   3.279
    1C        C  115   3.485   2.498   3.280
    1C        C  116   3.695   2.507   3.402
    1C        C  117   3.625   2.498   3.525
    1C        C  118   3.832   2.543   3.646
    1C        C  119   3.696   2.506   3.647
    1C        C  120   3.895   2.577   3.768
    1C        C  121   3.831   2.554   3.892
    1C        C  122   4.027   2.639   4.013
    1C        C  123   3.901   2.575   4.013
    1C        C  124   4.086   2.679   4.134
    1C        C  125   4.024   2.639   4.254
    1C        C  126   4.193   2.771   4.376
    1C        C  127   4.086   2.678   4.375
    1C        C  128   4.242   2.821   4.498
    1C        C  129   4.194   2.768   4.620
    1C        C  130   4.333   2.931   4.740
    1C        C  131   4.247   2.818   4.741
    1C        C  132   4.356   3.005   4.858
    1C        C  133   4.288   2.959   4.971
    1C        C  134   3.174   2.468   2.080
    1C        C  135   3.040   2.509   2.083
    1C        C  136   3.262   2.477   2.188
    1C        C  137   3.197   2.519   2.306
    1C        C  138   3.406   2.480   2.427
    1C        C  139   3.267   2.506   2.428
    1C        C  140   3.478   2.472   2.548
    1C        C  141   3.408   2.489   2.670
    1C        C  142   3.620   2.490   2.790
    1C        C  143   3.479   2.490   2.792
    1C        C  144   3.693   2.500   2.910
    1C        C  145   3.624   2.497   3.034
    1C        C  146   3.833   2.529   3.154
    1C        C  147   3.695   2.499   3.156
    1C        C  148   3.898   2.558   3.277
    1C        C  149   3.832   2.541   3.400
    1C        C  150   4.022   2.632   3.522
    1C        C  151   3.897   2.566   3.523
    1C        C  152   4.084   2.669   3.644
    1C        C  153   4.022   2.639   3.767
    1C        C  154   4.190   2.770   3.886
    1C        C  155   4.082   2.679   3.889
    1C        C  156   4.244   2.817   4.008
    1C        C  157   4.196   2.768   4.131
    1C        C  158   4.339   2.924   4.252
    1C        C  159   4.248   2.816   4.254
    1C        C  160   4.377   2.986   4.373
    1C        C  161   4.331   2.931   4.495
    1C        C  162   4.441   3.111   4.615
    1C        C  163   4.375   2.986   4.617
    1C        C  164   4.467   3.182   4.734
    1C        C  165   4.439   3.120   4.858
    1C        C  166   4.514   3.320   4.971
    1C        C  167   4.479   3.186   4.975
    1C        C  168   3.477   2.447   2.068
    1C        C  169   3.401   2.454   2.186
    1C        C  170   3.618   2.464   2.305
    1C        C  171   3.476   2.465   2.306
    1C        C  172   3.690   2.488   2.424
    1C        C  173   3.619   2.484   2.546
    1C        C  174   3.826   2.538   2.664
    1C        C  175   3.689   2.502   2.667
    1C        C  176   3.894   2.557   2.786
    1C        C  177   3.830   2.532   2.910
    1C        C  178   4.021   2.627   3.030
    1C        C  179   3.898   2.557   3.032
    1C        C  180   4.081   2.666   3.152
    1C        C  181   4.023   2.625   3.274
    1C        C  182   4.190   2.752   3.397
    1C        C  183   4.081   2.662   3.397
    1C        C  184   4.241   2.807   3.517
    1C        C  185   4.194   2.758   3.640
    1C        C  186   4.335   2.919   3.761
    1C        C  187   4.241   2.813   3.761
    1C        C  188   4.382   2.976   3.882
    1C        C  189   4.338   2.923   4.005
    1C        C  190   4.449   3.102   4.126
    1C        C  191   4.377   2.980   4.128
    1C        C  192   4.473   3.171   4.247
    1C        C  193   4.443   3.111   4.371
    1C        C  194   4.508   3.313   4.492
    1C        C  195   4.469   3.177   4.493
    1C        C  196   4.527   3.387   4.612
    1C        C  197   4.508   3.318   4.733
    1C        C  198   4.553   3.533   4.854
    1C        C  199   4.535   3.392   4.852
    1C        C  200   4.580   3.617   4.967
    1C        C  201   3.612   2.413   2.075
    1C        C  202   3.827   2.511   2.178
    1C        C  203   3.693   2.459   2.184
    1C        C  204   3.898   2.533   2.299
    1C        C  205   3.829   2.515   2.421
    1C        C  206   4.018   2.620   2.542
    1C        C  207   3.895   2.550   2.541
    1C        C  208   4.080   2.659   2.663
    1C        C  209   4.016   2.626   2.785
    1C        C  210   4.190   2.750   2.906
    1C        C  211   4.079   2.662   2.907
    1C        C  212   4.244   2.796   3.029
    1C        C  213   4.195   2.750   3.153
    1C        C  214   4.328   2.914   3.269
    1C        C  215   4.241   2.803   3.276
    1C        C  216   4.364   2.976   3.391
    1C        C  217   4.328   2.919   3.515
    1C        C  218   4.436   3.101   3.638
    1C        C  219   4.372   2.975   3.637
    1C        C  220   4.466   3.169   3.758
    1C        C  221   4.443   3.103   3.881
    1C        C  222   4.507   3.304   4.004
    1C        C  223   4.474   3.167   4.003
    1C        C  224   4.521   3.376   4.125
    1C        C  225   4.510   3.307   4.248
    1C        C  226   4.526   3.521   4.367
    1C        C  227   4.518   3.380   4.368
    1C        C  228   4.523   3.595   4.487
    1C        C  229   4.536   3.528   4.610
    1C        C  230   4.505   3.740   4.726
    1C        C  231   4.539   3.602   4.730
    1C        C  232   4.494   3.815   4.845
    1C        C  233   4.542   3.752   4.960
    1C        C  234   4.016   2.617   2.060
    1C        C  235   3.899   2.543   2.062
    1C        C  236   4.084   2.646   2.179
    1C        C  237   4.021   2.605   2.298
    1C        C  238   4.192   2.737   2.422
    1C        C  239   4.079   2.651   2.419
    1C        C  240   4.252   2.785   2.541
    1C        C  241   4.196   2.740   2.663
    1C        C  242   4.329   2.908   2.783
    1C        C  243   4.243   2.795   2.784
    1C        C  244   4.374   2.963   2.905
    1C        C  245   4.332   2.906   3.028
    1C        C  246   4.445   3.090   3.146
    1C        C  247   4.376   2.967   3.147
    1C        C  248   4.466   3.159   3.268
    1C        C  249   4.433   3.100   3.392
    1C        C  250   4.503   3.299   3.511
    1C        C  251   4.461   3.164   3.514
    1C        C  252   4.512   3.370   3.633
    1C        C  253   4.501   3.306   3.759
    1C        C  254   4.527   3.515   3.879
    1C        C  255   4.517   3.374   3.881
    1C        C  256   4.525   3.589   3.999
    1C        C  257   4.528   3.517   4.120
    1C        C  258   4.496   3.727   4.240
    1C        C  259   4.523   3.588   4.242
    1C        C  260   4.470   3.799   4.358
    1C        C  261   4.493   3.733   4.481
    1C        C  262   4.427   3.935   4.604
    1C        C  263   4.480   3.804   4.602
    1C        C  264   4.397   4.005   4.723
    1C        C  265   4.432   3.942   4.844
    1C        C  266   4.325   4.130   4.959
    1C        C  267   4.395   4.010   4.961
    1C        C  268   4.266   2.772   2.066
    1C        C  269   4.198   2.729   2.181
    1C        C  270   4.344   2.888   2.297
    1C        C  271   4.250   2.781   2.302
    1C        C  272   4.384   2.949   2.418
    1C        C  273   4.346   2.890   2.540
    1C        C  274   4.453   3.076   2.660
    1C        C  275   4.380   2.955   2.660
    1C        C  276   4.476   3.146   2.781
    1C        C  277   4.447   3.083   2.904
    1C        C  278   4.507   3.291   3.022
    1C        C  279   4.472   3.155   3.023
    1C        C  280   4.519   3.361   3.145
    1C        C  281   4.504   3.295   3.268
    1C        C  282   4.516   3.509   3.388
    1C        C  283   4.514   3.368   3.388
    1C        C  284   4.515   3.580   3.510
    1C        C  285   4.517   3.511   3.633
    1C        C  286   4.494   3.722   3.753
    1C        C  287   4.516   3.582   3.755
    1C        C  288   4.476   3.795   3.873
    1C        C  289   4.495   3.727   3.995
    1C        C  290   4.428   3.928   4.116
    1C        C  291   4.480   3.797   4.118
    1C        C  292   4.399   3.996   4.236
    1C        C  293   4.424   3.933   4.360
    1C        C  294   4.322   4.119   4.479
    1C        C  295   4.396   3.999   4.482
    1C        C  296   4.279   4.179   4.599
    1C        C  297   4.325   4.128   4.722
    1C        C  298   4.195   4.306   4.839
    1C        C  299   4.281   4.191   4.841
    1C        C  300   4.168   4.395   4.947
    1C        C  301   4.349   2.883   2.062
    1C        C  302   4.472   3.067   2.176
    1C        C  303   4.398   2.944   2.178
    1C        C  304   4.481   3.140   2.297
    1C        C  305   4.449   3.075   2.418
    1C        C  306   4.510   3.280   2.533
    1C        C  307   4.481   3.142   2.538
    1C        C  308   4.521   3.352   2.655
    1C        C  309   4.509   3.283   2.777
    1C        C  310   4.528   3.497   2.897
    1C        C  311   4.519   3.356   2.897
    1C        C  312   4.522   3.570   3.018
    1C        C  313   4.524   3.503   3.142
    1C        C  314   4.485   3.713   3.263
    1C        C  315   4.521   3.576   3.263
    1C        C  316   4.466   3.783   3.384
    1C        C  317   4.490   3.719   3.508
    1C        C  318   4.420   3.919   3.627
    1C        C  319   4.473   3.788   3.630
    1C        C  320   4.393   3.986   3.748
    1C        C  321   4.426   3.927   3.872
    1C        C  322   4.321   4.112   3.991
    1C        C  323   4.394   3.991   3.994
    1C        C  324   4.277   4.169   4.113
    1C        C  325   4.322   4.115   4.235
    1C        C  326   4.179   4.274   4.353
    1C        C  327   4.279   4.174   4.356
    1C        C  328   4.129   4.329   4.473
    1C        C  329   4.183   4.283   4.595
    1C        C  330   4.023   4.428   4.714
    1C        C  331   4.132   4.337   4.715
    1C        C  332   3.970   4.488   4.830
    1C        C  333   4.052   4.472   4.942
    1C        C  334   4.555   3.264   2.059
    1C        C  335   4.532   3.126   2.060
    1C        C  336   4.538   3.347   2.171
    1C        C  337   4.519   3.277   2.292
    1C        C  338   4.525   3.492   2.410
    1C        C  339   4.526   3.351   2.412
    1C        C  340   4.521   3.564   2.531
    1C        C  341   4.524   3.493   2.653
    1C        C  342   4.498   3.705   2.773
    1C        C  343   4.523   3.566   2.774
    1C        C  344   4.472   3.776   2.893
    1C        C  345   4.491   3.707   3.015
    1C        C  346   4.415   3.906   3.136
    1C        C  347   4.466   3.775   3.137
    1C        C  348   4.381   3.974   3.255
    1C        C  349   4.417   3.915   3.379
    1C        C  350   4.314   4.097   3.501
    1C        C  351   4.391   3.978   3.502
    1C        C  352   4.268   4.158   3.621
    1C        C  353   4.313   4.102   3.743
    1C        C  354   4.173   4.258   3.867
    1C        C  355   4.273   4.158   3.866
    1C        C  356   4.118   4.311   3.987
    1C        C  357   4.173   4.264   4.108
    1C        C  358   4.004   4.391   4.232
    1C        C  359   4.119   4.309   4.231
    1C        C  360   3.949   4.442   4.351
    1C        C  361   4.013   4.411   4.473
    1C        C  362   3.825   4.513   4.595
    1C        C  363   3.955   4.457   4.593
    1C        C  364   3.760   4.547   4.716
    1C        C  365   3.838   4.539   4.833
    1C        C  366   3.628   4.593   4.951
    1C        C  367   3.765   4.565   4.949
    1C        C  368   4.507   3.564   2.053
    1C        C  369   4.528   3.488   2.169
    1C        C  370   4.498   3.703   2.288
    1C        C  371   4.521   3.564   2.288
    1C        C  372   4.479   3.776   2.407
    1C        C  373   4.499   3.704   2.527
    1C        C  374   4.421   3.900   2.650
    1C        C  375   4.479   3.771   2.650
    1C        C  376   4.379   3.964   2.769
    1C        C  377   4.417   3.906   2.892
    1C        C  378   4.314   4.092   3.010
    1C        C  379   4.389   3.972   3.014
    1C        C  380   4.270   4.149   3.131
    1C        C  381   4.306   4.094   3.256
    1C        C  382   4.172   4.255   3.376
    1C        C  383   4.268   4.152   3.379
    1C        C  384   4.116   4.300   3.497
    1C        C  385   4.167   4.256   3.622
    1C        C  386   4.003   4.385   3.744
    1C        C  387   4.119   4.304   3.745
    1C        C  388   3.939   4.424   3.864
    1C        C  389   4.000   4.389   3.986
    1C        C  390   3.814   4.486   4.112
    1C        C  391   3.942   4.427   4.109
    1C        C  392   3.746   4.516   4.232
    1C        C  393   3.819   4.497   4.351
    1C        C  394   3.617   4.555   4.474
    1C        C  395   3.756   4.529   4.474
    1C        C  396   3.545   4.565   4.595
    1C        C  397   3.620   4.567   4.715
    1C        C  398   3.409   4.557   4.839
    1C        C  399   3.548   4.577   4.837
    1C        C  400   3.340   4.512   4.953
    1C        C  401   4.503   3.702   2.050
    1C        C  402   4.448   3.912   2.165
    1C        C  403   4.485   3.776   2.168
    1C        C  404   4.409   3.977   2.285
    1C        C  405   4.435   3.910   2.407
    1C        C  406   4.322   4.088   2.525
    1C        C  407   4.397   3.969   2.529
    1C        C  408   4.268   4.142   2.644
    1C        C  409   4.307   4.085   2.767
    1C        C  410   4.170   4.248   2.887
    1C        C  411   4.271   4.149   2.888
    1C        C  412   4.115   4.295   3.008
    1C        C  413   4.172   4.251   3.130
    1C        C  414   3.999   4.373   3.254
    1C        C  415   4.117   4.296   3.252
    1C        C  416   3.937   4.408   3.376
    1C        C  417   3.998   4.379   3.500
    1C        C  418   3.811   4.478   3.621
    1C        C  419   3.939   4.417   3.622
    1C        C  420   3.746   4.506   3.743
    1C        C  421   3.812   4.484   3.866
    1C        C  422   3.609   4.539   3.988
    1C        C  423   3.747   4.507   3.989
    1C        C  424   3.538   4.546   4.110
    1C        C  425   3.607   4.540   4.233
    1C        C  426   3.399   4.560   4.359
    1C        C  427   3.540   4.561   4.355
    1C        C  428   3.327   4.554   4.481
    1C        C  429   3.404   4.562   4.599
    1C        C  430   3.195   4.518   4.723
    1C        C  431   3.334   4.548   4.720
    1C        C  432   3.120   4.497   4.842
    1C        C  433   3.202   4.497   4.956
    1C        C  434   4.378   4.120   2.050
    1C        C  435   4.441   3.995   2.052
    1C        C  436   4.302   4.162   2.164
    1C        C  437   4.328   4.093   2.285
    1C        C  438   4.176   4.247   2.403
    1C        C  439   4.276   4.147   2.405
    1C        C  440   4.120   4.294   2.524
    1C        C  441   4.172   4.245   2.646
    1C        C  442   4.002   4.379   2.767
    1C        C  443   4.116   4.295   2.765
    1C        C  444   3.940   4.416   2.888
    1C        C  445   4.000   4.376   3.010
    1C        C  446   3.813   4.477   3.131
    1C        C  447   3.940   4.415   3.132
    1C        C  448   3.745   4.496   3.253
    1C        C  449   3.809   4.469   3.376
    1C        C  450   3.607   4.530   3.499
    1C        C  451   3.746   4.500   3.498
    1C        C  452   3.538   4.545   3.621
    1C        C  453   3.610   4.544   3.743
    1C        C  454   3.399   4.549   3.866
    1C        C  455   3.540   4.550   3.866
    1C        C  456   3.328   4.542   3.988
    1C        C  457   3.397   4.552   4.112
    1C        C  458   3.193   4.512   4.236
    1C        C  459   3.331   4.545   4.236
    1C        C  460   3.127   4.484   4.357
    1C        C  461   3.191   4.515   4.479
    1C        C  462   2.998   4.432   4.602
    1C        C  463   3.125   4.496   4.602
    1C        C  464   2.931   4.402   4.722
    1C        C  465   2.987   4.446   4.846
    1C        C  466   2.803   4.331   4.957
    1C        C  467   2.904   4.428   4.961
    1C        C  468   4.123   4.286   2.042
    1C        C  469   4.184   4.244   2.161
    1C        C  470   4.007   4.372   2.277
    1C        C  471   4.125   4.293   2.280
    1C        C  472   3.941   4.403   2.398
    1C        C  473   4.002   4.371   2.522
    1C        C  474   3.811   4.466   2.642
    1C        C  475   3.941   4.410   2.643
    1C        C  476   3.743   4.494   2.763
    1C        C  477   3.811   4.474   2.885
    1C        C  478   3.607   4.522   3.008
    1C        C  479   3.746   4.499   3.008
    1C        C  480   3.536   4.531   3.130
    1C        C  481   3.607   4.523   3.253
    1C        C  482   3.397   4.539   3.376
    1C        C  483   3.539   4.536   3.376
    1C        C  484   3.326   4.532   3.498
    1C        C  485   3.397   4.543   3.620
    1C        C  486   3.192   4.505   3.745
    1C        C  487   3.329   4.542   3.744
    1C        C  488   3.127   4.477   3.867
    1C        C  489   3.194   4.496   3.990
    1C        C  490   3.004   4.414   4.113
    1C        C  491   3.129   4.480   4.114
    1C        C  492   2.947   4.375   4.236
    1C        C  493   3.002   4.418   4.359
    1C        C  494   2.830   4.297   4.482
    1C        C  495   2.940   4.386   4.482
    1C        C  496   2.776   4.251   4.604
    1C        C  497   2.822   4.311   4.723
    1C        C  498   2.666   4.160   4.844
    1C        C  499   2.754   4.270   4.840
    1C        C  500   2.598   4.116   4.959
    1C        C  501   4.004   4.359   2.041
    1C        C  502   3.812   4.465   2.156
    1C        C  503   3.942   4.409   2.157
    1C        C  504   3.743   4.484   2.278
    1C        C  505   3.811   4.457   2.399
    1C        C  506   3.604   4.510   2.522
    1C        C  507   3.743   4.484   2.520
    1C        C  508   3.532   4.526   2.642
    1C        C  509   3.605   4.522   2.763
    1C        C  510   3.395   4.532   2.886
    1C        C  511   3.536   4.531   2.886
    1C        C  512   3.323   4.529   3.007
    1C        C  513   3.395   4.537   3.129
    1C        C  514   3.192   4.493   3.256
    1C        C  515   3.329   4.530   3.253
    1C        C  516   3.125   4.467   3.377
    1C        C  517   3.190   4.494   3.500
    1C        C  518   3.002   4.408   3.623
    1C        C  519   3.124   4.478   3.624
    1C        C  520   2.944   4.368   3.746
    1C        C  521   3.004   4.408   3.867
    1C        C  522   2.844   4.274   3.994
    1C        C  523   2.947   4.370   3.991
    1C        C  524   2.791   4.230   4.118
    1C        C  525   2.839   4.284   4.239
    1C        C  526   2.696   4.129   4.365
    1C        C  527   2.783   4.240   4.361
    1C        C  528   2.647   4.075   4.486
    1C        C  529   2.687   4.142   4.604
    1C        C  530   2.581   3.958   4.730
    1C        C  531   2.641   4.087   4.726
    1C        C  532   2.539   3.900   4.853
    1C        C  533   2.526   3.996   4.959
    1C        C  534   3.618   4.553   2.036
    1C        C  535   3.754   4.517   2.040
    1C        C  536   3.537   4.533   2.152
    1C        C  537   3.604   4.513   2.276
    1C        C  538   3.393   4.517   2.399
    1C        C  539   3.535   4.518   2.399
    1C        C  540   3.321   4.510   2.520
    1C        C  541   3.391   4.518   2.642
    1C        C  542   3.184   4.485   2.766
    1C        C  543   3.321   4.520   2.765
    1C        C  544   3.121   4.464   2.891
    1C        C  545   3.186   4.493   3.013
    1C        C  546   2.997   4.402   3.133
    1C        C  547   3.122   4.468   3.136
    1C        C  548   2.943   4.357   3.256
    1C        C  549   3.001   4.399   3.378
    1C        C  550   2.833   4.277   3.505
    1C        C  551   2.941   4.369   3.502
    1C        C  552   2.785   4.226   3.627
    1C        C  553   2.832   4.281   3.748
    1C        C  554   2.702   4.118   3.877
    1C        C  555   2.789   4.229   3.872
    1C        C  556   2.660   4.060   3.999
    1C        C  557   2.702   4.120   4.120
    1C        C  558   2.595   3.942   4.244
    1C        C  559   2.658   4.068   4.243
    1C        C  560   2.567   3.877   4.367
    1C        C  561   2.589   3.946   4.488
    1C        C  562   2.523   3.748   4.611
    1C        C  563   2.559   3.885   4.611
    1C        C  564   2.511   3.681   4.735
    1C        C  565   2.521   3.758   4.853
    1C        C  566   2.522   3.546   4.977
    1C        C  567   2.531   3.684   4.972
    1C        C  568   3.328   4.477   2.041
    1C        C  569   3.397   4.511   2.158
    1C        C  570   3.182   4.478   2.279
    1C        C  571   3.321   4.508   2.278
    1C        C  572   3.113   4.460   2.401
    1C        C  573   3.182   4.485   2.522
    1C        C  574   2.988   4.401   2.646
    1C        C  575   3.115   4.463   2.645
    1C        C  576   2.932   4.362   2.770
    1C        C  577   2.998   4.395   2.890
    1C        C  578   2.826   4.272   3.013
    1C        C  579   2.937   4.360   3.013
    1C        C  580   2.781   4.219   3.136
    1C        C  581   2.832   4.269   3.257
    1C        C  582   2.703   4.109   3.386
    1C        C  583   2.786   4.224   3.383
    1C        C  584   2.660   4.054   3.509
    1C        C  585   2.698   4.115   3.630
    1C        C  586   2.597   3.933   3.755
    1C        C  587   2.662   4.058   3.755
    1C        C  588   2.569   3.869   3.878
    1C        C  589   2.601   3.932   4.000
    1C        C  590   2.534   3.735   4.126
    1C        C  591   2.574   3.870   4.124
    1C        C  592   2.518   3.668   4.250
    1C        C  593   2.530   3.741   4.370
    1C        C  594   2.513   3.531   4.496
    1C        C  595   2.513   3.672   4.493
    1C        C  596   2.516   3.463   4.619
    1C        C  597   2.516   3.538   4.739
    1C        C  598   2.530   3.327   4.862
    1C        C  599   2.524   3.468   4.861
    1C        C  600   2.531   3.249   4.979
    1C        C  601   3.194   4.441   2.041
    1C        C  602   2.981   4.400   2.159
    1C        C  603   3.115   4.448   2.157
    1C        C  604   2.924   4.358   2.282
    1C        C  605   2.987   4.398   2.402
    1C        C  606   2.824   4.266   2.527
    1C        C  607   2.926   4.363   2.525
    1C        C  608   2.777   4.213   2.649
    1C        C  609   2.826   4.268   2.770
    1C        C  610   2.690   4.107   2.895
    1C        C  611   2.772   4.222   2.892
    1C        C  612   2.656   4.047   3.019
    1C        C  613   2.696   4.106   3.141
    1C        C  614   2.594   3.925   3.266
    1C        C  615   2.660   4.050   3.265
    1C        C  616   2.567   3.863   3.390
    1C        C  617   2.593   3.929   3.512
    1C        C  618   2.535   3.727   3.636
    1C        C  619   2.571   3.864   3.635
    1C        C  620   2.523   3.659   3.760
    1C        C  621   2.535   3.732   3.880
    1C        C  622   2.511   3.524   4.007
    1C        C  623   2.520   3.665   4.004
    1C        C  624   2.512   3.455   4.130
    1C        C  625   2.506   3.528   4.251
    1C        C  626   2.540   3.320   4.377
    1C        C  627   2.514   3.458   4.374
    1C        C  628   2.554   3.251   4.500
    1C        C  629   2.533   3.322   4.620
    1C        C  630   2.587   3.117   4.741
    1C        C  631   2.544   3.253   4.743
    1C        C  632   2.619   3.054   4.865
    1C        C  633   2.561   3.112   4.982
    1C        C  634   2.779   4.303   2.056
    1C        C  635   2.891   4.388   2.048
    1C        C  636   2.750   4.225   2.168
    1C        C  637   2.813   4.269   2.286
    1C        C  638   2.678   4.104   2.409
    1C        C  639   2.766   4.215   2.408
    1C        C  640   2.642   4.045   2.532
    1C        C  641   2.689   4.103   2.652
    1C        C  642   2.587   3.919   2.774
    1C        C  643   2.648   4.046   2.775
    1C        C  644   2.564   3.855   2.898
    1C        C  645   2.594   3.920   3.020
    1C        C  646   2.528   3.723   3.147
    1C        C  647   2.564   3.860   3.144
    1C        C  648   2.509   3.655   3.270
    1C        C  649   2.528   3.727   3.390
    1C        C  650   2.509   3.518   3.517
    1C        C  651   2.520   3.659   3.513
    1C        C  652   2.511   3.449   3.640
    1C        C  653   2.513   3.518   3.763
    1C        C  654   2.531   3.310   3.887
    1C        C  655   2.508   3.449   3.887
    1C        C  656   2.552   3.248   4.012
    1C        C  657   2.534   3.316   4.135
    1C        C  658   2.608   3.117   4.255
    1C        C  659   2.553   3.247   4.257
    1C        C  660   2.632   3.055   4.380
    1C        C  661   2.603   3.119   4.503
    1C        C  662   2.709   2.935   4.625
    1C        C  663   2.626   3.049   4.624
    1C        C  664   2.747   2.873   4.746
    1C        C  665   2.698   2.935   4.865
    1C        C  666   2.733   2.863   4.980
    1C        C  667   2.683   4.018   2.054
    1C        C  668   2.682   4.101   2.166
    1C        C  669   2.596   3.905   2.292
    1C        C  670   2.648   4.038   2.288
    1C        C  671   2.563   3.844   2.415
    1C        C  672   2.583   3.917   2.534
    1C        C  673   2.517   3.713   2.657
    1C        C  674   2.558   3.848   2.655
    1C        C  675   2.512   3.646   2.781
    1C        C  676   2.529   3.718   2.901
    1C        C  677   2.503   3.511   3.028
    1C        C  678   2.521   3.651   3.026
    1C        C  679   2.501   3.442   3.151
    1C        C  680   2.503   3.514   3.272
    1C        C  681   2.527   3.306   3.398
    1C        C  682   2.507   3.446   3.396
    1C        C  683   2.549   3.241   3.521
    1C        C  684   2.534   3.310   3.644
    1C        C  685   2.603   3.109   3.768
    1C        C  686   2.547   3.239   3.766
    1C        C  687   2.638   3.051   3.892
    1C        C  688   2.606   3.117   4.013
    1C        C  689   2.711   2.931   4.137
    1C        C  690   2.638   3.052   4.134
    1C        C  691   2.755   2.880   4.262
    1C        C  692   2.711   2.938   4.382
    1C        C  693   2.755   2.880   4.503
    1C        C  694   2.620   3.893   2.052
    1C        C  695   2.521   3.704   2.176
    1C        C  696   2.579   3.833   2.172
    1C        C  697   2.503   3.634   2.297
    1C        C  698   2.524   3.708   2.415
    1C        C  699   2.490   3.500   2.541
    1C        C  700   2.502   3.640   2.537
    1C        C  701   2.502   3.432   2.665
    1C        C  702   2.500   3.505   2.785
    1C        C  703   2.521   3.296   2.907
    1C        C  704   2.500   3.436   2.908
    1C        C  705   2.543   3.232   3.031
    1C        C  706   2.529   3.303   3.152
    1C        C  707   2.593   3.104   3.275
    1C        C  708   2.545   3.236   3.276
    1C        C  709   2.630   3.046   3.398
    1C        C  710   2.600   3.109   3.521
    1C        C  711   2.708   2.930   3.647
    1C        C  712   2.630   3.047   3.644
    1C        C  713   2.756   2.877   3.768
    1C        C  714   2.715   2.933   3.892
    1C        C  715   2.757   2.878   4.015
    1C        C  716   2.446   3.495   2.060
    1C        C  717   2.480   3.631   2.063
    1C        C  718   2.461   3.417   2.180
    1C        C  719   2.480   3.493   2.298
    1C        C  720   2.507   3.286   2.420
    1C        C  721   2.484   3.425   2.421
    1C        C  722   2.533   3.218   2.542
    1C        C  723   2.523   3.292   2.661
    1C        C  724   2.592   3.096   2.787
    1C        C  725   2.540   3.227   2.785
    1C        C  726   2.624   3.034   2.910
    1C        C  727   2.594   3.100   3.031
    1C        C  728   2.705   2.921   3.155
    1C        C  729   2.625   3.037   3.154
    1C        C  730   2.750   2.871   3.279
    1C        C  731   2.708   2.928   3.401
    1C        C  732   2.749   2.872   3.524
    1C        C  733   2.485   3.191   2.068
    1C        C  734   2.481   3.275   2.180
    1C        C  735   2.576   3.081   2.303
    1C        C  736   2.512   3.209   2.302
    1C        C  737   2.605   3.014   2.423
    1C        C  738   2.574   3.083   2.543
    1C        C  739   2.695   2.909   2.666
    1C        C  740   2.619   3.028   2.665
    1C        C  741   2.744   2.859   2.788
    1C        C  742   2.706   2.919   2.910
    1C        C  743   2.757   2.871   3.033
    1C        C  744   2.546   3.066   2.069
    1C        C  745   2.694   2.902   2.182
    1C        C  746   2.612   3.017   2.182
    1C        C  747   2.728   2.838   2.303
    1C        C  748   2.685   2.898   2.423
    1C        C  749   2.736   2.848   2.545
    1C        C  750   2.738   2.839   2.065
    1C        C  751   3.654   2.293   1.999
    1C        O  752   3.679   2.182   2.052
    1C        O  753   3.625   2.287   1.862
    1C        C  754   4.602   3.057   1.949
    1C        O  755   4.565   3.068   1.829
    1C        O  756   4.720   2.983   1.965
    1C        C  757   4.464   4.222   1.986
    1C        O  758   4.588   4.231   2.005
    1C        O  759   4.440   4.240   1.849
    1C        C  760   3.580   4.624   1.913
    1C        O  761   3.616   4.745   1.905
    1C        O  762   3.586   4.566   1.785
    1C        C  763   2.891   4.485   1.936
    1C        O  764   2.890   4.450   1.815
    1C        O  765   2.809   4.598   1.945
    1C        C  766   2.348   3.461   1.955
    1C        O  767   2.384   3.418   1.842
    1C        O  768   2.216   3.443   1.998
    1C        C  769   4.694   3.589   5.057
    1C        O  770   4.694   3.625   5.178
    1C        O  771   4.819   3.605   4.997
    1C        C  772   4.280   4.445   5.030
    1C        O  773   4.313   4.393   5.140
    1C        O  774   4.368   4.548   4.994
    1C        C  775   4.132   2.531   5.088
    1C        O  776   4.219   2.444   5.062
    1C        O  777   4.132   2.571   5.222
    1C        C  778   2.862   4.537   5.053
    1C        O  779   2.766   4.615   5.029
    1C        O  780   2.953   4.595   5.140
    1C        C  781   2.462   3.041   5.067
    1C        O  782   2.391   2.951   5.016
    1C        O  783   2.466   3.048   5.206
    1C        C  784   2.433   3.981   5.073
    1C        O  785   2.329   4.052   5.085
    1C        O  786   2.481   3.927   5.193
    1C        C  787   2.941   2.420   2.017
    1C        O  788   2.946   2.386   1.896
    1C        O  789   2.868   2.336   2.101
    1C        C  790   3.195   2.405   5.095
    1C        O  791   3.154   2.286   5.082
    1C        O  792   3.148   2.434   5.223
    1C        H  793   4.256   3.038   5.037
    1C        H  794   4.206   2.794   5.074
    1C        H  795   4.490   3.140   5.072
    1C        H  796   4.484   3.377   5.056
    1C        H  797   4.579   3.816   5.038
    1C        H  798   4.402   3.960   5.056
    1C        H  799   4.302   4.176   5.053
    1C        H  800   3.997   4.471   5.034
    1C        H  801   3.817   4.589   5.039
    1C        H  802   3.593   4.656   5.030
    1C        H  803   3.392   4.459   5.030
    1C        H  804   3.158   4.464   5.049
    1C        H  805   3.874   2.524   5.072
    1C        H  806   3.661   2.398   5.045
    1C        H  807   2.987   2.541   5.056
    1C        H  808   3.443   2.516   5.070
    1C        H  809   2.897   2.774   5.072
    1C        H  810   2.672   2.862   5.068
    1C        H  811   2.537   3.295   5.075
    1C        H  812   2.489   3.505   5.070
    1C        H  813   2.492   3.735   5.058
    1C        H  814   2.548   4.196   5.009
    1C        H  815   2.756   4.307   5.050
    1C        H  816   2.722   2.893   1.974
    1C        H  817   2.870   2.706   1.972
    1C        H  818   3.207   2.425   1.988
    1C        H  819   3.424   2.459   1.976
    1C        H  820   3.857   2.514   1.968
    1C        H  821   4.045   2.663   1.967
    1C        H  822   4.272   2.707   1.982
    1C        H  823   4.407   2.889   1.972
    1C        H  824   4.577   3.308   1.964
    1C        H  825   4.496   3.511   1.960
    1C        H  826   4.555   3.751   1.970
    1C        H  827   3.820   4.558   1.966
    1C        H  828   3.939   4.335   1.960
    1C        H  829   4.187   4.307   1.959
    1C        H  830   4.510   3.974   1.973
    1C        H  831   2.623   3.834   1.963
    1C        H  832   2.745   4.035   1.968
    1C        H  833   2.713   4.298   1.972
    1C        H  834   3.381   4.405   1.984
    1C        H  835   3.156   4.418   1.944
    1C        H  836   2.520   2.997   1.991
    1C        H  837   2.418   3.208   1.987
    1C        H  838   2.467   3.684   1.971
    2V3OU   H29  839   2.808   3.551   1.983
    2V3OU   C27  840   2.786   3.505   2.083
    2V3OU   H27  841   2.728   3.572   2.150
    2V3OU   H28  842   2.729   3.408   2.071
    2V3OU   O11  843   2.912   3.478   2.144
    2V3OU   C15  844   2.924   3.397   2.256
    2V3OU   C13  845   3.051   3.368   2.309
    2V3OU   C14  846   3.076   3.268   2.404
    2V3OU   C16  847   2.972   3.190   2.450
    2V3OU    H6  848   2.991   3.093   2.498
    2V3OU   C12  849   3.212   3.228   2.446
    2V3OU    O2  850   3.237   3.129   2.519
    2V3OU   C10  851   3.324   3.311   2.400
    2V3OU    C8  852   3.452   3.270   2.435
    2V3OU   O10  853   3.489   3.153   2.494
    2V3OU   H26  854   3.403   3.116   2.522
    2V3OU    C6  855   3.562   3.353   2.395
    2V3OU    C5  856   3.538   3.469   2.322
    2V3OU    C4  857   3.697   3.292   2.389
    2V3OU    H4  858   3.722   3.225   2.477
    2V3OU    H5  859   3.704   3.228   2.296
    2V3OU    C2  860   3.811   3.394   2.384
    2V3OU    O6  861   3.807   3.472   2.504
    2V3OU   H21  862   3.759   3.555   2.487
    2V3OU    C3  863   3.781   3.494   2.271
    2V3OU    H2  864   3.858   3.573   2.256
    2V3OU    H3  865   3.776   3.433   2.177
    2V3OU   C25  866   3.945   3.322   2.371
    2V3OU    O7  867   3.998   3.297   2.263
    2V3OU   C26  868   4.028   3.287   2.493
    2V3OU   H22  869   4.062   3.377   2.551
    2V3OU   H23  870   4.121   3.234   2.462
    2V3OU    O8  871   3.962   3.209   2.590
    2V3OU   H24  872   3.921   3.270   2.653
    2V3OU    C1  873   3.649   3.566   2.292
    2V3OU    H1  874   3.624   3.619   2.196
    2V3OU    O3  875   3.663   3.652   2.405
    2V3OU   C19  876   3.623   3.788   2.393
    2V3OU    H9  877   3.523   3.803   2.341
    2V3OU    O4  878   3.718   3.851   2.310
    2V3OU   C20  879   3.847   3.875   2.367
    2V3OU   H10  880   3.895   3.774   2.379
    2V3OU   C24  881   3.609   3.855   2.530
    2V3OU   H16  882   3.544   3.792   2.596
    2V3OU   H17  883   3.560   3.955   2.516
    2V3OU   C23  884   3.747   3.873   2.593
    2V3OU   H15  885   3.792   3.772   2.622
    2V3OU    N1  886   3.738   3.954   2.713
    2V3OU   H19  887   3.804   3.916   2.778
    2V3OU   H20  888   3.645   3.931   2.741
    2V3OU   C21  889   3.849   3.947   2.502
    2V3OU   H11  890   3.954   3.936   2.542
    2V3OU    O5  891   3.821   4.086   2.491
    2V3OU   H18  892   3.780   4.106   2.577
    2V3OU   C22  893   3.911   3.950   2.252
    2V3OU   H12  894   3.865   4.052   2.242
    2V3OU   H13  895   3.902   3.894   2.155
    2V3OU   H14  896   4.021   3.962   2.269
    2V3OU   C11  897   3.161   3.464   2.287
    2V3OU    O1  898   3.130   3.582   2.260
    2V3OU    C9  899   3.300   3.428   2.323
    2V3OU    C7  900   3.406   3.509   2.284
    2V3OU    O9  901   3.383   3.613   2.197
    2V3OU   H25  902   3.287   3.627   2.186
    2V3OU   C17  903   2.819   3.320   2.309
    2V3OU    H7  904   2.721   3.340   2.266
    2V3OU   C18  905   2.846   3.215   2.397
    2V3OU    H8  906   2.770   3.164   2.457
    3SOL     OW  907   3.225   4.843   0.722
    3SOL    HW1  908   3.278   4.888   0.650
    3SOL    HW2  909   3.134   4.886   0.728
    4SOL     OW  910   6.570   6.132   1.390
    4SOL    HW1  911   6.624   6.142   1.473
    4SOL    HW2  912   6.473   6.143   1.412
    5SOL     OW  913   4.689   1.690   2.972
    5SOL    HW1  914   4.658   1.673   2.878
    5SOL    HW2  915   4.788   1.701   2.974
    6SOL     OW  916   4.177   1.036   0.956
    6SOL    HW1  917   4.132   1.060   0.870
    6SOL    HW2  918   4.223   0.948   0.946
    7SOL     OW  919   6.806   4.030   2.428
    7SOL    HW1  920   6.901   4.040   2.457
    7SOL    HW2  921   6.765   3.951   2.474
    8SOL     OW  922   2.922   0.727   6.972
    8SOL    HW1  923   2.919   0.800   6.904
    8SOL    HW2  924   3.003   0.670   6.956
    9SOL     OW  925   6.597   6.805   6.566
    9SOL    HW1  926   6.599   6.863   6.648
    9SOL    HW2  927   6.690   6.779   6.541
   10SOL     OW  928   1.656   4.973   6.426
   10SOL    HW1  929   1.663   5.068   6.395
   10SOL    HW2  930   1.747   4.938   6.446
   11SOL     OW  931   2.422   0.360   6.312
   11SOL    HW1  932   2.352   0.289   6.310
   11SOL    HW2  933   2.420   0.412   6.227
   12SOL     OW  934   4.042   6.600   3.616
   12SOL    HW1  935   4.070   6.506   3.599
   12SOL    HW2  936   4.093   6.662   3.557
   13SOL     OW  937   4.075   5.695   3.555
   13SOL    HW1  938   4.015   5.768   3.522
   13SOL    HW2  939   4.021   5.627   3.603
   14SOL     OW  940   4.225   5.461   5.790
   14SOL    HW1  941   4.252   5.539   5.734
   14SOL    HW2  942   4.146   5.416   5.749
   15SOL     OW  943   1.332   6.234   1.105
   15SOL    HW1  944   1.340   6.330   1.075
   15SOL    HW2  945   1.417   6.205   1.149
   16SOL     OW  946   5.262   2.836   5.508
   16SOL    HW1  947   5.318   2.917   5.522
   16SOL    HW2  948   5.173   2.863   5.472
   17SOL     OW  949   5.135   6.314   5.516
   17SOL    HW1  950   5.055   6.333   5.573
   17SOL    HW2  951   5.126   6.222   5.478
   18SOL     OW  952   3.126   0.644   5.921
   18SOL    HW1  953   3.184   0.725   5.934
   18SOL    HW2  954   3.179   0.572   5.876
   19SOL     OW  955   0.393   0.168   3.325
   19SOL    HW1  956   0.327   0.213   3.265
   19SOL    HW2  957   0.367   0.072   3.337
   20SOL     OW  958   5.636   2.637   4.648
   20SOL    HW1  959   5.734   2.657   4.634
   20SOL    HW2  960   5.582   2.712   4.610
   21SOL     OW  961   3.464   2.019   2.664
   21SOL    HW1  962   3.467   1.963   2.581
   21SOL    HW2  963   3.558   2.037   2.694
   22SOL     OW  964   2.282   6.352   0.372
   22SOL    HW1  965   2.307   6.270   0.321
   22SOL    HW2  966   2.202   6.333   0.429
   23SOL     OW  967   5.083   6.118   3.149
   23SOL    HW1  968   5.015   6.081   3.087
   23SOL    HW2  969   5.161   6.153   3.097
   24SOL     OW  970   4.860   1.647   3.320
   24SOL    HW1  971   4.921   1.647   3.241
   24SOL    HW2  972   4.824   1.555   3.334
   25SOL     OW  973   3.087   6.897   5.189
   25SOL    HW1  974   3.178   6.927   5.161
   25SOL    HW2  975   3.020   6.925   5.120
   26SOL     OW  976   6.898   1.117   0.555
   26SOL    HW1  977   6.843   1.195   0.586
   26SOL    HW2  978   6.929   1.133   0.461
   27SOL     OW  979   1.370   2.053   2.329
   27SOL    HW1  980   1.390   1.971   2.276
   27SOL    HW2  981   1.295   2.103   2.286
   28SOL     OW  982   3.373   1.836   5.888
   28SOL    HW1  983   3.428   1.786   5.820
   28SOL    HW2  984   3.290   1.786   5.908
   29SOL     OW  985   4.439   2.350   2.183
   29SOL    HW1  986   4.438   2.262   2.230
   29SOL    HW2  987   4.419   2.336   2.086
   30SOL     OW  988   3.555   1.307   4.096
   30SOL    HW1  989   3.546   1.224   4.040
   30SOL    HW2  990   3.606   1.285   4.179
   31SOL     OW  991   1.219   2.705   6.430
   31SOL    HW1  992   1.308   2.733   6.395
   31SOL    HW2  993   1.199   2.755   6.515
   32SOL     OW  994   0.275   1.407   2.829
   32SOL    HW1  995   0.298   1.442   2.738
   32SOL    HW2  996   0.185   1.363   2.826
   33SOL     OW  997   2.322   4.076   6.474
   33SOL    HW1  998   2.280   4.147   6.529
   33SOL    HW2  999   2.417   4.100   6.455
   34SOL     OW 1000   2.499   1.178   4.434
   34SOL    HW1 1001   2.591   1.183   4.395
   34SOL    HW2 1002   2.460   1.270   4.440
   35SOL     OW 1003   3.165   3.737   6.743
   35SOL    HW1 1004   3.220   3.702   6.667
   35SOL    HW2 1005   3.166   3.837   6.741
   36SOL     OW 1006   6.498   0.927   5.318
   36SOL    HW1 1007   6.416   0.950   5.266
   36SOL    HW2 1008   6.473   0.883   5.404
   37SOL     OW 1009   1.306   1.242   0.531
   37SOL    HW1 1010   1.289   1.159   0.583
   37SOL    HW2 1011   1.316   1.220   0.434
   38SOL     OW 1012   6.992   4.957   2.725
   38SOL    HW1 1013   6.896   4.927   2.725
   38SOL    HW2 1014   6.998   5.047   2.682
   39SOL     OW 1015   6.995   5.138   6.452
   39SOL    HW1 1016   0.042   5.066   6.460
   39SOL    HW2 1017   6.928   5.129   6.526
   40SOL     OW 1018   5.359   1.946   0.989
   40SOL    HW1 1019   5.385   2.016   1.055
   40SOL    HW2 1020   5.273   1.972   0.944
   41SOL     OW 1021   6.951   6.168   3.869
   41SOL    HW1 1022   7.001   6.148   3.784
   41SOL    HW2 1023   6.925   6.082   3.913
   42SOL     OW 1024   2.873   5.397   5.301
   42SOL    HW1 1025   2.786   5.397   5.351
   42SOL    HW2 1026   2.864   5.342   5.218
   43SOL     OW 1027   5.910   6.097   5.574
   43SOL    HW1 1028   5.985   6.044   5.614
   43SOL    HW2 1029   5.858   6.140   5.647
   44SOL     OW 1030   5.043   1.565   6.774
   44SOL    HW1 1031   4.958   1.564   6.828
   44SOL    HW2 1032   5.039   1.493   6.704
   45SOL     OW 1033   4.515   6.585   2.957
   45SOL    HW1 1034   4.505   6.652   3.030
   45SOL    HW2 1035   4.501   6.493   2.993
   46SOL     OW 1036   0.522   2.981   3.174
   46SOL    HW1 1037   0.586   2.971   3.098
   46SOL    HW2 1038   0.471   3.066   3.164
   47SOL     OW 1039   4.861   4.233   0.881
   47SOL    HW1 1040   4.940   4.216   0.940
   47SOL    HW2 1041   4.781   4.252   0.938
   48SOL     OW 1042   0.115   2.393   5.490
   48SOL    HW1 1043   0.212   2.383   5.466
   48SOL    HW2 1044   0.092   2.490   5.496
   49SOL     OW 1045   5.310   3.803   1.714
   49SOL    HW1 1046   5.368   3.832   1.637
   49SOL    HW2 1047   5.367   3.784   1.794
   50SOL     OW 1048   5.959   1.199   4.909
   50SOL    HW1 1049   5.900   1.227   4.833
   50SOL    HW2 1050   6.054   1.193   4.877
   51SOL     OW 1051   2.884   6.571   3.380
   51SOL    HW1 1052   2.970   6.621   3.392
   51SOL    HW2 1053   2.870   6.549   3.284
   52SOL     OW 1054   5.379   2.280   3.258
   52SOL    HW1 1055   5.436   2.362   3.256
   52SOL    HW2 1056   5.401   2.222   3.179
   53SOL     OW 1057   3.464   6.863   4.432
   53SOL    HW1 1058   3.499   6.859   4.339
   53SOL    HW2 1059   3.524   6.811   4.493
   54SOL     OW 1060   3.672   5.257   0.959
   54SOL    HW1 1061   3.709   5.302   1.041
   54SOL    HW2 1062   3.658   5.160   0.978
   55SOL     OW 1063   2.944   1.878   6.873
   55SOL    HW1 1064   2.968   1.809   6.805
   55SOL    HW2 1065   2.870   1.935   6.837
   56SOL     OW 1066   6.744   0.071   1.741
   56SOL    HW1 1067   6.808   0.147   1.730
   56SOL    HW2 1068   6.794   7.009   1.765
   57SOL     OW 1069   5.388   1.244   1.044
   57SOL    HW1 1070   5.301   1.228   1.091
   57SOL    HW2 1071   5.417   1.338   1.060
   58SOL     OW 1072   6.389   6.849   5.469
   58SOL    HW1 1073   6.294   6.874   5.448
   58SOL    HW2 1074   6.399   6.750   5.464
   59SOL     OW 1075   0.939   1.815   5.455
   59SOL    HW1 1076   1.010   1.808   5.385
   59SOL    HW2 1077   0.977   1.855   5.538
   60SOL     OW 1078   5.400   1.836   5.471
   60SOL    HW1 1079   5.321   1.775   5.463
   60SOL    HW2 1080   5.383   1.904   5.542
   61SOL     OW 1081   5.164   2.485   5.044
   61SOL    HW1 1082   5.231   2.452   5.110
   61SOL    HW2 1083   5.090   2.533   5.092
   62SOL     OW 1084   0.573   1.208   2.002
   62SOL    HW1 1085   0.515   1.185   1.924
   62SOL    HW2 1086   0.612   1.299   1.989
   63SOL     OW 1087   5.077   1.314   3.640
   63SOL    HW1 1088   5.097   1.407   3.607
   63SOL    HW2 1089   4.978   1.301   3.641
   64SOL     OW 1090   6.944   3.487   5.762
   64SOL    HW1 1091   0.019   3.467   5.745
   64SOL    HW2 1092   6.928   3.498   5.860
   65SOL     OW 1093   0.187   4.974   6.498
   65SOL    HW1 1094   0.215   4.906   6.565
   65SOL    HW2 1095   0.216   4.946   6.407
   66SOL     OW 1096   3.833   0.685   5.618
   66SOL    HW1 1097   3.824   0.718   5.712
   66SOL    HW2 1098   3.851   0.762   5.557
   67SOL     OW 1099   5.223   4.533   5.877
   67SOL    HW1 1100   5.163   4.462   5.840
   67SOL    HW2 1101   5.278   4.571   5.803
   68SOL     OW 1102   5.760   0.818   6.677
   68SOL    HW1 1103   5.734   0.881   6.750
   68SOL    HW2 1104   5.700   0.832   6.598
   69SOL     OW 1105   0.653   3.366   5.678
   69SOL    HW1 1106   0.729   3.323   5.727
   69SOL    HW2 1107   0.639   3.319   5.590
   70SOL     OW 1108   5.421   3.687   4.744
   70SOL    HW1 1109   5.510   3.646   4.727
   70SOL    HW2 1110   5.409   3.767   4.686
   71SOL     OW 1111   4.124   1.883   2.908
   71SOL    HW1 1112   4.081   1.960   2.955
   71SOL    HW2 1113   4.223   1.896   2.908
   72SOL     OW 1114   1.831   6.192   4.539
   72SOL    HW1 1115   1.892   6.254   4.589
   72SOL    HW2 1116   1.846   6.203   4.440
   73SOL     OW 1117   3.253   1.027   1.052
   73SOL    HW1 1118   3.274   1.124   1.062
   73SOL    HW2 1119   3.333   0.978   1.017
   74SOL     OW 1120   4.676   6.862   6.896
   74SOL    HW1 1121   4.598   6.800   6.909
   74SOL    HW2 1122   4.695   6.871   6.798
   75SOL     OW 1123   3.912   0.640   1.204
   75SOL    HW1 1124   3.982   0.706   1.229
   75SOL    HW2 1125   3.844   0.634   1.276
   76SOL     OW 1126   2.963   3.442   0.701
   76SOL    HW1 1127   2.929   3.461   0.793
   76SOL    HW2 1128   2.950   3.523   0.643
   77SOL     OW 1129   6.798   6.502   3.742
   77SOL    HW1 1130   6.880   6.482   3.688
   77SOL    HW2 1131   6.820   6.497   3.839
   78SOL     OW 1132   5.511   1.360   0.129
   78SOL    HW1 1133   5.436   1.331   0.069
   78SOL    HW2 1134   5.591   1.383   0.073
   79SOL     OW 1135   3.255   6.149   0.573
   79SOL    HW1 1136   3.167   6.172   0.531
   79SOL    HW2 1137   3.315   6.108   0.505
   80SOL     OW 1138   5.641   1.159   4.256
   80SOL    HW1 1139   5.637   1.060   4.244
   80SOL    HW2 1140   5.557   1.191   4.299
   81SOL     OW 1141   1.939   6.626   2.760
   81SOL    HW1 1142   1.852   6.639   2.807
   81SOL    HW2 1143   1.942   6.535   2.718
   82SOL     OW 1144   6.323   4.835   1.232
   82SOL    HW1 1145   6.321   4.744   1.273
   82SOL    HW2 1146   6.230   4.865   1.212
   83SOL     OW 1147   0.441   0.726   6.937
   83SOL    HW1 1148   0.423   0.738   0.013
   83SOL    HW2 1149   0.539   0.733   6.920
   84SOL     OW 1150   5.662   2.434   3.218
   84SOL    HW1 1151   5.720   2.492   3.160
   84SOL    HW2 1152   5.716   2.402   3.296
   85SOL     OW 1153   1.647   1.660   4.219
   85SOL    HW1 1154   1.570   1.608   4.255
   85SOL    HW2 1155   1.630   1.685   4.123
   86SOL     OW 1156   6.609   0.510   4.894
   86SOL    HW1 1157   6.532   0.538   4.951
   86SOL    HW2 1158   6.688   0.492   4.952
   87SOL     OW 1159   4.749   3.377   0.733
   87SOL    HW1 1160   4.812   3.326   0.793
   87SOL    HW2 1161   4.670   3.319   0.713
   88SOL     OW 1162   3.140   1.933   5.430
   88SOL    HW1 1163   3.052   1.969   5.400
   88SOL    HW2 1164   3.139   1.920   5.529
   89SOL     OW 1165   1.467   2.820   5.901
   89SOL    HW1 1166   1.399   2.747   5.897
   89SOL    HW2 1167   1.538   2.804   5.832
   90SOL     OW 1168   3.482   5.451   2.243
   90SOL    HW1 1169   3.425   5.403   2.176
   90SOL    HW2 1170   3.552   5.389   2.278
   91SOL     OW 1171   5.208   4.251   4.767
   91SOL    HW1 1172   5.148   4.302   4.705
   91SOL    HW2 1173   5.152   4.199   4.831
   92SOL     OW 1174   4.124   4.785   0.736
   92SOL    HW1 1175   4.081   4.799   0.825
   92SOL    HW2 1176   4.125   4.871   0.686
   93SOL     OW 1177   3.037   4.314   6.482
   93SOL    HW1 1178   3.010   4.252   6.408
   93SOL    HW2 1179   2.958   4.335   6.539
   94SOL     OW 1180   1.886   5.966   6.662
   94SOL    HW1 1181   1.819   6.041   6.669
   94SOL    HW2 1182   1.868   5.900   6.734
   95SOL     OW 1183   1.523   0.607   3.548
   95SOL    HW1 1184   1.450   0.659   3.592
   95SOL    HW2 1185   1.594   0.669   3.515
   96SOL     OW 1186   3.401   0.234   5.235
   96SOL    HW1 1187   3.494   0.269   5.245
   96SOL    HW2 1188   3.345   0.301   5.186
   97SOL     OW 1189   2.298   2.928   5.540
   97SOL    HW1 1190   2.231   2.956   5.609
   97SOL    HW2 1191   2.257   2.933   5.449
   98SOL     OW 1192   0.066   3.888   0.918
   98SOL    HW1 1193   6.992   3.919   0.923
   98SOL    HW2 1194   0.091   3.872   0.823
   99SOL     OW 1195   3.429   3.246   0.991
   99SOL    HW1 1196   3.477   3.174   1.041
   99SOL    HW2 1197   3.333   3.247   1.019
  100SOL     OW 1198   0.072   6.721   4.989
  100SOL    HW1 1199   0.096   6.781   5.064
  100SOL    HW2 1200   0.126   6.744   4.908
  101SOL     OW 1201   1.496   5.181   2.178
  101SOL    HW1 1202   1.487   5.133   2.265
  101SOL    HW2 1203   1.592   5.179   2.149
  102SOL     OW 1204   4.015   5.530   2.614
  102SOL    HW1 1205   4.013   5.604   2.680
  102SOL    HW2 1206   3.937   5.539   2.551
  103SOL     OW 1207   2.348   1.089   1.827
  103SOL    HW1 1208   2.436   1.081   1.875
  103SOL    HW2 1209   2.320   1.185   1.824
  104SOL     OW 1210   1.249   5.631   2.411
  104SOL    HW1 1211   1.254   5.731   2.412
  104SOL    HW2 1212   1.292   5.595   2.494
  105SOL     OW 1213   6.318   2.188   6.437
  105SOL    HW1 1214   6.338   2.177   6.535
  105SOL    HW2 1215   6.397   2.160   6.384
  106SOL     OW 1216   3.520   6.514   4.743
  106SOL    HW1 1217   3.460   6.572   4.799
  106SOL    HW2 1218   3.560   6.442   4.801
  107SOL     OW 1219   2.005   1.370   1.265
  107SOL    HW1 1220   2.007   1.366   1.166
  107SOL    HW2 1221   1.913   1.396   1.296
  108SOL     OW 1222   2.914   5.641   5.584
  108SOL    HW1 1223   2.991   5.673   5.528
  108SOL    HW2 1224   2.946   5.575   5.651
  109SOL     OW 1225   6.992   0.147   1.500
  109SOL    HW1 1226   6.939   0.072   1.462
  109SOL    HW2 1227   6.981   0.228   1.443
  110SOL     OW 1228   3.501   6.106   4.800
  110SOL    HW1 1229   3.447   6.189   4.811
  110SOL    HW2 1230   3.441   6.026   4.807
  111SOL     OW 1231   2.177   1.183   4.563
  111SOL    HW1 1232   2.143   1.160   4.654
  111SOL    HW2 1233   2.225   1.105   4.524
  112SOL     OW 1234   3.853   6.710   6.569
  112SOL    HW1 1235   3.913   6.789   6.569
  112SOL    HW2 1236   3.803   6.705   6.483
  113SOL     OW 1237   6.751   5.725   3.199
  113SOL    HW1 1238   6.806   5.767   3.126
  113SOL    HW2 1239   6.756   5.626   3.191
  114SOL     OW 1240   0.598   0.170   1.530
  114SOL    HW1 1241   0.527   0.158   1.599
  114SOL    HW2 1242   0.557   0.211   1.448
  115SOL     OW 1243   4.511   1.847   3.378
  115SOL    HW1 1244   4.589   1.909   3.382
  115SOL    HW2 1245   4.527   1.778   3.308
  116SOL     OW 1246   5.941   5.264   1.548
  116SOL    HW1 1247   6.032   5.228   1.527
  116SOL    HW2 1248   5.910   5.323   1.473
  117SOL     OW 1249   1.638   2.180   0.327
  117SOL    HW1 1250   1.553   2.131   0.308
  117SOL    HW2 1251   1.621   2.249   0.397
  118SOL     OW 1252   1.406   0.934   3.259
  118SOL    HW1 1253   1.337   1.006   3.257
  118SOL    HW2 1254   1.363   0.848   3.288
  119SOL     OW 1255   0.354   0.240   6.669
  119SOL    HW1 1256   0.426   0.177   6.639
  119SOL    HW2 1257   0.381   0.283   6.755
  120SOL     OW 1258   6.075   6.873   6.779
  120SOL    HW1 1259   6.170   6.902   6.783
  120SOL    HW2 1260   6.070   6.773   6.782
  121SOL     OW 1261   1.222   3.981   6.185
  121SOL    HW1 1262   1.242   3.889   6.221
  121SOL    HW2 1263   1.256   3.988   6.091
  122SOL     OW 1264   2.037   3.308   5.767
  122SOL    HW1 1265   2.071   3.402   5.770
  122SOL    HW2 1266   2.097   3.253   5.707
  123SOL     OW 1267   0.710   1.447   3.063
  123SOL    HW1 1268   0.725   1.404   3.152
  123SOL    HW2 1269   0.625   1.415   3.024
  124SOL     OW 1270   4.270   2.732   0.741
  124SOL    HW1 1271   4.266   2.633   0.727
  124SOL    HW2 1272   4.228   2.778   0.663
  125SOL     OW 1273   2.762   1.687   1.233
  125SOL    HW1 1274   2.747   1.727   1.323
  125SOL    HW2 1275   2.839   1.623   1.238
  126SOL     OW 1276   2.095   4.311   0.973
  126SOL    HW1 1277   2.012   4.362   0.997
  126SOL    HW2 1278   2.131   4.347   0.886
  127SOL     OW 1279   0.764   5.442   0.207
  127SOL    HW1 1280   0.838   5.436   0.140
  127SOL    HW2 1281   0.789   5.389   0.288
  128SOL     OW 1282   5.230   2.688   1.313
  128SOL    HW1 1283   5.258   2.595   1.340
  128SOL    HW2 1284   5.143   2.710   1.357
  129SOL     OW 1285   2.040   3.326   6.436
  129SOL    HW1 1286   2.126   3.371   6.412
  129SOL    HW2 1287   2.044   3.296   6.532
  130SOL     OW 1288   0.888   1.940   4.349
  130SOL    HW1 1289   0.981   1.944   4.312
  130SOL    HW2 1290   0.890   1.958   4.447
  131SOL     OW 1291   5.331   1.627   3.804
  131SOL    HW1 1292   5.415   1.679   3.788
  131SOL    HW2 1293   5.348   1.556   3.872
  132SOL     OW 1294   2.532   3.015   1.191
  132SOL    HW1 1295   2.548   3.103   1.147
  132SOL    HW2 1296   2.459   3.024   1.258
  133SOL     OW 1297   4.725   6.949   4.114
  133SOL    HW1 1298   4.750   6.903   4.199
  133SOL    HW2 1299   4.805   6.956   4.055
  134SOL     OW 1300   6.321   0.702   2.842
  134SOL    HW1 1301   6.271   0.729   2.925
  134SOL    HW2 1302   6.273   0.737   2.762
  135SOL     OW 1303   5.410   3.855   3.386
  135SOL    HW1 1304   5.324   3.850   3.334
  135SOL    HW2 1305   5.456   3.941   3.365
  136SOL     OW 1306   2.838   4.368   5.528
  136SOL    HW1 1307   2.898   4.377   5.448
  136SOL    HW2 1308   2.757   4.315   5.502
  137SOL     OW 1309   5.696   2.300   3.852
  137SOL    HW1 1310   5.741   2.211   3.846
  137SOL    HW2 1311   5.732   2.350   3.931
  138SOL     OW 1312   1.071   4.515   2.674
  138SOL    HW1 1313   1.036   4.529   2.581
  138SOL    HW2 1314   0.999   4.536   2.740
  139SOL     OW 1315   1.703   0.159   5.051
  139SOL    HW1 1316   1.770   0.091   5.082
  139SOL    HW2 1317   1.685   0.146   4.954
  140SOL     OW 1318   1.131   6.116   2.896
  140SOL    HW1 1319   1.098   6.206   2.926
  140SOL    HW2 1320   1.229   6.108   2.916
  141SOL     OW 1321   0.057   2.166   5.058
  141SOL    HW1 1322   0.100   2.166   4.967
  141SOL    HW2 1323   6.987   2.126   5.051
  142SOL     OW 1324   0.784   3.864   1.405
  142SOL    HW1 1325   0.882   3.863   1.426
  142SOL    HW2 1326   0.766   3.803   1.327
  143SOL     OW 1327   6.052   4.529   0.983
  143SOL    HW1 1328   6.024   4.440   0.948
  143SOL    HW2 1329   5.974   4.591   0.982
  144SOL     OW 1330   1.453   5.272   5.873
  144SOL    HW1 1331   1.364   5.296   5.913
  144SOL    HW2 1332   1.512   5.353   5.870
  145SOL     OW 1333   6.956   5.585   0.317
  145SOL    HW1 1334   6.991   5.494   0.337
  145SOL    HW2 1335   6.974   5.646   0.394
  146SOL     OW 1336   4.902   0.325   6.259
  146SOL    HW1 1337   4.848   0.252   6.218
  146SOL    HW2 1338   4.882   0.330   6.357
  147SOL     OW 1339   5.938   3.649   6.789
  147SOL    HW1 1340   5.938   3.569   6.729
  147SOL    HW2 1341   5.845   3.666   6.821
  148SOL     OW 1342   6.326   5.438   6.933
  148SOL    HW1 1343   6.391   5.506   6.967
  148SOL    HW2 1344   6.372   5.378   6.867
  149SOL     OW 1345   3.284   1.983   3.752
  149SOL    HW1 1346   3.297   1.996   3.850
  149SOL    HW2 1347   3.251   2.067   3.711
  150SOL     OW 1348   6.185   6.658   0.612
  150SOL    HW1 1349   6.102   6.708   0.636
  150SOL    HW2 1350   6.226   6.618   0.695
  151SOL     OW 1351   2.657   2.810   1.374
  151SOL    HW1 1352   2.743   2.828   1.422
  151SOL    HW2 1353   2.647   2.876   1.299
  152SOL     OW 1354   0.755   0.859   1.771
  152SOL    HW1 1355   0.740   0.768   1.809
  152SOL    HW2 1356   0.810   0.913   1.836
  153SOL     OW 1357   2.965   0.451   2.052
  153SOL    HW1 1358   2.923   0.529   2.099
  153SOL    HW2 1359   2.910   0.427   1.972
  154SOL     OW 1360   0.387   2.295   1.705
  154SOL    HW1 1361   0.300   2.259   1.671
  154SOL    HW2 1362   0.444   2.219   1.738
  155SOL     OW 1363   0.123   1.685   3.501
  155SOL    HW1 1364   0.172   1.740   3.433
  155SOL    HW2 1365   0.121   1.733   3.588
  156SOL     OW 1366   0.093   2.240   0.639
  156SOL    HW1 1367   0.048   2.152   0.622
  156SOL    HW2 1368   0.028   2.303   0.682
  157SOL     OW 1369   5.205   3.467   1.815
  157SOL    HW1 1370   5.139   3.401   1.779
  157SOL    HW2 1371   5.297   3.439   1.788
  158SOL     OW 1372   2.142   4.755   2.278
  158SOL    HW1 1373   2.150   4.662   2.242
  158SOL    HW2 1374   2.228   4.782   2.321
  159SOL     OW 1375   4.885   4.599   2.149
  159SOL    HW1 1376   4.797   4.563   2.116
  159SOL    HW2 1377   4.959   4.559   2.095
  160SOL     OW 1378   5.038   5.374   0.938
  160SOL    HW1 1379   5.110   5.310   0.910
  160SOL    HW2 1380   5.079   5.448   0.992
  161SOL     OW 1381   2.145   5.797   4.399
  161SOL    HW1 1382   2.166   5.699   4.405
  161SOL    HW2 1383   2.086   5.814   4.320
  162SOL     OW 1384   3.732   5.881   7.002
  162SOL    HW1 1385   3.652   5.837   6.960
  162SOL    HW2 1386   3.799   5.902   6.931
  163SOL     OW 1387   5.927   5.549   0.719
  163SOL    HW1 1388   6.025   5.562   0.703
  163SOL    HW2 1389   5.909   5.452   0.737
  164SOL     OW 1390   6.932   4.820   1.127
  164SOL    HW1 1391   0.003   4.783   1.116
  164SOL    HW2 1392   6.938   4.916   1.157
  165SOL     OW 1393   5.224   3.324   1.174
  165SOL    HW1 1394   5.187   3.345   1.265
  165SOL    HW2 1395   5.165   3.365   1.104
  166SOL     OW 1396   0.329   3.852   2.955
  166SOL    HW1 1397   0.277   3.774   2.918
  166SOL    HW2 1398   0.265   3.917   2.996
  167SOL     OW 1399   4.930   2.570   6.806
  167SOL    HW1 1400   4.953   2.475   6.788
  167SOL    HW2 1401   4.838   2.576   6.844
  168SOL     OW 1402   2.688   3.392   1.224
  168SOL    HW1 1403   2.749   3.346   1.288
  168SOL    HW2 1404   2.658   3.479   1.263
  169SOL     OW 1405   5.172   1.773   2.279
  169SOL    HW1 1406   5.143   1.788   2.373
  169SOL    HW2 1407   5.189   1.862   2.235
  170SOL     OW 1408   0.773   0.891   2.867
  170SOL    HW1 1409   0.728   0.812   2.907
  170SOL    HW2 1410   0.705   0.952   2.828
  171SOL     OW 1411   3.206   4.893   6.064
  171SOL    HW1 1412   3.195   4.945   6.149
  171SOL    HW2 1413   3.240   4.802   6.084
  172SOL     OW 1414   6.462   1.579   3.019
  172SOL    HW1 1415   6.428   1.529   2.939
  172SOL    HW2 1416   6.517   1.517   3.075
  173SOL     OW 1417   5.668   1.592   4.166
  173SOL    HW1 1418   5.577   1.614   4.200
  173SOL    HW2 1419   5.734   1.597   4.241
  174SOL     OW 1420   3.957   5.077   3.476
  174SOL    HW1 1421   4.019   5.131   3.533
  174SOL    HW2 1422   4.006   5.043   3.396
  175SOL     OW 1423   2.695   6.956   1.655
  175SOL    HW1 1424   2.743   7.000   1.731
  175SOL    HW2 1425   2.701   6.857   1.665
  176SOL     OW 1426   0.913   4.855   0.168
  176SOL    HW1 1427   1.007   4.826   0.181
  176SOL    HW2 1428   0.876   4.814   0.084
  177SOL     OW 1429   5.658   3.019   2.694
  177SOL    HW1 1430   5.661   3.110   2.652
  177SOL    HW2 1431   5.589   2.964   2.648
  178SOL     OW 1432   2.604   3.088   6.330
  178SOL    HW1 1433   2.660   3.131   6.401
  178SOL    HW2 1434   2.510   3.123   6.336
  179SOL     OW 1435   3.781   1.128   5.329
  179SOL    HW1 1436   3.783   1.223   5.360
  179SOL    HW2 1437   3.777   1.126   5.229
  180SOL     OW 1438   2.306   6.522   0.144
  180SOL    HW1 1439   2.252   6.480   0.071
  180SOL    HW2 1440   2.270   6.495   0.233
  181SOL     OW 1441   3.439   3.433   6.385
  181SOL    HW1 1442   3.527   3.441   6.337
  181SOL    HW2 1443   3.433   3.343   6.428
  182SOL     OW 1444   3.809   1.832   5.183
  182SOL    HW1 1445   3.728   1.867   5.135
  182SOL    HW2 1446   3.865   1.778   5.121
  183SOL     OW 1447   4.216   2.223   3.334
  183SOL    HW1 1448   4.268   2.270   3.263
  183SOL    HW2 1449   4.222   2.274   3.420
  184SOL     OW 1450   1.250   6.452   4.354
  184SOL    HW1 1451   1.268   6.441   4.256
  184SOL    HW2 1452   1.151   6.455   4.370
  185SOL     OW 1453   0.874   1.190   6.025
  185SOL    HW1 1454   0.966   1.158   6.049
  185SOL    HW2 1455   0.807   1.149   6.088
  186SOL     OW 1456   6.000   0.476   4.615
  186SOL    HW1 1457   5.995   0.385   4.574
  186SOL    HW2 1458   6.064   0.475   4.691
  187SOL     OW 1459   4.332   0.161   2.320
  187SOL    HW1 1460   4.285   0.098   2.382
  187SOL    HW2 1461   4.309   0.255   2.346
  188SOL     OW 1462   0.543   1.699   3.558
  188SOL    HW1 1463   0.616   1.765   3.578
  188SOL    HW2 1464   0.546   1.676   3.461
  189SOL     OW 1465   2.336   5.481   1.193
  189SOL    HW1 1466   2.412   5.540   1.169
  189SOL    HW2 1467   2.371   5.392   1.223
  190SOL     OW 1468   5.160   2.563   4.770
  190SOL    HW1 1469   5.091   2.601   4.708
  190SOL    HW2 1470   5.116   2.534   4.855
  191SOL     OW 1471   5.683   0.213   6.776
  191SOL    HW1 1472   5.653   0.127   6.816
  191SOL    HW2 1473   5.646   0.289   6.830
  192SOL     OW 1474   1.400   5.781   2.068
  192SOL    HW1 1475   1.409   5.790   1.969
  192SOL    HW2 1476   1.337   5.706   2.089
  193SOL     OW 1477   4.224   3.075   5.721
  193SOL    HW1 1478   4.177   2.992   5.689
  193SOL    HW2 1479   4.297   3.098   5.656
  194SOL     OW 1480   3.941   0.691   2.971
  194SOL    HW1 1481   4.030   0.684   3.016
  194SOL    HW2 1482   3.921   0.788   2.953
  195SOL     OW 1483   2.150   0.315   5.204
  195SOL    HW1 1484   2.218   0.374   5.248
  195SOL    HW2 1485   2.098   0.369   5.138
  196SOL     OW 1486   2.768   0.223   0.776
  196SOL    HW1 1487   2.779   0.142   0.833
  196SOL    HW2 1488   2.816   0.300   0.819
  197SOL     OW 1489   2.827   0.071   1.434
  197SOL    HW1 1490   2.747   0.115   1.392
  197SOL    HW2 1491   2.798   0.022   1.516
  198SOL     OW 1492   5.119   0.614   1.962
  198SOL    HW1 1493   5.052   0.662   1.905
  198SOL    HW2 1494   5.156   0.536   1.911
  199SOL     OW 1495   6.883   1.693   3.860
  199SOL    HW1 1496   6.948   1.619   3.840
  199SOL    HW2 1497   6.933   1.778   3.874
  200SOL     OW 1498   1.149   4.576   1.424
  200SOL    HW1 1499   1.145   4.520   1.507
  200SOL    HW2 1500   1.088   4.654   1.433
  201SOL     OW 1501   6.857   0.305   5.319
  201SOL    HW1 1502   6.876   0.402   5.307
  201SOL    HW2 1503   6.835   0.287   5.415
  202SOL     OW 1504   4.520   1.383   6.870
  202SOL    HW1 1505   4.490   1.474   6.842
  202SOL    HW2 1506   4.531   1.380   6.970
  203SOL     OW 1507   5.573   2.236   5.206
  203SOL    HW1 1508   5.536   2.187   5.127
  203SOL    HW2 1509   5.571   2.176   5.286
  204SOL     OW 1510   1.129   0.356   5.459
  204SOL    HW1 1511   1.071   0.275   5.443
  204SOL    HW2 1512   1.080   0.438   5.429
  205SOL     OW 1513   0.646   1.670   2.887
  205SOL    HW1 1514   0.569   1.676   2.951
  205SOL    HW2 1515   0.727   1.639   2.936
  206SOL     OW 1516   0.754   4.500   0.666
  206SOL    HW1 1517   0.842   4.539   0.693
  206SOL    HW2 1518   0.729   4.535   0.576
  207SOL     OW 1519   6.461   1.465   3.887
  207SOL    HW1 1520   6.474   1.417   3.973
  207SOL    HW2 1521   6.396   1.540   3.899
  208SOL     OW 1522   6.269   3.348   5.043
  208SOL    HW1 1523   6.239   3.314   4.954
  208SOL    HW2 1524   6.213   3.427   5.069
  209SOL     OW 1525   0.554   5.073   4.067
  209SOL    HW1 1526   0.628   5.044   4.006
  209SOL    HW2 1527   0.537   5.002   4.135
  210SOL     OW 1528   4.324   2.241   0.530
  210SOL    HW1 1529   4.368   2.196   0.607
  210SOL    HW2 1530   4.358   2.202   0.444
  211SOL     OW 1531   2.254   6.174   2.685
  211SOL    HW1 1532   2.323   6.213   2.624
  211SOL    HW2 1533   2.237   6.238   2.760
  212SOL     OW 1534   0.829   4.206   2.164
  212SOL    HW1 1535   0.803   4.195   2.068
  212SOL    HW2 1536   0.757   4.254   2.213
  213SOL     OW 1537   3.127   0.857   0.812
  213SOL    HW1 1538   3.087   0.843   0.722
  213SOL    HW2 1539   3.218   0.899   0.802
  214SOL     OW 1540   4.571   4.874   2.028
  214SOL    HW1 1541   4.654   4.906   1.982
  214SOL    HW2 1542   4.512   4.951   2.048
  215SOL     OW 1543   2.234   4.356   0.754
  215SOL    HW1 1544   2.324   4.359   0.798
  215SOL    HW2 1545   2.245   4.341   0.656
  216SOL     OW 1546   2.120   6.192   4.181
  216SOL    HW1 1547   2.201   6.136   4.190
  216SOL    HW2 1548   2.086   6.188   4.087
  217SOL     OW 1549   1.459   2.001   4.113
  217SOL    HW1 1550   1.504   1.973   4.028
  217SOL    HW2 1551   1.413   1.922   4.153
  218SOL     OW 1552   0.040   3.646   4.199
  218SOL    HW1 1553   7.014   3.617   4.282
  218SOL    HW2 1554   0.084   3.566   4.156
  219SOL     OW 1555   4.619   0.587   6.600
  219SOL    HW1 1556   4.534   0.556   6.643
  219SOL    HW2 1557   4.599   0.659   6.534
  220SOL     OW 1558   3.009   6.694   1.673
  220SOL    HW1 1559   3.031   6.625   1.603
  220SOL    HW2 1560   3.026   6.785   1.636
  221SOL     OW 1561   6.755   3.660   0.891
  221SOL    HW1 1562   6.787   3.652   0.985
  221SOL    HW2 1563   6.800   3.590   0.835
  222SOL     OW 1564   1.729   4.697   6.016
  222SOL    HW1 1565   1.733   4.791   5.981
  222SOL    HW2 1566   1.678   4.640   5.953
  223SOL     OW 1567   6.016   3.507   6.425
  223SOL    HW1 1568   5.987   3.453   6.345
  223SOL    HW2 1569   6.116   3.511   6.428
  224SOL     OW 1570   2.172   1.614   4.434
  224SOL    HW1 1571   2.231   1.648   4.507
  224SOL    HW2 1572   2.135   1.691   4.382
  225SOL     OW 1573   4.285   3.720   6.506
  225SOL    HW1 1574   4.229   3.678   6.577
  225SOL    HW2 1575   4.298   3.654   6.431
  226SOL     OW 1576   1.661   1.398   5.574
  226SOL    HW1 1577   1.589   1.402   5.504
  226SOL    HW2 1578   1.637   1.459   5.650
  227SOL     OW 1579   1.362   3.770   1.946
  227SOL    HW1 1580   1.328   3.697   2.005
  227SOL    HW2 1581   1.292   3.841   1.937
  228SOL     OW 1582   3.207   6.525   3.681
  228SOL    HW1 1583   3.127   6.475   3.646
  228SOL    HW2 1584   3.199   6.535   3.780
  229SOL     OW 1585   6.261   6.134   0.127
  229SOL    HW1 1586   6.197   6.208   0.147
  229SOL    HW2 1587   6.260   6.115   0.029
  230SOL     OW 1588   3.288   4.912   3.855
  230SOL    HW1 1589   3.308   5.009   3.839
  230SOL    HW2 1590   3.230   4.902   3.936
  231SOL     OW 1591   6.281   1.828   6.555
  231SOL    HW1 1592   6.377   1.852   6.573
  231SOL    HW2 1593   6.226   1.912   6.551
  232SOL     OW 1594   0.682   3.250   6.559
  232SOL    HW1 1595   0.713   3.181   6.624
  232SOL    HW2 1596   0.671   3.337   6.605
  233SOL     OW 1597   3.093   1.410   2.728
  233SOL    HW1 1598   3.168   1.397   2.793
  233SOL    HW2 1599   3.055   1.321   2.704
  234SOL     OW 1600   5.392   0.574   5.984
  234SOL    HW1 1601   5.363   0.621   6.067
  234SOL    HW2 1602   5.426   0.483   6.008
  235SOL     OW 1603   3.379   2.300   1.440
  235SOL    HW1 1604   3.313   2.226   1.429
  235SOL    HW2 1605   3.466   2.272   1.400
  236SOL     OW 1606   5.362   3.013   6.228
  236SOL    HW1 1607   5.398   2.951   6.158
  236SOL    HW2 1608   5.417   3.005   6.311
  237SOL     OW 1609   6.235   4.654   1.622
  237SOL    HW1 1610   6.275   4.614   1.705
  237SOL    HW2 1611   6.262   4.599   1.543
  238SOL     OW 1612   5.227   2.170   0.320
  238SOL    HW1 1613   5.187   2.231   0.251
  238SOL    HW2 1614   5.296   2.219   0.372
  239SOL     OW 1615   0.757   5.095   6.868
  239SOL    HW1 1616   0.694   5.168   6.841
  239SOL    HW2 1617   0.790   5.047   6.787
  240SOL     OW 1618   6.984   2.601   3.584
  240SOL    HW1 1619   6.980   2.645   3.494
  240SOL    HW2 1620   6.901   2.621   3.635
  241SOL     OW 1621   2.664   1.932   5.246
  241SOL    HW1 1622   2.653   1.931   5.147
  241SOL    HW2 1623   2.581   1.968   5.289
  242SOL     OW 1624   3.207   3.510   4.213
  242SOL    HW1 1625   3.218   3.609   4.204
  242SOL    HW2 1626   3.236   3.481   4.304
  243SOL     OW 1627   4.118   0.541   6.014
  243SOL    HW1 1628   4.131   0.443   5.999
  243SOL    HW2 1629   4.205   0.588   6.003
  244SOL     OW 1630   6.062   2.647   4.931
  244SOL    HW1 1631   5.983   2.705   4.909
  244SOL    HW2 1632   6.142   2.679   4.881
  245SOL     OW 1633   5.321   3.740   3.915
  245SOL    HW1 1634   5.395   3.693   3.963
  245SOL    HW2 1635   5.328   3.723   3.817
  246SOL     OW 1636   4.743   2.656   3.752
  246SOL    HW1 1637   4.662   2.651   3.811
  246SOL    HW2 1638   4.728   2.600   3.670
  247SOL     OW 1639   2.939   1.914   1.598
  247SOL    HW1 1640   2.949   1.856   1.679
  247SOL    HW2 1641   2.946   2.010   1.624
  248SOL     OW 1642   3.581   1.327   2.036
  248SOL    HW1 1643   3.611   1.234   2.014
  248SOL    HW2 1644   3.660   1.386   2.046
  249SOL     OW 1645   3.901   0.130   4.639
  249SOL    HW1 1646   3.867   0.039   4.615
  249SOL    HW2 1647   3.833   0.199   4.613
  250SOL     OW 1648   5.008   2.888   0.717
  250SOL    HW1 1649   5.049   2.801   0.690
  250SOL    HW2 1650   4.925   2.871   0.771
  251SOL     OW 1651   4.716   4.109   5.647
  251SOL    HW1 1652   4.710   4.202   5.609
  251SOL    HW2 1653   4.645   4.097   5.716
  252SOL     OW 1654   6.594   5.949   0.208
  252SOL    HW1 1655   6.520   5.893   0.171
  252SOL    HW2 1656   6.565   6.044   0.215
  253SOL     OW 1657   2.030   5.823   6.079
  253SOL    HW1 1658   1.985   5.911   6.062
  253SOL    HW2 1659   2.126   5.839   6.104
  254SOL     OW 1660   5.740   2.812   3.354
  254SOL    HW1 1661   5.667   2.838   3.291
  254SOL    HW2 1662   5.710   2.826   3.448
  255SOL     OW 1663   1.515   4.413   5.168
  255SOL    HW1 1664   1.554   4.364   5.090
  255SOL    HW2 1665   1.584   4.474   5.207
  256SOL     OW 1666   6.482   3.517   6.106
  256SOL    HW1 1667   6.544   3.540   6.031
  256SOL    HW2 1668   6.491   3.420   6.127
  257SOL     OW 1669   4.683   0.180   3.573
  257SOL    HW1 1670   4.744   0.221   3.640
  257SOL    HW2 1671   4.607   0.243   3.555
  258SOL     OW 1672   2.249   4.910   4.955
  258SOL    HW1 1673   2.258   4.816   4.989
  258SOL    HW2 1674   2.242   4.972   5.033
  259SOL     OW 1675   0.698   2.107   2.272
  259SOL    HW1 1676   0.687   2.182   2.337
  259SOL    HW2 1677   0.676   2.139   2.180
  260SOL     OW 1678   4.715   0.602   1.374
  260SOL    HW1 1679   4.769   0.549   1.439
  260SOL    HW2 1680   4.670   0.540   1.310
  261SOL     OW 1681   6.868   3.421   0.756
  261SOL    HW1 1682   6.840   3.390   0.665
  261SOL    HW2 1683   6.946   3.367   0.787
  262SOL     OW 1684   0.491   4.015   0.395
  262SOL    HW1 1685   0.474   4.037   0.491
  262SOL    HW2 1686   0.558   3.940   0.389
  263SOL     OW 1687   1.827   0.921   3.670
  263SOL    HW1 1688   1.900   0.984   3.645
  263SOL    HW2 1689   1.771   0.962   3.742
  264SOL     OW 1690   5.997   3.148   6.540
  264SOL    HW1 1691   5.938   3.086   6.486
  264SOL    HW2 1692   5.974   3.139   6.637
  265SOL     OW 1693   5.147   6.370   2.417
  265SOL    HW1 1694   5.093   6.324   2.488
  265SOL    HW2 1695   5.161   6.465   2.443
  266SOL     OW 1696   3.335   2.579   5.692
  266SOL    HW1 1697   3.384   2.635   5.759
  266SOL    HW2 1698   3.239   2.573   5.717
  267SOL     OW 1699   0.711   1.070   6.893
  267SOL    HW1 1700   0.744   1.010   6.821
  267SOL    HW2 1701   0.705   1.019   6.979
  268SOL     OW 1702   3.433   0.557   5.930
  268SOL    HW1 1703   3.524   0.538   5.894
  268SOL    HW2 1704   3.439   0.625   6.003
  269SOL     OW 1705   0.704   3.291   2.241
  269SOL    HW1 1706   0.748   3.217   2.292
  269SOL    HW2 1707   0.754   3.377   2.258
  270SOL     OW 1708   1.183   0.071   0.671
  270SOL    HW1 1709   1.269   0.069   0.721
  270SOL    HW2 1710   1.142   7.001   0.672
  271SOL     OW 1711   0.287   1.716   6.725
  271SOL    HW1 1712   0.340   1.635   6.702
  271SOL    HW2 1713   0.224   1.695   6.800
  272SOL     OW 1714   3.402   5.286   4.447
  272SOL    HW1 1715   3.428   5.194   4.475
  272SOL    HW2 1716   3.482   5.346   4.451
  273SOL     OW 1717   1.855   4.196   4.861
  273SOL    HW1 1718   1.877   4.190   4.764
  273SOL    HW2 1719   1.919   4.259   4.906
  274SOL     OW 1720   4.310   1.982   3.272
  274SOL    HW1 1721   4.301   2.077   3.299
  274SOL    HW2 1722   4.385   1.939   3.322
  275SOL     OW 1723   5.843   4.027   5.295
  275SOL    HW1 1724   5.934   3.990   5.274
  275SOL    HW2 1725   5.852   4.096   5.368
  276SOL     OW 1726   0.348   6.661   2.567
  276SOL    HW1 1727   0.304   6.703   2.487
  276SOL    HW2 1728   0.445   6.646   2.547
  277SOL     OW 1729   1.371   4.060   0.709
  277SOL    HW1 1730   1.454   4.010   0.735
  277SOL    HW2 1731   1.313   4.001   0.653
  278SOL     OW 1732   6.152   5.047   1.967
  278SOL    HW1 1733   6.118   5.137   1.940
  278SOL    HW2 1734   6.108   4.976   1.912
  279SOL     OW 1735   6.666   2.902   4.231
  279SOL    HW1 1736   6.707   2.974   4.286
  279SOL    HW2 1737   6.727   2.823   4.228
  280SOL     OW 1738   3.218   6.654   2.861
  280SOL    HW1 1739   3.142   6.684   2.918
  280SOL    HW2 1740   3.211   6.698   2.771
  281SOL     OW 1741   2.553   4.674   2.305
  281SOL    HW1 1742   2.642   4.694   2.265
  281SOL    HW2 1743   2.485   4.738   2.269
  282SOL     OW 1744   3.202   1.586   5.596
  282SOL    HW1 1745   3.104   1.565   5.591
  282SOL    HW2 1746   3.231   1.628   5.510
  283SOL     OW 1747   6.160   1.625   6.644
  283SOL    HW1 1748   6.216   1.620   6.727
  283SOL    HW2 1749   6.184   1.707   6.592
  284SOL     OW 1750   1.697   4.049   3.688
  284SOL    HW1 1751   1.698   3.957   3.725
  284SOL    HW2 1752   1.616   4.098   3.720
  285SOL     OW 1753   6.141   4.660   5.280
  285SOL    HW1 1754   6.059   4.628   5.328
  285SOL    HW2 1755   6.213   4.591   5.288
  286SOL     OW 1756   3.876   5.731   5.350
  286SOL    HW1 1757   3.888   5.830   5.346
  286SOL    HW2 1758   3.842   5.705   5.440
  287SOL     OW 1759   0.248   4.414   0.192
  287SOL    HW1 1760   0.169   4.352   0.193
  287SOL    HW2 1761   0.327   4.369   0.234
  288SOL     OW 1762   4.067   1.215   5.660
  288SOL    HW1 1763   3.998   1.279   5.626
  288SOL    HW2 1764   4.149   1.265   5.688
  289SOL     OW 1765   6.989   4.229   4.833
  289SOL    HW1 1766   6.925   4.306   4.832
  289SOL    HW2 1767   6.959   4.160   4.768
  290SOL     OW 1768   5.943   1.797   4.640
  290SOL    HW1 1769   5.943   1.699   4.663
  290SOL    HW2 1770   6.028   1.819   4.592
  291SOL     OW 1771   1.321   2.467   4.753
  291SOL    HW1 1772   1.308   2.404   4.676
  291SOL    HW2 1773   1.388   2.536   4.728
  292SOL     OW 1774   1.341   1.958   3.215
  292SOL    HW1 1775   1.322   1.900   3.294
  292SOL    HW2 1776   1.277   2.035   3.213
  293SOL     OW 1777   4.414   5.094   2.030
  293SOL    HW1 1778   4.385   5.060   1.940
  293SOL    HW2 1779   4.352   5.061   2.100
  294SOL     OW 1780   0.007   5.286   6.218
  294SOL    HW1 1781   0.094   5.336   6.220
  294SOL    HW2 1782   7.012   5.244   6.307
  295SOL     OW 1783   3.548   2.129   4.200
  295SOL    HW1 1784   3.487   2.198   4.240
  295SOL    HW2 1785   3.639   2.138   4.239
  296SOL     OW 1786   4.379   1.733   2.553
  296SOL    HW1 1787   4.402   1.640   2.523
  296SOL    HW2 1788   4.354   1.789   2.474
  297SOL     OW 1789   2.107   4.594   2.947
  297SOL    HW1 1790   2.037   4.665   2.950
  297SOL    HW2 1791   2.169   4.605   3.024
  298SOL     OW 1792   4.327   6.390   0.672
  298SOL    HW1 1793   4.293   6.297   0.689
  298SOL    HW2 1794   4.325   6.442   0.757
  299SOL     OW 1795   4.750   3.734   6.269
  299SOL    HW1 1796   4.808   3.787   6.206
  299SOL    HW2 1797   4.664   3.782   6.282
  300SOL     OW 1798   5.967   1.098   1.608
  300SOL    HW1 1799   5.904   1.058   1.540
  300SOL    HW2 1800   6.048   1.132   1.561
  301SOL     OW 1801   5.059   3.394   1.396
  301SOL    HW1 1802   5.073   3.456   1.473
  301SOL    HW2 1803   5.013   3.311   1.427
  302SOL     OW 1804   1.116   0.553   3.582
  302SOL    HW1 1805   1.189   0.485   3.576
  302SOL    HW2 1806   1.042   0.518   3.639
  303SOL     OW 1807   5.952   0.711   1.535
  303SOL    HW1 1808   5.943   0.735   1.438
  303SOL    HW2 1809   5.861   0.704   1.576
  304SOL     OW 1810   2.547   0.294   3.993
  304SOL    HW1 1811   2.525   0.216   4.051
  304SOL    HW2 1812   2.526   0.379   4.041
  305SOL     OW 1813   0.076   3.541   0.037
  305SOL    HW1 1814   0.102   3.594   6.978
  305SOL    HW2 1815   0.140   3.561   0.111
  306SOL     OW 1816   2.505   1.358   3.376
  306SOL    HW1 1817   2.409   1.348   3.403
  306SOL    HW2 1818   2.564   1.343   3.455
  307SOL     OW 1819   4.756   0.271   0.384
  307SOL    HW1 1820   4.710   0.312   0.305
  307SOL    HW2 1821   4.831   0.213   0.352
  308SOL     OW 1822   5.937   2.872   4.824
  308SOL    HW1 1823   5.854   2.910   4.782
  308SOL    HW2 1824   5.963   2.928   4.903
  309SOL     OW 1825   3.073   5.112   6.864
  309SOL    HW1 1826   3.002   5.175   6.834
  309SOL    HW2 1827   3.080   5.115   6.964
  310SOL     OW 1828   6.045   6.777   5.135
  310SOL    HW1 1829   6.038   6.718   5.055
  310SOL    HW2 1830   5.990   6.740   5.210
  311SOL     OW 1831   5.704   4.647   1.965
  311SOL    HW1 1832   5.701   4.714   2.039
  311SOL    HW2 1833   5.756   4.684   1.888
  312SOL     OW 1834   4.302   1.610   5.730
  312SOL    HW1 1835   4.349   1.659   5.657
  312SOL    HW2 1836   4.206   1.638   5.733
  313SOL     OW 1837   3.455   4.199   1.819
  313SOL    HW1 1838   3.445   4.146   1.903
  313SOL    HW2 1839   3.551   4.206   1.795
  314SOL     OW 1840   3.243   4.886   6.862
  314SOL    HW1 1841   3.199   4.975   6.867
  314SOL    HW2 1842   3.263   4.864   6.766
  315SOL     OW 1843   1.398   2.689   3.671
  315SOL    HW1 1844   1.401   2.650   3.580
  315SOL    HW2 1845   1.492   2.699   3.706
  316SOL     OW 1846   2.920   1.708   4.095
  316SOL    HW1 1847   2.932   1.704   4.194
  316SOL    HW2 1848   2.905   1.616   4.060
  317SOL     OW 1849   0.668   0.541   0.951
  317SOL    HW1 1850   0.627   0.597   1.023
  317SOL    HW2 1851   0.747   0.589   0.912
  318SOL     OW 1852   1.291   6.401   0.171
  318SOL    HW1 1853   1.320   6.496   0.184
  318SOL    HW2 1854   1.372   6.344   0.157
  319SOL     OW 1855   6.990   0.461   4.056
  319SOL    HW1 1856   7.007   0.460   3.958
  319SOL    HW2 1857   6.974   0.554   4.087
  320SOL     OW 1858   6.207   1.979   0.447
  320SOL    HW1 1859   6.190   1.892   0.493
  320SOL    HW2 1860   6.144   1.989   0.370
  321SOL     OW 1861   4.223   1.543   1.016
  321SOL    HW1 1862   4.306   1.596   1.035
  321SOL    HW2 1863   4.154   1.566   1.085
  322SOL     OW 1864   3.696   4.200   4.780
  322SOL    HW1 1865   3.613   4.166   4.738
  322SOL    HW2 1866   3.689   4.299   4.793
  323SOL     OW 1867   0.801   3.744   6.100
  323SOL    HW1 1868   0.730   3.684   6.063
  323SOL    HW2 1869   0.846   3.792   6.025
  324SOL     OW 1870   2.569   2.172   3.922
  324SOL    HW1 1871   2.666   2.190   3.906
  324SOL    HW2 1872   2.528   2.137   3.838
  325SOL     OW 1873   1.167   2.773   1.503
  325SOL    HW1 1874   1.223   2.836   1.557
  325SOL    HW2 1875   1.120   2.824   1.431
  326SOL     OW 1876   1.071   4.735   6.762
  326SOL    HW1 1877   1.085   4.752   6.665
  326SOL    HW2 1878   1.146   4.775   6.814
  327SOL     OW 1879   1.547   4.997   3.615
  327SOL    HW1 1880   1.581   4.993   3.709
  327SOL    HW2 1881   1.605   5.059   3.562
  328SOL     OW 1882   1.514   6.202   1.925
  328SOL    HW1 1883   1.460   6.267   1.872
  328SOL    HW2 1884   1.548   6.130   1.864
  329SOL     OW 1885   3.790   3.970   4.499
  329SOL    HW1 1886   3.836   4.024   4.569
  329SOL    HW2 1887   3.857   3.938   4.432
  330SOL     OW 1888   2.573   6.932   0.939
  330SOL    HW1 1889   2.504   7.003   0.954
  330SOL    HW2 1890   2.664   6.971   0.949
  331SOL     OW 1891   3.759   5.633   0.109
  331SOL    HW1 1892   3.764   5.719   0.058
  331SOL    HW2 1893   3.708   5.647   0.193
  332SOL     OW 1894   2.851   1.520   4.872
  332SOL    HW1 1895   2.937   1.571   4.873
  332SOL    HW2 1896   2.864   1.433   4.824
  333SOL     OW 1897   3.509   6.446   6.613
  333SOL    HW1 1898   3.427   6.427   6.667
  333SOL    HW2 1899   3.573   6.502   6.667
  334SOL     OW 1900   2.665   0.544   1.356
  334SOL    HW1 1901   2.745   0.483   1.355
  334SOL    HW2 1902   2.592   0.503   1.301
  335SOL     OW 1903   3.444   0.166   4.170
  335SOL    HW1 1904   3.462   0.224   4.249
  335SOL    HW2 1905   3.414   0.076   4.201
  336SOL     OW 1906   2.500   1.171   3.924
  336SOL    HW1 1907   2.432   1.225   3.874
  336SOL    HW2 1908   2.591   1.212   3.913
  337SOL     OW 1909   0.052   3.444   0.493
  337SOL    HW1 1910   0.053   3.524   0.433
  337SOL    HW2 1911   6.985   3.399   0.487
  338SOL     OW 1912   3.160   2.797   1.535
  338SOL    HW1 1913   3.108   2.723   1.492
  338SOL    HW2 1914   3.237   2.758   1.586
  339SOL     OW 1915   3.278   6.393   4.546
  339SOL    HW1 1916   3.350   6.399   4.615
  339SOL    HW2 1917   3.298   6.317   4.484
  340SOL     OW 1918   5.025   4.394   5.750
  340SOL    HW1 1919   5.001   4.362   5.841
  340SOL    HW2 1920   4.970   4.474   5.727
  341SOL     OW 1921   6.908   0.481   4.420
  341SOL    HW1 1922   6.904   0.387   4.386
  341SOL    HW2 1923   6.864   0.485   4.510
  342SOL     OW 1924   5.699   3.960   7.019
  342SOL    HW1 1925   5.756   3.946   0.079
  342SOL    HW2 1926   5.757   3.992   6.944
  343SOL     OW 1927   1.894   5.515   0.428
  343SOL    HW1 1928   1.824   5.457   0.471
  343SOL    HW2 1929   1.916   5.591   0.490
  344SOL     OW 1930   1.361   4.748   2.332
  344SOL    HW1 1931   1.332   4.774   2.240
  344SOL    HW2 1932   1.287   4.766   2.397
  345SOL     OW 1933   6.309   1.180   4.841
  345SOL    HW1 1934   6.371   1.120   4.890
  345SOL    HW2 1935   6.319   1.274   4.873
  346SOL     OW 1936   1.987   0.397   2.790
  346SOL    HW1 1937   1.888   0.389   2.776
  346SOL    HW2 1938   2.008   0.379   2.886
  347SOL     OW 1939   3.049   5.768   6.186
  347SOL    HW1 1940   3.095   5.690   6.229
  347SOL    HW2 1941   3.099   5.852   6.208
  348SOL     OW 1942   5.448   5.248   1.118
  348SOL    HW1 1943   5.375   5.181   1.130
  348SOL    HW2 1944   5.533   5.211   1.156
  349SOL     OW 1945   6.433   4.436   0.967
  349SOL    HW1 1946   6.501   4.396   1.028
  349SOL    HW2 1947   6.474   4.513   0.917
  350SOL     OW 1948   3.610   2.885   0.910
  350SOL    HW1 1949   3.669   2.908   0.987
  350SOL    HW2 1950   3.516   2.873   0.942
  351SOL     OW 1951   2.411   2.809   0.479
  351SOL    HW1 1952   2.316   2.777   0.469
  351SOL    HW2 1953   2.474   2.737   0.452
  352SOL     OW 1954   3.660   0.275   4.928
  352SOL    HW1 1955   3.637   0.190   4.974
  352SOL    HW2 1956   3.629   0.352   4.984
  353SOL     OW 1957   2.670   6.749   0.745
  353SOL    HW1 1958   2.737   6.806   0.697
  353SOL    HW2 1959   2.622   6.804   0.813
  354SOL     OW 1960   3.124   2.660   6.960
  354SOL    HW1 1961   3.174   2.601   0.001
  354SOL    HW2 1962   3.119   2.617   6.870
  355SOL     OW 1963   0.032   2.881   2.602
  355SOL    HW1 1964   0.065   2.855   2.693
  355SOL    HW2 1965   6.955   2.865   2.596
  356SOL     OW 1966   3.846   6.014   5.336
  356SOL    HW1 1967   3.762   6.067   5.331
  356SOL    HW2 1968   3.913   6.062   5.392
  357SOL     OW 1969   6.379   6.525   5.179
  357SOL    HW1 1970   6.457   6.475   5.215
  357SOL    HW2 1971   6.330   6.570   5.254
  358SOL     OW 1972   5.614   0.158   2.015
  358SOL    HW1 1973   5.524   0.117   2.003
  358SOL    HW2 1974   5.639   0.210   1.933
  359SOL     OW 1975   1.614   2.163   2.213
  359SOL    HW1 1976   1.532   2.109   2.231
  359SOL    HW2 1977   1.617   2.190   2.117
  360SOL     OW 1978   1.253   5.846   6.604
  360SOL    HW1 1979   1.174   5.896   6.639
  360SOL    HW2 1980   1.224   5.755   6.575
  361SOL     OW 1981   5.435   5.844   3.099
  361SOL    HW1 1982   5.497   5.805   3.167
  361SOL    HW2 1983   5.461   5.813   3.008
  362SOL     OW 1984   3.725   3.858   1.230
  362SOL    HW1 1985   3.724   3.789   1.158
  362SOL    HW2 1986   3.787   3.932   1.205
  363SOL     OW 1987   4.857   4.307   3.746
  363SOL    HW1 1988   4.813   4.376   3.804
  363SOL    HW2 1989   4.805   4.222   3.751
  364SOL     OW 1990   6.842   5.660   6.030
  364SOL    HW1 1991   6.845   5.648   6.129
  364SOL    HW2 1992   6.754   5.702   6.004
  365SOL     OW 1993   5.184   4.989   1.987
  365SOL    HW1 1994   5.224   4.960   2.074
  365SOL    HW2 1995   5.169   4.908   1.929
  366SOL     OW 1996   6.210   0.742   0.307
  366SOL    HW1 1997   6.247   0.780   0.222
  366SOL    HW2 1998   6.231   0.644   0.311
  367SOL     OW 1999   5.080   3.037   1.193
  367SOL    HW1 2000   5.126   3.125   1.184
  367SOL    HW2 2001   4.984   3.046   1.168
  368SOL     OW 2002   0.379   3.523   4.822
  368SOL    HW1 2003   0.458   3.514   4.883
  368SOL    HW2 2004   0.364   3.619   4.800
  369SOL     OW 2005   7.021   5.084   1.523
  369SOL    HW1 2006   6.938   5.125   1.561
  369SOL    HW2 2007   0.079   5.135   1.554
  370SOL     OW 2008   3.108   1.431   5.245
  370SOL    HW1 2009   3.112   1.515   5.299
  370SOL    HW2 2010   3.014   1.396   5.245
  371SOL     OW 2011   2.490   3.479   6.712
  371SOL    HW1 2012   2.412   3.541   6.706
  371SOL    HW2 2013   2.466   3.391   6.670
  372SOL     OW 2014   0.102   0.133   5.464
  372SOL    HW1 2015   0.197   0.137   5.432
  372SOL    HW2 2016   0.041   0.124   5.385
  373SOL     OW 2017   6.305   6.115   5.492
  373SOL    HW1 2018   6.378   6.055   5.524
  373SOL    HW2 2019   6.288   6.098   5.395
  374SOL     OW 2020   3.205   0.645   2.059
  374SOL    HW1 2021   3.153   0.730   2.049
  374SOL    HW2 2022   3.169   0.593   2.137
  375SOL     OW 2023   0.775   4.451   3.676
  375SOL    HW1 2024   0.792   4.544   3.645
  375SOL    HW2 2025   0.862   4.410   3.706
  376SOL     OW 2026   1.975   2.799   4.631
  376SOL    HW1 2027   1.881   2.799   4.594
  376SOL    HW2 2028   1.997   2.890   4.664
  377SOL     OW 2029   6.849   2.842   2.271
  377SOL    HW1 2030   6.928   2.791   2.239
  377SOL    HW2 2031   6.778   2.778   2.301
  378SOL     OW 2032   3.541   2.907   5.624
  378SOL    HW1 2033   3.562   2.927   5.528
  378SOL    HW2 2034   3.610   2.844   5.660
  379SOL     OW 2035   6.594   4.178   2.085
  379SOL    HW1 2036   6.620   4.082   2.088
  379SOL    HW2 2037   6.550   4.197   1.997
  380SOL     OW 2038   2.665   1.384   1.929
  380SOL    HW1 2039   2.740   1.330   1.966
  380SOL    HW2 2040   2.680   1.399   1.831
  381SOL     OW 2041   1.871   4.510   1.948
  381SOL    HW1 2042   1.811   4.584   1.976
  381SOL    HW2 2043   1.830   4.422   1.973
  382SOL     OW 2044   5.360   6.300   6.100
  382SOL    HW1 2045   5.373   6.394   6.069
  382SOL    HW2 2046   5.277   6.295   6.156
  383SOL     OW 2047   5.666   3.285   5.854
  383SOL    HW1 2048   5.749   3.340   5.841
  383SOL    HW2 2049   5.643   3.281   5.951
  384SOL     OW 2050   6.569   4.185   4.221
  384SOL    HW1 2051   6.473   4.157   4.223
  384SOL    HW2 2052   6.576   4.278   4.258
  385SOL     OW 2053   4.346   6.286   6.579
  385SOL    HW1 2054   4.336   6.379   6.614
  385SOL    HW2 2055   4.442   6.270   6.554
  386SOL     OW 2056   3.319   6.691   5.198
  386SOL    HW1 2057   3.416   6.706   5.218
  386SOL    HW2 2058   3.267   6.687   5.283
  387SOL     OW 2059   6.722   6.380   3.170
  387SOL    HW1 2060   6.699   6.341   3.260
  387SOL    HW2 2061   6.822   6.386   3.162
  388SOL     OW 2062   0.794   2.797   3.757
  388SOL    HW1 2063   0.707   2.764   3.721
  388SOL    HW2 2064   0.848   2.719   3.790
  389SOL     OW 2065   4.209   4.107   1.750
  389SOL    HW1 2066   4.173   4.026   1.798
  389SOL    HW2 2067   4.299   4.129   1.787
  390SOL     OW 2068   3.622   1.593   0.141
  390SOL    HW1 2069   3.547   1.650   0.106
  390SOL    HW2 2070   3.599   1.560   0.233
  391SOL     OW 2071   2.385   4.072   5.408
  391SOL    HW1 2072   2.332   4.149   5.375
  391SOL    HW2 2073   2.411   4.013   5.332
  392SOL     OW 2074   1.676   3.572   1.875
  392SOL    HW1 2075   1.642   3.653   1.828
  392SOL    HW2 2076   1.768   3.590   1.910
  393SOL     OW 2077   1.363   5.339   0.363
  393SOL    HW1 2078   1.343   5.380   0.452
  393SOL    HW2 2079   1.393   5.411   0.299
  394SOL     OW 2080   1.169   2.869   6.961
  394SOL    HW1 2081   1.156   2.789   6.902
  394SOL    HW2 2082   1.265   2.875   6.988
  395SOL     OW 2083   5.317   4.247   2.654
  395SOL    HW1 2084   5.364   4.185   2.592
  395SOL    HW2 2085   5.224   4.264   2.620
  396SOL     OW 2086   2.326   2.583   2.053
  396SOL    HW1 2087   2.386   2.588   1.973
  396SOL    HW2 2088   2.375   2.538   2.129
  397SOL     OW 2089   5.710   1.820   6.768
  397SOL    HW1 2090   5.625   1.777   6.737
  397SOL    HW2 2091   5.776   1.749   6.793
  398SOL     OW 2092   1.739   6.186   3.435
  398SOL    HW1 2093   1.684   6.266   3.412
  398SOL    HW2 2094   1.693   6.134   3.508
  399SOL     OW 2095   5.653   6.347   4.496
  399SOL    HW1 2096   5.691   6.436   4.520
  399SOL    HW2 2097   5.715   6.275   4.528
  400SOL     OW 2098   6.209   6.389   5.479
  400SOL    HW1 2099   6.228   6.294   5.505
  400SOL    HW2 2100   6.168   6.390   5.388
  401SOL     OW 2101   5.640   0.236   6.115
  401SOL    HW1 2102   5.664   0.232   6.212
  401SOL    HW2 2103   5.655   0.147   6.073
  402SOL     OW 2104   6.200   0.077   3.062
  402SOL    HW1 2105   6.168   0.168   3.037
  402SOL    HW2 2106   6.296   0.067   3.034
  403SOL     OW 2107   3.627   0.374   6.197
  403SOL    HW1 2108   3.633   0.359   6.099
  403SOL    HW2 2109   3.577   0.298   6.240
  404SOL     OW 2110   1.981   5.283   5.706
  404SOL    HW1 2111   2.069   5.329   5.713
  404SOL    HW2 2112   1.993   5.185   5.719
  405SOL     OW 2113   1.933   3.858   3.249
  405SOL    HW1 2114   2.025   3.859   3.210
  405SOL    HW2 2115   1.891   3.948   3.237
  406SOL     OW 2116   0.800   4.659   4.862
  406SOL    HW1 2117   0.824   4.651   4.958
  406SOL    HW2 2118   0.759   4.574   4.830
  407SOL     OW 2119   2.063   2.670   4.411
  407SOL    HW1 2120   2.038   2.709   4.499
  407SOL    HW2 2121   2.162   2.681   4.396
  408SOL     OW 2122   3.239   2.030   3.057
  408SOL    HW1 2123   3.238   2.056   2.961
  408SOL    HW2 2124   3.322   2.064   3.100
  409SOL     OW 2125   0.067   3.764   1.985
  409SOL    HW1 2126   0.025   3.681   1.951
  409SOL    HW2 2127   7.018   3.824   2.024
  410SOL     OW 2128   1.336   2.069   1.143
  410SOL    HW1 2129   1.362   2.010   1.219
  410SOL    HW2 2130   1.250   2.115   1.164
  411SOL     OW 2131   6.338   0.924   1.718
  411SOL    HW1 2132   6.345   1.022   1.739
  411SOL    HW2 2133   6.415   0.897   1.661
  412SOL     OW 2134   3.479   4.895   2.796
  412SOL    HW1 2135   3.396   4.847   2.767
  412SOL    HW2 2136   3.502   4.964   2.727
  413SOL     OW 2137   4.417   4.386   1.383
  413SOL    HW1 2138   4.400   4.288   1.392
  413SOL    HW2 2139   4.344   4.429   1.331
  414SOL     OW 2140   3.683   0.286   4.032
  414SOL    HW1 2141   3.712   0.302   4.126
  414SOL    HW2 2142   3.667   0.189   4.017
  415SOL     OW 2143   0.545   1.178   6.690
  415SOL    HW1 2144   0.616   1.152   6.756
  415SOL    HW2 2145   0.461   1.130   6.711
  416SOL     OW 2146   5.076   5.193   4.880
  416SOL    HW1 2147   5.022   5.217   4.799
  416SOL    HW2 2148   5.047   5.104   4.914
  417SOL     OW 2149   2.131   1.479   6.588
  417SOL    HW1 2150   2.228   1.454   6.581
  417SOL    HW2 2151   2.075   1.397   6.573
  418SOL     OW 2152   2.549   6.815   5.702
  418SOL    HW1 2153   2.565   6.829   5.605
  418SOL    HW2 2154   2.550   6.717   5.723
  419SOL     OW 2155   0.400   6.838   3.509
  419SOL    HW1 2156   0.332   6.879   3.569
  419SOL    HW2 2157   0.358   6.816   3.421
  420SOL     OW 2158   5.675   1.534   6.297
  420SOL    HW1 2159   5.720   1.562   6.382
  420SOL    HW2 2160   5.676   1.434   6.290
  421SOL     OW 2161   5.901   3.654   4.945
  421SOL    HW1 2162   5.858   3.654   5.035
  421SOL    HW2 2163   5.878   3.739   4.897
  422SOL     OW 2164   5.417   2.684   0.534
  422SOL    HW1 2165   5.509   2.709   0.562
  422SOL    HW2 2166   5.354   2.697   0.611
  423SOL     OW 2167   2.657   1.269   0.047
  423SOL    HW1 2168   2.596   1.261   0.126
  423SOL    HW2 2169   2.744   1.309   0.075
  424SOL     OW 2170   2.185   4.902   2.690
  424SOL    HW1 2171   2.204   4.821   2.744
  424SOL    HW2 2172   2.271   4.943   2.659
  425SOL     OW 2173   5.182   0.972   4.612
  425SOL    HW1 2174   5.127   0.996   4.691
  425SOL    HW2 2175   5.146   0.889   4.570
  426SOL     OW 2176   2.088   2.863   4.928
  426SOL    HW1 2177   2.146   2.910   4.995
  426SOL    HW2 2178   2.146   2.821   4.858
  427SOL     OW 2179   5.583   0.680   4.045
  427SOL    HW1 2180   5.542   0.616   4.110
  427SOL    HW2 2181   5.567   0.649   3.952
  428SOL     OW 2182   3.074   0.250   3.253
  428SOL    HW1 2183   3.049   0.190   3.176
  428SOL    HW2 2184   3.004   0.244   3.323
  429SOL     OW 2185   0.462   4.966   4.368
  429SOL    HW1 2186   0.514   4.892   4.326
  429SOL    HW2 2187   0.368   4.936   4.382
  430SOL     OW 2188   1.517   7.016   3.641
  430SOL    HW1 2189   1.572   6.940   3.607
  430SOL    HW2 2190   1.570   0.046   3.708
  431SOL     OW 2191   2.463   2.315   0.771
  431SOL    HW1 2192   2.503   2.313   0.862
  431SOL    HW2 2193   2.383   2.375   0.771
  432SOL     OW 2194   6.245   1.920   0.774
  432SOL    HW1 2195   6.328   1.975   0.772
  432SOL    HW2 2196   6.165   1.980   0.771
  433SOL     OW 2197   3.064   5.999   5.831
  433SOL    HW1 2198   3.107   6.037   5.749
  433SOL    HW2 2199   3.057   6.070   5.901
  434SOL     OW 2200   4.114   5.266   4.494
  434SOL    HW1 2201   4.207   5.230   4.487
  434SOL    HW2 2202   4.111   5.335   4.566
  435SOL     OW 2203   4.147   1.635   5.382
  435SOL    HW1 2204   4.130   1.538   5.399
  435SOL    HW2 2205   4.237   1.660   5.419
  436SOL     OW 2206   3.281   5.797   2.499
  436SOL    HW1 2207   3.351   5.736   2.461
  436SOL    HW2 2208   3.301   5.891   2.471
  437SOL     OW 2209   0.251   1.267   5.245
  437SOL    HW1 2210   0.346   1.287   5.221
  437SOL    HW2 2211   0.247   1.227   5.336
  438SOL     OW 2212   1.896   4.107   3.455
  438SOL    HW1 2213   1.813   4.068   3.494
  438SOL    HW2 2214   1.964   4.119   3.527
  439SOL     OW 2215   6.001   0.300   2.440
  439SOL    HW1 2216   6.008   0.255   2.529
  439SOL    HW2 2217   6.093   0.320   2.405
  440SOL     OW 2218   3.435   1.242   6.457
  440SOL    HW1 2219   3.388   1.162   6.419
  440SOL    HW2 2220   3.367   1.308   6.489
  441SOL     OW 2221   5.778   4.229   3.124
  441SOL    HW1 2222   5.714   4.171   3.074
  441SOL    HW2 2223   5.853   4.257   3.064
  442SOL     OW 2224   4.591   4.437   5.982
  442SOL    HW1 2225   4.601   4.348   6.026
  442SOL    HW2 2226   4.512   4.435   5.921
  443SOL     OW 2227   5.206   4.682   3.813
  443SOL    HW1 2228   5.174   4.594   3.848
  443SOL    HW2 2229   5.298   4.672   3.776
  444SOL     OW 2230   4.067   1.526   6.225
  444SOL    HW1 2231   3.982   1.475   6.238
  444SOL    HW2 2232   4.047   1.615   6.183
  445SOL     OW 2233   2.463   6.025   3.167
  445SOL    HW1 2234   2.503   5.945   3.123
  445SOL    HW2 2235   2.428   6.088   3.098
  446SOL     OW 2236   4.097   5.634   3.159
  446SOL    HW1 2237   4.168   5.570   3.189
  446SOL    HW2 2238   4.071   5.613   3.065
  447SOL     OW 2239   6.418   3.218   5.233
  447SOL    HW1 2240   6.370   3.257   5.155
  447SOL    HW2 2241   6.362   3.146   5.274
  448SOL     OW 2242   2.147   1.298   2.707
  448SOL    HW1 2243   2.167   1.200   2.703
  448SOL    HW2 2244   2.189   1.345   2.630
  449SOL     OW 2245   2.559   2.250   3.398
  449SOL    HW1 2246   2.495   2.174   3.388
  449SOL    HW2 2247   2.652   2.215   3.407
  450SOL     OW 2248   1.429   4.645   3.260
  450SOL    HW1 2249   1.367   4.656   3.338
  450SOL    HW2 2250   1.476   4.731   3.242
  451SOL     OW 2251   0.937   3.136   3.895
  451SOL    HW1 2252   1.026   3.107   3.860
  451SOL    HW2 2253   0.942   3.232   3.924
  452SOL     OW 2254   3.642   0.587   1.620
  452SOL    HW1 2255   3.687   0.673   1.595
  452SOL    HW2 2256   3.557   0.607   1.668
  453SOL     OW 2257   3.831   0.533   6.568
  453SOL    HW1 2258   3.767   0.506   6.640
  453SOL    HW2 2259   3.921   0.549   6.607
  454SOL     OW 2260   6.895   3.912   6.359
  454SOL    HW1 2261   6.933   3.930   6.450
  454SOL    HW2 2262   6.811   3.858   6.368
  455SOL     OW 2263   6.357   3.724   5.323
  455SOL    HW1 2264   6.366   3.743   5.225
  455SOL    HW2 2265   6.352   3.625   5.337
  456SOL     OW 2266   1.639   0.828   4.338
  456SOL    HW1 2267   1.674   0.910   4.293
  456SOL    HW2 2268   1.629   0.755   4.271
  457SOL     OW 2269   0.781   5.256   4.804
  457SOL    HW1 2270   0.691   5.232   4.770
  457SOL    HW2 2271   0.829   5.174   4.836
  458SOL     OW 2272   3.272   1.071   2.839
  458SOL    HW1 2273   3.249   1.166   2.864
  458SOL    HW2 2274   3.341   1.036   2.902
  459SOL     OW 2275   1.981   0.853   5.697
  459SOL    HW1 2276   2.061   0.795   5.713
  459SOL    HW2 2277   1.965   0.911   5.777
  460SOL     OW 2278   1.273   1.586   5.370
  460SOL    HW1 2279   1.359   1.541   5.346
  460SOL    HW2 2280   1.288   1.649   5.445
  461SOL     OW 2281   6.546   4.756   5.666
  461SOL    HW1 2282   6.600   4.841   5.671
  461SOL    HW2 2283   6.591   4.691   5.606
  462SOL     OW 2284   4.053   3.670   4.497
  462SOL    HW1 2285   3.972   3.624   4.460
  462SOL    HW2 2286   4.037   3.693   4.593
  463SOL     OW 2287   6.569   6.826   3.126
  463SOL    HW1 2288   6.617   6.863   3.047
  463SOL    HW2 2289   6.629   6.762   3.175
  464SOL     OW 2290   3.246   0.067   6.249
  464SOL    HW1 2291   3.331   0.113   6.272
  464SOL    HW2 2292   3.171   0.133   6.248
  465SOL     OW 2293   0.880   2.669   6.938
  465SOL    HW1 2294   0.915   2.759   6.965
  465SOL    HW2 2295   0.814   2.637   7.006
  466SOL     OW 2296   2.686   6.694   4.232
  466SOL    HW1 2297   2.694   6.764   4.161
  466SOL    HW2 2298   2.776   6.658   4.254
  467SOL     OW 2299   0.569   1.993   2.475
  467SOL    HW1 2300   0.609   1.934   2.545
  467SOL    HW2 2301   0.640   2.022   2.411
  468SOL     OW 2302   4.748   6.729   6.196
  468SOL    HW1 2303   4.661   6.747   6.242
  468SOL    HW2 2304   4.778   6.811   6.147
  469SOL     OW 2305   3.055   4.222   5.942
  469SOL    HW1 2306   3.078   4.296   5.880
  469SOL    HW2 2307   2.990   4.255   6.011
  470SOL     OW 2308   3.482   6.060   2.773
  470SOL    HW1 2309   3.461   6.110   2.858
  470SOL    HW2 2310   3.479   5.962   2.791
  471SOL     OW 2311   2.438   2.544   4.007
  471SOL    HW1 2312   2.399   2.516   3.919
  471SOL    HW2 2313   2.377   2.515   4.081
  472SOL     OW 2314   6.194   4.826   6.847
  472SOL    HW1 2315   6.166   4.894   6.779
  472SOL    HW2 2316   6.277   4.780   6.816
  473SOL     OW 2317   0.138   2.354   2.286
  473SOL    HW1 2318   0.158   2.324   2.379
  473SOL    HW2 2319   0.202   2.427   2.261
  474SOL     OW 2320   6.035   4.989   5.549
  474SOL    HW1 2321   5.971   4.935   5.604
  474SOL    HW2 2322   6.128   4.961   5.569
  475SOL     OW 2323   5.944   3.347   0.245
  475SOL    HW1 2324   6.013   3.316   0.180
  475SOL    HW2 2325   5.865   3.288   0.242
  476SOL     OW 2326   0.153   4.184   1.791
  476SOL    HW1 2327   0.071   4.141   1.753
  476SOL    HW2 2328   0.138   4.282   1.801
  477SOL     OW 2329   2.028   5.819   3.446
  477SOL    HW1 2330   1.945   5.841   3.497
  477SOL    HW2 2331   2.090   5.764   3.503
  478SOL     OW 2332   4.295   5.681   2.793
  478SOL    HW1 2333   4.291   5.613   2.866
  478SOL    HW2 2334   4.202   5.702   2.762
  479SOL     OW 2335   3.640   3.183   4.763
  479SOL    HW1 2336   3.560   3.186   4.702
  479SOL    HW2 2337   3.694   3.102   4.743
  480SOL     OW 2338   1.878   0.105   2.246
  480SOL    HW1 2339   1.793   0.078   2.200
  480SOL    HW2 2340   1.867   0.096   2.345
  481SOL     OW 2341   0.786   6.511   1.251
  481SOL    HW1 2342   0.686   6.516   1.248
  481SOL    HW2 2343   0.818   6.546   1.339
  482SOL     OW 2344   4.899   4.832   2.716
  482SOL    HW1 2345   4.829   4.901   2.696
  482SOL    HW2 2346   4.896   4.761   2.646
  483SOL     OW 2347   6.382   2.544   2.691
  483SOL    HW1 2348   6.309   2.482   2.662
  483SOL    HW2 2349   6.470   2.502   2.674
  484SOL     OW 2350   1.607   4.274   4.958
  484SOL    HW1 2351   1.553   4.323   4.890
  484SOL    HW2 2352   1.697   4.252   4.920
  485SOL     OW 2353   5.386   3.506   2.411
  485SOL    HW1 2354   5.354   3.469   2.323
  485SOL    HW2 2355   5.352   3.449   2.485
  486SOL     OW 2356   5.683   0.441   6.432
  486SOL    HW1 2357   5.691   0.350   6.393
  486SOL    HW2 2358   5.732   0.445   6.519
  487SOL     OW 2359   0.112   0.490   3.426
  487SOL    HW1 2360   0.166   0.419   3.470
  487SOL    HW2 2361   0.090   0.462   3.332
  488SOL     OW 2362   1.814   6.542   3.245
  488SOL    HW1 2363   1.785   6.551   3.340
  488SOL    HW2 2364   1.842   6.632   3.210
  489SOL     OW 2365   6.143   5.618   4.739
  489SOL    HW1 2366   6.161   5.664   4.827
  489SOL    HW2 2367   6.229   5.597   4.695
  490SOL     OW 2368   1.273   5.731   4.905
  490SOL    HW1 2369   1.249   5.634   4.908
  490SOL    HW2 2370   1.367   5.743   4.936
  491SOL     OW 2371   0.502   3.822   0.617
  491SOL    HW1 2372   0.462   3.909   0.645
  491SOL    HW2 2373   0.564   3.789   0.689
  492SOL     OW 2374   1.641   1.172   5.304
  492SOL    HW1 2375   1.651   1.080   5.341
  492SOL    HW2 2376   1.725   1.224   5.319
  493SOL     OW 2377   2.401   6.980   5.881
  493SOL    HW1 2378   2.451   6.951   5.799
  493SOL    HW2 2379   2.406   6.909   5.951
  494SOL     OW 2380   2.275   1.107   5.901
  494SOL    HW1 2381   2.349   1.064   5.848
  494SOL    HW2 2382   2.210   1.037   5.930
  495SOL     OW 2383   4.531   6.401   5.416
  495SOL    HW1 2384   4.591   6.436   5.343
  495SOL    HW2 2385   4.499   6.478   5.471
  496SOL     OW 2386   6.203   1.099   2.774
  496SOL    HW1 2387   6.178   1.010   2.812
  496SOL    HW2 2388   6.167   1.106   2.681
  497SOL     OW 2389   3.992   1.465   5.207
  497SOL    HW1 2390   3.900   1.446   5.242
  497SOL    HW2 2391   3.996   1.559   5.174
  498SOL     OW 2392   0.418   5.007   1.572
  498SOL    HW1 2393   0.489   4.937   1.563
  498SOL    HW2 2394   0.459   5.092   1.605
  499SOL     OW 2395   2.575   5.514   5.674
  499SOL    HW1 2396   2.642   5.584   5.649
  499SOL    HW2 2397   2.613   5.456   5.746
  500SOL     OW 2398   4.984   3.054   5.851
  500SOL    HW1 2399   4.975   3.129   5.917
  500SOL    HW2 2400   5.004   3.092   5.760
  501SOL     OW 2401   2.208   6.886   2.500
  501SOL    HW1 2402   2.180   6.979   2.478
  501SOL    HW2 2403   2.155   6.853   2.578
  502SOL     OW 2404   1.318   4.697   6.324
  502SOL    HW1 2405   1.285   4.606   6.302
  502SOL    HW2 2406   1.409   4.710   6.285
  503SOL     OW 2407   2.471   5.326   6.311
  503SOL    HW1 2408   2.516   5.397   6.256
  503SOL    HW2 2409   2.375   5.319   6.284
  504SOL     OW 2410   0.136   5.434   2.786
  504SOL    HW1 2411   0.201   5.361   2.764
  504SOL    HW2 2412   0.173   5.521   2.755
  505SOL     OW 2413   3.994   0.052   5.056
  505SOL    HW1 2414   4.073   0.009   5.013
  505SOL    HW2 2415   3.967   0.132   5.003
  506SOL     OW 2416   2.874   5.019   2.508
  506SOL    HW1 2417   2.893   5.032   2.606
  506SOL    HW2 2418   2.925   4.939   2.475
  507SOL     OW 2419   4.248   1.362   2.108
  507SOL    HW1 2420   4.276   1.457   2.097
  507SOL    HW2 2421   4.183   1.354   2.184
  508SOL     OW 2422   0.139   2.424   3.673
  508SOL    HW1 2423   0.067   2.484   3.637
  508SOL    HW2 2424   0.120   2.329   3.648
  509SOL     OW 2425   4.392   0.946   0.036
  509SOL    HW1 2426   4.415   1.041   0.018
  509SOL    HW2 2427   4.435   0.888   6.988
  510SOL     OW 2428   6.961   4.955   5.697
  510SOL    HW1 2429   0.004   4.879   5.706
  510SOL    HW2 2430   6.986   5.027   5.762
  511SOL     OW 2431   1.651   2.135   6.437
  511SOL    HW1 2432   1.689   2.045   6.413
  511SOL    HW2 2433   1.552   2.134   6.426
  512SOL     OW 2434   5.910   2.212   6.784
  512SOL    HW1 2435   5.972   2.133   6.780
  512SOL    HW2 2436   5.816   2.180   6.796
  513SOL     OW 2437   5.740   6.662   2.845
  513SOL    HW1 2438   5.794   6.715   2.780
  513SOL    HW2 2439   5.665   6.718   2.879
  514SOL     OW 2440   0.268   6.572   3.831
  514SOL    HW1 2441   0.199   6.639   3.803
  514SOL    HW2 2442   0.298   6.520   3.751
  515SOL     OW 2443   2.294   0.592   6.139
  515SOL    HW1 2444   2.326   0.643   6.219
  515SOL    HW2 2445   2.318   0.642   6.056
  516SOL     OW 2446   2.421   4.091   1.796
  516SOL    HW1 2447   2.509   4.131   1.772
  516SOL    HW2 2448   2.402   4.106   1.893
  517SOL     OW 2449   3.671   4.923   2.393
  517SOL    HW1 2450   3.607   4.918   2.470
  517SOL    HW2 2451   3.626   4.890   2.310
  518SOL     OW 2452   2.330   2.818   3.838
  518SOL    HW1 2453   2.367   2.799   3.929
  518SOL    HW2 2454   2.263   2.747   3.814
  519SOL     OW 2455   0.038   6.789   4.009
  519SOL    HW1 2456   0.078   6.697   4.006
  519SOL    HW2 2457   6.984   6.791   4.074
  520SOL     OW 2458   0.735   3.729   6.932
  520SOL    HW1 2459   0.776   3.809   6.887
  520SOL    HW2 2460   0.675   3.761   7.006
  521SOL     OW 2461   4.489   5.870   4.310
  521SOL    HW1 2462   4.542   5.931   4.251
  521SOL    HW2 2463   4.410   5.920   4.346
  522SOL     OW 2464   3.758   3.879   1.503
  522SOL    HW1 2465   3.727   3.914   1.415
  522SOL    HW2 2466   3.679   3.846   1.555
  523SOL     OW 2467   0.378   6.422   1.679
  523SOL    HW1 2468   0.441   6.441   1.603
  523SOL    HW2 2469   0.372   6.502   1.738
  524SOL     OW 2470   0.903   3.039   2.348
  524SOL    HW1 2471   0.959   2.966   2.308
  524SOL    HW2 2472   0.957   3.087   2.418
  525SOL     OW 2473   1.696   3.612   6.621
  525SOL    HW1 2474   1.615   3.647   6.667
  525SOL    HW2 2475   1.709   3.515   6.644
  526SOL     OW 2476   2.721   6.906   4.057
  526SOL    HW1 2477   2.631   6.901   4.013
  526SOL    HW2 2478   2.762   6.995   4.038
  527SOL     OW 2479   0.789   2.492   0.153
  527SOL    HW1 2480   0.768   2.570   0.213
  527SOL    HW2 2481   0.704   2.454   0.117
  528SOL     OW 2482   0.988   3.420   3.916
  528SOL    HW1 2483   0.974   3.504   3.865
  528SOL    HW2 2484   1.084   3.412   3.943
  529SOL     OW 2485   2.289   0.463   5.577
  529SOL    HW1 2486   2.381   0.439   5.607
  529SOL    HW2 2487   2.289   0.480   5.478
  530SOL     OW 2488   3.832   2.913   2.245
  530SOL    HW1 2489   3.764   2.903   2.317
  530SOL    HW2 2490   3.907   2.849   2.262
  531SOL     OW 2491   1.856   0.755   2.622
  531SOL    HW1 2492   1.896   0.697   2.693
  531SOL    HW2 2493   1.779   0.806   2.660
  532SOL     OW 2494   1.105   3.739   0.581
  532SOL    HW1 2495   1.161   3.684   0.643
  532SOL    HW2 2496   1.117   3.836   0.601
  533SOL     OW 2497   5.158   6.957   3.731
  533SOL    HW1 2498   5.202   6.994   3.649
  533SOL    HW2 2499   5.107   0.008   3.777
  534SOL     OW 2500   6.994   6.133   1.729
  534SOL    HW1 2501   6.997   6.066   1.803
  534SOL    HW2 2502   0.065   6.166   1.711
  535SOL     OW 2503   6.485   4.410   3.042
  535SOL    HW1 2504   6.433   4.424   3.126
  535SOL    HW2 2505   6.570   4.361   3.062
  536SOL     OW 2506   5.974   5.654   3.025
  536SOL    HW1 2507   5.934   5.743   3.048
  536SOL    HW2 2508   6.072   5.666   3.005
  537SOL     OW 2509   3.447   6.864   4.120
  537SOL    HW1 2510   3.355   6.851   4.156
  537SOL    HW2 2511   3.502   6.783   4.141
  538SOL     OW 2512   1.050   4.945   4.948
  538SOL    HW1 2513   0.960   4.952   4.905
  538SOL    HW2 2514   1.110   4.889   4.891
  539SOL     OW 2515   1.749   5.863   2.139
  539SOL    HW1 2516   1.832   5.912   2.168
  539SOL    HW2 2517   1.729   5.790   2.205
  540SOL     OW 2518   2.115   1.226   4.089
  540SOL    HW1 2519   2.104   1.316   4.130
  540SOL    HW2 2520   2.039   1.209   4.026
  541SOL     OW 2521   4.626   5.883   3.677
  541SOL    HW1 2522   4.618   5.783   3.673
  541SOL    HW2 2523   4.556   5.924   3.618
  542SOL     OW 2524   3.216   6.367   6.484
  542SOL    HW1 2525   3.260   6.280   6.507
  542SOL    HW2 2526   3.131   6.375   6.535
  543SOL     OW 2527   5.397   3.344   3.756
  543SOL    HW1 2528   5.300   3.319   3.760
  543SOL    HW2 2529   5.448   3.289   3.822
  544SOL     OW 2530   0.355   5.096   0.433
  544SOL    HW1 2531   0.360   5.161   0.509
  544SOL    HW2 2532   0.431   5.113   0.371
  545SOL     OW 2533   4.414   1.351   1.205
  545SOL    HW1 2534   4.414   1.297   1.121
  545SOL    HW2 2535   4.407   1.448   1.182
  546SOL     OW 2536   0.860   3.888   1.903
  546SOL    HW1 2537   0.831   3.978   1.937
  546SOL    HW2 2538   0.826   3.875   1.810
  547SOL     OW 2539   2.999   2.754   0.955
  547SOL    HW1 2540   2.945   2.805   0.888
  547SOL    HW2 2541   3.002   2.658   0.929
  548SOL     OW 2542   3.308   3.671   1.155
  548SOL    HW1 2543   3.402   3.702   1.168
  548SOL    HW2 2544   3.307   3.573   1.137
  549SOL     OW 2545   5.341   2.682   1.827
  549SOL    HW1 2546   5.437   2.691   1.852
  549SOL    HW2 2547   5.309   2.589   1.846
  550SOL     OW 2548   0.528   5.291   3.159
  550SOL    HW1 2549   0.593   5.336   3.099
  550SOL    HW2 2550   0.436   5.325   3.141
  551SOL     OW 2551   6.968   0.392   1.339
  551SOL    HW1 2552   6.881   0.437   1.361
  551SOL    HW2 2553   0.017   0.461   1.328
  552SOL     OW 2554   5.140   4.781   4.755
  552SOL    HW1 2555   5.145   4.709   4.685
  552SOL    HW2 2556   5.209   4.850   4.736
  553SOL     OW 2557   3.364   6.847   3.681
  553SOL    HW1 2558   3.389   6.909   3.607
  553SOL    HW2 2559   3.391   6.754   3.657
  554SOL     OW 2560   5.741   5.995   0.141
  554SOL    HW1 2561   5.809   6.068   0.127
  554SOL    HW2 2562   5.776   5.930   0.208
  555SOL     OW 2563   3.019   5.092   5.439
  555SOL    HW1 2564   3.031   5.190   5.457
  555SOL    HW2 2565   2.937   5.079   5.383
  556SOL     OW 2566   5.262   1.166   4.257
  556SOL    HW1 2567   5.227   1.219   4.180
  556SOL    HW2 2568   5.308   1.084   4.223
  557SOL     OW 2569   0.331   4.955   6.265
  557SOL    HW1 2570   0.422   4.997   6.262
  557SOL    HW2 2571   0.340   4.856   6.259
  558SOL     OW 2572   3.686   3.053   4.394
  558SOL    HW1 2573   3.593   3.019   4.404
  558SOL    HW2 2574   3.721   3.029   4.304
  559SOL     OW 2575   6.825   5.643   5.727
  559SOL    HW1 2576   6.810   5.674   5.821
  559SOL    HW2 2577   6.871   5.715   5.675
  560SOL     OW 2578   6.390   3.808   3.021
  560SOL    HW1 2579   6.293   3.790   3.040
  560SOL    HW2 2580   6.409   3.905   3.037
  561SOL     OW 2581   0.170   2.448   6.966
  561SOL    HW1 2582   0.141   2.445   0.040
  561SOL    HW2 2583   0.195   2.356   6.936
  562SOL     OW 2584   4.260   0.825   6.069
  562SOL    HW1 2585   4.263   0.884   5.988
  562SOL    HW2 2586   4.339   0.764   6.068
  563SOL     OW 2587   2.381   1.695   3.232
  563SOL    HW1 2588   2.462   1.663   3.281
  563SOL    HW2 2589   2.314   1.731   3.297
  564SOL     OW 2590   0.743   2.411   6.875
  564SOL    HW1 2591   0.706   2.455   6.793
  564SOL    HW2 2592   0.667   2.387   6.936
  565SOL     OW 2593   2.945   3.694   3.278
  565SOL    HW1 2594   2.939   3.601   3.314
  565SOL    HW2 2595   2.898   3.756   3.341
  566SOL     OW 2596   1.849   3.673   3.436
  566SOL    HW1 2597   1.934   3.665   3.488
  566SOL    HW2 2598   1.862   3.741   3.364
  567SOL     OW 2599   3.072   2.991   1.106
  567SOL    HW1 2600   2.995   3.023   1.161
  567SOL    HW2 2601   3.047   2.905   1.062
  568SOL     OW 2602   5.222   6.741   0.188
  568SOL    HW1 2603   5.277   6.662   0.215
  568SOL    HW2 2604   5.239   6.761   0.092
  569SOL     OW 2605   0.825   2.886   0.819
  569SOL    HW1 2606   0.786   2.807   0.771
  569SOL    HW2 2607   0.925   2.881   0.815
  570SOL     OW 2608   3.296   0.451   6.540
  570SOL    HW1 2609   3.329   0.498   6.622
  570SOL    HW2 2610   3.278   0.518   6.468
  571SOL     OW 2611   2.741   4.695   3.902
  571SOL    HW1 2612   2.833   4.735   3.895
  571SOL    HW2 2613   2.710   4.702   3.997
  572SOL     OW 2614   1.924   5.064   5.103
  572SOL    HW1 2615   1.850   5.010   5.143
  572SOL    HW2 2616   1.921   5.056   5.004
  573SOL     OW 2617   6.612   1.061   5.871
  573SOL    HW1 2618   6.515   1.038   5.866
  573SOL    HW2 2619   6.627   1.150   5.829
  574SOL     OW 2620   3.645   0.356   5.283
  574SOL    HW1 2621   3.675   0.398   5.368
  574SOL    HW2 2622   3.693   0.269   5.269
  575SOL     OW 2623   3.947   2.798   1.462
  575SOL    HW1 2624   3.866   2.740   1.468
  575SOL    HW2 2625   3.984   2.815   1.553
  576SOL     OW 2626   1.283   3.277   2.995
  576SOL    HW1 2627   1.303   3.188   2.955
  576SOL    HW2 2628   1.264   3.267   3.092
  577SOL     OW 2629   1.758   0.847   2.005
  577SOL    HW1 2630   1.689   0.783   2.039
  577SOL    HW2 2631   1.715   0.915   1.947
  578SOL     OW 2632   0.951   5.153   5.335
  578SOL    HW1 2633   1.004   5.118   5.257
  578SOL    HW2 2634   1.007   5.150   5.417
  579SOL     OW 2635   1.599   4.637   3.054
  579SOL    HW1 2636   1.531   4.616   3.124
  579SOL    HW2 2637   1.662   4.560   3.044
  580SOL     OW 2638   3.748   4.958   5.426
  580SOL    HW1 2639   3.728   4.895   5.351
  580SOL    HW2 2640   3.730   5.052   5.398
  581SOL     OW 2641   1.974   3.013   3.296
  581SOL    HW1 2642   1.902   2.996   3.364
  581SOL    HW2 2643   2.017   2.926   3.272
  582SOL     OW 2644   4.443   5.884   3.105
  582SOL    HW1 2645   4.497   5.813   3.149
  582SOL    HW2 2646   4.483   5.907   3.016
  583SOL     OW 2647   2.700   5.799   5.612
  583SOL    HW1 2648   2.789   5.753   5.603
  583SOL    HW2 2649   2.644   5.780   5.532
  584SOL     OW 2650   3.192   0.055   6.721
  584SOL    HW1 2651   3.154   7.021   6.647
  584SOL    HW2 2652   3.155   0.148   6.715
  585SOL     OW 2653   4.522   1.544   0.694
  585SOL    HW1 2654   4.545   1.471   0.759
  585SOL    HW2 2655   4.473   1.506   0.616
  586SOL     OW 2656   3.765   0.412   0.899
  586SOL    HW1 2657   3.678   0.440   0.859
  586SOL    HW2 2658   3.753   0.395   0.997
  587SOL     OW 2659   5.093   2.678   2.784
  587SOL    HW1 2660   5.126   2.595   2.830
  587SOL    HW2 2661   5.089   2.662   2.685
  588SOL     OW 2662   1.903   5.258   0.816
  588SOL    HW1 2663   1.972   5.209   0.764
  588SOL    HW2 2664   1.909   5.232   0.912
  589SOL     OW 2665   3.747   5.901   1.251
  589SOL    HW1 2666   3.831   5.946   1.221
  589SOL    HW2 2667   3.740   5.906   1.350
  590SOL     OW 2668   5.528   1.487   1.106
  590SOL    HW1 2669   5.579   1.515   1.025
  590SOL    HW2 2670   5.556   1.543   1.184
  591SOL     OW 2671   3.664   6.400   3.924
  591SOL    HW1 2672   3.750   6.350   3.910
  591SOL    HW2 2673   3.681   6.498   3.911
  592SOL     OW 2674   4.550   0.696   2.494
  592SOL    HW1 2675   4.601   0.776   2.526
  592SOL    HW2 2676   4.613   0.619   2.482
  593SOL     OW 2677   4.606   1.760   4.151
  593SOL    HW1 2678   4.700   1.749   4.121
  593SOL    HW2 2679   4.550   1.685   4.115
  594SOL     OW 2680   6.590   0.587   1.069
  594SOL    HW1 2681   6.551   0.678   1.084
  594SOL    HW2 2682   6.566   0.555   0.978
  595SOL     OW 2683   5.725   6.746   3.687
  595SOL    HW1 2684   5.653   6.759   3.619
  595SOL    HW2 2685   5.741   6.832   3.735
  596SOL     OW 2686   0.458   4.990   3.156
  596SOL    HW1 2687   0.535   4.928   3.173
  596SOL    HW2 2688   0.489   5.085   3.167
  597SOL     OW 2689   2.606   6.163   6.517
  597SOL    HW1 2690   2.613   6.224   6.439
  597SOL    HW2 2691   2.524   6.185   6.570
  598SOL     OW 2692   3.985   3.894   4.324
  598SOL    HW1 2693   4.058   3.844   4.372
  598SOL    HW2 2694   4.018   3.923   4.235
  599SOL     OW 2695   2.227   5.519   3.081
  599SOL    HW1 2696   2.283   5.583   3.029
  599SOL    HW2 2697   2.188   5.565   3.161
  600SOL     OW 2698   6.511   2.751   5.977
  600SOL    HW1 2699   6.511   2.774   5.880
  600SOL    HW2 2700   6.572   2.673   5.993
  601SOL     OW 2701   1.254   1.496   4.153
  601SOL    HW1 2702   1.247   1.417   4.215
  601SOL    HW2 2703   1.288   1.465   4.064
  602SOL     OW 2704   2.412   0.881   6.213
  602SOL    HW1 2705   2.443   0.811   6.277
  602SOL    HW2 2706   2.489   0.939   6.188
  603SOL     OW 2707   2.590   2.453   5.223
  603SOL    HW1 2708   2.568   2.551   5.219
  603SOL    HW2 2709   2.661   2.438   5.291
  604SOL     OW 2710   1.367   2.021   1.451
  604SOL    HW1 2711   1.302   2.096   1.442
  604SOL    HW2 2712   1.319   1.934   1.439
  605SOL     OW 2713   6.797   5.077   1.939
  605SOL    HW1 2714   6.754   5.141   2.003
  605SOL    HW2 2715   6.737   4.999   1.924
  606SOL     OW 2716   4.754   6.309   5.182
  606SOL    HW1 2717   4.830   6.373   5.173
  606SOL    HW2 2718   4.759   6.240   5.110
  607SOL     OW 2719   6.899   5.159   5.017
  607SOL    HW1 2720   6.915   5.063   5.038
  607SOL    HW2 2721   6.930   5.179   4.924
  608SOL     OW 2722   3.754   6.242   6.865
  608SOL    HW1 2723   3.774   6.337   6.889
  608SOL    HW2 2724   3.660   6.234   6.831
  609SOL     OW 2725   3.870   3.127   2.039
  609SOL    HW1 2726   3.879   3.045   2.096
  609SOL    HW2 2727   3.911   3.205   2.086
  610SOL     OW 2728   5.694   2.996   6.959
  610SOL    HW1 2729   5.601   3.020   6.934
  610SOL    HW2 2730   5.693   2.910   7.010
  611SOL     OW 2731   4.228   0.376   1.771
  611SOL    HW1 2732   4.143   0.344   1.729
  611SOL    HW2 2733   4.257   0.461   1.727
  612SOL     OW 2734   2.933   6.084   4.556
  612SOL    HW1 2735   2.851   6.119   4.602
  612SOL    HW2 2736   2.907   6.030   4.476
  613SOL     OW 2737   5.068   4.177   4.986
  613SOL    HW1 2738   5.136   4.174   5.059
  613SOL    HW2 2739   4.978   4.153   5.023
  614SOL     OW 2740   5.110   4.950   5.323
  614SOL    HW1 2741   5.056   5.005   5.259
  614SOL    HW2 2742   5.113   4.995   5.412
  615SOL     OW 2743   6.726   2.463   1.277
  615SOL    HW1 2744   6.656   2.534   1.286
  615SOL    HW2 2745   6.799   2.480   1.343
  616SOL     OW 2746   6.217   2.068   2.774
  616SOL    HW1 2747   6.240   2.143   2.837
  616SOL    HW2 2748   6.198   1.985   2.827
  617SOL     OW 2749   0.705   4.782   5.644
  617SOL    HW1 2750   0.719   4.853   5.713
  617SOL    HW2 2751   0.608   4.756   5.643
  618SOL     OW 2752   1.435   2.606   0.607
  618SOL    HW1 2753   1.479   2.623   0.518
  618SOL    HW2 2754   1.468   2.674   0.673
  619SOL     OW 2755   2.699   1.821   0.998
  619SOL    HW1 2756   2.742   1.790   1.082
  619SOL    HW2 2757   2.624   1.884   1.020
  620SOL     OW 2758   4.686   2.477   7.008
  620SOL    HW1 2759   4.676   2.576   7.021
  620SOL    HW2 2760   4.620   2.429   0.045
  621SOL     OW 2761   3.353   5.181   6.821
  621SOL    HW1 2762   3.427   5.241   6.852
  621SOL    HW2 2763   3.265   5.221   6.847
  622SOL     OW 2764   0.910   0.708   6.472
  622SOL    HW1 2765   0.931   0.805   6.467
  622SOL    HW2 2766   0.845   0.684   6.400
  623SOL     OW 2767   0.849   6.413   5.908
  623SOL    HW1 2768   0.814   6.320   5.891
  623SOL    HW2 2769   0.779   6.466   5.956
  624SOL     OW 2770   0.793   2.827   1.316
  624SOL    HW1 2771   0.767   2.861   1.226
  624SOL    HW2 2772   0.853   2.747   1.305
  625SOL     OW 2773   2.368   2.693   1.085
  625SOL    HW1 2774   2.324   2.761   1.026
  625SOL    HW2 2775   2.467   2.693   1.069
  626SOL     OW 2776   2.754   5.771   3.753
  626SOL    HW1 2777   2.778   5.676   3.734
  626SOL    HW2 2778   2.662   5.776   3.791
  627SOL     OW 2779   5.315   0.754   0.722
  627SOL    HW1 2780   5.334   0.838   0.672
  627SOL    HW2 2781   5.365   0.753   0.808
  628SOL     OW 2782   5.364   4.882   5.468
  628SOL    HW1 2783   5.293   4.903   5.536
  628SOL    HW2 2784   5.329   4.904   5.377
  629SOL     OW 2785   6.967   6.376   1.145
  629SOL    HW1 2786   6.905   6.401   1.219
  629SOL    HW2 2787   6.957   6.279   1.124
  630SOL     OW 2788   5.805   1.929   2.845
  630SOL    HW1 2789   5.869   1.980   2.788
  630SOL    HW2 2790   5.854   1.888   2.922
  631SOL     OW 2791   3.654   6.724   5.151
  631SOL    HW1 2792   3.740   6.753   5.109
  631SOL    HW2 2793   3.578   6.757   5.096
  632SOL     OW 2794   2.692   1.901   0.565
  632SOL    HW1 2795   2.614   1.905   0.503
  632SOL    HW2 2796   2.668   1.947   0.651
  633SOL     OW 2797   4.099   5.269   0.030
  633SOL    HW1 2798   4.004   5.262   0.061
  633SOL    HW2 2799   4.148   5.334   0.087
  634SOL     OW 2800   4.593   4.481   1.758
  634SOL    HW1 2801   4.692   4.478   1.744
  634SOL    HW2 2802   4.563   4.393   1.794
  635SOL     OW 2803   4.385   6.162   2.799
  635SOL    HW1 2804   4.437   6.198   2.721
  635SOL    HW2 2805   4.301   6.214   2.810
  636SOL     OW 2806   4.954   6.154   6.187
  636SOL    HW1 2807   4.938   6.247   6.152
  636SOL    HW2 2808   4.867   6.115   6.217
  637SOL     OW 2809   6.115   4.241   1.891
  637SOL    HW1 2810   6.048   4.311   1.868
  637SOL    HW2 2811   6.145   4.194   1.807
  638SOL     OW 2812   5.105   1.372   1.946
  638SOL    HW1 2813   5.047   1.364   2.027
  638SOL    HW2 2814   5.159   1.456   1.953
  639SOL     OW 2815   5.059   3.942   2.477
  639SOL    HW1 2816   5.002   3.973   2.401
  639SOL    HW2 2817   5.123   4.015   2.503
  640SOL     OW 2818   1.670   4.932   5.111
  640SOL    HW1 2819   1.606   4.990   5.060
  640SOL    HW2 2820   1.622   4.889   5.187
  641SOL     OW 2821   0.073   5.365   4.656
  641SOL    HW1 2822   7.021   5.384   4.591
  641SOL    HW2 2823   0.142   5.437   4.650
  642SOL     OW 2824   6.707   3.889   4.017
  642SOL    HW1 2825   6.721   3.967   3.956
  642SOL    HW2 2826   6.774   3.818   3.997
  643SOL     OW 2827   6.000   4.378   5.100
  643SOL    HW1 2828   6.060   4.368   5.179
  643SOL    HW2 2829   5.907   4.352   5.125
  644SOL     OW 2830   1.243   6.086   3.188
  644SOL    HW1 2831   1.328   6.118   3.146
  644SOL    HW2 2832   1.167   6.097   3.123
  645SOL     OW 2833   5.013   2.343   4.406
  645SOL    HW1 2834   4.934   2.294   4.370
  645SOL    HW2 2835   5.065   2.382   4.330
  646SOL     OW 2836   2.637   1.869   3.214
  646SOL    HW1 2837   2.557   1.815   3.189
  646SOL    HW2 2838   2.705   1.811   3.258
  647SOL     OW 2839   5.774   2.557   5.902
  647SOL    HW1 2840   5.686   2.519   5.874
  647SOL    HW2 2841   5.766   2.655   5.914
  648SOL     OW 2842   0.134   3.992   3.105
  648SOL    HW1 2843   0.107   3.897   3.122
  648SOL    HW2 2844   0.072   4.053   3.154
  649SOL     OW 2845   4.229   4.022   0.480
  649SOL    HW1 2846   4.146   4.055   0.525
  649SOL    HW2 2847   4.226   3.922   0.475
  650SOL     OW 2848   5.290   4.210   0.965
  650SOL    HW1 2849   5.326   4.214   0.872
  650SOL    HW2 2850   5.327   4.131   1.013
  651SOL     OW 2851   0.405   6.869   0.126
  651SOL    HW1 2852   0.383   6.818   0.044
  651SOL    HW2 2853   0.478   6.823   0.176
  652SOL     OW 2854   5.133   6.149   3.902
  652SOL    HW1 2855   5.146   6.238   3.946
  652SOL    HW2 2856   5.222   6.114   3.871
  653SOL     OW 2857   3.382   5.652   5.291
  653SOL    HW1 2858   3.430   5.740   5.289
  653SOL    HW2 2859   3.429   5.590   5.354
  654SOL     OW 2860   0.382   4.701   5.744
  654SOL    HW1 2861   0.319   4.733   5.674
  654SOL    HW2 2862   0.433   4.622   5.711
  655SOL     OW 2863   0.588   6.891   2.342
  655SOL    HW1 2864   0.643   6.963   2.384
  655SOL    HW2 2865   0.616   6.880   2.246
  656SOL     OW 2866   1.816   5.889   1.291
  656SOL    HW1 2867   1.777   5.867   1.381
  656SOL    HW2 2868   1.912   5.858   1.289
  657SOL     OW 2869   2.139   1.970   1.572
  657SOL    HW1 2870   2.138   2.054   1.517
  657SOL    HW2 2871   2.225   1.966   1.624
  658SOL     OW 2872   3.131   3.697   6.183
  658SOL    HW1 2873   3.187   3.631   6.134
  658SOL    HW2 2874   3.117   3.666   6.277
  659SOL     OW 2875   2.936   6.431   6.555
  659SOL    HW1 2876   2.928   6.529   6.570
  659SOL    HW2 2877   2.873   6.402   6.483
  660SOL     OW 2878   4.884   4.449   1.760
  660SOL    HW1 2879   4.955   4.467   1.828
  660SOL    HW2 2880   4.920   4.388   1.689
  661SOL     OW 2881   4.643   6.101   3.857
  661SOL    HW1 2882   4.656   6.029   3.789
  661SOL    HW2 2883   4.548   6.101   3.888
  662SOL     OW 2884   3.924   0.566   5.187
  662SOL    HW1 2885   3.843   0.589   5.133
  662SOL    HW2 2886   3.913   0.473   5.224
  663SOL     OW 2887   2.427   3.476   6.121
  663SOL    HW1 2888   2.338   3.461   6.079
  663SOL    HW2 2889   2.494   3.414   6.080
  664SOL     OW 2890   0.499   6.366   6.398
  664SOL    HW1 2891   0.526   6.452   6.441
  664SOL    HW2 2892   0.399   6.361   6.394
  665SOL     OW 2893   4.284   5.607   1.795
  665SOL    HW1 2894   4.358   5.617   1.861
  665SOL    HW2 2895   4.280   5.513   1.761
  666SOL     OW 2896   5.332   1.056   2.025
  666SOL    HW1 2897   5.247   1.044   1.974
  666SOL    HW2 2898   5.368   1.148   2.007
  667SOL     OW 2899   1.133   5.262   2.597
  667SOL    HW1 2900   1.208   5.254   2.663
  667SOL    HW2 2901   1.048   5.282   2.646
  668SOL     OW 2902   4.788   6.448   6.313
  668SOL    HW1 2903   4.803   6.425   6.217
  668SOL    HW2 2904   4.758   6.543   6.321
  669SOL     OW 2905   5.244   0.543   3.371
  669SOL    HW1 2906   5.289   0.626   3.406
  669SOL    HW2 2907   5.146   0.550   3.386
  670SOL     OW 2908   2.987   2.124   1.999
  670SOL    HW1 2909   2.944   2.213   1.985
  670SOL    HW2 2910   3.016   2.116   2.095
  671SOL     OW 2911   3.462   6.322   0.877
  671SOL    HW1 2912   3.463   6.251   0.948
  671SOL    HW2 2913   3.470   6.412   0.920
  672SOL     OW 2914   6.435   5.386   1.989
  672SOL    HW1 2915   6.447   5.485   1.987
  672SOL    HW2 2916   6.435   5.350   1.896
  673SOL     OW 2917   6.477   6.844   0.913
  673SOL    HW1 2918   6.386   6.849   0.873
  673SOL    HW2 2919   6.546   6.841   0.840
  674SOL     OW 2920   0.439   1.515   4.738
  674SOL    HW1 2921   0.381   1.459   4.798
  674SOL    HW2 2922   0.381   1.561   4.670
  675SOL     OW 2923   5.886   2.155   2.495
  675SOL    HW1 2924   5.878   2.172   2.593
  675SOL    HW2 2925   5.893   2.242   2.446
  676SOL     OW 2926   3.001   5.491   3.795
  676SOL    HW1 2927   2.938   5.418   3.770
  676SOL    HW2 2928   3.049   5.466   3.879
  677SOL     OW 2929   5.107   1.310   0.431
  677SOL    HW1 2930   5.142   1.216   0.441
  677SOL    HW2 2931   5.032   1.325   0.495
  678SOL     OW 2932   2.673   6.018   5.042
  678SOL    HW1 2933   2.652   6.112   5.015
  678SOL    HW2 2934   2.590   5.963   5.037
  679SOL     OW 2935   4.872   1.767   4.027
  679SOL    HW1 2936   4.967   1.741   4.042
  679SOL    HW2 2937   4.865   1.867   4.021
  680SOL     OW 2938   5.145   5.914   4.778
  680SOL    HW1 2939   5.188   6.004   4.779
  680SOL    HW2 2940   5.161   5.868   4.866
  681SOL     OW 2941   4.605   5.710   1.671
  681SOL    HW1 2942   4.607   5.746   1.764
  681SOL    HW2 2943   4.591   5.786   1.606
  682SOL     OW 2944   6.039   1.230   1.833
  682SOL    HW1 2945   6.012   1.172   1.757
  682SOL    HW2 2946   5.987   1.316   1.829
  683SOL     OW 2947   4.448   2.593   0.517
  683SOL    HW1 2948   4.476   2.522   0.453
  683SOL    HW2 2949   4.348   2.599   0.519
  684SOL     OW 2950   6.504   1.063   0.811
  684SOL    HW1 2951   6.430   1.096   0.752
  684SOL    HW2 2952   6.543   0.979   0.773
  685SOL     OW 2953   3.131   1.876   4.060
  685SOL    HW1 2954   3.070   1.810   4.103
  685SOL    HW2 2955   3.211   1.890   4.118
  686SOL     OW 2956   4.625   2.243   4.538
  686SOL    HW1 2957   4.581   2.286   4.617
  686SOL    HW2 2958   4.702   2.299   4.508
  687SOL     OW 2959   0.934   2.156   4.003
  687SOL    HW1 2960   1.033   2.143   4.007
  687SOL    HW2 2961   0.898   2.166   4.096
  688SOL     OW 2962   0.500   1.473   6.327
  688SOL    HW1 2963   0.549   1.476   6.414
  688SOL    HW2 2964   0.416   1.526   6.334
  689SOL     OW 2965   1.299   4.522   5.958
  689SOL    HW1 2966   1.244   4.584   5.903
  689SOL    HW2 2967   1.247   4.493   6.038
  690SOL     OW 2968   6.681   3.239   3.080
  690SOL    HW1 2969   6.743   3.241   3.001
  690SOL    HW2 2970   6.611   3.309   3.069
  691SOL     OW 2971   3.389   1.608   6.969
  691SOL    HW1 2972   3.355   1.691   6.925
  691SOL    HW2 2973   3.411   1.540   6.899
  692SOL     OW 2974   4.439   2.384   4.279
  692SOL    HW1 2975   4.503   2.456   4.304
  692SOL    HW2 2976   4.424   2.324   4.357
  693SOL     OW 2977   4.693   6.608   3.990
  693SOL    HW1 2978   4.651   6.669   3.922
  693SOL    HW2 2979   4.623   6.546   4.026
  694SOL     OW 2980   4.234   6.946   4.957
  694SOL    HW1 2981   4.291   7.004   4.900
  694SOL    HW2 2982   4.286   6.867   4.988
  695SOL     OW 2983   3.832   6.723   3.752
  695SOL    HW1 2984   3.917   6.687   3.714
  695SOL    HW2 2985   3.824   6.821   3.730
  696SOL     OW 2986   5.226   4.585   3.323
  696SOL    HW1 2987   5.313   4.630   3.300
  696SOL    HW2 2988   5.190   4.625   3.407
  697SOL     OW 2989   1.550   3.856   2.381
  697SOL    HW1 2990   1.601   3.870   2.296
  697SOL    HW2 2991   1.571   3.930   2.445
  698SOL     OW 2992   5.387   6.372   1.355
  698SOL    HW1 2993   5.346   6.426   1.281
  698SOL    HW2 2994   5.346   6.398   1.442
  699SOL     OW 2995   1.755   3.830   0.182
  699SOL    HW1 2996   1.789   3.793   0.095
  699SOL    HW2 2997   1.787   3.925   0.192
  700SOL     OW 2998   3.533   0.329   2.265
  700SOL    HW1 2999   3.633   0.324   2.267
  700SOL    HW2 3000   3.498   0.333   2.358
  701SOL     OW 3001   6.729   3.927   0.084
  701SOL    HW1 3002   6.657   3.947   0.017
  701SOL    HW2 3003   6.687   3.891   0.167
  702SOL     OW 3004   1.651   6.168   4.758
  702SOL    HW1 3005   1.707   6.168   4.675
  702SOL    HW2 3006   1.620   6.261   4.778
  703SOL     OW 3007   3.751   3.525   5.819
  703SOL    HW1 3008   3.849   3.539   5.838
  703SOL    HW2 3009   3.726   3.573   5.735
  704SOL     OW 3010   1.452   2.731   6.280
  704SOL    HW1 3011   1.523   2.801   6.277
  704SOL    HW2 3012   1.462   2.670   6.201
  705SOL     OW 3013   5.503   5.742   2.850
  705SOL    HW1 3014   5.562   5.699   2.781
  705SOL    HW2 3015   5.480   5.834   2.821
  706SOL     OW 3016   4.044   1.863   5.314
  706SOL    HW1 3017   4.070   1.770   5.339
  706SOL    HW2 3018   3.958   1.862   5.265
  707SOL     OW 3019   4.338   4.573   3.098
  707SOL    HW1 3020   4.336   4.578   2.998
  707SOL    HW2 3021   4.429   4.546   3.128
  708SOL     OW 3022   2.797   0.854   2.857
  708SOL    HW1 3023   2.848   0.931   2.897
  708SOL    HW2 3024   2.859   0.778   2.840
  709SOL     OW 3025   1.333   5.732   0.701
  709SOL    HW1 3026   1.275   5.803   0.662
  709SOL    HW2 3027   1.381   5.769   0.782
  710SOL     OW 3028   4.330   2.128   1.143
  710SOL    HW1 3029   4.330   2.223   1.175
  710SOL    HW2 3030   4.257   2.115   1.077
  711SOL     OW 3031   0.264   2.678   5.935
  711SOL    HW1 3032   0.176   2.648   5.897
  711SOL    HW2 3033   0.337   2.661   5.868
  712SOL     OW 3034   4.718   2.567   0.727
  712SOL    HW1 3035   4.808   2.575   0.770
  712SOL    HW2 3036   4.685   2.473   0.735
  713SOL     OW 3037   4.038   3.622   5.888
  713SOL    HW1 3038   4.063   3.530   5.919
  713SOL    HW2 3039   4.055   3.687   5.961
  714SOL     OW 3040   0.125   4.999   4.001
  714SOL    HW1 3041   0.047   4.993   3.938
  714SOL    HW2 3042   0.194   5.061   3.962
  715SOL     OW 3043   5.520   6.135   6.637
  715SOL    HW1 3044   5.433   6.181   6.652
  715SOL    HW2 3045   5.517   6.086   6.550
  716SOL     OW 3046   0.970   1.064   2.425
  716SOL    HW1 3047   1.059   1.095   2.458
  716SOL    HW2 3048   0.942   0.982   2.475
  717SOL     OW 3049   6.890   4.741   4.251
  717SOL    HW1 3050   6.905   4.715   4.156
  717SOL    HW2 3051   6.831   4.822   4.255
  718SOL     OW 3052   4.468   3.504   5.867
  718SOL    HW1 3053   4.527   3.474   5.792
  718SOL    HW2 3054   4.450   3.602   5.859
  719SOL     OW 3055   5.817   0.010   2.778
  719SOL    HW1 3056   5.887   6.997   2.841
  719SOL    HW2 3057   5.805   6.967   2.702
  720SOL     OW 3058   2.063   0.448   6.388
  720SOL    HW1 3059   2.064   0.354   6.357
  720SOL    HW2 3060   2.018   0.506   6.320
  721SOL     OW 3061   2.488   1.361   2.134
  721SOL    HW1 3062   2.560   1.355   2.064
  721SOL    HW2 3063   2.529   1.346   2.224
  722SOL     OW 3064   3.021   0.724   5.686
  722SOL    HW1 3065   3.066   0.717   5.775
  722SOL    HW2 3066   2.948   0.657   5.680
  723SOL     OW 3067   2.227   5.144   3.540
  723SOL    HW1 3068   2.272   5.054   3.548
  723SOL    HW2 3069   2.269   5.208   3.604
  724SOL     OW 3070   0.714   1.250   3.349
  724SOL    HW1 3071   0.771   1.172   3.323
  724SOL    HW2 3072   0.631   1.216   3.394
  725SOL     OW 3073   1.401   4.861   2.801
  725SOL    HW1 3074   1.405   4.931   2.730
  725SOL    HW2 3075   1.406   4.771   2.760
  726SOL     OW 3076   2.797   4.991   1.385
  726SOL    HW1 3077   2.851   4.990   1.469
  726SOL    HW2 3078   2.763   5.083   1.369
  727SOL     OW 3079   5.172   4.619   6.132
  727SOL    HW1 3080   5.178   4.591   6.036
  727SOL    HW2 3081   5.180   4.538   6.191
  728SOL     OW 3082   6.345   3.406   4.159
  728SOL    HW1 3083   6.330   3.385   4.256
  728SOL    HW2 3084   6.443   3.414   4.142
  729SOL     OW 3085   0.134   2.852   1.325
  729SOL    HW1 3086   0.186   2.767   1.333
  729SOL    HW2 3087   0.193   2.923   1.286
  730SOL     OW 3088   0.024   0.123   4.184
  730SOL    HW1 3089   0.071   0.210   4.204
  730SOL    HW2 3090   0.080   0.047   4.217
  731SOL     OW 3091   4.870   5.283   6.287
  731SOL    HW1 3092   4.833   5.358   6.232
  731SOL    HW2 3093   4.913   5.215   6.227
  732SOL     OW 3094   5.977   2.494   2.475
  732SOL    HW1 3095   5.916   2.565   2.510
  732SOL    HW2 3096   5.945   2.462   2.386
  733SOL     OW 3097   5.361   0.268   5.628
  733SOL    HW1 3098   5.386   0.308   5.540
  733SOL    HW2 3099   5.301   0.331   5.677
  734SOL     OW 3100   5.998   5.409   2.450
  734SOL    HW1 3101   5.983   5.342   2.522
  734SOL    HW2 3102   6.062   5.479   2.482
  735SOL     OW 3103   4.040   1.615   0.602
  735SOL    HW1 3104   4.127   1.661   0.585
  735SOL    HW2 3105   3.970   1.683   0.623
  736SOL     OW 3106   0.994   1.287   3.737
  736SOL    HW1 3107   0.965   1.354   3.806
  736SOL    HW2 3108   1.090   1.262   3.753
  737SOL     OW 3109   5.249   1.798   6.036
  737SOL    HW1 3110   5.330   1.842   5.998
  737SOL    HW2 3111   5.276   1.730   6.104
  738SOL     OW 3112   2.921   3.658   1.470
  738SOL    HW1 3113   2.866   3.575   1.484
  738SOL    HW2 3114   2.962   3.686   1.557
  739SOL     OW 3115   4.144   0.379   4.423
  739SOL    HW1 3116   4.144   0.286   4.461
  739SOL    HW2 3117   4.152   0.445   4.498
  740SOL     OW 3118   5.508   1.695   3.156
  740SOL    HW1 3119   5.534   1.622   3.093
  740SOL    HW2 3120   5.589   1.747   3.183
  741SOL     OW 3121   1.941   0.271   3.909
  741SOL    HW1 3122   1.919   0.344   3.844
  741SOL    HW2 3123   1.938   0.308   4.002
  742SOL     OW 3124   1.878   6.391   1.360
  742SOL    HW1 3125   1.870   6.457   1.285
  742SOL    HW2 3126   1.965   6.343   1.354
  743SOL     OW 3127   0.134   5.358   3.336
  743SOL    HW1 3128   0.040   5.390   3.324
  743SOL    HW2 3129   0.195   5.414   3.279
  744SOL     OW 3130   5.671   0.588   0.822
  744SOL    HW1 3131   5.732   0.539   0.760
  744SOL    HW2 3132   5.591   0.532   0.843
  745SOL     OW 3133   1.890   5.714   5.227
  745SOL    HW1 3134   1.984   5.702   5.195
  745SOL    HW2 3135   1.846   5.625   5.238
  746SOL     OW 3136   6.213   3.510   6.120
  746SOL    HW1 3137   6.313   3.513   6.111
  746SOL    HW2 3138   6.173   3.586   6.069
  747SOL     OW 3139   4.196   5.876   4.867
  747SOL    HW1 3140   4.116   5.821   4.890
  747SOL    HW2 3141   4.208   5.948   4.936
  748SOL     OW 3142   4.587   5.510   2.237
  748SOL    HW1 3143   4.518   5.578   2.263
  748SOL    HW2 3144   4.651   5.498   2.313
  749SOL     OW 3145   5.873   3.757   4.613
  749SOL    HW1 3146   5.902   3.664   4.592
  749SOL    HW2 3147   5.805   3.787   4.546
  750SOL     OW 3148   2.386   1.283   1.607
  750SOL    HW1 3149   2.321   1.263   1.533
  750SOL    HW2 3150   2.476   1.244   1.584
  751SOL     OW 3151   4.278   1.582   0.303
  751SOL    HW1 3152   4.208   1.653   0.291
  751SOL    HW2 3153   4.340   1.583   0.225
  752SOL     OW 3154   2.882   3.230   0.328
  752SOL    HW1 3155   2.822   3.154   0.304
  752SOL    HW2 3156   2.952   3.198   0.393
  753SOL     OW 3157   1.515   3.426   5.863
  753SOL    HW1 3158   1.600   3.393   5.822
  753SOL    HW2 3159   1.525   3.523   5.886
  754SOL     OW 3160   4.734   1.737   6.391
  754SOL    HW1 3161   4.680   1.809   6.436
  754SOL    HW2 3162   4.806   1.707   6.453
  755SOL     OW 3163   2.639   4.612   5.522
  755SOL    HW1 3164   2.736   4.599   5.500
  755SOL    HW2 3165   2.583   4.569   5.451
  756SOL     OW 3166   2.441   5.367   6.995
  756SOL    HW1 3167   2.407   5.461   6.988
  756SOL    HW2 3168   2.395   5.321   0.050
  757SOL     OW 3169   1.787   5.787   3.624
  757SOL    HW1 3170   1.787   5.874   3.673
  757SOL    HW2 3171   1.701   5.778   3.572
  758SOL     OW 3172   4.191   0.890   3.215
  758SOL    HW1 3173   4.148   0.949   3.147
  758SOL    HW2 3174   4.148   0.905   3.304
  759SOL     OW 3175   0.312   2.831   2.613
  759SOL    HW1 3176   0.374   2.879   2.551
  759SOL    HW2 3177   0.222   2.874   2.610
  760SOL     OW 3178   6.132   6.846   3.987
  760SOL    HW1 3179   6.039   6.814   3.969
  760SOL    HW2 3180   6.196   6.770   3.980
  761SOL     OW 3181   5.575   4.449   6.574
  761SOL    HW1 3182   5.577   4.376   6.642
  761SOL    HW2 3183   5.563   4.410   6.483
  762SOL     OW 3184   3.126   0.136   5.488
  762SOL    HW1 3185   3.031   0.119   5.510
  762SOL    HW2 3186   3.160   0.065   5.427
  763SOL     OW 3187   4.271   6.532   6.236
  763SOL    HW1 3188   4.227   6.546   6.325
  763SOL    HW2 3189   4.218   6.578   6.165
  764SOL     OW 3190   5.099   0.856   5.901
  764SOL    HW1 3191   5.056   0.766   5.894
  764SOL    HW2 3192   5.029   0.925   5.916
  765SOL     OW 3193   1.574   6.198   0.531
  765SOL    HW1 3194   1.510   6.263   0.490
  765SOL    HW2 3195   1.546   6.105   0.508
  766SOL     OW 3196   2.861   1.713   5.303
  766SOL    HW1 3197   2.875   1.710   5.402
  766SOL    HW2 3198   2.792   1.782   5.281
  767SOL     OW 3199   6.444   6.745   3.719
  767SOL    HW1 3200   6.493   6.736   3.805
  767SOL    HW2 3201   6.353   6.703   3.728
  768SOL     OW 3202   1.826   5.523   3.604
  768SOL    HW1 3203   1.819   5.616   3.642
  768SOL    HW2 3204   1.885   5.468   3.663
  769SOL     OW 3205   3.134   0.956   5.588
  769SOL    HW1 3206   3.050   0.998   5.555
  769SOL    HW2 3207   3.113   0.869   5.632
  770SOL     OW 3208   1.692   5.338   3.956
  770SOL    HW1 3209   1.715   5.273   3.884
  770SOL    HW2 3210   1.775   5.383   3.989
  771SOL     OW 3211   1.288   4.748   3.021
  771SOL    HW1 3212   1.336   4.761   2.935
  771SOL    HW2 3213   1.213   4.813   3.028
  772SOL     OW 3214   6.271   4.742   6.552
  772SOL    HW1 3215   6.257   4.687   6.634
  772SOL    HW2 3216   6.211   4.707   6.479
  773SOL     OW 3217   0.766   3.808   3.078
  773SOL    HW1 3218   0.760   3.712   3.107
  773SOL    HW2 3219   0.758   3.813   2.979
  774SOL     OW 3220   1.633   1.856   2.663
  774SOL    HW1 3221   1.687   1.827   2.743
  774SOL    HW2 3222   1.694   1.890   2.592
  775SOL     OW 3223   2.264   1.789   3.983
  775SOL    HW1 3224   2.326   1.836   4.046
  775SOL    HW2 3225   2.268   1.833   3.893
  776SOL     OW 3226   6.906   0.938   6.371
  776SOL    HW1 3227   6.904   0.953   6.273
  776SOL    HW2 3228   6.996   0.904   6.398
  777SOL     OW 3229   1.975   4.416   1.292
  777SOL    HW1 3230   1.903   4.473   1.253
  777SOL    HW2 3231   1.937   4.363   1.369
  778SOL     OW 3232   2.128   0.102   1.341
  778SOL    HW1 3233   2.166   0.011   1.357
  778SOL    HW2 3234   2.163   0.165   1.410
  779SOL     OW 3235   6.653   1.784   2.279
  779SOL    HW1 3236   6.677   1.773   2.376
  779SOL    HW2 3237   6.727   1.749   2.222
  780SOL     OW 3238   0.829   2.210   4.260
  780SOL    HW1 3239   0.828   2.124   4.313
  780SOL    HW2 3240   0.750   2.265   4.286
  781SOL     OW 3241   5.704   5.652   0.436
  781SOL    HW1 3242   5.699   5.596   0.518
  781SOL    HW2 3243   5.617   5.698   0.421
  782SOL     OW 3244   1.703   3.841   5.662
  782SOL    HW1 3245   1.700   3.938   5.686
  782SOL    HW2 3246   1.612   3.811   5.634
  783SOL     OW 3247   5.520   4.671   1.309
  783SOL    HW1 3248   5.436   4.677   1.255
  783SOL    HW2 3249   5.569   4.587   1.284
  784SOL     OW 3250   4.035   5.084   1.843
  784SOL    HW1 3251   4.023   5.176   1.881
  784SOL    HW2 3252   3.964   5.024   1.880
  785SOL     OW 3253   0.540   1.098   3.474
  785SOL    HW1 3254   0.579   1.066   3.560
  785SOL    HW2 3255   0.446   1.128   3.489
  786SOL     OW 3256   6.970   0.855   2.593
  786SOL    HW1 3257   6.880   0.865   2.636
  786SOL    HW2 3258   0.019   0.886   2.657
  787SOL     OW 3259   1.593   6.944   6.701
  787SOL    HW1 3260   1.583   6.859   6.754
  787SOL    HW2 3261   1.657   6.929   6.626
  788SOL     OW 3262   4.419   2.437   0.968
  788SOL    HW1 3263   4.335   2.445   0.915
  788SOL    HW2 3264   4.477   2.517   0.952
  789SOL     OW 3265   4.680   5.238   2.045
  789SOL    HW1 3266   4.721   5.238   2.136
  789SOL    HW2 3267   4.590   5.194   2.049
  790SOL     OW 3268   2.546   1.051   2.348
  790SOL    HW1 3269   2.528   1.149   2.348
  790SOL    HW2 3270   2.636   1.034   2.387
  791SOL     OW 3271   2.223   5.965   5.433
  791SOL    HW1 3272   2.289   5.994   5.502
  791SOL    HW2 3273   2.263   5.893   5.377
  792SOL     OW 3274   0.745   0.498   2.117
  792SOL    HW1 3275   0.713   0.578   2.066
  792SOL    HW2 3276   0.668   0.453   2.161
  793SOL     OW 3277   5.158   5.621   5.112
  793SOL    HW1 3278   5.216   5.546   5.144
  793SOL    HW2 3279   5.094   5.587   5.043
  794SOL     OW 3280   3.069   3.652   5.554
  794SOL    HW1 3281   3.090   3.564   5.597
  794SOL    HW2 3282   3.152   3.706   5.546
  795SOL     OW 3283   3.853   0.213   5.578
  795SOL    HW1 3284   3.763   0.257   5.580
  795SOL    HW2 3285   3.900   0.240   5.494
  796SOL     OW 3286   1.297   2.802   0.328
  796SOL    HW1 3287   1.233   2.783   0.253
  796SOL    HW2 3288   1.374   2.738   0.322
  797SOL     OW 3289   4.484   0.620   0.897
  797SOL    HW1 3290   4.495   0.542   0.959
  797SOL    HW2 3291   4.569   0.635   0.847
  798SOL     OW 3292   3.773   6.258   1.682
  798SOL    HW1 3293   3.756   6.294   1.591
  798SOL    HW2 3294   3.829   6.175   1.675
  799SOL     OW 3295   0.783   0.357   6.515
  799SOL    HW1 3296   0.777   0.442   6.463
  799SOL    HW2 3297   0.863   0.305   6.484
  800SOL     OW 3298   6.806   1.002   2.423
  800SOL    HW1 3299   6.713   0.966   2.414
  800SOL    HW2 3300   6.869   0.927   2.445
  801SOL     OW 3301   2.243   4.246   5.247
  801SOL    HW1 3302   2.304   4.325   5.251
  801SOL    HW2 3303   2.284   4.174   5.190
  802SOL     OW 3304   3.238   2.420   7.017
  802SOL    HW1 3305   3.172   2.366   6.965
  802SOL    HW2 3306   3.226   2.402   0.093
  803SOL     OW 3307   1.481   0.183   5.707
  803SOL    HW1 3308   1.499   0.087   5.685
  803SOL    HW2 3309   1.382   0.198   5.714
  804SOL     OW 3310   6.507   0.065   1.595
  804SOL    HW1 3311   6.598   0.060   1.637
  804SOL    HW2 3312   6.441   0.018   1.653
  805SOL     OW 3313   1.721   0.932   4.027
  805SOL    HW1 3314   1.785   0.855   4.032
  805SOL    HW2 3315   1.637   0.903   3.981
  806SOL     OW 3316   6.097   0.472   6.545
  806SOL    HW1 3317   6.135   0.383   6.572
  806SOL    HW2 3318   5.997   0.468   6.548
  807SOL     OW 3319   0.615   6.872   3.866
  807SOL    HW1 3320   0.531   6.852   3.917
  807SOL    HW2 3321   0.617   6.818   3.782
  808SOL     OW 3322   5.043   3.151   6.763
  808SOL    HW1 3323   5.025   3.223   6.830
  808SOL    HW2 3324   5.132   3.167   6.720
  809SOL     OW 3325   1.304   4.920   0.844
  809SOL    HW1 3326   1.376   4.949   0.907
  809SOL    HW2 3327   1.310   4.821   0.829
  810SOL     OW 3328   3.158   4.098   0.088
  810SOL    HW1 3329   3.090   4.032   0.056
  810SOL    HW2 3330   3.248   4.074   0.053
  811SOL     OW 3331   5.087   5.402   4.159
  811SOL    HW1 3332   5.130   5.459   4.229
  811SOL    HW2 3333   4.995   5.377   4.188
  812SOL     OW 3334   0.205   1.927   1.860
  812SOL    HW1 3335   0.213   2.013   1.909
  812SOL    HW2 3336   0.296   1.887   1.847
  813SOL     OW 3337   2.599   0.372   4.451
  813SOL    HW1 3338   2.635   0.314   4.524
  813SOL    HW2 3339   2.667   0.379   4.377
  814SOL     OW 3340   6.357   5.989   2.795
  814SOL    HW1 3341   6.378   5.913   2.733
  814SOL    HW2 3342   6.431   6.056   2.791
  815SOL     OW 3343   5.703   3.098   3.345
  815SOL    HW1 3344   5.795   3.059   3.345
  815SOL    HW2 3345   5.709   3.197   3.352
  816SOL     OW 3346   5.094   5.244   0.165
  816SOL    HW1 3347   5.025   5.315   0.149
  816SOL    HW2 3348   5.140   5.263   0.252
  817SOL     OW 3349   0.811   5.312   1.695
  817SOL    HW1 3350   0.785   5.243   1.762
  817SOL    HW2 3351   0.789   5.403   1.732
  818SOL     OW 3352   5.606   3.035   3.678
  818SOL    HW1 3353   5.580   2.962   3.616
  818SOL    HW2 3354   5.525   3.070   3.725
  819SOL     OW 3355   6.141   2.352   1.546
  819SOL    HW1 3356   6.230   2.313   1.521
  819SOL    HW2 3357   6.139   2.370   1.644
  820SOL     OW 3358   2.981   2.149   4.809
  820SOL    HW1 3359   2.962   2.208   4.888
  820SOL    HW2 3360   3.078   2.124   4.808
  821SOL     OW 3361   6.382   4.758   6.186
  821SOL    HW1 3362   6.433   4.696   6.126
  821SOL    HW2 3363   6.436   4.776   6.269
  822SOL     OW 3364   0.001   3.442   3.032
  822SOL    HW1 3365   6.960   3.474   3.103
  822SOL    HW2 3366   0.037   3.352   3.057
  823SOL     OW 3367   6.459   4.051   6.658
  823SOL    HW1 3368   6.386   3.983   6.660
  823SOL    HW2 3369   6.537   4.015   6.607
  824SOL     OW 3370   4.785   0.917   6.000
  824SOL    HW1 3371   4.836   1.002   6.018
  824SOL    HW2 3372   4.764   0.911   5.902
  825SOL     OW 3373   6.427   5.729   0.834
  825SOL    HW1 3374   6.448   5.807   0.894
  825SOL    HW2 3375   6.512   5.693   0.796
  826SOL     OW 3376   3.544   2.356   5.763
  826SOL    HW1 3377   3.465   2.401   5.720
  826SOL    HW2 3378   3.628   2.399   5.731
  827SOL     OW 3379   2.850   4.137   5.274
  827SOL    HW1 3380   2.847   4.112   5.370
  827SOL    HW2 3381   2.900   4.067   5.223
  828SOL     OW 3382   5.941   6.104   6.524
  828SOL    HW1 3383   5.990   6.160   6.458
  828SOL    HW2 3384   6.007   6.053   6.580
  829SOL     OW 3385   3.556   3.201   1.889
  829SOL    HW1 3386   3.610   3.163   1.964
  829SOL    HW2 3387   3.492   3.133   1.855
  830SOL     OW 3388   5.956   5.223   6.863
  830SOL    HW1 3389   6.020   5.272   6.922
  830SOL    HW2 3390   5.883   5.286   6.835
  831SOL     OW 3391   6.102   0.033   1.054
  831SOL    HW1 3392   6.060   0.122   1.070
  831SOL    HW2 3393   6.034   6.983   1.069
  832SOL     OW 3394   4.383   1.908   4.035
  832SOL    HW1 3395   4.414   1.967   3.960
  832SOL    HW2 3396   4.461   1.879   4.089
  833SOL     OW 3397   2.152   3.593   5.787
  833SOL    HW1 3398   2.083   3.646   5.737
  833SOL    HW2 3399   2.231   3.651   5.805
  834SOL     OW 3400   5.355   3.670   1.105
  834SOL    HW1 3401   5.290   3.610   1.059
  834SOL    HW2 3402   5.366   3.641   1.200
  835SOL     OW 3403   2.343   0.535   4.719
  835SOL    HW1 3404   2.256   0.491   4.745
  835SOL    HW2 3405   2.330   0.634   4.715
  836SOL     OW 3406   3.422   0.993   5.114
  836SOL    HW1 3407   3.327   0.980   5.143
  836SOL    HW2 3408   3.481   0.927   5.160
  837SOL     OW 3409   0.527   0.171   0.627
  837SOL    HW1 3410   0.498   0.222   0.708
  837SOL    HW2 3411   0.586   0.230   0.571
  838SOL     OW 3412   2.400   6.232   4.707
  838SOL    HW1 3413   2.342   6.284   4.645
  838SOL    HW2 3414   2.392   6.134   4.686
  839SOL     OW 3415   2.199   1.329   1.799
  839SOL    HW1 3416   2.167   1.424   1.796
  839SOL    HW2 3417   2.258   1.312   1.720
  840SOL     OW 3418   6.487   5.223   0.468
  840SOL    HW1 3419   6.578   5.247   0.434
  840SOL    HW2 3420   6.471   5.125   0.458
  841SOL     OW 3421   3.356   5.505   6.064
  841SOL    HW1 3422   3.286   5.519   6.133
  841SOL    HW2 3423   3.375   5.407   6.056
  842SOL     OW 3424   3.803   6.864   6.297
  842SOL    HW1 3425   3.902   6.865   6.316
  842SOL    HW2 3426   3.755   6.907   6.373
  843SOL     OW 3427   1.644   1.953   1.857
  843SOL    HW1 3428   1.681   1.946   1.764
  843SOL    HW2 3429   1.646   1.863   1.901
  844SOL     OW 3430   6.940   6.803   1.213
  844SOL    HW1 3431   6.941   6.793   1.313
  844SOL    HW2 3432   6.847   6.793   1.179
  845SOL     OW 3433   5.161   3.906   3.268
  845SOL    HW1 3434   5.140   3.929   3.173
  845SOL    HW2 3435   5.091   3.844   3.304
  846SOL     OW 3436   2.701   0.616   5.657
  846SOL    HW1 3437   2.627   0.572   5.707
  846SOL    HW2 3438   2.743   0.551   5.594
  847SOL     OW 3439   2.029   2.983   1.865
  847SOL    HW1 3440   2.079   3.014   1.784
  847SOL    HW2 3441   2.092   2.979   1.943
  848SOL     OW 3442   6.555   0.003   5.900
  848SOL    HW1 3443   6.507   6.997   5.983
  848SOL    HW2 3444   6.626   0.070   5.922
  849SOL     OW 3445   6.176   4.190   6.047
  849SOL    HW1 3446   6.249   4.259   6.055
  849SOL    HW2 3447   6.092   4.234   6.015
  850SOL     OW 3448   6.441   0.059   5.015
  850SOL    HW1 3449   6.384   6.998   5.025
  850SOL    HW2 3450   6.457   0.100   5.104
  851SOL     OW 3451   7.003   2.724   6.813
  851SOL    HW1 3452   0.044   2.802   6.816
  851SOL    HW2 3453   0.016   2.651   6.872
  852SOL     OW 3454   1.056   4.792   0.659
  852SOL    HW1 3455   1.050   4.890   0.679
  852SOL    HW2 3456   1.064   4.779   0.561
  853SOL     OW 3457   0.887   4.700   6.942
  853SOL    HW1 3458   0.873   4.607   6.908
  853SOL    HW2 3459   0.969   4.739   6.898
  854SOL     OW 3460   4.908   5.814   7.017
  854SOL    HW1 3461   4.849   5.877   0.046
  854SOL    HW2 3462   4.990   5.795   0.049
  855SOL     OW 3463   6.688   0.154   0.503
  855SOL    HW1 3464   6.689   0.191   0.410
  855SOL    HW2 3465   6.682   0.229   0.569
  856SOL     OW 3466   1.369   1.302   6.955
  856SOL    HW1 3467   1.283   1.277   7.000
  856SOL    HW2 3468   1.420   1.365   7.013
  857SOL     OW 3469   6.197   5.331   2.172
  857SOL    HW1 3470   6.129   5.338   2.099
  857SOL    HW2 3471   6.288   5.349   2.134
  858SOL     OW 3472   3.370   4.898   1.033
  858SOL    HW1 3473   3.435   4.935   1.100
  858SOL    HW2 3474   3.409   4.904   0.942
  859SOL     OW 3475   5.989   6.136   5.319
  859SOL    HW1 3476   5.982   6.125   5.418
  859SOL    HW2 3477   5.901   6.117   5.276
  860SOL     OW 3478   6.084   2.559   6.636
  860SOL    HW1 3479   6.102   2.498   6.713
  860SOL    HW2 3480   5.995   2.537   6.597
  861SOL     OW 3481   2.605   5.038   2.959
  861SOL    HW1 3482   2.546   5.097   2.904
  861SOL    HW2 3483   2.656   5.093   3.025
  862SOL     OW 3484   2.220   4.287   3.213
  862SOL    HW1 3485   2.269   4.262   3.129
  862SOL    HW2 3486   2.130   4.244   3.213
  863SOL     OW 3487   6.009   1.238   6.031
  863SOL    HW1 3488   6.007   1.139   6.045
  863SOL    HW2 3489   6.101   1.267   6.006
  864SOL     OW 3490   4.226   6.108   5.046
  864SOL    HW1 3491   4.204   6.181   4.981
  864SOL    HW2 3492   4.142   6.062   5.074
  865SOL     OW 3493   2.192   0.038   5.728
  865SOL    HW1 3494   2.107   0.067   5.773
  865SOL    HW2 3495   2.258   0.010   5.798
  866SOL     OW 3496   3.210   0.196   0.517
  866SOL    HW1 3497   3.231   0.290   0.491
  866SOL    HW2 3498   3.252   0.133   0.452
  867SOL     OW 3499   4.981   3.658   1.268
  867SOL    HW1 3500   5.012   3.570   1.305
  867SOL    HW2 3501   4.904   3.643   1.205
  868SOL     OW 3502   6.954   1.514   1.624
  868SOL    HW1 3503   6.902   1.432   1.647
  868SOL    HW2 3504   6.953   1.528   1.525
  869SOL     OW 3505   0.024   4.686   3.298
  869SOL    HW1 3506   6.973   4.704   3.231
  869SOL    HW2 3507   0.094   4.756   3.290
  870SOL     OW 3508   4.250   4.368   0.945
  870SOL    HW1 3509   4.230   4.428   1.022
  870SOL    HW2 3510   4.224   4.414   0.860
  871SOL     OW 3511   5.509   2.467   4.049
  871SOL    HW1 3512   5.451   2.390   4.023
  871SOL    HW2 3513   5.455   2.533   4.102
  872SOL     OW 3514   6.369   2.252   3.988
  872SOL    HW1 3515   6.290   2.229   4.045
  872SOL    HW2 3516   6.338   2.279   3.897
  873SOL     OW 3517   5.180   5.786   5.345
  873SOL    HW1 3518   5.151   5.757   5.254
  873SOL    HW2 3519   5.173   5.708   5.408
  874SOL     OW 3520   6.392   3.669   0.323
  874SOL    HW1 3521   6.426   3.593   0.269
  874SOL    HW2 3522   6.374   3.638   0.417
  875SOL     OW 3523   4.489   4.751   0.853
  875SOL    HW1 3524   4.454   4.732   0.761
  875SOL    HW2 3525   4.425   4.810   0.901
  876SOL     OW 3526   0.519   5.698   2.052
  876SOL    HW1 3527   0.556   5.606   2.041
  876SOL    HW2 3528   0.578   5.763   2.004
  877SOL     OW 3529   3.306   4.575   5.999
  877SOL    HW1 3530   3.260   4.528   5.924
  877SOL    HW2 3531   3.390   4.617   5.966
  878SOL     OW 3532   4.588   6.563   4.435
  878SOL    HW1 3533   4.656   6.532   4.502
  878SOL    HW2 3534   4.620   6.540   4.343
  879SOL     OW 3535   3.986   0.278   1.735
  879SOL    HW1 3536   3.897   0.323   1.749
  879SOL    HW2 3537   3.978   0.181   1.759
  880SOL     OW 3538   3.383   3.297   4.128
  880SOL    HW1 3539   3.359   3.393   4.143
  880SOL    HW2 3540   3.359   3.270   4.035
  881SOL     OW 3541   5.104   3.652   5.355
  881SOL    HW1 3542   5.190   3.621   5.394
  881SOL    HW2 3543   5.053   3.705   5.424
  882SOL     OW 3544   0.960   2.479   4.062
  882SOL    HW1 3545   0.924   2.528   3.982
  882SOL    HW2 3546   0.936   2.383   4.055
  883SOL     OW 3547   3.204   0.702   1.083
  883SOL    HW1 3548   3.186   0.787   1.033
  883SOL    HW2 3549   3.261   0.721   1.163
  884SOL     OW 3550   6.266   3.882   6.021
  884SOL    HW1 3551   6.226   3.950   6.083
  884SOL    HW2 3552   6.201   3.807   6.008
  885SOL     OW 3553   3.988   0.863   4.497
  885SOL    HW1 3554   3.922   0.908   4.557
  885SOL    HW2 3555   3.940   0.822   4.419
  886SOL     OW 3556   3.324   0.439   0.114
  886SOL    HW1 3557   3.398   0.376   0.138
  886SOL    HW2 3558   3.341   0.529   0.156
  887SOL     OW 3559   3.683   6.550   3.594
  887SOL    HW1 3560   3.720   6.630   3.641
  887SOL    HW2 3561   3.586   6.565   3.573
  888SOL     OW 3562   0.270   6.054   3.063
  888SOL    HW1 3563   0.205   5.981   3.085
  888SOL    HW2 3564   0.358   6.015   3.036
  889SOL     OW 3565   6.932   2.023   0.253
  889SOL    HW1 3566   6.946   2.115   0.289
  889SOL    HW2 3567   6.838   1.993   0.273
  890SOL     OW 3568   1.946   4.866   2.931
  890SOL    HW1 3569   1.861   4.902   2.892
  890SOL    HW2 3570   1.925   4.810   3.011
  891SOL     OW 3571   6.306   3.723   1.472
  891SOL    HW1 3572   6.398   3.742   1.504
  891SOL    HW2 3573   6.250   3.689   1.548
  892SOL     OW 3574   3.127   3.622   4.809
  892SOL    HW1 3575   3.148   3.542   4.751
  892SOL    HW2 3576   3.080   3.591   4.892
  893SOL     OW 3577   2.253   6.488   3.290
  893SOL    HW1 3578   2.187   6.488   3.214
  893SOL    HW2 3579   2.247   6.575   3.339
  894SOL     OW 3580   0.933   3.001   1.997
  894SOL    HW1 3581   1.027   2.966   1.989
  894SOL    HW2 3582   0.927   3.058   2.079
  895SOL     OW 3583   1.258   4.710   3.508
  895SOL    HW1 3584   1.333   4.729   3.572
  895SOL    HW2 3585   1.175   4.687   3.560
  896SOL     OW 3586   5.253   4.753   1.198
  896SOL    HW1 3587   5.232   4.843   1.160
  896SOL    HW2 3588   5.227   4.681   1.133
  897SOL     OW 3589   3.996   1.600   6.736
  897SOL    HW1 3590   3.938   1.666   6.688
  897SOL    HW2 3591   3.957   1.509   6.729
  898SOL     OW 3592   3.683   6.327   2.887
  898SOL    HW1 3593   3.713   6.263   2.957
  898SOL    HW2 3594   3.594   6.365   2.911
  899SOL     OW 3595   0.281   6.595   0.168
  899SOL    HW1 3596   0.209   6.604   0.099
  899SOL    HW2 3597   0.274   6.671   0.234
  900SOL     OW 3598   5.535   0.400   0.217
  900SOL    HW1 3599   5.558   0.344   0.296
  900SOL    HW2 3600   5.595   0.376   0.141
  901SOL     OW 3601   1.673   0.815   3.454
  901SOL    HW1 3602   1.621   0.888   3.409
  901SOL    HW2 3603   1.706   0.848   3.542
  902SOL     OW 3604   1.184   2.226   1.414
  902SOL    HW1 3605   1.172   2.319   1.378
  902SOL    HW2 3606   1.095   2.188   1.438
  903SOL     OW 3607   1.103   3.118   6.717
  903SOL    HW1 3608   1.081   3.169   6.801
  903SOL    HW2 3609   1.098   3.179   6.639
  904SOL     OW 3610   1.742   1.422   2.342
  904SOL    HW1 3611   1.674   1.395   2.410
  904SOL    HW2 3612   1.832   1.388   2.370
  905SOL     OW 3613   5.265   3.196   6.001
  905SOL    HW1 3614   5.291   3.161   6.091
  905SOL    HW2 3615   5.280   3.125   5.932
  906SOL     OW 3616   0.233   2.032   6.400
  906SOL    HW1 3617   0.196   2.113   6.446
  906SOL    HW2 3618   0.202   1.950   6.447
  907SOL     OW 3619   5.431   3.499   0.718
  907SOL    HW1 3620   5.343   3.462   0.748
  907SOL    HW2 3621   5.432   3.598   0.734
  908SOL     OW 3622   2.780   4.716   3.094
  908SOL    HW1 3623   2.727   4.707   3.178
  908SOL    HW2 3624   2.869   4.757   3.115
  909SOL     OW 3625   3.973   6.630   1.377
  909SOL    HW1 3626   3.888   6.653   1.423
  909SOL    HW2 3627   3.958   6.627   1.278
  910SOL     OW 3628   3.511   1.660   1.192
  910SOL    HW1 3629   3.581   1.589   1.188
  910SOL    HW2 3630   3.421   1.618   1.204
  911SOL     OW 3631   1.187   6.520   6.737
  911SOL    HW1 3632   1.275   6.482   6.765
  911SOL    HW2 3633   1.127   6.447   6.705
  912SOL     OW 3634   6.039   1.504   2.851
  912SOL    HW1 3635   6.129   1.461   2.857
  912SOL    HW2 3636   6.032   1.559   2.768
  913SOL     OW 3637   3.520   0.627   3.222
  913SOL    HW1 3638   3.459   0.552   3.248
  913SOL    HW2 3639   3.514   0.700   3.290
  914SOL     OW 3640   2.327   0.086   6.202
  914SOL    HW1 3641   2.290   0.003   6.160
  914SOL    HW2 3642   2.377   0.139   6.133
  915SOL     OW 3643   6.295   3.517   7.003
  915SOL    HW1 3644   6.313   3.455   6.927
  915SOL    HW2 3645   6.232   3.589   6.974
  916SOL     OW 3646   1.499   3.356   2.464
  916SOL    HW1 3647   1.500   3.269   2.415
  916SOL    HW2 3648   1.523   3.339   2.560
  917SOL     OW 3649   0.891   6.616   1.488
  917SOL    HW1 3650   0.986   6.619   1.519
  917SOL    HW2 3651   0.830   6.609   1.567
  918SOL     OW 3652   4.085   0.822   1.253
  918SOL    HW1 3653   4.041   0.907   1.224
  918SOL    HW2 3654   4.180   0.821   1.222
  919SOL     OW 3655   6.723   7.021   2.578
  919SOL    HW1 3656   6.752   0.094   2.565
  919SOL    HW2 3657   6.682   6.987   2.494
  920SOL     OW 3658   2.298   4.160   2.263
  920SOL    HW1 3659   2.222   4.205   2.308
  920SOL    HW2 3660   2.377   4.221   2.260
  921SOL     OW 3661   3.810   5.428   4.348
  921SOL    HW1 3662   3.843   5.353   4.290
  921SOL    HW2 3663   3.878   5.501   4.350
  922SOL     OW 3664   3.080   3.080   4.239
  922SOL    HW1 3665   3.144   3.071   4.316
  922SOL    HW2 3666   3.036   3.169   4.243
  923SOL     OW 3667   2.191   3.599   6.335
  923SOL    HW1 3668   2.221   3.572   6.244
  923SOL    HW2 3669   2.146   3.688   6.330
  924SOL     OW 3670   6.661   3.696   1.918
  924SOL    HW1 3671   6.625   3.633   1.848
  924SOL    HW2 3672   6.747   3.660   1.953
  925SOL     OW 3673   0.217   1.979   6.940
  925SOL    HW1 3674   0.191   1.884   6.957
  925SOL    HW2 3675   0.295   2.003   6.996
  926SOL     OW 3676   6.674   1.262   1.412
  926SOL    HW1 3677   6.590   1.240   1.462
  926SOL    HW2 3678   6.659   1.250   1.314
  927SOL     OW 3679   5.745   3.592   3.175
  927SOL    HW1 3680   5.663   3.650   3.176
  927SOL    HW2 3681   5.791   3.600   3.086
  928SOL     OW 3682   2.395   5.856   0.348
  928SOL    HW1 3683   2.320   5.793   0.328
  928SOL    HW2 3684   2.463   5.810   0.406
  929SOL     OW 3685   0.319   0.706   6.616
  929SOL    HW1 3686   0.379   0.703   6.696
  929SOL    HW2 3687   0.300   0.613   6.585
  930SOL     OW 3688   5.568   6.717   6.205
  930SOL    HW1 3689   5.512   6.658   6.262
  930SOL    HW2 3690   5.651   6.668   6.178
  931SOL     OW 3691   0.096   0.671   5.045
  931SOL    HW1 3692   0.088   0.721   4.959
  931SOL    HW2 3693   0.068   0.730   5.121
  932SOL     OW 3694   2.976   1.075   3.198
  932SOL    HW1 3695   2.986   1.128   3.282
  932SOL    HW2 3696   3.000   0.980   3.215
  933SOL     OW 3697   1.577   5.426   3.518
  933SOL    HW1 3698   1.578   5.339   3.469
  933SOL    HW2 3699   1.670   5.450   3.545
  934SOL     OW 3700   2.572   5.939   0.165
  934SOL    HW1 3701   2.634   5.861   0.172
  934SOL    HW2 3702   2.503   5.933   0.238
  935SOL     OW 3703   5.175   4.028   4.450
  935SOL    HW1 3704   5.270   4.026   4.482
  935SOL    HW2 3705   5.159   3.952   4.387
  936SOL     OW 3706   7.017   0.269   5.702
  936SOL    HW1 3707   6.935   0.306   5.658
  936SOL    HW2 3708   0.031   0.194   5.646
  937SOL     OW 3709   5.839   1.628   6.491
  937SOL    HW1 3710   5.870   1.708   6.441
  937SOL    HW2 3711   5.913   1.593   6.549
  938SOL     OW 3712   5.758   4.490   5.942
  938SOL    HW1 3713   5.775   4.575   5.992
  938SOL    HW2 3714   5.753   4.414   6.007
  939SOL     OW 3715   0.637   6.659   3.608
  939SOL    HW1 3716   0.557   6.716   3.592
  939SOL    HW2 3717   0.719   6.717   3.610
  940SOL     OW 3718   0.364   4.253   0.911
  940SOL    HW1 3719   0.452   4.273   0.868
  940SOL    HW2 3720   0.323   4.338   0.945
  941SOL     OW 3721   5.648   1.750   0.163
  941SOL    HW1 3722   5.594   1.700   0.095
  941SOL    HW2 3723   5.700   1.822   0.118
  942SOL     OW 3724   5.881   6.878   2.087
  942SOL    HW1 3725   5.894   6.951   2.155
  942SOL    HW2 3726   5.902   6.914   1.996
  943SOL     OW 3727   1.343   4.488   2.866
  943SOL    HW1 3728   1.262   4.495   2.807
  943SOL    HW2 3729   1.343   4.565   2.930
  944SOL     OW 3730   0.276   5.523   5.431
  944SOL    HW1 3731   0.290   5.548   5.526
  944SOL    HW2 3732   0.236   5.431   5.426
  945SOL     OW 3733   0.747   4.689   6.076
  945SOL    HW1 3734   0.801   4.642   6.006
  945SOL    HW2 3735   0.652   4.660   6.070
  946SOL     OW 3736   5.059   4.203   5.569
  946SOL    HW1 3737   5.042   4.266   5.646
  946SOL    HW2 3738   5.002   4.230   5.491
  947SOL     OW 3739   3.424   2.878   3.159
  947SOL    HW1 3740   3.460   2.805   3.101
  947SOL    HW2 3741   3.438   2.966   3.114
  948SOL     OW 3742   5.256   1.116   3.040
  948SOL    HW1 3743   5.189   1.098   2.967
  948SOL    HW2 3744   5.212   1.168   3.113
  949SOL     OW 3745   2.700   5.702   0.168
  949SOL    HW1 3746   2.799   5.703   0.182
  949SOL    HW2 3747   2.661   5.623   0.215
  950SOL     OW 3748   6.013   6.148   2.198
  950SOL    HW1 3749   5.964   6.158   2.284
  950SOL    HW2 3750   6.100   6.101   2.214
  951SOL     OW 3751   1.908   6.986   3.973
  951SOL    HW1 3752   1.814   6.958   3.990
  951SOL    HW2 3753   1.911   0.062   3.952
  952SOL     OW 3754   4.720   2.530   3.284
  952SOL    HW1 3755   4.703   2.483   3.197
  952SOL    HW2 3756   4.790   2.600   3.270
  953SOL     OW 3757   5.778   5.851   4.637
  953SOL    HW1 3758   5.832   5.892   4.564
  953SOL    HW2 3759   5.725   5.774   4.601
  954SOL     OW 3760   3.561   5.739   2.410
  954SOL    HW1 3761   3.586   5.749   2.314
  954SOL    HW2 3762   3.585   5.647   2.441
  955SOL     OW 3763   1.274   4.061   1.027
  955SOL    HW1 3764   1.176   4.073   1.044
  955SOL    HW2 3765   1.308   4.135   0.969
  956SOL     OW 3766   6.157   0.710   1.363
  956SOL    HW1 3767   6.106   0.740   1.444
  956SOL    HW2 3768   6.156   0.610   1.359
  957SOL     OW 3769   5.433   2.494   2.308
  957SOL    HW1 3770   5.348   2.545   2.305
  957SOL    HW2 3771   5.439   2.443   2.394
  958SOL     OW 3772   4.186   0.493   1.447
  958SOL    HW1 3773   4.110   0.558   1.453
  958SOL    HW2 3774   4.268   0.541   1.415
  959SOL     OW 3775   3.621   6.714   4.561
  959SOL    HW1 3776   3.666   6.645   4.505
  959SOL    HW2 3777   3.573   6.670   4.637
  960SOL     OW 3778   0.947   0.380   1.541
  960SOL    HW1 3779   0.878   0.385   1.613
  960SOL    HW2 3780   0.935   0.295   1.489
  961SOL     OW 3781   4.253   6.211   3.396
  961SOL    HW1 3782   4.321   6.220   3.322
  961SOL    HW2 3783   4.289   6.253   3.479
  962SOL     OW 3784   6.890   0.482   5.023
  962SOL    HW1 3785   6.961   0.549   5.001
  962SOL    HW2 3786   6.858   0.497   5.116
  963SOL     OW 3787   5.091   0.842   6.798
  963SOL    HW1 3788   5.006   0.789   6.794
  963SOL    HW2 3789   5.169   0.780   6.786
  964SOL     OW 3790   4.894   4.742   6.221
  964SOL    HW1 3791   4.988   4.776   6.222
  964SOL    HW2 3792   4.895   4.642   6.229
  965SOL     OW 3793   6.245   1.359   2.208
  965SOL    HW1 3794   6.242   1.261   2.227
  965SOL    HW2 3795   6.339   1.392   2.216
  966SOL     OW 3796   5.561   2.176   2.625
  966SOL    HW1 3797   5.586   2.166   2.529
  966SOL    HW2 3798   5.626   2.128   2.683
  967SOL     OW 3799   3.156   4.590   0.711
  967SOL    HW1 3800   3.211   4.672   0.697
  967SOL    HW2 3801   3.216   4.512   0.724
  968SOL     OW 3802   4.488   0.537   1.651
  968SOL    HW1 3803   4.472   0.602   1.726
  968SOL    HW2 3804   4.468   0.581   1.564
  969SOL     OW 3805   2.548   4.203   5.720
  969SOL    HW1 3806   2.569   4.257   5.802
  969SOL    HW2 3807   2.480   4.251   5.665
  970SOL     OW 3808   5.296   0.707   6.426
  970SOL    HW1 3809   5.205   0.705   6.384
  970SOL    HW2 3810   5.358   0.650   6.373
  971SOL     OW 3811   6.822   3.177   2.862
  971SOL    HW1 3812   6.835   3.232   2.779
  971SOL    HW2 3813   6.903   3.121   2.878
  972SOL     OW 3814   6.066   1.695   1.540
  972SOL    HW1 3815   6.100   1.775   1.490
  972SOL    HW2 3816   6.088   1.612   1.488
  973SOL     OW 3817   0.786   5.333   6.690
  973SOL    HW1 3818   0.735   5.385   6.759
  973SOL    HW2 3819   0.877   5.373   6.679
  974SOL     OW 3820   6.404   5.724   1.717
  974SOL    HW1 3821   6.371   5.722   1.811
  974SOL    HW2 3822   6.503   5.708   1.716
  975SOL     OW 3823   2.503   0.420   0.395
  975SOL    HW1 3824   2.433   0.490   0.381
  975SOL    HW2 3825   2.589   0.450   0.353
  976SOL     OW 3826   7.005   3.357   1.219
  976SOL    HW1 3827   0.028   3.292   1.158
  976SOL    HW2 3828   0.040   3.438   1.228
  977SOL     OW 3829   0.481   0.456   2.242
  977SOL    HW1 3830   0.508   0.504   2.325
  977SOL    HW2 3831   0.438   0.369   2.267
  978SOL     OW 3832   5.464   1.860   0.332
  978SOL    HW1 3833   5.385   1.900   0.285
  978SOL    HW2 3834   5.519   1.808   0.266
  979SOL     OW 3835   1.093   3.664   0.042
  979SOL    HW1 3836   1.189   3.661   0.069
  979SOL    HW2 3837   1.036   3.657   0.124
  980SOL     OW 3838   5.319   2.166   4.118
  980SOL    HW1 3839   5.353   2.182   4.025
  980SOL    HW2 3840   5.251   2.094   4.117
  981SOL     OW 3841   0.444   0.858   4.885
  981SOL    HW1 3842   0.524   0.880   4.829
  981SOL    HW2 3843   0.398   0.777   4.847
  982SOL     OW 3844   0.797   1.114   4.860
  982SOL    HW1 3845   0.888   1.089   4.895
  982SOL    HW2 3846   0.802   1.202   4.814
  983SOL     OW 3847   6.544   2.997   3.092
  983SOL    HW1 3848   6.581   2.930   3.157
  983SOL    HW2 3849   6.601   3.078   3.091
  984SOL     OW 3850   2.321   2.508   3.763
  984SOL    HW1 3851   2.275   2.425   3.794
  984SOL    HW2 3852   2.264   2.555   3.695
  985SOL     OW 3853   6.542   3.686   4.644
  985SOL    HW1 3854   6.510   3.665   4.551
  985SOL    HW2 3855   6.513   3.613   4.706
  986SOL     OW 3856   4.708   4.269   1.212
  986SOL    HW1 3857   4.671   4.315   1.293
  986SOL    HW2 3858   4.806   4.252   1.225
  987SOL     OW 3859   4.623   6.716   2.536
  987SOL    HW1 3860   4.570   6.634   2.557
  987SOL    HW2 3861   4.560   6.792   2.515
  988SOL     OW 3862   3.063   4.262   1.113
  988SOL    HW1 3863   3.124   4.220   1.181
  988SOL    HW2 3864   2.985   4.201   1.098
  989SOL     OW 3865   6.570   1.508   6.615
  989SOL    HW1 3866   6.482   1.541   6.579
  989SOL    HW2 3867   6.637   1.505   6.540
  990SOL     OW 3868   3.241   0.504   2.306
  990SOL    HW1 3869   3.315   0.562   2.341
  990SOL    HW2 3870   3.168   0.498   2.374
  991SOL     OW 3871   0.321   3.518   3.576
  991SOL    HW1 3872   0.291   3.451   3.508
  991SOL    HW2 3873   0.409   3.489   3.615
  992SOL     OW 3874   0.413   3.427   1.761
  992SOL    HW1 3875   0.458   3.516   1.753
  992SOL    HW2 3876   0.415   3.397   1.856
  993SOL     OW 3877   0.074   4.374   0.511
  993SOL    HW1 3878   0.075   4.364   0.411
  993SOL    HW2 3879   7.001   4.391   0.541
  994SOL     OW 3880   4.283   5.439   2.177
  994SOL    HW1 3881   4.343   5.424   2.098
  994SOL    HW2 3882   4.287   5.359   2.238
  995SOL     OW 3883   4.064   2.870   6.377
  995SOL    HW1 3884   4.015   2.936   6.320
  995SOL    HW2 3885   4.132   2.917   6.433
  996SOL     OW 3886   3.589   5.205   4.734
  996SOL    HW1 3887   3.633   5.180   4.820
  996SOL    HW2 3888   3.653   5.259   4.679
  997SOL     OW 3889   1.054   6.593   3.258
  997SOL    HW1 3890   0.977   6.559   3.203
  997SOL    HW2 3891   1.118   6.519   3.277
  998SOL     OW 3892   6.416   0.230   5.954
  998SOL    HW1 3893   6.457   0.158   5.899
  998SOL    HW2 3894   6.351   0.190   6.019
  999SOL     OW 3895   4.943   3.560   2.088
  999SOL    HW1 3896   4.963   3.464   2.105
  999SOL    HW2 3897   4.940   3.609   2.175
 1000SOL     OW 3898   4.207   1.633   1.472
 1000SOL    HW1 3899   4.191   1.583   1.557
 1000SOL    HW2 3900   4.243   1.724   1.494
 1001SOL     OW 3901   4.141   6.168   1.940
 1001SOL    HW1 3902   4.224   6.208   1.978
 1001SOL    HW2 3903   4.064   6.230   1.956
 1002SOL     OW 3904   5.375   2.179   1.185
 1002SOL    HW1 3905   5.443   2.199   1.256
 1002SOL    HW2 3906   5.283   2.192   1.222
 1003SOL     OW 3907   2.123   5.445   3.475
 1003SOL    HW1 3908   2.052   5.474   3.412
 1003SOL    HW2 3909   2.102   5.353   3.509
 1004SOL     OW 3910   0.472   1.191   2.314
 1004SOL    HW1 3911   0.406   1.164   2.384
 1004SOL    HW2 3912   0.423   1.232   2.236
 1005SOL     OW 3913   1.517   2.898   3.951
 1005SOL    HW1 3914   1.448   2.961   3.985
 1005SOL    HW2 3915   1.606   2.944   3.951
 1006SOL     OW 3916   1.346   4.053   0.369
 1006SOL    HW1 3917   1.428   3.995   0.373
 1006SOL    HW2 3918   1.366   4.140   0.414
 1007SOL     OW 3919   4.639   0.718   5.596
 1007SOL    HW1 3920   4.624   0.620   5.611
 1007SOL    HW2 3921   4.586   0.747   5.516
 1008SOL     OW 3922   0.533   2.215   5.318
 1008SOL    HW1 3923   0.502   2.249   5.229
 1008SOL    HW2 3924   0.595   2.138   5.304
 1009SOL     OW 3925   6.557   5.251   5.973
 1009SOL    HW1 3926   6.508   5.164   5.985
 1009SOL    HW2 3927   6.647   5.244   6.015
 1010SOL     OW 3928   2.680   3.197   1.440
 1010SOL    HW1 3929   2.662   3.164   1.533
 1010SOL    HW2 3930   2.593   3.220   1.396
 1011SOL     OW 3931   1.163   5.258   3.632
 1011SOL    HW1 3932   1.161   5.160   3.610
 1011SOL    HW2 3933   1.209   5.308   3.559
 1012SOL     OW 3934   0.009   6.414   1.908
 1012SOL    HW1 3935   6.994   6.408   1.815
 1012SOL    HW2 3936   7.018   6.507   1.944
 1013SOL     OW 3937   0.369   0.585   6.059
 1013SOL    HW1 3938   0.390   0.538   6.145
 1013SOL    HW2 3939   0.334   0.519   5.993
 1014SOL     OW 3940   0.468   3.933   4.875
 1014SOL    HW1 3941   0.497   3.843   4.843
 1014SOL    HW2 3942   0.500   4.003   4.812
 1015SOL     OW 3943   2.226   0.371   5.957
 1015SOL    HW1 3944   2.286   0.291   5.965
 1015SOL    HW2 3945   2.249   0.437   6.028
 1016SOL     OW 3946   4.130   4.303   0.638
 1016SOL    HW1 3947   4.195   4.378   0.631
 1016SOL    HW2 3948   4.037   4.338   0.627
 1017SOL     OW 3949   3.934   2.230   0.827
 1017SOL    HW1 3950   3.879   2.311   0.847
 1017SOL    HW2 3951   3.925   2.207   0.730
 1018SOL     OW 3952   0.883   4.520   4.203
 1018SOL    HW1 3953   0.840   4.459   4.136
 1018SOL    HW2 3954   0.817   4.590   4.231
 1019SOL     OW 3955   0.082   5.829   1.369
 1019SOL    HW1 3956   7.020   5.806   1.318
 1019SOL    HW2 3957   0.079   5.925   1.395
 1020SOL     OW 3958   6.329   1.298   1.666
 1020SOL    HW1 3959   6.349   1.363   1.739
 1020SOL    HW2 3960   6.270   1.341   1.598
 1021SOL     OW 3961   5.581   6.839   2.067
 1021SOL    HW1 3962   5.629   6.875   2.146
 1021SOL    HW2 3963   5.646   6.822   1.993
 1022SOL     OW 3964   3.052   4.892   5.621
 1022SOL    HW1 3965   3.085   4.804   5.589
 1022SOL    HW2 3966   3.052   4.958   5.545
 1023SOL     OW 3967   0.413   0.874   2.961
 1023SOL    HW1 3968   0.425   0.921   3.049
 1023SOL    HW2 3969   0.473   0.794   2.958
 1024SOL     OW 3970   0.349   1.693   3.769
 1024SOL    HW1 3971   0.423   1.677   3.704
 1024SOL    HW2 3972   0.284   1.759   3.730
 1025SOL     OW 3973   3.655   3.757   0.532
 1025SOL    HW1 3974   3.702   3.668   0.539
 1025SOL    HW2 3975   3.613   3.779   0.619
 1026SOL     OW 3976   2.250   3.192   1.778
 1026SOL    HW1 3977   2.318   3.264   1.783
 1026SOL    HW2 3978   2.184   3.204   1.853
 1027SOL     OW 3979   2.377   6.782   2.292
 1027SOL    HW1 3980   2.322   6.836   2.356
 1027SOL    HW2 3981   2.441   6.842   2.245
 1028SOL     OW 3982   1.574   0.170   2.833
 1028SOL    HW1 3983   1.582   0.071   2.819
 1028SOL    HW2 3984   1.527   0.211   2.756
 1029SOL     OW 3985   1.228   1.894   6.052
 1029SOL    HW1 3986   1.263   1.832   6.123
 1029SOL    HW2 3987   1.167   1.961   6.094
 1030SOL     OW 3988   3.291   3.417   1.762
 1030SOL    HW1 3989   3.202   3.415   1.716
 1030SOL    HW2 3990   3.362   3.442   1.696
 1031SOL     OW 3991   4.972   3.333   1.700
 1031SOL    HW1 3992   4.988   3.254   1.640
 1031SOL    HW2 3993   4.880   3.370   1.682
 1032SOL     OW 3994   1.529   1.016   5.033
 1032SOL    HW1 3995   1.446   1.065   5.057
 1032SOL    HW2 3996   1.531   0.998   4.934
 1033SOL     OW 3997   1.670   5.417   2.028
 1033SOL    HW1 3998   1.690   5.323   2.000
 1033SOL    HW2 3999   1.755   5.463   2.054
 1034SOL     OW 4000   1.661   5.400   4.489
 1034SOL    HW1 4001   1.704   5.397   4.580
 1034SOL    HW2 4002   1.565   5.428   4.499
 1035SOL     OW 4003   0.008   2.142   6.992
 1035SOL    HW1 4004   0.096   2.097   6.976
 1035SOL    HW2 4005   6.990   2.106   0.055
 1036SOL     OW 4006   4.271   1.196   1.691
 1036SOL    HW1 4007   4.248   1.167   1.784
 1036SOL    HW2 4008   4.294   1.115   1.636
 1037SOL     OW 4009   1.640   1.319   2.713
 1037SOL    HW1 4010   1.622   1.355   2.804
 1037SOL    HW2 4011   1.723   1.264   2.714
 1038SOL     OW 4012   2.061   1.514   5.166
 1038SOL    HW1 4013   2.048   1.573   5.086
 1038SOL    HW2 4014   2.010   1.552   5.244
 1039SOL     OW 4015   3.554   4.039   4.391
 1039SOL    HW1 4016   3.634   3.996   4.433
 1039SOL    HW2 4017   3.575   4.064   4.296
 1040SOL     OW 4018   5.178   0.806   2.152
 1040SOL    HW1 4019   5.230   0.880   2.109
 1040SOL    HW2 4020   5.163   0.733   2.086
 1041SOL     OW 4021   6.658   5.988   3.381
 1041SOL    HW1 4022   6.654   6.014   3.285
 1041SOL    HW2 4023   6.684   6.068   3.436
 1042SOL     OW 4024   3.930   5.289   2.769
 1042SOL    HW1 4025   3.975   5.371   2.733
 1042SOL    HW2 4026   3.947   5.282   2.868
 1043SOL     OW 4027   3.751   2.024   3.248
 1043SOL    HW1 4028   3.770   1.930   3.221
 1043SOL    HW2 4029   3.747   2.031   3.347
 1044SOL     OW 4030   6.085   5.097   2.241
 1044SOL    HW1 4031   6.112   5.052   2.156
 1044SOL    HW2 4032   6.120   5.191   2.241
 1045SOL     OW 4033   4.096   0.633   2.725
 1045SOL    HW1 4034   4.034   0.648   2.803
 1045SOL    HW2 4035   4.042   0.629   2.641
 1046SOL     OW 4036   1.740   1.499   0.203
 1046SOL    HW1 4037   1.768   1.571   0.265
 1046SOL    HW2 4038   1.799   1.499   0.122
 1047SOL     OW 4039   2.514   0.553   4.061
 1047SOL    HW1 4040   2.446   0.549   4.135
 1047SOL    HW2 4041   2.500   0.638   4.009
 1048SOL     OW 4042   3.360   6.283   1.724
 1048SOL    HW1 4043   3.414   6.362   1.753
 1048SOL    HW2 4044   3.300   6.310   1.648
 1049SOL     OW 4045   6.278   7.004   3.714
 1049SOL    HW1 4046   6.226   6.919   3.704
 1049SOL    HW2 4047   6.375   6.982   3.731
 1050SOL     OW 4048   3.775   5.124   2.171
 1050SOL    HW1 4049   3.712   5.051   2.144
 1050SOL    HW2 4050   3.746   5.161   2.259
 1051SOL     OW 4051   0.691   5.313   0.502
 1051SOL    HW1 4052   0.634   5.393   0.522
 1051SOL    HW2 4053   0.659   5.271   0.417
 1052SOL     OW 4054   4.564   0.690   5.341
 1052SOL    HW1 4055   4.634   0.653   5.280
 1052SOL    HW2 4056   4.474   0.656   5.313
 1053SOL     OW 4057   5.404   3.781   2.500
 1053SOL    HW1 4058   5.382   3.696   2.453
 1053SOL    HW2 4059   5.478   3.765   2.566
 1054SOL     OW 4060   2.921   3.461   1.008
 1054SOL    HW1 4061   2.948   3.467   1.104
 1054SOL    HW2 4062   2.903   3.365   0.984
 1055SOL     OW 4063   4.297   6.246   5.511
 1055SOL    HW1 4064   4.382   6.282   5.472
 1055SOL    HW2 4065   4.282   6.286   5.601
 1056SOL     OW 4066   1.422   3.542   0.434
 1056SOL    HW1 4067   1.436   3.445   0.411
 1056SOL    HW2 4068   1.390   3.549   0.528
 1057SOL     OW 4069   3.377   2.906   1.360
 1057SOL    HW1 4070   3.454   2.889   1.420
 1057SOL    HW2 4071   3.293   2.869   1.401
 1058SOL     OW 4072   5.142   2.417   4.191
 1058SOL    HW1 4073   5.237   2.411   4.219
 1058SOL    HW2 4074   5.131   2.487   4.121
 1059SOL     OW 4075   2.066   6.865   1.932
 1059SOL    HW1 4076   2.064   6.906   2.023
 1059SOL    HW2 4077   2.151   6.814   1.920
 1060SOL     OW 4078   0.141   4.467   4.130
 1060SOL    HW1 4079   0.198   4.537   4.088
 1060SOL    HW2 4080   0.177   4.445   4.221
 1061SOL     OW 4081   6.679   3.300   5.934
 1061SOL    HW1 4082   6.748   3.287   6.005
 1061SOL    HW2 4083   6.706   3.250   5.852
 1062SOL     OW 4084   4.892   5.396   5.957
 1062SOL    HW1 4085   4.814   5.421   6.014
 1062SOL    HW2 4086   4.963   5.466   5.965
 1063SOL     OW 4087   0.354   6.199   0.426
 1063SOL    HW1 4088   0.396   6.116   0.388
 1063SOL    HW2 4089   0.266   6.175   0.467
 1064SOL     OW 4090   1.685   4.213   2.264
 1064SOL    HW1 4091   1.644   4.295   2.304
 1064SOL    HW2 4092   1.783   4.213   2.283
 1065SOL     OW 4093   4.393   0.998   2.795
 1065SOL    HW1 4094   4.377   0.906   2.759
 1065SOL    HW2 4095   4.442   1.053   2.727
 1066SOL     OW 4096   4.414   6.545   2.680
 1066SOL    HW1 4097   4.408   6.534   2.780
 1066SOL    HW2 4098   4.375   6.465   2.635
 1067SOL     OW 4099   1.917   2.206   0.267
 1067SOL    HW1 4100   1.942   2.288   0.216
 1067SOL    HW2 4101   1.818   2.201   0.278
 1068SOL     OW 4102   6.797   4.464   1.322
 1068SOL    HW1 4103   6.783   4.413   1.407
 1068SOL    HW2 4104   6.889   4.504   1.323
 1069SOL     OW 4105   5.214   6.000   0.685
 1069SOL    HW1 4106   5.197   5.999   0.784
 1069SOL    HW2 4107   5.246   6.090   0.658
 1070SOL     OW 4108   1.621   0.449   1.810
 1070SOL    HW1 4109   1.557   0.392   1.861
 1070SOL    HW2 4110   1.670   0.393   1.744
 1071SOL     OW 4111   2.286   1.885   3.723
 1071SOL    HW1 4112   2.362   1.822   3.739
 1071SOL    HW2 4113   2.322   1.974   3.694
 1072SOL     OW 4114   2.605   1.022   1.010
 1072SOL    HW1 4115   2.625   1.099   0.949
 1072SOL    HW2 4116   2.660   0.943   0.983
 1073SOL     OW 4117   4.667   1.008   3.359
 1073SOL    HW1 4118   4.647   0.913   3.336
 1073SOL    HW2 4119   4.726   1.011   3.440
 1074SOL     OW 4120   2.606   5.284   1.950
 1074SOL    HW1 4121   2.632   5.279   1.854
 1074SOL    HW2 4122   2.594   5.379   1.977
 1075SOL     OW 4123   6.107   0.508   3.225
 1075SOL    HW1 4124   6.022   0.456   3.229
 1075SOL    HW2 4125   6.176   0.463   3.282
 1076SOL     OW 4126   0.738   2.107   6.120
 1076SOL    HW1 4127   0.644   2.137   6.101
 1076SOL    HW2 4128   0.737   2.011   6.148
 1077SOL     OW 4129   6.607   6.582   0.930
 1077SOL    HW1 4130   6.586   6.674   0.896
 1077SOL    HW2 4131   6.658   6.589   1.016
 1078SOL     OW 4132   6.692   0.289   3.058
 1078SOL    HW1 4133   6.650   0.209   3.100
 1078SOL    HW2 4134   6.701   0.362   3.126
 1079SOL     OW 4135   1.536   5.501   2.276
 1079SOL    HW1 4136   1.441   5.532   2.265
 1079SOL    HW2 4137   1.576   5.484   2.186
 1080SOL     OW 4138   2.298   5.320   3.771
 1080SOL    HW1 4139   2.328   5.414   3.756
 1080SOL    HW2 4140   2.377   5.262   3.789
 1081SOL     OW 4141   6.548   5.318   5.698
 1081SOL    HW1 4142   6.584   5.284   5.786
 1081SOL    HW2 4143   6.622   5.362   5.647
 1082SOL     OW 4144   6.080   2.008   5.680
 1082SOL    HW1 4145   6.058   2.105   5.690
 1082SOL    HW2 4146   6.127   1.976   5.763
 1083SOL     OW 4147   4.905   3.587   0.625
 1083SOL    HW1 4148   4.997   3.554   0.602
 1083SOL    HW2 4149   4.846   3.508   0.642
 1084SOL     OW 4150   6.606   6.583   6.193
 1084SOL    HW1 4151   6.528   6.524   6.170
 1084SOL    HW2 4152   6.572   6.673   6.222
 1085SOL     OW 4153   1.784   4.021   4.649
 1085SOL    HW1 4154   1.797   3.930   4.608
 1085SOL    HW2 4155   1.723   4.014   4.727
 1086SOL     OW 4156   6.750   4.713   0.489
 1086SOL    HW1 4157   6.651   4.717   0.496
 1086SOL    HW2 4158   6.781   4.620   0.509
 1087SOL     OW 4159   7.014   1.867   4.882
 1087SOL    HW1 4160   0.006   1.803   4.957
 1087SOL    HW2 4161   6.949   1.938   4.910
 1088SOL     OW 4162   0.227   4.435   2.739
 1088SOL    HW1 4163   0.234   4.516   2.796
 1088SOL    HW2 4164   0.243   4.353   2.794
 1089SOL     OW 4165   6.478   5.356   4.779
 1089SOL    HW1 4166   6.497   5.260   4.801
 1089SOL    HW2 4167   6.495   5.413   4.860
 1090SOL     OW 4168   3.732   2.063   2.762
 1090SOL    HW1 4169   3.756   2.119   2.841
 1090SOL    HW2 4170   3.709   1.970   2.793
 1091SOL     OW 4171   2.231   3.014   4.052
 1091SOL    HW1 4172   2.301   2.943   4.062
 1091SOL    HW2 4173   2.231   3.048   3.958
 1092SOL     OW 4174   1.355   4.860   0.465
 1092SOL    HW1 4175   1.430   4.796   0.447
 1092SOL    HW2 4176   1.319   4.844   0.557
 1093SOL     OW 4177   2.915   6.508   1.926
 1093SOL    HW1 4178   2.922   6.570   1.848
 1093SOL    HW2 4179   2.820   6.480   1.938
 1094SOL     OW 4180   0.583   6.405   2.563
 1094SOL    HW1 4181   0.613   6.500   2.565
 1094SOL    HW2 4182   0.530   6.388   2.480
 1095SOL     OW 4183   0.329   2.796   6.202
 1095SOL    HW1 4184   0.259   2.797   6.130
 1095SOL    HW2 4185   0.416   2.768   6.163
 1096SOL     OW 4186   3.328   4.417   1.318
 1096SOL    HW1 4187   3.341   4.476   1.238
 1096SOL    HW2 4188   3.392   4.445   1.390
 1097SOL     OW 4189   2.168   4.335   3.820
 1097SOL    HW1 4190   2.172   4.430   3.851
 1097SOL    HW2 4191   2.200   4.275   3.893
 1098SOL     OW 4192   5.778   3.256   6.306
 1098SOL    HW1 4193   5.870   3.293   6.291
 1098SOL    HW2 4194   5.784   3.161   6.336
 1099SOL     OW 4195   4.269   1.199   6.253
 1099SOL    HW1 4196   4.260   1.282   6.308
 1099SOL    HW2 4197   4.314   1.128   6.307
 1100SOL     OW 4198   4.246   1.591   4.446
 1100SOL    HW1 4199   4.291   1.502   4.450
 1100SOL    HW2 4200   4.206   1.612   4.535
 1101SOL     OW 4201   5.566   3.980   5.622
 1101SOL    HW1 4202   5.527   3.923   5.694
 1101SOL    HW2 4203   5.501   3.987   5.546
 1102SOL     OW 4204   2.070   0.760   4.971
 1102SOL    HW1 4205   2.051   0.695   4.898
 1102SOL    HW2 4206   1.991   0.819   4.985
 1103SOL     OW 4207   3.172   1.646   0.641
 1103SOL    HW1 4208   3.161   1.557   0.686
 1103SOL    HW2 4209   3.083   1.681   0.613
 1104SOL     OW 4210   1.795   3.531   4.038
 1104SOL    HW1 4211   1.814   3.503   4.133
 1104SOL    HW2 4212   1.820   3.457   3.976
 1105SOL     OW 4213   5.727   2.962   4.632
 1105SOL    HW1 4214   5.653   2.949   4.698
 1105SOL    HW2 4215   5.703   2.920   4.545
 1106SOL     OW 4216   0.936   2.146   1.494
 1106SOL    HW1 4217   0.978   2.164   1.582
 1106SOL    HW2 4218   0.908   2.050   1.489
 1107SOL     OW 4219   1.373   0.044   0.016
 1107SOL    HW1 4220   1.377   6.967   7.021
 1107SOL    HW2 4221   1.282   0.068   0.052
 1108SOL     OW 4222   3.346   6.904   5.656
 1108SOL    HW1 4223   3.304   6.838   5.592
 1108SOL    HW2 4224   3.377   6.984   5.605
 1109SOL     OW 4225   5.638   0.840   4.640
 1109SOL    HW1 4226   5.557   0.803   4.594
 1109SOL    HW2 4227   5.719   0.789   4.610
 1110SOL     OW 4228   4.558   2.120   2.744
 1110SOL    HW1 4229   4.599   2.207   2.768
 1110SOL    HW2 4230   4.470   2.110   2.791
 1111SOL     OW 4231   5.709   5.956   6.524
 1111SOL    HW1 4232   5.794   6.004   6.504
 1111SOL    HW2 4233   5.677   5.980   6.615
 1112SOL     OW 4234   5.748   1.048   2.756
 1112SOL    HW1 4235   5.650   1.061   2.770
 1112SOL    HW2 4236   5.798   1.127   2.791
 1113SOL     OW 4237   5.752   4.290   1.494
 1113SOL    HW1 4238   5.682   4.250   1.436
 1113SOL    HW2 4239   5.745   4.252   1.587
 1114SOL     OW 4240   2.403   1.330   6.345
 1114SOL    HW1 4241   2.328   1.335   6.280
 1114SOL    HW2 4242   2.369   1.355   6.436
 1115SOL     OW 4243   3.664   3.716   5.644
 1115SOL    HW1 4244   3.724   3.706   5.565
 1115SOL    HW2 4245   3.575   3.751   5.615
 1116SOL     OW 4246   5.213   6.753   6.588
 1116SOL    HW1 4247   5.210   6.798   6.499
 1116SOL    HW2 4248   5.174   6.813   6.658
 1117SOL     OW 4249   1.112   2.071   2.012
 1117SOL    HW1 4250   1.061   2.002   1.962
 1117SOL    HW2 4251   1.206   2.076   1.977
 1118SOL     OW 4252   2.276   5.164   0.147
 1118SOL    HW1 4253   2.255   5.081   0.095
 1118SOL    HW2 4254   2.320   5.138   0.233
 1119SOL     OW 4255   4.119   4.335   1.639
 1119SOL    HW1 4256   4.140   4.251   1.690
 1119SOL    HW2 4257   4.175   4.410   1.674
 1120SOL     OW 4258   5.738   5.764   0.999
 1120SOL    HW1 4259   5.688   5.680   0.982
 1120SOL    HW2 4260   5.776   5.799   0.914
 1121SOL     OW 4261   0.373   4.115   4.541
 1121SOL    HW1 4262   0.318   4.194   4.570
 1121SOL    HW2 4263   0.340   4.081   4.454
 1122SOL     OW 4264   5.725   2.987   2.351
 1122SOL    HW1 4265   5.688   2.940   2.271
 1122SOL    HW2 4266   5.676   2.958   2.433
 1123SOL     OW 4267   5.037   2.209   3.578
 1123SOL    HW1 4268   5.120   2.191   3.526
 1123SOL    HW2 4269   4.989   2.288   3.540
 1124SOL     OW 4270   0.080   4.012   5.355
 1124SOL    HW1 4271   0.020   4.065   5.295
 1124SOL    HW2 4272   0.025   3.956   5.416
 1125SOL     OW 4273   1.506   2.403   3.833
 1125SOL    HW1 4274   1.530   2.498   3.852
 1125SOL    HW2 4275   1.412   2.386   3.863
 1126SOL     OW 4276   6.172   5.645   6.284
 1126SOL    HW1 4277   6.248   5.675   6.225
 1126SOL    HW2 4278   6.209   5.595   6.362
 1127SOL     OW 4279   5.936   6.137   4.803
 1127SOL    HW1 4280   5.947   6.054   4.858
 1127SOL    HW2 4281   5.958   6.217   4.858
 1128SOL     OW 4282   6.043   1.160   4.535
 1128SOL    HW1 4283   5.999   1.151   4.446
 1128SOL    HW2 4284   6.140   1.177   4.523
 1129SOL     OW 4285   2.016   6.397   0.973
 1129SOL    HW1 4286   2.046   6.492   0.988
 1129SOL    HW2 4287   1.942   6.396   0.906
 1130SOL     OW 4288   2.439   4.958   1.132
 1130SOL    HW1 4289   2.407   5.047   1.103
 1130SOL    HW2 4290   2.524   4.935   1.084
 1131SOL     OW 4291   1.864   6.948   5.066
 1131SOL    HW1 4292   1.931   6.924   5.136
 1131SOL    HW2 4293   1.865   6.880   4.993
 1132SOL     OW 4294   4.421   0.213   2.778
 1132SOL    HW1 4295   4.379   0.286   2.725
 1132SOL    HW2 4296   4.518   0.207   2.755
 1133SOL     OW 4297   1.614   0.962   0.683
 1133SOL    HW1 4298   1.680   0.902   0.728
 1133SOL    HW2 4299   1.605   0.935   0.587
 1134SOL     OW 4300   4.866   0.279   2.899
 1134SOL    HW1 4301   4.957   0.320   2.909
 1134SOL    HW2 4302   4.847   0.220   2.978
 1135SOL     OW 4303   1.942   6.339   3.927
 1135SOL    HW1 4304   2.022   6.327   3.868
 1135SOL    HW2 4305   1.890   6.254   3.930
 1136SOL     OW 4306   4.151   4.697   2.558
 1136SOL    HW1 4307   4.052   4.694   2.572
 1136SOL    HW2 4308   4.171   4.744   2.473
 1137SOL     OW 4309   1.302   6.713   0.192
 1137SOL    HW1 4310   1.225   6.707   0.256
 1137SOL    HW2 4311   1.278   6.773   0.116
 1138SOL     OW 4312   0.386   1.577   5.488
 1138SOL    HW1 4313   0.300   1.534   5.515
 1138SOL    HW2 4314   0.437   1.515   5.429
 1139SOL     OW 4315   2.511   5.082   3.320
 1139SOL    HW1 4316   2.492   5.029   3.237
 1139SOL    HW2 4317   2.474   5.174   3.309
 1140SOL     OW 4318   2.694   0.345   1.939
 1140SOL    HW1 4319   2.623   0.280   1.914
 1140SOL    HW2 4320   2.740   0.378   1.856
 1141SOL     OW 4321   0.184   6.356   0.261
 1141SOL    HW1 4322   0.217   6.441   0.220
 1141SOL    HW2 4323   0.255   6.316   0.318
 1142SOL     OW 4324   3.470   0.477   4.116
 1142SOL    HW1 4325   3.511   0.405   4.060
 1142SOL    HW2 4326   3.479   0.453   4.213
 1143SOL     OW 4327   1.911   2.909   2.906
 1143SOL    HW1 4328   2.007   2.905   2.935
 1143SOL    HW2 4329   1.903   2.875   2.812
 1144SOL     OW 4330   5.630   4.649   3.502
 1144SOL    HW1 4331   5.683   4.630   3.419
 1144SOL    HW2 4332   5.692   4.658   3.580
 1145SOL     OW 4333   0.286   3.170   0.594
 1145SOL    HW1 4334   0.297   3.075   0.562
 1145SOL    HW2 4335   0.284   3.231   0.515
 1146SOL     OW 4336   0.508   1.831   2.094
 1146SOL    HW1 4337   0.597   1.860   2.128
 1146SOL    HW2 4338   0.437   1.854   2.161
 1147SOL     OW 4339   3.279   5.792   1.323
 1147SOL    HW1 4340   3.351   5.787   1.254
 1147SOL    HW2 4341   3.309   5.851   1.398
 1148SOL     OW 4342   4.504   5.870   0.749
 1148SOL    HW1 4343   4.484   5.772   0.743
 1148SOL    HW2 4344   4.598   5.883   0.778
 1149SOL     OW 4345   5.176   2.251   2.237
 1149SOL    HW1 4346   5.251   2.268   2.173
 1149SOL    HW2 4347   5.164   2.329   2.297
 1150SOL     OW 4348   1.011   4.257   0.120
 1150SOL    HW1 4349   0.926   4.274   0.070
 1150SOL    HW2 4350   1.082   4.321   0.089
 1151SOL     OW 4351   5.637   4.503   4.861
 1151SOL    HW1 4352   5.556   4.457   4.898
 1151SOL    HW2 4353   5.683   4.443   4.796
 1152SOL     OW 4354   4.715   6.077   6.305
 1152SOL    HW1 4355   4.739   5.983   6.328
 1152SOL    HW2 4356   4.703   6.130   6.390
 1153SOL     OW 4357   6.945   0.102   1.973
 1153SOL    HW1 4358   6.913   0.166   2.043
 1153SOL    HW2 4359   6.990   0.153   1.899
 1154SOL     OW 4360   0.413   4.825   0.483
 1154SOL    HW1 4361   0.367   4.795   0.400
 1154SOL    HW2 4362   0.389   4.921   0.502
 1155SOL     OW 4363   3.263   5.053   5.318
 1155SOL    HW1 4364   3.298   5.145   5.300
 1155SOL    HW2 4365   3.179   5.059   5.372
 1156SOL     OW 4366   4.437   1.877   5.181
 1156SOL    HW1 4367   4.515   1.898   5.240
 1156SOL    HW2 4368   4.457   1.795   5.127
 1157SOL     OW 4369   5.364   1.344   6.109
 1157SOL    HW1 4370   5.366   1.269   6.175
 1157SOL    HW2 4371   5.453   1.352   6.064
 1158SOL     OW 4372   6.740   5.200   5.260
 1158SOL    HW1 4373   6.811   5.138   5.294
 1158SOL    HW2 4374   6.724   5.181   5.163
 1159SOL     OW 4375   6.465   6.889   3.390
 1159SOL    HW1 4376   6.527   6.900   3.466
 1159SOL    HW2 4377   6.517   6.879   3.305
 1160SOL     OW 4378   4.278   4.931   1.822
 1160SOL    HW1 4379   4.203   4.997   1.815
 1160SOL    HW2 4380   4.254   4.848   1.772
 1161SOL     OW 4381   0.228   6.025   6.154
 1161SOL    HW1 4382   0.188   6.116   6.161
 1161SOL    HW2 4383   0.174   5.970   6.090
 1162SOL     OW 4384   2.178   2.291   6.002
 1162SOL    HW1 4385   2.137   2.235   6.075
 1162SOL    HW2 4386   2.176   2.240   5.916
 1163SOL     OW 4387   6.394   4.216   1.886
 1163SOL    HW1 4388   6.295   4.225   1.881
 1163SOL    HW2 4389   6.418   4.120   1.905
 1164SOL     OW 4390   4.538   1.998   4.620
 1164SOL    HW1 4391   4.559   1.926   4.555
 1164SOL    HW2 4392   4.551   2.087   4.577
 1165SOL     OW 4393   4.329   5.708   3.645
 1165SOL    HW1 4394   4.372   5.784   3.596
 1165SOL    HW2 4395   4.239   5.689   3.605
 1166SOL     OW 4396   2.776   6.556   0.293
 1166SOL    HW1 4397   2.764   6.490   0.367
 1166SOL    HW2 4398   2.690   6.569   0.244
 1167SOL     OW 4399   4.450   5.925   0.311
 1167SOL    HW1 4400   4.484   5.837   0.347
 1167SOL    HW2 4401   4.518   5.964   0.249
 1168SOL     OW 4402   5.720   2.527   1.778
 1168SOL    HW1 4403   5.685   2.619   1.795
 1168SOL    HW2 4404   5.812   2.534   1.738
 1169SOL     OW 4405   4.617   2.098   5.857
 1169SOL    HW1 4406   4.702   2.150   5.857
 1169SOL    HW2 4407   4.570   2.110   5.769
 1170SOL     OW 4408   5.326   0.301   3.317
 1170SOL    HW1 4409   5.286   0.239   3.385
 1170SOL    HW2 4410   5.289   0.393   3.329
 1171SOL     OW 4411   3.078   6.403   6.814
 1171SOL    HW1 4412   3.045   6.405   6.720
 1171SOL    HW2 4413   3.030   6.332   6.865
 1172SOL     OW 4414   5.275   4.498   0.843
 1172SOL    HW1 4415   5.310   4.422   0.789
 1172SOL    HW2 4416   5.203   4.545   0.792
 1173SOL     OW 4417   3.350   1.470   0.952
 1173SOL    HW1 4418   3.422   1.447   0.887
 1173SOL    HW2 4419   3.261   1.456   0.908
 1174SOL     OW 4420   3.369   3.914   1.935
 1174SOL    HW1 4421   3.301   3.951   1.997
 1174SOL    HW2 4422   3.328   3.843   1.878
 1175SOL     OW 4423   4.278   3.524   6.297
 1175SOL    HW1 4424   4.290   3.429   6.269
 1175SOL    HW2 4425   4.180   3.545   6.301
 1176SOL     OW 4426   5.316   3.651   0.409
 1176SOL    HW1 4427   5.415   3.639   0.421
 1176SOL    HW2 4428   5.293   3.747   0.423
 1177SOL     OW 4429   6.139   3.880   4.937
 1177SOL    HW1 4430   6.070   3.851   4.870
 1177SOL    HW2 4431   6.221   3.911   4.888
 1178SOL     OW 4432   2.907   4.246   0.330
 1178SOL    HW1 4433   2.921   4.148   0.341
 1178SOL    HW2 4434   2.882   4.287   0.418
 1179SOL     OW 4435   2.153   5.780   0.890
 1179SOL    HW1 4436   2.172   5.689   0.927
 1179SOL    HW2 4437   2.091   5.829   0.951
 1180SOL     OW 4438   2.574   6.523   3.794
 1180SOL    HW1 4439   2.555   6.501   3.699
 1180SOL    HW2 4440   2.664   6.567   3.801
 1181SOL     OW 4441   0.366   5.514   4.908
 1181SOL    HW1 4442   0.386   5.481   4.816
 1181SOL    HW2 4443   0.387   5.442   4.974
 1182SOL     OW 4444   4.938   5.218   3.637
 1182SOL    HW1 4445   4.869   5.177   3.578
 1182SOL    HW2 4446   5.022   5.165   3.633
 1183SOL     OW 4447   2.410   4.581   0.147
 1183SOL    HW1 4448   2.479   4.519   0.186
 1183SOL    HW2 4449   2.386   4.650   0.215
 1184SOL     OW 4450   6.961   0.720   4.593
 1184SOL    HW1 4451   0.010   0.707   4.523
 1184SOL    HW2 4452   6.950   0.635   4.645
 1185SOL     OW 4453   0.570   0.726   1.122
 1185SOL    HW1 4454   0.648   0.787   1.139
 1185SOL    HW2 4455   0.570   0.652   1.189
 1186SOL     OW 4456   5.473   6.166   5.865
 1186SOL    HW1 4457   5.406   6.198   5.932
 1186SOL    HW2 4458   5.425   6.126   5.786
 1187SOL     OW 4459   5.132   6.843   6.007
 1187SOL    HW1 4460   5.094   6.799   6.088
 1187SOL    HW2 4461   5.123   6.782   5.928
 1188SOL     OW 4462   3.401   6.299   5.760
 1188SOL    HW1 4463   3.428   6.227   5.824
 1188SOL    HW2 4464   3.466   6.375   5.766
 1189SOL     OW 4465   6.480   2.196   1.201
 1189SOL    HW1 4466   6.576   2.175   1.222
 1189SOL    HW2 4467   6.422   2.119   1.231
 1190SOL     OW 4468   3.323   5.751   3.761
 1190SOL    HW1 4469   3.417   5.757   3.728
 1190SOL    HW2 4470   3.311   5.812   3.840
 1191SOL     OW 4471   4.471   5.636   4.122
 1191SOL    HW1 4472   4.500   5.540   4.124
 1191SOL    HW2 4473   4.449   5.666   4.214
 1192SOL     OW 4474   5.293   4.503   2.164
 1192SOL    HW1 4475   5.371   4.474   2.109
 1192SOL    HW2 4476   5.262   4.427   2.221
 1193SOL     OW 4477   6.411   2.156   4.618
 1193SOL    HW1 4478   6.373   2.109   4.697
 1193SOL    HW2 4479   6.353   2.140   4.538
 1194SOL     OW 4480   5.890   0.032   1.851
 1194SOL    HW1 4481   5.896   6.984   1.779
 1194SOL    HW2 4482   5.796   0.066   1.857
 1195SOL     OW 4483   0.539   4.331   0.684
 1195SOL    HW1 4484   0.466   4.367   0.627
 1195SOL    HW2 4485   0.625   4.379   0.664
 1196SOL     OW 4486   6.990   4.880   3.691
 1196SOL    HW1 4487   6.943   4.919   3.611
 1196SOL    HW2 4488   6.948   4.792   3.714
 1197SOL     OW 4489   4.797   0.256   4.909
 1197SOL    HW1 4490   4.770   0.342   4.866
 1197SOL    HW2 4491   4.719   0.193   4.908
 1198SOL     OW 4492   1.303   2.854   3.169
 1198SOL    HW1 4493   1.330   2.764   3.137
 1198SOL    HW2 4494   1.366   2.885   3.240
 1199SOL     OW 4495   3.161   3.885   1.130
 1199SOL    HW1 4496   3.228   3.810   1.135
 1199SOL    HW2 4497   3.198   3.966   1.176
 1200SOL     OW 4498   3.160   4.093   4.109
 1200SOL    HW1 4499   3.211   4.055   4.187
 1200SOL    HW2 4500   3.062   4.082   4.125
 1201SOL     OW 4501   0.834   1.153   4.131
 1201SOL    HW1 4502   0.791   1.099   4.203
 1201SOL    HW2 4503   0.881   1.232   4.171
 1202SOL     OW 4504   0.514   5.933   5.594
 1202SOL    HW1 4505   0.454   5.935   5.514
 1202SOL    HW2 4506   0.530   5.838   5.620
 1203SOL     OW 4507   6.710   6.288   6.622
 1203SOL    HW1 4508   6.691   6.346   6.701
 1203SOL    HW2 4509   6.767   6.211   6.650
 1204SOL     OW 4510   4.367   0.987   1.541
 1204SOL    HW1 4511   4.447   0.991   1.601
 1204SOL    HW2 4512   4.395   1.006   1.447
 1205SOL     OW 4513   4.026   3.087   0.684
 1205SOL    HW1 4514   4.053   3.094   0.780
 1205SOL    HW2 4515   4.047   2.996   0.649
 1206SOL     OW 4516   2.633   2.745   5.361
 1206SOL    HW1 4517   2.732   2.735   5.369
 1206SOL    HW2 4518   2.604   2.828   5.408
 1207SOL     OW 4519   2.199   6.191   1.004
 1207SOL    HW1 4520   2.155   6.278   0.981
 1207SOL    HW2 4521   2.137   6.136   1.060
 1208SOL     OW 4522   2.858   3.195   0.907
 1208SOL    HW1 4523   2.855   3.155   0.815
 1208SOL    HW2 4524   2.868   3.121   0.974
 1209SOL     OW 4525   4.193   1.289   4.058
 1209SOL    HW1 4526   4.209   1.255   4.151
 1209SOL    HW2 4527   4.145   1.377   4.063
 1210SOL     OW 4528   3.452   0.189   3.709
 1210SOL    HW1 4529   3.493   0.135   3.782
 1210SOL    HW2 4530   3.401   0.129   3.647
 1211SOL     OW 4531   0.374   3.639   2.569
 1211SOL    HW1 4532   0.428   3.607   2.647
 1211SOL    HW2 4533   0.425   3.623   2.485
 1212SOL     OW 4534   6.320   0.481   0.471
 1212SOL    HW1 4535   6.403   0.458   0.421
 1212SOL    HW2 4536   6.240   0.454   0.417
 1213SOL     OW 4537   6.367   2.849   1.211
 1213SOL    HW1 4538   6.344   2.773   1.151
 1213SOL    HW2 4539   6.298   2.921   1.202
 1214SOL     OW 4540   1.432   2.858   7.006
 1214SOL    HW1 4541   1.420   2.773   6.955
 1214SOL    HW2 4542   1.529   2.870   0.007
 1215SOL     OW 4543   1.048   5.143   3.006
 1215SOL    HW1 4544   1.030   5.045   3.015
 1215SOL    HW2 4545   1.131   5.167   3.056
 1216SOL     OW 4546   5.160   0.219   1.259
 1216SOL    HW1 4547   5.247   0.194   1.217
 1216SOL    HW2 4548   5.175   0.291   1.327
 1217SOL     OW 4549   2.153   4.660   0.949
 1217SOL    HW1 4550   2.241   4.618   0.971
 1217SOL    HW2 4551   2.080   4.596   0.971
 1218SOL     OW 4552   1.415   4.422   4.756
 1218SOL    HW1 4553   1.387   4.476   4.835
 1218SOL    HW2 4554   1.363   4.336   4.755
 1219SOL     OW 4555   5.093   6.316   1.903
 1219SOL    HW1 4556   5.047   6.291   1.818
 1219SOL    HW2 4557   5.025   6.343   1.971
 1220SOL     OW 4558   0.589   4.357   3.066
 1220SOL    HW1 4559   0.570   4.425   2.995
 1220SOL    HW2 4560   0.581   4.265   3.028
 1221SOL     OW 4561   5.143   4.087   6.604
 1221SOL    HW1 4562   5.076   4.103   6.531
 1221SOL    HW2 4563   5.200   4.168   6.615
 1222SOL     OW 4564   6.985   0.666   6.789
 1222SOL    HW1 4565   0.050   0.620   6.810
 1222SOL    HW2 4566   6.981   0.753   6.838
 1223SOL     OW 4567   3.975   1.667   0.175
 1223SOL    HW1 4568   3.932   1.592   0.225
 1223SOL    HW2 4569   4.038   1.715   0.235
 1224SOL     OW 4570   3.795   5.720   0.470
 1224SOL    HW1 4571   3.788   5.754   0.564
 1224SOL    HW2 4572   3.753   5.786   0.407
 1225SOL     OW 4573   3.108   3.360   6.190
 1225SOL    HW1 4574   3.099   3.280   6.131
 1225SOL    HW2 4575   3.204   3.376   6.210
 1226SOL     OW 4576   2.886   5.481   1.404
 1226SOL    HW1 4577   2.846   5.565   1.442
 1226SOL    HW2 4578   2.985   5.489   1.403
 1227SOL     OW 4579   6.804   3.721   6.103
 1227SOL    HW1 4580   6.709   3.750   6.092
 1227SOL    HW2 4581   6.818   3.688   6.197
 1228SOL     OW 4582   3.261   1.997   6.565
 1228SOL    HW1 4583   3.340   2.058   6.560
 1228SOL    HW2 4584   3.231   1.974   6.472
 1229SOL     OW 4585   3.351   5.332   5.273
 1229SOL    HW1 4586   3.410   5.320   5.193
 1229SOL    HW2 4587   3.405   5.364   5.350
 1230SOL     OW 4588   4.474   6.969   2.575
 1230SOL    HW1 4589   4.515   0.014   2.637
 1230SOL    HW2 4590   4.505   6.988   2.481
 1231SOL     OW 4591   1.682   3.182   4.559
 1231SOL    HW1 4592   1.663   3.188   4.461
 1231SOL    HW2 4593   1.657   3.268   4.603
 1232SOL     OW 4594   0.669   1.493   4.595
 1232SOL    HW1 4595   0.673   1.573   4.535
 1232SOL    HW2 4596   0.582   1.494   4.645
 1233SOL     OW 4597   0.857   4.242   4.733
 1233SOL    HW1 4598   0.821   4.196   4.813
 1233SOL    HW2 4599   0.806   4.327   4.718
 1234SOL     OW 4600   6.484   3.632   5.042
 1234SOL    HW1 4601   6.576   3.593   5.039
 1234SOL    HW2 4602   6.490   3.730   5.060
 1235SOL     OW 4603   6.920   5.910   2.616
 1235SOL    HW1 4604   6.942   5.876   2.707
 1235SOL    HW2 4605   6.985   5.982   2.590
 1236SOL     OW 4606   4.836   1.724   0.154
 1236SOL    HW1 4607   4.874   1.817   0.155
 1236SOL    HW2 4608   4.870   1.675   0.074
 1237SOL     OW 4609   1.703   5.312   5.653
 1237SOL    HW1 4610   1.801   5.312   5.673
 1237SOL    HW2 4611   1.654   5.357   5.727
 1238SOL     OW 4612   2.714   1.149   0.423
 1238SOL    HW1 4613   2.725   1.081   0.350
 1238SOL    HW2 4614   2.754   1.236   0.395
 1239SOL     OW 4615   7.005   6.970   5.710
 1239SOL    HW1 4616   6.976   0.031   5.661
 1239SOL    HW2 4617   6.932   6.940   5.771
 1240SOL     OW 4618   5.329   6.377   2.034
 1240SOL    HW1 4619   5.346   6.291   2.082
 1240SOL    HW2 4620   5.241   6.371   1.986
 1241SOL     OW 4621   6.102   3.964   3.752
 1241SOL    HW1 4622   6.055   3.989   3.668
 1241SOL    HW2 4623   6.137   3.870   3.744
 1242SOL     OW 4624   0.026   3.565   1.536
 1242SOL    HW1 4625   0.056   3.545   1.443
 1242SOL    HW2 4626   0.098   3.613   1.585
 1243SOL     OW 4627   6.884   6.655   4.819
 1243SOL    HW1 4628   6.900   6.588   4.746
 1243SOL    HW2 4629   6.970   6.672   4.868
 1244SOL     OW 4630   6.601   0.058   4.412
 1244SOL    HW1 4631   6.574   0.053   4.508
 1244SOL    HW2 4632   6.664   0.134   4.399
 1245SOL     OW 4633   4.835   4.866   0.079
 1245SOL    HW1 4634   4.773   4.893   0.005
 1245SOL    HW2 4635   4.822   4.769   0.100
 1246SOL     OW 4636   2.394   6.190   1.684
 1246SOL    HW1 4637   2.331   6.222   1.755
 1246SOL    HW2 4638   2.447   6.113   1.719
 1247SOL     OW 4639   2.282   0.660   6.851
 1247SOL    HW1 4640   2.229   0.700   6.776
 1247SOL    HW2 4641   2.292   0.727   6.924
 1248SOL     OW 4642   2.223   0.067   4.795
 1248SOL    HW1 4643   2.141   0.123   4.782
 1248SOL    HW2 4644   2.197   6.999   4.831
 1249SOL     OW 4645   5.620   2.181   2.350
 1249SOL    HW1 4646   5.564   2.112   2.304
 1249SOL    HW2 4647   5.711   2.144   2.366
 1250SOL     OW 4648   6.205   4.735   4.535
 1250SOL    HW1 4649   6.245   4.729   4.626
 1250SOL    HW2 4650   6.125   4.675   4.529
 1251SOL     OW 4651   3.355   0.182   4.835
 1251SOL    HW1 4652   3.398   0.119   4.770
 1251SOL    HW2 4653   3.418   0.257   4.855
 1252SOL     OW 4654   3.875   3.405   5.124
 1252SOL    HW1 4655   3.856   3.401   5.222
 1252SOL    HW2 4656   3.962   3.361   5.105
 1253SOL     OW 4657   3.509   5.464   1.732
 1253SOL    HW1 4658   3.520   5.366   1.712
 1253SOL    HW2 4659   3.426   5.477   1.786
 1254SOL     OW 4660   0.828   2.950   2.744
 1254SOL    HW1 4661   0.778   2.906   2.669
 1254SOL    HW2 4662   0.779   2.936   2.829
 1255SOL     OW 4663   6.497   1.876   4.514
 1255SOL    HW1 4664   6.487   1.792   4.568
 1255SOL    HW2 4665   6.561   1.937   4.559
 1256SOL     OW 4666   6.663   6.335   3.427
 1256SOL    HW1 4667   6.734   6.296   3.487
 1256SOL    HW2 4668   6.646   6.430   3.454
 1257SOL     OW 4669   0.256   6.670   4.322
 1257SOL    HW1 4670   0.314   6.655   4.402
 1257SOL    HW2 4671   0.289   6.615   4.245
 1258SOL     OW 4672   1.767   5.796   3.989
 1258SOL    HW1 4673   1.696   5.839   3.932
 1258SOL    HW2 4674   1.733   5.709   4.024
 1259SOL     OW 4675   3.834   1.408   4.062
 1259SOL    HW1 4676   3.792   1.469   4.130
 1259SOL    HW2 4677   3.925   1.441   4.040
 1260SOL     OW 4678   1.474   1.762   6.839
 1260SOL    HW1 4679   1.452   1.855   6.808
 1260SOL    HW2 4680   1.447   1.751   6.934
 1261SOL     OW 4681   0.496   5.733   6.648
 1261SOL    HW1 4682   0.523   5.777   6.734
 1261SOL    HW2 4683   0.405   5.693   6.659
 1262SOL     OW 4684   4.554   3.934   1.135
 1262SOL    HW1 4685   4.475   3.994   1.128
 1262SOL    HW2 4686   4.620   3.971   1.200
 1263SOL     OW 4687   0.808   1.480   2.600
 1263SOL    HW1 4688   0.834   1.403   2.541
 1263SOL    HW2 4689   0.855   1.472   2.688
 1264SOL     OW 4690   0.124   4.005   0.014
 1264SOL    HW1 4691   0.058   4.077   0.036
 1264SOL    HW2 4692   0.180   4.033   6.958
 1265SOL     OW 4693   5.797   5.216   4.882
 1265SOL    HW1 4694   5.837   5.307   4.869
 1265SOL    HW2 4695   5.837   5.174   4.963
 1266SOL     OW 4696   0.369   0.952   4.411
 1266SOL    HW1 4697   0.411   1.027   4.360
 1266SOL    HW2 4698   0.440   0.892   4.447
 1267SOL     OW 4699   5.761   1.585   0.943
 1267SOL    HW1 4700   5.774   1.618   0.849
 1267SOL    HW2 4701   5.799   1.651   1.007
 1268SOL     OW 4702   2.755   3.115   6.596
 1268SOL    HW1 4703   2.836   3.056   6.590
 1268SOL    HW2 4704   2.687   3.071   6.655
 1269SOL     OW 4705   5.823   3.207   3.962
 1269SOL    HW1 4706   5.879   3.269   4.018
 1269SOL    HW2 4707   5.869   3.118   3.956
 1270SOL     OW 4708   2.241   4.612   2.717
 1270SOL    HW1 4709   2.180   4.597   2.795
 1270SOL    HW2 4710   2.235   4.535   2.654
 1271SOL     OW 4711   3.421   1.705   2.555
 1271SOL    HW1 4712   3.414   1.638   2.481
 1271SOL    HW2 4713   3.470   1.786   2.522
 1272SOL     OW 4714   5.504   4.956   6.873
 1272SOL    HW1 4715   5.576   5.017   6.840
 1272SOL    HW2 4716   5.505   4.954   6.973
 1273SOL     OW 4717   0.855   4.222   5.698
 1273SOL    HW1 4718   0.907   4.161   5.758
 1273SOL    HW2 4719   0.903   4.309   5.689
 1274SOL     OW 4720   0.152   4.645   0.891
 1274SOL    HW1 4721   0.117   4.738   0.878
 1274SOL    HW2 4722   0.223   4.627   0.823
 1275SOL     OW 4723   3.612   1.741   3.459
 1275SOL    HW1 4724   3.665   1.661   3.486
 1275SOL    HW2 4725   3.649   1.822   3.505
 1276SOL     OW 4726   5.511   4.921   5.024
 1276SOL    HW1 4727   5.441   4.870   5.075
 1276SOL    HW2 4728   5.588   4.859   5.004
 1277SOL     OW 4729   1.848   5.288   6.534
 1277SOL    HW1 4730   1.884   5.234   6.459
 1277SOL    HW2 4731   1.816   5.377   6.499
 1278SOL     OW 4732   1.633   0.442   5.125
 1278SOL    HW1 4733   1.549   0.459   5.074
 1278SOL    HW2 4734   1.646   0.344   5.139
 1279SOL     OW 4735   1.896   4.797   6.710
 1279SOL    HW1 4736   1.990   4.779   6.737
 1279SOL    HW2 4737   1.892   4.810   6.611
 1280SOL     OW 4738   4.197   6.074   3.741
 1280SOL    HW1 4739   4.143   5.992   3.763
 1280SOL    HW2 4740   4.272   6.084   3.806
 1281SOL     OW 4741   2.652   6.310   3.022
 1281SOL    HW1 4742   2.662   6.244   3.097
 1281SOL    HW2 4743   2.640   6.262   2.936
 1282SOL     OW 4744   6.789   1.888   6.899
 1282SOL    HW1 4745   6.753   1.910   6.989
 1282SOL    HW2 4746   6.752   1.800   6.868
 1283SOL     OW 4747   6.681   2.725   5.238
 1283SOL    HW1 4748   6.744   2.801   5.222
 1283SOL    HW2 4749   6.594   2.744   5.192
 1284SOL     OW 4750   4.463   1.341   1.522
 1284SOL    HW1 4751   4.410   1.291   1.591
 1284SOL    HW2 4752   4.464   1.288   1.437
 1285SOL     OW 4753   4.882   1.294   5.255
 1285SOL    HW1 4754   4.928   1.345   5.182
 1285SOL    HW2 4755   4.839   1.358   5.318
 1286SOL     OW 4756   4.776   2.876   0.872
 1286SOL    HW1 4757   4.698   2.863   0.933
 1286SOL    HW2 4758   4.752   2.941   0.800
 1287SOL     OW 4759   5.360   4.335   5.342
 1287SOL    HW1 4760   5.294   4.365   5.412
 1287SOL    HW2 4761   5.452   4.330   5.383
 1288SOL     OW 4762   4.118   4.611   6.363
 1288SOL    HW1 4763   4.177   4.642   6.438
 1288SOL    HW2 4764   4.090   4.517   6.380
 1289SOL     OW 4765   0.571   0.741   1.423
 1289SOL    HW1 4766   0.490   0.796   1.401
 1289SOL    HW2 4767   0.648   0.803   1.442
 1290SOL     OW 4768   1.344   6.921   0.366
 1290SOL    HW1 4769   1.270   6.854   0.358
 1290SOL    HW2 4770   1.422   6.878   0.411
 1291SOL     OW 4771   0.487   3.990   3.967
 1291SOL    HW1 4772   0.524   4.083   3.964
 1291SOL    HW2 4773   0.388   3.993   3.956
 1292SOL     OW 4774   0.267   5.892   2.292
 1292SOL    HW1 4775   0.259   5.991   2.299
 1292SOL    HW2 4776   0.357   5.863   2.324
 1293SOL     OW 4777   2.092   2.229   6.629
 1293SOL    HW1 4778   2.169   2.275   6.673
 1293SOL    HW2 4779   2.101   2.130   6.639
 1294SOL     OW 4780   0.359   3.538   5.791
 1294SOL    HW1 4781   0.299   3.619   5.789
 1294SOL    HW2 4782   0.454   3.568   5.796
 1295SOL     OW 4783   0.065   3.085   1.135
 1295SOL    HW1 4784   0.049   3.028   1.055
 1295SOL    HW2 4785   0.160   3.076   1.164
 1296SOL     OW 4786   4.639   0.053   5.004
 1296SOL    HW1 4787   4.699   0.050   5.084
 1296SOL    HW2 4788   4.614   6.981   4.978
 1297SOL     OW 4789   1.161   6.626   1.613
 1297SOL    HW1 4790   1.238   6.584   1.566
 1297SOL    HW2 4791   1.194   6.699   1.672
 1298SOL     OW 4792   5.403   6.619   3.688
 1298SOL    HW1 4793   5.341   6.541   3.677
 1298SOL    HW2 4794   5.428   6.654   3.597
 1299SOL     OW 4795   2.470   2.510   3.503
 1299SOL    HW1 4796   2.525   2.427   3.496
 1299SOL    HW2 4797   2.389   2.492   3.558
 1300SOL     OW 4798   1.831   3.349   0.987
 1300SOL    HW1 4799   1.747   3.398   0.964
 1300SOL    HW2 4800   1.883   3.331   0.904
 1301SOL     OW 4801   0.523   6.948   1.890
 1301SOL    HW1 4802   0.530   6.897   1.804
 1301SOL    HW2 4803   0.564   6.895   1.964
 1302SOL     OW 4804   4.895   0.211   5.278
 1302SOL    HW1 4805   4.901   0.203   5.378
 1302SOL    HW2 4806   4.983   0.239   5.241
 1303SOL     OW 4807   4.005   1.125   1.153
 1303SOL    HW1 4808   4.080   1.064   1.126
 1303SOL    HW2 4809   4.042   1.200   1.207
 1304SOL     OW 4810   1.506   6.821   1.069
 1304SOL    HW1 4811   1.559   6.902   1.096
 1304SOL    HW2 4812   1.428   6.849   1.014
 1305SOL     OW 4813   5.705   4.430   0.245
 1305SOL    HW1 4814   5.802   4.425   0.269
 1305SOL    HW2 4815   5.686   4.365   0.170
 1306SOL     OW 4816   1.318   5.947   4.193
 1306SOL    HW1 4817   1.340   6.021   4.257
 1306SOL    HW2 4818   1.360   5.966   4.104
 1307SOL     OW 4819   1.805   4.048   4.230
 1307SOL    HW1 4820   1.865   3.969   4.246
 1307SOL    HW2 4821   1.861   4.129   4.216
 1308SOL     OW 4822   0.152   0.106   6.032
 1308SOL    HW1 4823   0.171   0.046   6.109
 1308SOL    HW2 4824   0.213   0.084   5.956
 1309SOL     OW 4825   5.925   4.556   5.439
 1309SOL    HW1 4826   5.877   4.469   5.429
 1309SOL    HW2 4827   5.876   4.613   5.506
 1310SOL     OW 4828   0.235   3.584   2.888
 1310SOL    HW1 4829   0.155   3.554   2.940
 1310SOL    HW2 4830   0.318   3.547   2.930
 1311SOL     OW 4831   0.036   6.219   6.216
 1311SOL    HW1 4832   0.045   6.265   6.128
 1311SOL    HW2 4833   6.961   6.217   6.243
 1312SOL     OW 4834   1.557   6.733   0.081
 1312SOL    HW1 4835   1.477   6.741   0.141
 1312SOL    HW2 4836   1.614   6.657   0.112
 1313SOL     OW 4837   6.872   5.335   2.453
 1313SOL    HW1 4838   6.906   5.282   2.530
 1313SOL    HW2 4839   6.864   5.275   2.373
 1314SOL     OW 4840   3.521   1.632   4.760
 1314SOL    HW1 4841   3.484   1.565   4.825
 1314SOL    HW2 4842   3.485   1.612   4.668
 1315SOL     OW 4843   6.712   1.276   3.137
 1315SOL    HW1 4844   6.677   1.185   3.158
 1315SOL    HW2 4845   6.704   1.334   3.218
 1316SOL     OW 4846   3.388   0.138   5.921
 1316SOL    HW1 4847   3.295   0.136   5.883
 1316SOL    HW2 4848   3.387   0.097   6.013
 1317SOL     OW 4849   1.661   4.106   5.723
 1317SOL    HW1 4850   1.609   4.167   5.663
 1317SOL    HW2 4851   1.668   4.146   5.814
 1318SOL     OW 4852   1.252   2.942   0.578
 1318SOL    HW1 4853   1.317   3.016   0.591
 1318SOL    HW2 4854   1.291   2.873   0.516
 1319SOL     OW 4855   0.358   5.870   0.530
 1319SOL    HW1 4856   0.416   5.815   0.470
 1319SOL    HW2 4857   0.264   5.837   0.524
 1320SOL     OW 4858   3.375   3.981   7.014
 1320SOL    HW1 4859   3.441   3.953   6.945
 1320SOL    HW2 4860   3.377   3.917   0.069
 1321SOL     OW 4861   5.498   2.840   6.089
 1321SOL    HW1 4862   5.570   2.889   6.040
 1321SOL    HW2 4863   5.529   2.747   6.108
 1322SOL     OW 4864   3.786   1.697   4.788
 1322SOL    HW1 4865   3.700   1.646   4.794
 1322SOL    HW2 4866   3.769   1.786   4.745
 1323SOL     OW 4867   3.462   6.977   6.806
 1323SOL    HW1 4868   3.399   0.028   6.780
 1323SOL    HW2 4869   3.435   6.891   6.763
 1324SOL     OW 4870   0.458   3.220   6.793
 1324SOL    HW1 4871   0.397   3.274   6.851
 1324SOL    HW2 4872   0.404   3.177   6.719
 1325SOL     OW 4873   3.954   6.309   4.977
 1325SOL    HW1 4874   3.874   6.369   4.985
 1325SOL    HW2 4875   3.968   6.261   5.063
 1326SOL     OW 4876   4.703   3.848   5.341
 1326SOL    HW1 4877   4.767   3.908   5.293
 1326SOL    HW2 4878   4.667   3.781   5.277
 1327SOL     OW 4879   1.305   6.168   0.751
 1327SOL    HW1 4880   1.231   6.165   0.819
 1327SOL    HW2 4881   1.331   6.263   0.734
 1328SOL     OW 4882   2.306   3.193   0.236
 1328SOL    HW1 4883   2.374   3.210   0.165
 1328SOL    HW2 4884   2.262   3.105   0.219
 1329SOL     OW 4885   0.669   2.739   2.586
 1329SOL    HW1 4886   0.745   2.724   2.523
 1329SOL    HW2 4887   0.592   2.680   2.561
 1330SOL     OW 4888   1.583   1.885   1.375
 1330SOL    HW1 4889   1.555   1.789   1.371
 1330SOL    HW2 4890   1.501   1.943   1.373
 1331SOL     OW 4891   4.928   2.733   3.216
 1331SOL    HW1 4892   4.876   2.780   3.145
 1331SOL    HW2 4893   5.009   2.691   3.176
 1332SOL     OW 4894   2.882   6.865   0.613
 1332SOL    HW1 4895   2.924   6.814   0.539
 1332SOL    HW2 4896   2.922   6.957   0.617
 1333SOL     OW 4897   3.047   3.670   2.915
 1333SOL    HW1 4898   2.994   3.657   2.831
 1333SOL    HW2 4899   3.002   3.738   2.972
 1334SOL     OW 4900   6.850   1.350   3.779
 1334SOL    HW1 4901   6.899   1.266   3.756
 1334SOL    HW2 4902   6.883   1.385   3.866
 1335SOL     OW 4903   2.222   1.567   2.208
 1335SOL    HW1 4904   2.169   1.613   2.279
 1335SOL    HW2 4905   2.306   1.530   2.247
 1336SOL     OW 4906   3.006   1.994   4.480
 1336SOL    HW1 4907   3.050   1.971   4.567
 1336SOL    HW2 4908   2.965   2.085   4.487
 1337SOL     OW 4909   1.186   1.537   2.420
 1337SOL    HW1 4910   1.189   1.606   2.492
 1337SOL    HW2 4911   1.098   1.544   2.372
 1338SOL     OW 4912   6.873   3.148   4.751
 1338SOL    HW1 4913   6.834   3.059   4.731
 1338SOL    HW2 4914   6.820   3.220   4.706
 1339SOL     OW 4915   6.121   1.795   0.002
 1339SOL    HW1 4916   6.086   1.702   0.013
 1339SOL    HW2 4917   6.221   1.793   0.007
 1340SOL     OW 4918   5.200   1.386   2.732
 1340SOL    HW1 4919   5.194   1.486   2.733
 1340SOL    HW2 4920   5.254   1.356   2.811
 1341SOL     OW 4921   4.325   6.783   6.513
 1341SOL    HW1 4922   4.253   6.822   6.570
 1341SOL    HW2 4923   4.376   6.715   6.566
 1342SOL     OW 4924   2.769   5.496   6.678
 1342SOL    HW1 4925   2.694   5.446   6.637
 1342SOL    HW2 4926   2.787   5.580   6.626
 1343SOL     OW 4927   5.303   5.713   2.571
 1343SOL    HW1 4928   5.257   5.690   2.656
 1343SOL    HW2 4929   5.280   5.645   2.501
 1344SOL     OW 4930   0.609   6.078   4.322
 1344SOL    HW1 4931   0.647   6.013   4.388
 1344SOL    HW2 4932   0.681   6.140   4.292
 1345SOL     OW 4933   0.501   5.429   2.705
 1345SOL    HW1 4934   0.517   5.484   2.786
 1345SOL    HW2 4935   0.586   5.387   2.674
 1346SOL     OW 4936   2.001   5.391   5.392
 1346SOL    HW1 4937   1.956   5.430   5.472
 1346SOL    HW2 4938   2.099   5.381   5.411
 1347SOL     OW 4939   6.818   6.809   5.850
 1347SOL    HW1 4940   6.815   6.778   5.945
 1347SOL    HW2 4941   6.726   6.817   5.814
 1348SOL     OW 4942   6.724   5.988   4.463
 1348SOL    HW1 4943   6.665   5.982   4.544
 1348SOL    HW2 4944   6.813   5.948   4.484
 1349SOL     OW 4945   5.764   2.833   5.119
 1349SOL    HW1 4946   5.688   2.827   5.184
 1349SOL    HW2 4947   5.745   2.775   5.040
 1350SOL     OW 4948   5.302   4.818   5.164
 1350SOL    HW1 4949   5.287   4.742   5.226
 1350SOL    HW2 4950   5.233   4.888   5.178
 1351SOL     OW 4951   5.448   2.208   3.882
 1351SOL    HW1 4952   5.539   2.246   3.896
 1351SOL    HW2 4953   5.415   2.233   3.791
 1352SOL     OW 4954   6.013   5.680   4.140
 1352SOL    HW1 4955   6.065   5.763   4.159
 1352SOL    HW2 4956   5.916   5.698   4.153
 1353SOL     OW 4957   0.700   2.675   0.315
 1353SOL    HW1 4958   0.604   2.702   0.300
 1353SOL    HW2 4959   0.739   2.731   0.388
 1354SOL     OW 4960   0.030   4.811   1.866
 1354SOL    HW1 4961   0.106   4.773   1.813
 1354SOL    HW2 4962   6.965   4.790   1.820
 1355SOL     OW 4963   6.195   3.725   4.339
 1355SOL    HW1 4964   6.294   3.734   4.347
 1355SOL    HW2 4965   6.163   3.654   4.402
 1356SOL     OW 4966   3.523   2.826   2.130
 1356SOL    HW1 4967   3.445   2.828   2.193
 1356SOL    HW2 4968   3.607   2.843   2.180
 1357SOL     OW 4969   0.224   4.210   6.171
 1357SOL    HW1 4970   0.308   4.263   6.173
 1357SOL    HW2 4971   0.157   4.251   6.233
 1358SOL     OW 4972   6.051   6.599   6.790
 1358SOL    HW1 4973   5.959   6.602   6.750
 1358SOL    HW2 4974   6.105   6.528   6.745
 1359SOL     OW 4975   6.008   4.714   2.687
 1359SOL    HW1 4976   5.970   4.628   2.650
 1359SOL    HW2 4977   6.020   4.779   2.612
 1360SOL     OW 4978   2.287   3.862   0.754
 1360SOL    HW1 4979   2.318   3.769   0.732
 1360SOL    HW2 4980   2.227   3.895   0.682
 1361SOL     OW 4981   6.219   4.967   5.028
 1361SOL    HW1 4982   6.142   4.923   5.074
 1361SOL    HW2 4983   6.243   4.915   4.945
 1362SOL     OW 4984   4.062   3.817   3.234
 1362SOL    HW1 4985   3.980   3.787   3.281
 1362SOL    HW2 4986   4.093   3.745   3.171
 1363SOL     OW 4987   0.213   4.892   4.714
 1363SOL    HW1 4988   0.287   4.831   4.686
 1363SOL    HW2 4989   0.220   4.979   4.665
 1364SOL     OW 4990   5.335   4.274   0.678
 1364SOL    HW1 4991   5.260   4.309   0.622
 1364SOL    HW2 4992   5.416   4.332   0.665
 1365SOL     OW 4993   0.462   4.361   6.097
 1365SOL    HW1 4994   0.499   4.453   6.087
 1365SOL    HW2 4995   0.401   4.341   6.020
 1366SOL     OW 4996   1.383   6.322   6.288
 1366SOL    HW1 4997   1.307   6.372   6.331
 1366SOL    HW2 4998   1.404   6.364   6.200
 1367SOL     OW 4999   2.349   6.600   2.553
 1367SOL    HW1 5000   2.353   6.505   2.523
 1367SOL    HW2 5001   2.359   6.661   2.473
 1368SOL     OW 5002   5.217   0.043   4.078
 1368SOL    HW1 5003   5.293   0.057   4.015
 1368SOL    HW2 5004   5.247   7.009   4.155
 1369SOL     OW 5005   1.696   6.463   3.023
 1369SOL    HW1 5006   1.735   6.477   3.114
 1369SOL    HW2 5007   1.745   6.389   2.977
 1370SOL     OW 5008   3.572   1.044   1.941
 1370SOL    HW1 5009   3.516   0.962   1.956
 1370SOL    HW2 5010   3.589   1.055   1.843
 1371SOL     OW 5011   5.067   1.552   4.349
 1371SOL    HW1 5012   5.007   1.536   4.271
 1371SOL    HW2 5013   5.161   1.526   4.326
 1372SOL     OW 5014   1.531   2.963   0.262
 1372SOL    HW1 5015   1.582   2.958   0.348
 1372SOL    HW2 5016   1.448   2.909   0.269
 1373SOL     OW 5017   6.162   4.365   0.403
 1373SOL    HW1 5018   6.254   4.405   0.399
 1373SOL    HW2 5019   6.098   4.433   0.440
 1374SOL     OW 5020   3.878   2.224   0.565
 1374SOL    HW1 5021   3.818   2.304   0.567
 1374SOL    HW2 5022   3.845   2.159   0.496
 1375SOL     OW 5023   6.717   4.860   6.051
 1375SOL    HW1 5024   6.793   4.924   6.065
 1375SOL    HW2 5025   6.651   4.900   5.988
 1376SOL     OW 5026   5.116   3.333   3.749
 1376SOL    HW1 5027   5.074   3.284   3.825
 1376SOL    HW2 5028   5.051   3.339   3.673
 1377SOL     OW 5029   6.739   3.574   5.048
 1377SOL    HW1 5030   6.765   3.637   5.121
 1377SOL    HW2 5031   6.818   3.519   5.022
 1378SOL     OW 5032   6.224   1.969   4.769
 1378SOL    HW1 5033   6.199   1.940   4.676
 1378SOL    HW2 5034   6.213   2.068   4.777
 1379SOL     OW 5035   3.356   6.597   2.236
 1379SOL    HW1 5036   3.284   6.529   2.248
 1379SOL    HW2 5037   3.317   6.689   2.243
 1380SOL     OW 5038   0.053   6.874   2.420
 1380SOL    HW1 5039   0.150   6.884   2.396
 1380SOL    HW2 5040   0.045   6.870   2.520
 1381SOL     OW 5041   5.266   2.830   0.355
 1381SOL    HW1 5042   5.348   2.781   0.386
 1381SOL    HW2 5043   5.253   2.911   0.412
 1382SOL     OW 5044   5.959   4.914   6.654
 1382SOL    HW1 5045   5.952   4.816   6.632
 1382SOL    HW2 5046   5.912   4.932   6.740
 1383SOL     OW 5047   1.696   1.335   0.725
 1383SOL    HW1 5048   1.745   1.415   0.690
 1383SOL    HW2 5049   1.759   1.259   0.734
 1384SOL     OW 5050   3.992   1.690   3.083
 1384SOL    HW1 5051   3.988   1.596   3.048
 1384SOL    HW2 5052   4.000   1.754   3.006
 1385SOL     OW 5053   0.444   3.005   2.793
 1385SOL    HW1 5054   0.431   3.094   2.749
 1385SOL    HW2 5055   0.388   2.936   2.747
 1386SOL     OW 5056   1.939   2.253   4.597
 1386SOL    HW1 5057   1.920   2.327   4.661
 1386SOL    HW2 5058   1.879   2.261   4.518
 1387SOL     OW 5059   3.317   0.817   3.623
 1387SOL    HW1 5060   3.352   0.818   3.717
 1387SOL    HW2 5061   3.238   0.756   3.617
 1388SOL     OW 5062   6.664   6.387   4.259
 1388SOL    HW1 5063   6.605   6.307   4.249
 1388SOL    HW2 5064   6.710   6.405   4.172
 1389SOL     OW 5065   0.302   1.027   3.781
 1389SOL    HW1 5066   0.320   0.933   3.813
 1389SOL    HW2 5067   0.248   1.023   3.697
 1390SOL     OW 5068   4.663   1.679   6.694
 1390SOL    HW1 5069   4.624   1.622   6.622
 1390SOL    HW2 5070   4.667   1.774   6.663
 1391SOL     OW 5071   6.322   1.862   5.549
 1391SOL    HW1 5072   6.266   1.798   5.497
 1391SOL    HW2 5073   6.263   1.922   5.603
 1392SOL     OW 5074   4.712   5.958   5.812
 1392SOL    HW1 5075   4.702   6.009   5.727
 1392SOL    HW2 5076   4.754   5.869   5.793
 1393SOL     OW 5077   6.324   2.654   6.556
 1393SOL    HW1 5078   6.381   2.574   6.538
 1393SOL    HW2 5079   6.234   2.624   6.588
 1394SOL     OW 5080   3.811   6.730   4.010
 1394SOL    HW1 5081   3.889   6.691   4.059
 1394SOL    HW2 5082   3.825   6.720   3.912
 1395SOL     OW 5083   0.242   4.126   2.654
 1395SOL    HW1 5084   0.200   4.128   2.563
 1395SOL    HW2 5085   0.308   4.051   2.659
 1396SOL     OW 5086   1.937   0.336   4.216
 1396SOL    HW1 5087   2.000   0.281   4.270
 1396SOL    HW2 5088   1.955   0.433   4.233
 1397SOL     OW 5089   0.643   5.753   5.324
 1397SOL    HW1 5090   0.543   5.756   5.322
 1397SOL    HW2 5091   0.677   5.830   5.377
 1398SOL     OW 5092   1.893   1.053   1.044
 1398SOL    HW1 5093   1.806   1.003   1.037
 1398SOL    HW2 5094   1.965   1.000   0.999
 1399SOL     OW 5095   4.237   0.781   0.884
 1399SOL    HW1 5096   4.316   0.722   0.872
 1399SOL    HW2 5097   4.193   0.797   0.795
 1400SOL     OW 5098   6.519   0.752   4.521
 1400SOL    HW1 5099   6.538   0.670   4.575
 1400SOL    HW2 5100   6.463   0.727   4.442
 1401SOL     OW 5101   5.793   0.071   4.077
 1401SOL    HW1 5102   5.815   6.996   4.059
 1401SOL    HW2 5103   5.706   0.077   4.124
 1402SOL     OW 5104   5.969   4.182   0.307
 1402SOL    HW1 5105   5.972   4.227   0.218
 1402SOL    HW2 5106   6.039   4.221   0.366
 1403SOL     OW 5107   3.028   3.500   0.346
 1403SOL    HW1 5108   2.960   3.428   0.358
 1403SOL    HW2 5109   3.091   3.501   0.424
 1404SOL     OW 5110   4.996   0.399   1.113
 1404SOL    HW1 5111   5.055   0.388   1.033
 1404SOL    HW2 5112   5.020   0.330   1.182
 1405SOL     OW 5113   1.548   3.614   1.222
 1405SOL    HW1 5114   1.501   3.680   1.280
 1405SOL    HW2 5115   1.596   3.547   1.279
 1406SOL     OW 5116   2.132   4.042   1.606
 1406SOL    HW1 5117   2.184   4.126   1.594
 1406SOL    HW2 5118   2.107   4.031   1.703
 1407SOL     OW 5119   0.848   3.535   1.762
 1407SOL    HW1 5120   0.787   3.456   1.763
 1407SOL    HW2 5121   0.939   3.506   1.730
 1408SOL     OW 5122   6.476   6.048   6.958
 1408SOL    HW1 5123   6.480   5.950   6.941
 1408SOL    HW2 5124   6.567   6.082   6.983
 1409SOL     OW 5125   6.769   1.442   5.393
 1409SOL    HW1 5126   6.696   1.374   5.395
 1409SOL    HW2 5127   6.858   1.396   5.394
 1410SOL     OW 5128   2.142   2.891   6.366
 1410SOL    HW1 5129   2.071   2.905   6.435
 1410SOL    HW2 5130   2.106   2.916   6.276
 1411SOL     OW 5131   3.475   6.595   6.880
 1411SOL    HW1 5132   3.412   6.518   6.893
 1411SOL    HW2 5133   3.441   6.654   6.806
 1412SOL     OW 5134   0.415   3.479   0.922
 1412SOL    HW1 5135   0.434   3.577   0.923
 1412SOL    HW2 5136   0.464   3.436   0.846
 1413SOL     OW 5137   1.665   2.199   4.982
 1413SOL    HW1 5138   1.585   2.166   4.932
 1413SOL    HW2 5139   1.635   2.260   5.055
 1414SOL     OW 5140   1.230   3.085   1.722
 1414SOL    HW1 5141   1.270   2.995   1.706
 1414SOL    HW2 5142   1.244   3.143   1.642
 1415SOL     OW 5143   2.438   1.942   4.509
 1415SOL    HW1 5144   2.461   2.030   4.468
 1415SOL    HW2 5145   2.480   1.868   4.456
 1416SOL     OW 5146   3.924   0.517   4.711
 1416SOL    HW1 5147   3.878   0.578   4.646
 1416SOL    HW2 5148   3.885   0.529   4.802
 1417SOL     OW 5149   2.837   3.451   6.145
 1417SOL    HW1 5150   2.837   3.474   6.242
 1417SOL    HW2 5151   2.930   3.454   6.110
 1418SOL     OW 5152   3.194   4.207   0.409
 1418SOL    HW1 5153   3.102   4.183   0.378
 1418SOL    HW2 5154   3.211   4.166   0.498
 1419SOL     OW 5155   1.607   4.530   4.144
 1419SOL    HW1 5156   1.620   4.534   4.045
 1419SOL    HW2 5157   1.636   4.618   4.184
 1420SOL     OW 5158   3.670   5.286   2.665
 1420SOL    HW1 5159   3.605   5.279   2.741
 1420SOL    HW2 5160   3.763   5.293   2.701
 1421SOL     OW 5161   0.735   4.905   4.608
 1421SOL    HW1 5162   0.751   4.957   4.524
 1421SOL    HW2 5163   0.695   4.816   4.586
 1422SOL     OW 5164   2.734   4.009   5.586
 1422SOL    HW1 5165   2.771   3.989   5.676
 1422SOL    HW2 5166   2.708   4.106   5.582
 1423SOL     OW 5167   4.299   1.605   4.810
 1423SOL    HW1 5168   4.283   1.513   4.774
 1423SOL    HW2 5169   4.211   1.644   4.840
 1424SOL     OW 5170   6.447   3.215   6.147
 1424SOL    HW1 5171   6.415   3.267   6.068
 1424SOL    HW2 5172   6.440   3.117   6.129
 1425SOL     OW 5173   3.148   6.340   5.401
 1425SOL    HW1 5174   3.057   6.321   5.364
 1425SOL    HW2 5175   3.149   6.432   5.441
 1426SOL     OW 5176   2.270   1.548   6.941
 1426SOL    HW1 5177   2.210   1.600   6.880
 1426SOL    HW2 5178   2.241   1.453   6.943
 1427SOL     OW 5179   1.336   0.245   3.178
 1427SOL    HW1 5180   1.363   0.322   3.236
 1427SOL    HW2 5181   1.271   0.277   3.109
 1428SOL     OW 5182   0.014   2.582   1.925
 1428SOL    HW1 5183   6.967   2.511   1.942
 1428SOL    HW2 5184   0.003   2.618   1.833
 1429SOL     OW 5185   6.475   1.202   6.517
 1429SOL    HW1 5186   6.454   1.262   6.440
 1429SOL    HW2 5187   6.497   1.257   6.597
 1430SOL     OW 5188   2.755   4.995   4.172
 1430SOL    HW1 5189   2.705   4.916   4.205
 1430SOL    HW2 5190   2.779   5.054   4.249
 1431SOL     OW 5191   2.752   1.538   5.812
 1431SOL    HW1 5192   2.687   1.608   5.782
 1431SOL    HW2 5193   2.731   1.451   5.768
 1432SOL     OW 5194   2.367   1.252   0.607
 1432SOL    HW1 5195   2.387   1.342   0.570
 1432SOL    HW2 5196   2.449   1.218   0.655
 1433SOL     OW 5197   3.174   0.495   3.182
 1433SOL    HW1 5198   3.212   0.532   3.266
 1433SOL    HW2 5199   3.147   0.400   3.196
 1434SOL     OW 5200   0.565   2.385   0.092
 1434SOL    HW1 5201   0.590   2.295   0.057
 1434SOL    HW2 5202   0.475   2.380   0.136
 1435SOL     OW 5203   0.884   0.121   3.695
 1435SOL    HW1 5204   0.794   0.163   3.702
 1435SOL    HW2 5205   0.889   0.064   3.613
 1436SOL     OW 5206   5.732   3.745   0.816
 1436SOL    HW1 5207   5.632   3.750   0.813
 1436SOL    HW2 5208   5.762   3.658   0.779
 1437SOL     OW 5209   4.515   1.591   6.208
 1437SOL    HW1 5210   4.485   1.637   6.125
 1437SOL    HW2 5211   4.600   1.634   6.241
 1438SOL     OW 5212   2.855   1.045   1.294
 1438SOL    HW1 5213   2.846   1.007   1.386
 1438SOL    HW2 5214   2.781   1.108   1.275
 1439SOL     OW 5215   0.415   5.788   0.104
 1439SOL    HW1 5216   0.500   5.734   0.100
 1439SOL    HW2 5217   0.431   5.870   0.158
 1440SOL     OW 5218   3.299   3.509   3.847
 1440SOL    HW1 5219   3.270   3.588   3.793
 1440SOL    HW2 5220   3.221   3.473   3.898
 1441SOL     OW 5221   6.631   3.683   3.611
 1441SOL    HW1 5222   6.608   3.618   3.538
 1441SOL    HW2 5223   6.728   3.676   3.633
 1442SOL     OW 5224   5.446   4.886   0.631
 1442SOL    HW1 5225   5.451   4.826   0.712
 1442SOL    HW2 5226   5.461   4.831   0.549
 1443SOL     OW 5227   0.903   0.462   3.705
 1443SOL    HW1 5228   0.876   0.366   3.708
 1443SOL    HW2 5229   0.826   0.520   3.731
 1444SOL     OW 5230   4.750   6.364   3.217
 1444SOL    HW1 5231   4.772   6.456   3.250
 1444SOL    HW2 5232   4.808   6.297   3.264
 1445SOL     OW 5233   0.501   2.744   1.806
 1445SOL    HW1 5234   0.420   2.687   1.807
 1445SOL    HW2 5235   0.565   2.709   1.737
 1446SOL     OW 5236   4.682   2.718   0.367
 1446SOL    HW1 5237   4.658   2.747   0.460
 1446SOL    HW2 5238   4.658   2.622   0.355
 1447SOL     OW 5239   6.649   1.165   5.015
 1447SOL    HW1 5240   6.696   1.148   4.929
 1447SOL    HW2 5241   6.707   1.136   5.091
 1448SOL     OW 5242   6.436   1.758   0.680
 1448SOL    HW1 5243   6.463   1.693   0.752
 1448SOL    HW2 5244   6.343   1.790   0.697
 1449SOL     OW 5245   6.185   6.316   0.739
 1449SOL    HW1 5246   6.165   6.220   0.759
 1449SOL    HW2 5247   6.100   6.369   0.739
 1450SOL     OW 5248   6.190   2.404   2.594
 1450SOL    HW1 5249   6.213   2.314   2.555
 1450SOL    HW2 5250   6.125   2.450   2.534
 1451SOL     OW 5251   2.674   6.702   2.862
 1451SOL    HW1 5252   2.610   6.724   2.788
 1451SOL    HW2 5253   2.767   6.724   2.833
 1452SOL     OW 5254   5.183   0.657   4.820
 1452SOL    HW1 5255   5.123   0.578   4.808
 1452SOL    HW2 5256   5.245   0.663   4.742
 1453SOL     OW 5257   5.630   3.534   4.690
 1453SOL    HW1 5258   5.582   3.446   4.681
 1453SOL    HW2 5259   5.728   3.517   4.703
 1454SOL     OW 5260   5.246   2.439   1.901
 1454SOL    HW1 5261   5.305   2.388   1.964
 1454SOL    HW2 5262   5.151   2.417   1.920
 1455SOL     OW 5263   1.096   0.590   2.133
 1455SOL    HW1 5264   1.074   0.498   2.101
 1455SOL    HW2 5265   1.116   0.649   2.055
 1456SOL     OW 5266   0.032   6.489   5.135
 1456SOL    HW1 5267   0.056   6.567   5.076
 1456SOL    HW2 5268   7.008   6.419   5.080
 1457SOL     OW 5269   1.595   6.891   3.239
 1457SOL    HW1 5270   1.691   6.870   3.220
 1457SOL    HW2 5271   1.567   6.969   3.183
 1458SOL     OW 5272   5.291   6.728   5.246
 1458SOL    HW1 5273   5.249   6.639   5.266
 1458SOL    HW2 5274   5.387   6.715   5.222
 1459SOL     OW 5275   2.692   5.692   6.913
 1459SOL    HW1 5276   2.683   5.732   7.004
 1459SOL    HW2 5277   2.627   5.618   6.902
 1460SOL     OW 5278   0.337   6.357   6.691
 1460SOL    HW1 5279   0.403   6.414   6.740
 1460SOL    HW2 5280   0.385   6.292   6.633
 1461SOL     OW 5281   6.295   4.226   3.454
 1461SOL    HW1 5282   6.312   4.323   3.437
 1461SOL    HW2 5283   6.229   4.216   3.528
 1462SOL     OW 5284   6.437   1.558   0.400
 1462SOL    HW1 5285   6.445   1.635   0.337
 1462SOL    HW2 5286   6.505   1.566   0.473
 1463SOL     OW 5287   0.502   0.251   5.617
 1463SOL    HW1 5288   0.445   0.326   5.652
 1463SOL    HW2 5289   0.595   0.285   5.601
 1464SOL     OW 5290   0.304   6.741   0.466
 1464SOL    HW1 5291   0.326   6.645   0.483
 1464SOL    HW2 5292   0.231   6.770   0.528
 1465SOL     OW 5293   0.866   1.028   3.273
 1465SOL    HW1 5294   0.885   0.943   3.223
 1465SOL    HW2 5295   0.893   1.106   3.216
 1466SOL     OW 5296   6.961   6.282   2.421
 1466SOL    HW1 5297   7.009   6.368   2.439
 1466SOL    HW2 5298   7.008   6.208   2.469
 1467SOL     OW 5299   1.412   0.558   2.774
 1467SOL    HW1 5300   1.421   0.633   2.840
 1467SOL    HW2 5301   1.483   0.567   2.704
 1468SOL     OW 5302   5.623   5.700   3.244
 1468SOL    HW1 5303   5.615   5.614   3.195
 1468SOL    HW2 5304   5.605   5.685   3.341
 1469SOL     OW 5305   0.630   0.664   2.994
 1469SOL    HW1 5306   0.580   0.578   2.981
 1469SOL    HW2 5307   0.705   0.650   3.059
 1470SOL     OW 5308   1.190   0.584   2.612
 1470SOL    HW1 5309   1.221   0.620   2.524
 1470SOL    HW2 5310   1.269   0.572   2.672
 1471SOL     OW 5311   6.703   0.756   6.393
 1471SOL    HW1 5312   6.783   0.815   6.384
 1471SOL    HW2 5313   6.723   0.681   6.456
 1472SOL     OW 5314   4.707   6.159   4.582
 1472SOL    HW1 5315   4.716   6.069   4.540
 1472SOL    HW2 5316   4.765   6.224   4.533
 1473SOL     OW 5317   5.794   5.439   3.031
 1473SOL    HW1 5318   5.861   5.512   3.021
 1473SOL    HW2 5319   5.839   5.350   3.027
 1474SOL     OW 5320   6.101   5.710   3.856
 1474SOL    HW1 5321   6.063   5.669   3.938
 1474SOL    HW2 5322   6.074   5.656   3.776
 1475SOL     OW 5323   0.276   0.258   2.020
 1475SOL    HW1 5324   0.231   0.174   2.053
 1475SOL    HW2 5325   0.222   0.337   2.047
 1476SOL     OW 5326   1.322   1.032   1.908
 1476SOL    HW1 5327   1.368   1.107   1.956
 1476SOL    HW2 5328   1.284   0.968   1.974
 1477SOL     OW 5329   2.786   0.187   6.385
 1477SOL    HW1 5330   2.748   0.114   6.329
 1477SOL    HW2 5331   2.712   0.233   6.435
 1478SOL     OW 5332   5.893   4.756   0.982
 1478SOL    HW1 5333   5.803   4.775   1.022
 1478SOL    HW2 5334   5.888   4.769   0.883
 1479SOL     OW 5335   1.564   4.648   0.500
 1479SOL    HW1 5336   1.650   4.606   0.529
 1479SOL    HW2 5337   1.542   4.617   0.407
 1480SOL     OW 5338   2.525   0.871   0.135
 1480SOL    HW1 5339   2.560   0.812   0.062
 1480SOL    HW2 5340   2.601   0.918   0.179
 1481SOL     OW 5341   5.345   1.804   5.190
 1481SOL    HW1 5342   5.382   1.836   5.278
 1481SOL    HW2 5343   5.411   1.744   5.146
 1482SOL     OW 5344   5.970   1.620   1.138
 1482SOL    HW1 5345   6.014   1.578   1.059
 1482SOL    HW2 5346   5.982   1.561   1.218
 1483SOL     OW 5347   6.979   3.297   0.057
 1483SOL    HW1 5348   6.880   3.305   0.069
 1483SOL    HW2 5349   0.002   3.380   0.091
 1484SOL     OW 5350   6.201   4.150   3.205
 1484SOL    HW1 5351   6.186   4.229   3.146
 1484SOL    HW2 5352   6.202   4.180   3.301
 1485SOL     OW 5353   4.836   2.680   2.466
 1485SOL    HW1 5354   4.769   2.618   2.426
 1485SOL    HW2 5355   4.845   2.761   2.409
 1486SOL     OW 5356   4.495   2.220   3.523
 1486SOL    HW1 5357   4.541   2.204   3.436
 1486SOL    HW2 5358   4.560   2.204   3.598
 1487SOL     OW 5359   6.833   1.464   6.714
 1487SOL    HW1 5360   6.854   1.452   6.617
 1487SOL    HW2 5361   6.773   1.543   6.726
 1488SOL     OW 5362   4.919   1.958   2.683
 1488SOL    HW1 5363   4.920   1.983   2.780
 1488SOL    HW2 5364   4.860   2.021   2.633
 1489SOL     OW 5365   3.780   4.959   4.476
 1489SOL    HW1 5366   3.682   4.958   4.493
 1489SOL    HW2 5367   3.829   4.945   4.563
 1490SOL     OW 5368   1.327   2.069   0.555
 1490SOL    HW1 5369   1.237   2.038   0.585
 1490SOL    HW2 5370   1.355   2.148   0.610
 1491SOL     OW 5371   6.379   3.728   3.413
 1491SOL    HW1 5372   6.388   3.828   3.412
 1491SOL    HW2 5373   6.318   3.701   3.487
 1492SOL     OW 5374   5.118   1.981   1.910
 1492SOL    HW1 5375   5.038   2.039   1.893
 1492SOL    HW2 5376   5.091   1.885   1.913
 1493SOL     OW 5377   4.692   0.198   4.543
 1493SOL    HW1 5378   4.761   0.243   4.488
 1493SOL    HW2 5379   4.616   0.262   4.559
 1494SOL     OW 5380   3.740   2.754   5.686
 1494SOL    HW1 5381   3.765   2.675   5.631
 1494SOL    HW2 5382   3.784   2.749   5.776
 1495SOL     OW 5383   0.219   3.382   3.388
 1495SOL    HW1 5384   0.162   3.310   3.349
 1495SOL    HW2 5385   0.222   3.460   3.325
 1496SOL     OW 5386   0.282   0.529   1.619
 1496SOL    HW1 5387   0.217   0.498   1.688
 1496SOL    HW2 5388   0.271   0.628   1.605
 1497SOL     OW 5389   0.397   4.862   3.898
 1497SOL    HW1 5390   0.325   4.843   3.831
 1497SOL    HW2 5391   0.384   4.954   3.936
 1498SOL     OW 5392   2.350   4.952   6.215
 1498SOL    HW1 5393   2.397   4.880   6.163
 1498SOL    HW2 5394   2.416   4.997   6.276
 1499SOL     OW 5395   1.272   4.178   5.103
 1499SOL    HW1 5396   1.356   4.152   5.055
 1499SOL    HW2 5397   1.221   4.244   5.047
 1500SOL     OW 5398   5.872   0.002   0.724
 1500SOL    HW1 5399   5.925   6.945   0.755
 1500SOL    HW2 5400   5.820   0.040   0.801
 1501SOL     OW 5401   4.053   0.558   6.754
 1501SOL    HW1 5402   4.034   0.590   6.846
 1501SOL    HW2 5403   4.099   0.630   6.702
 1502SOL     OW 5404   6.621   6.799   0.150
 1502SOL    HW1 5405   6.580   6.852   0.076
 1502SOL    HW2 5406   6.664   6.717   0.113
 1503SOL     OW 5407   2.113   2.838   1.141
 1503SOL    HW1 5408   2.128   2.817   1.238
 1503SOL    HW2 5409   2.062   2.763   1.098
 1504SOL     OW 5410   2.669   0.072   4.897
 1504SOL    HW1 5411   2.612   0.152   4.920
 1504SOL    HW2 5412   2.651   7.020   4.961
 1505SOL     OW 5413   5.170   0.117   6.103
 1505SOL    HW1 5414   5.160   0.107   6.202
 1505SOL    HW2 5415   5.160   0.027   6.060
 1506SOL     OW 5416   1.075   5.030   3.348
 1506SOL    HW1 5417   0.995   4.982   3.383
 1506SOL    HW2 5418   1.147   5.032   3.417
 1507SOL     OW 5419   1.599   1.554   4.716
 1507SOL    HW1 5420   1.617   1.535   4.812
 1507SOL    HW2 5421   1.679   1.529   4.661
 1508SOL     OW 5422   4.635   0.094   1.072
 1508SOL    HW1 5423   4.595   0.161   1.009
 1508SOL    HW2 5424   4.563   0.052   1.127
 1509SOL     OW 5425   4.175   2.857   6.655
 1509SOL    HW1 5426   4.202   2.768   6.618
 1509SOL    HW2 5427   4.175   2.853   6.755
 1510SOL     OW 5428   5.761   2.384   4.128
 1510SOL    HW1 5429   5.672   2.420   4.102
 1510SOL    HW2 5430   5.779   2.404   4.224
 1511SOL     OW 5431   2.424   1.798   6.932
 1511SOL    HW1 5432   2.364   1.720   6.950
 1511SOL    HW2 5433   2.500   1.769   6.874
 1512SOL     OW 5434   6.547   6.690   1.757
 1512SOL    HW1 5435   6.491   6.768   1.786
 1512SOL    HW2 5436   6.488   6.616   1.726
 1513SOL     OW 5437   4.076   0.788   3.762
 1513SOL    HW1 5438   4.021   0.775   3.679
 1513SOL    HW2 5439   4.078   0.704   3.815
 1514SOL     OW 5440   5.191   1.655   5.025
 1514SOL    HW1 5441   5.222   1.712   5.101
 1514SOL    HW2 5442   5.267   1.640   4.962
 1515SOL     OW 5443   0.274   3.196   5.500
 1515SOL    HW1 5444   0.359   3.217   5.450
 1515SOL    HW2 5445   0.204   3.167   5.435
 1516SOL     OW 5446   0.652   1.039   1.173
 1516SOL    HW1 5447   0.685   1.067   1.083
 1516SOL    HW2 5448   0.719   0.978   1.216
 1517SOL     OW 5449   4.212   5.245   4.111
 1517SOL    HW1 5450   4.181   5.276   4.022
 1517SOL    HW2 5451   4.133   5.230   4.171
 1518SOL     OW 5452   6.900   3.827   6.809
 1518SOL    HW1 5453   6.836   3.874   6.870
 1518SOL    HW2 5454   6.871   3.732   6.797
 1519SOL     OW 5455   0.001   4.363   1.145
 1519SOL    HW1 5456   0.082   4.404   1.102
 1519SOL    HW2 5457   0.004   4.377   1.244
 1520SOL     OW 5458   1.951   3.337   2.428
 1520SOL    HW1 5459   1.886   3.386   2.486
 1520SOL    HW2 5460   1.906   3.256   2.390
 1521SOL     OW 5461   1.978   3.083   0.107
 1521SOL    HW1 5462   2.000   3.180   0.102
 1521SOL    HW2 5463   1.882   3.069   0.086
 1522SOL     OW 5464   7.000   1.837   6.328
 1522SOL    HW1 5465   0.035   1.832   6.411
 1522SOL    HW2 5466   0.038   1.854   6.249
 1523SOL     OW 5467   5.129   3.689   6.417
 1523SOL    HW1 5468   5.162   3.669   6.510
 1523SOL    HW2 5469   5.049   3.633   6.397
 1524SOL     OW 5470   1.133   1.473   1.657
 1524SOL    HW1 5471   1.189   1.511   1.730
 1524SOL    HW2 5472   1.053   1.428   1.697
 1525SOL     OW 5473   4.846   1.938   5.529
 1525SOL    HW1 5474   4.857   1.857   5.586
 1525SOL    HW2 5475   4.937   1.975   5.506
 1526SOL     OW 5476   0.379   0.981   1.203
 1526SOL    HW1 5477   0.475   0.959   1.190
 1526SOL    HW2 5478   0.327   0.897   1.214
 1527SOL     OW 5479   3.139   1.892   4.708
 1527SOL    HW1 5480   3.086   1.816   4.747
 1527SOL    HW2 5481   3.209   1.920   4.773
 1528SOL     OW 5482   5.045   6.031   2.711
 1528SOL    HW1 5483   5.104   6.062   2.636
 1528SOL    HW2 5484   4.974   5.970   2.675
 1529SOL     OW 5485   4.891   1.415   6.052
 1529SOL    HW1 5486   4.861   1.502   6.092
 1529SOL    HW2 5487   4.817   1.376   5.998
 1530SOL     OW 5488   3.068   6.870   1.079
 1530SOL    HW1 5489   3.081   6.950   1.020
 1530SOL    HW2 5490   3.125   6.879   1.161
 1531SOL     OW 5491   5.583   0.731   5.376
 1531SOL    HW1 5492   5.580   0.655   5.311
 1531SOL    HW2 5493   5.672   0.776   5.369
 1532SOL     OW 5494   2.919   2.244   4.568
 1532SOL    HW1 5495   2.960   2.213   4.654
 1532SOL    HW2 5496   2.974   2.318   4.531
 1533SOL     OW 5497   0.041   3.333   6.726
 1533SOL    HW1 5498   0.072   3.297   6.638
 1533SOL    HW2 5499   0.108   3.310   6.797
 1534SOL     OW 5500   2.078   5.122   0.383
 1534SOL    HW1 5501   2.078   5.203   0.325
 1534SOL    HW2 5502   2.068   5.040   0.326
 1535SOL     OW 5503   5.300   5.209   4.457
 1535SOL    HW1 5504   5.289   5.268   4.537
 1535SOL    HW2 5505   5.397   5.199   4.436
 1536SOL     OW 5506   3.513   5.267   4.048
 1536SOL    HW1 5507   3.476   5.215   4.125
 1536SOL    HW2 5508   3.530   5.361   4.076
 1537SOL     OW 5509   3.327   5.461   3.875
 1537SOL    HW1 5510   3.422   5.474   3.847
 1537SOL    HW2 5511   3.271   5.536   3.839
 1538SOL     OW 5512   3.320   4.809   6.327
 1538SOL    HW1 5513   3.303   4.906   6.315
 1538SOL    HW2 5514   3.417   4.793   6.343
 1539SOL     OW 5515   3.764   4.173   1.311
 1539SOL    HW1 5516   3.677   4.195   1.266
 1539SOL    HW2 5517   3.822   4.122   1.247
 1540SOL     OW 5518   1.398   0.340   4.594
 1540SOL    HW1 5519   1.302   0.313   4.592
 1540SOL    HW2 5520   1.456   0.262   4.570
 1541SOL     OW 5521   3.778   2.452   1.283
 1541SOL    HW1 5522   3.775   2.521   1.355
 1541SOL    HW2 5523   3.873   2.431   1.261
 1542SOL     OW 5524   6.747   5.949   1.725
 1542SOL    HW1 5525   6.790   5.961   1.636
 1542SOL    HW2 5526   6.660   5.999   1.728
 1543SOL     OW 5527   3.203   3.293   3.184
 1543SOL    HW1 5528   3.246   3.353   3.251
 1543SOL    HW2 5529   3.153   3.221   3.232
 1544SOL     OW 5530   3.006   3.949   2.301
 1544SOL    HW1 5531   2.912   3.979   2.282
 1544SOL    HW2 5532   3.037   3.989   2.387
 1545SOL     OW 5533   5.075   0.375   5.499
 1545SOL    HW1 5534   5.120   0.390   5.587
 1545SOL    HW2 5535   5.049   0.463   5.460
 1546SOL     OW 5536   5.376   0.309   6.137
 1546SOL    HW1 5537   5.471   0.281   6.124
 1546SOL    HW2 5538   5.317   0.229   6.128
 1547SOL     OW 5539   2.287   4.245   2.685
 1547SOL    HW1 5540   2.266   4.159   2.639
 1547SOL    HW2 5541   2.288   4.320   2.618
 1548SOL     OW 5542   4.291   4.094   6.027
 1548SOL    HW1 5543   4.201   4.084   5.986
 1548SOL    HW2 5544   4.294   4.178   6.081
 1549SOL     OW 5545   6.671   1.291   2.007
 1549SOL    HW1 5546   6.728   1.240   2.071
 1549SOL    HW2 5547   6.708   1.383   1.996
 1550SOL     OW 5548   3.004   6.818   5.723
 1550SOL    HW1 5549   3.010   6.871   5.638
 1550SOL    HW2 5550   3.091   6.773   5.741
 1551SOL     OW 5551   1.818   2.874   1.428
 1551SOL    HW1 5552   1.807   2.942   1.500
 1551SOL    HW2 5553   1.799   2.916   1.339
 1552SOL     OW 5554   1.047   0.086   1.064
 1552SOL    HW1 5555   1.082   0.153   0.998
 1552SOL    HW2 5556   0.952   0.065   1.043
 1553SOL     OW 5557   6.374   1.627   6.369
 1553SOL    HW1 5558   6.321   1.680   6.435
 1553SOL    HW2 5559   6.343   1.649   6.276
 1554SOL     OW 5560   4.079   2.212   3.063
 1554SOL    HW1 5561   4.144   2.249   2.997
 1554SOL    HW2 5562   4.116   2.219   3.155
 1555SOL     OW 5563   4.668   2.549   5.531
 1555SOL    HW1 5564   4.749   2.584   5.484
 1555SOL    HW2 5565   4.634   2.618   5.595
 1556SOL     OW 5566   3.303   0.293   0.776
 1556SOL    HW1 5567   3.247   0.253   0.704
 1556SOL    HW2 5568   3.244   0.327   0.849
 1557SOL     OW 5569   2.292   2.819   0.816
 1557SOL    HW1 5570   2.229   2.881   0.864
 1557SOL    HW2 5571   2.362   2.873   0.769
 1558SOL     OW 5572   5.936   2.286   5.240
 1558SOL    HW1 5573   6.016   2.309   5.184
 1558SOL    HW2 5574   5.873   2.230   5.186
 1559SOL     OW 5575   0.365   3.772   2.052
 1559SOL    HW1 5576   0.426   3.721   1.991
 1559SOL    HW2 5577   0.277   3.787   2.006
 1560SOL     OW 5578   3.743   1.370   7.009
 1560SOL    HW1 5579   3.807   1.311   0.037
 1560SOL    HW2 5580   3.708   1.440   0.050
 1561SOL     OW 5581   5.233   6.086   2.540
 1561SOL    HW1 5582   5.265   6.034   2.460
 1561SOL    HW2 5583   5.280   6.175   2.542
 1562SOL     OW 5584   2.733   6.268   2.148
 1562SOL    HW1 5585   2.828   6.239   2.153
 1562SOL    HW2 5586   2.689   6.225   2.070
 1563SOL     OW 5587   2.795   2.327   4.983
 1563SOL    HW1 5588   2.787   2.268   5.063
 1563SOL    HW2 5589   2.788   2.423   5.011
 1564SOL     OW 5590   1.284   1.094   2.453
 1564SOL    HW1 5591   1.257   1.163   2.520
 1564SOL    HW2 5592   1.244   1.116   2.364
 1565SOL     OW 5593   4.148   5.389   4.805
 1565SOL    HW1 5594   4.080   5.429   4.743
 1565SOL    HW2 5595   4.140   5.431   4.895
 1566SOL     OW 5596   5.770   4.621   3.729
 1566SOL    HW1 5597   5.764   4.680   3.810
 1566SOL    HW2 5598   5.776   4.525   3.759
 1567SOL     OW 5599   5.850   5.514   6.488
 1567SOL    HW1 5600   5.817   5.478   6.576
 1567SOL    HW2 5601   5.786   5.582   6.454
 1568SOL     OW 5602   2.379   6.007   3.689
 1568SOL    HW1 5603   2.298   6.046   3.734
 1568SOL    HW2 5604   2.354   5.973   3.599
 1569SOL     OW 5605   3.798   0.431   3.059
 1569SOL    HW1 5606   3.883   0.388   3.087
 1569SOL    HW2 5607   3.817   0.520   3.017
 1570SOL     OW 5608   2.814   6.677   6.562
 1570SOL    HW1 5609   2.806   6.760   6.507
 1570SOL    HW2 5610   2.869   6.697   6.643
 1571SOL     OW 5611   0.954   2.677   2.929
 1571SOL    HW1 5612   0.997   2.588   2.944
 1571SOL    HW2 5613   0.856   2.664   2.912
 1572SOL     OW 5614   1.703   5.489   1.588
 1572SOL    HW1 5615   1.794   5.465   1.621
 1572SOL    HW2 5616   1.646   5.519   1.665
 1573SOL     OW 5617   5.133   5.461   1.711
 1573SOL    HW1 5618   5.159   5.465   1.807
 1573SOL    HW2 5619   5.041   5.499   1.700
 1574SOL     OW 5620   6.202   3.249   2.387
 1574SOL    HW1 5621   6.293   3.232   2.349
 1574SOL    HW2 5622   6.139   3.178   2.355
 1575SOL     OW 5623   2.133   0.685   1.692
 1575SOL    HW1 5624   2.045   0.649   1.663
 1575SOL    HW2 5625   2.138   0.783   1.672
 1576SOL     OW 5626   0.900   6.176   2.434
 1576SOL    HW1 5627   0.943   6.177   2.524
 1576SOL    HW2 5628   0.810   6.132   2.441
 1577SOL     OW 5629   3.019   0.739   6.544
 1577SOL    HW1 5630   3.003   0.642   6.565
 1577SOL    HW2 5631   3.040   0.788   6.628
 1578SOL     OW 5632   4.750   1.189   6.659
 1578SOL    HW1 5633   4.828   1.166   6.717
 1578SOL    HW2 5634   4.752   1.286   6.638
 1579SOL     OW 5635   0.519   2.935   1.408
 1579SOL    HW1 5636   0.533   2.985   1.493
 1579SOL    HW2 5637   0.605   2.893   1.380
 1580SOL     OW 5638   3.321   3.959   3.393
 1580SOL    HW1 5639   3.292   3.894   3.322
 1580SOL    HW2 5640   3.377   4.030   3.351
 1581SOL     OW 5641   6.897   4.750   5.403
 1581SOL    HW1 5642   6.971   4.745   5.337
 1581SOL    HW2 5643   6.914   4.686   5.478
 1582SOL     OW 5644   3.988   5.701   4.966
 1582SOL    HW1 5645   3.931   5.718   4.886
 1582SOL    HW2 5646   3.973   5.608   4.999
 1583SOL     OW 5647   0.813   6.210   5.102
 1583SOL    HW1 5648   0.892   6.210   5.040
 1583SOL    HW2 5649   0.843   6.236   5.193
 1584SOL     OW 5650   1.736   4.635   6.863
 1584SOL    HW1 5651   1.674   4.596   6.795
 1584SOL    HW2 5652   1.810   4.684   6.815
 1585SOL     OW 5653   4.337   1.598   2.799
 1585SOL    HW1 5654   4.435   1.579   2.807
 1585SOL    HW2 5655   4.323   1.671   2.731
 1586SOL     OW 5656   3.226   4.970   3.279
 1586SOL    HW1 5657   3.264   4.937   3.365
 1586SOL    HW2 5658   3.243   5.069   3.271
 1587SOL     OW 5659   1.735   5.471   5.297
 1587SOL    HW1 5660   1.786   5.408   5.355
 1587SOL    HW2 5661   1.654   5.424   5.261
 1588SOL     OW 5662   4.481   0.387   2.082
 1588SOL    HW1 5663   4.550   0.451   2.046
 1588SOL    HW2 5664   4.517   0.294   2.078
 1589SOL     OW 5665   6.599   3.040   2.821
 1589SOL    HW1 5666   6.677   3.090   2.858
 1589SOL    HW2 5667   6.549   2.996   2.896
 1590SOL     OW 5668   5.566   1.804   3.757
 1590SOL    HW1 5669   5.606   1.828   3.669
 1590SOL    HW2 5670   5.638   1.772   3.819
 1591SOL     OW 5671   6.697   5.679   1.685
 1591SOL    HW1 5672   6.702   5.613   1.759
 1591SOL    HW2 5673   6.724   5.769   1.719
 1592SOL     OW 5674   1.782   4.477   0.104
 1592SOL    HW1 5675   1.692   4.445   0.134
 1592SOL    HW2 5676   1.773   4.523   0.016
 1593SOL     OW 5677   0.700   6.822   6.153
 1593SOL    HW1 5678   0.619   6.807   6.096
 1593SOL    HW2 5679   0.705   6.752   6.224
 1594SOL     OW 5680   6.552   6.922   1.377
 1594SOL    HW1 5681   6.550   6.987   1.453
 1594SOL    HW2 5682   6.609   6.844   1.402
 1595SOL     OW 5683   1.267   4.360   0.727
 1595SOL    HW1 5684   1.282   4.365   0.826
 1595SOL    HW2 5685   1.314   4.281   0.690
 1596SOL     OW 5686   6.232   3.423   2.783
 1596SOL    HW1 5687   6.214   3.391   2.876
 1596SOL    HW2 5688   6.310   3.373   2.745
 1597SOL     OW 5689   3.106   6.007   1.225
 1597SOL    HW1 5690   3.057   5.970   1.304
 1597SOL    HW2 5691   3.136   5.932   1.166
 1598SOL     OW 5692   1.147   5.594   6.557
 1598SOL    HW1 5693   1.162   5.509   6.608
 1598SOL    HW2 5694   1.049   5.614   6.552
 1599SOL     OW 5695   4.340   4.797   4.919
 1599SOL    HW1 5696   4.269   4.803   4.849
 1599SOL    HW2 5697   4.344   4.704   4.955
 1600SOL     OW 5698   3.087   0.206   2.041
 1600SOL    HW1 5699   3.036   0.292   2.041
 1600SOL    HW2 5700   3.157   0.209   1.969
 1601SOL     OW 5701   0.366   6.569   4.070
 1601SOL    HW1 5702   0.325   6.576   3.979
 1601SOL    HW2 5703   0.461   6.600   4.066
 1602SOL     OW 5704   5.089   5.584   3.955
 1602SOL    HW1 5705   5.032   5.655   3.997
 1602SOL    HW2 5706   5.085   5.502   4.011
 1603SOL     OW 5707   2.882   5.473   4.459
 1603SOL    HW1 5708   2.806   5.446   4.400
 1603SOL    HW2 5709   2.926   5.555   4.422
 1604SOL     OW 5710   4.127   5.185   1.546
 1604SOL    HW1 5711   4.060   5.154   1.478
 1604SOL    HW2 5712   4.082   5.197   1.635
 1605SOL     OW 5713   6.074   5.525   1.357
 1605SOL    HW1 5714   6.143   5.454   1.369
 1605SOL    HW2 5715   6.114   5.614   1.377
 1606SOL     OW 5716   4.228   5.359   5.404
 1606SOL    HW1 5717   4.184   5.448   5.395
 1606SOL    HW2 5718   4.226   5.311   5.316
 1607SOL     OW 5719   4.281   0.186   1.544
 1607SOL    HW1 5720   4.248   0.156   1.455
 1607SOL    HW2 5721   4.282   0.286   1.547
 1608SOL     OW 5722   6.869   0.385   3.291
 1608SOL    HW1 5723   6.924   0.452   3.241
 1608SOL    HW2 5724   6.803   0.433   3.349
 1609SOL     OW 5725   3.146   6.780   0.698
 1609SOL    HW1 5726   3.046   6.781   0.702
 1609SOL    HW2 5727   3.179   6.696   0.741
 1610SOL     OW 5728   4.898   6.576   0.748
 1610SOL    HW1 5729   4.951   6.536   0.823
 1610SOL    HW2 5730   4.877   6.505   0.681
 1611SOL     OW 5731   1.572   3.461   0.954
 1611SOL    HW1 5732   1.610   3.546   0.990
 1611SOL    HW2 5733   1.509   3.422   1.020
 1612SOL     OW 5734   3.161   6.476   1.236
 1612SOL    HW1 5735   3.162   6.385   1.196
 1612SOL    HW2 5736   3.069   6.516   1.226
 1613SOL     OW 5737   0.528   5.831   2.310
 1613SOL    HW1 5738   0.541   5.775   2.228
 1613SOL    HW2 5739   0.559   5.780   2.390
 1614SOL     OW 5740   5.619   1.872   6.048
 1614SOL    HW1 5741   5.660   1.944   5.991
 1614SOL    HW2 5742   5.690   1.804   6.071
 1615SOL     OW 5743   6.873   5.279   5.780
 1615SOL    HW1 5744   6.850   5.330   5.863
 1615SOL    HW2 5745   6.806   5.300   5.709
 1616SOL     OW 5746   3.779   1.151   4.116
 1616SOL    HW1 5747   3.820   1.235   4.079
 1616SOL    HW2 5748   3.807   1.073   4.059
 1617SOL     OW 5749   4.818   0.136   3.122
 1617SOL    HW1 5750   4.853   0.119   3.214
 1617SOL    HW2 5751   4.797   0.049   3.078
 1618SOL     OW 5752   1.300   5.886   2.400
 1618SOL    HW1 5753   1.265   5.966   2.450
 1618SOL    HW2 5754   1.346   5.917   2.316
 1619SOL     OW 5755   0.370   5.115   0.064
 1619SOL    HW1 5756   0.349   5.213   0.057
 1619SOL    HW2 5757   0.315   5.065   7.019
 1620SOL     OW 5758   3.124   5.141   1.265
 1620SOL    HW1 5759   3.203   5.163   1.207
 1620SOL    HW2 5760   3.149   5.155   1.361
 1621SOL     OW 5761   6.295   0.336   1.101
 1621SOL    HW1 5762   6.305   0.376   1.010
 1621SOL    HW2 5763   6.199   0.313   1.117
 1622SOL     OW 5764   0.209   3.774   5.775
 1622SOL    HW1 5765   0.265   3.857   5.769
 1622SOL    HW2 5766   0.121   3.796   5.816
 1623SOL     OW 5767   0.134   1.894   4.476
 1623SOL    HW1 5768   0.141   1.832   4.398
 1623SOL    HW2 5769   0.216   1.887   4.532
 1624SOL     OW 5770   4.398   1.634   6.818
 1624SOL    HW1 5771   4.330   1.630   6.891
 1624SOL    HW2 5772   4.467   1.702   6.839
 1625SOL     OW 5773   1.192   5.082   6.497
 1625SOL    HW1 5774   1.251   5.136   6.557
 1625SOL    HW2 5775   1.226   5.087   6.403
 1626SOL     OW 5776   3.067   1.383   1.930
 1626SOL    HW1 5777   3.046   1.480   1.915
 1626SOL    HW2 5778   3.073   1.337   1.842
 1627SOL     OW 5779   5.974   2.725   3.544
 1627SOL    HW1 5780   6.001   2.714   3.448
 1627SOL    HW2 5781   5.914   2.804   3.553
 1628SOL     OW 5782   4.519   5.740   6.239
 1628SOL    HW1 5783   4.474   5.737   6.329
 1628SOL    HW2 5784   4.458   5.702   6.170
 1629SOL     OW 5785   2.617   1.590   3.306
 1629SOL    HW1 5786   2.578   1.498   3.299
 1629SOL    HW2 5787   2.684   1.592   3.380
 1630SOL     OW 5788   6.730   4.451   5.604
 1630SOL    HW1 5789   6.770   4.363   5.580
 1630SOL    HW2 5790   6.724   4.459   5.704
 1631SOL     OW 5791   0.058   3.057   0.841
 1631SOL    HW1 5792   0.076   3.152   0.817
 1631SOL    HW2 5793   0.039   3.005   0.758
 1632SOL     OW 5794   4.778   4.173   2.527
 1632SOL    HW1 5795   4.779   4.097   2.462
 1632SOL    HW2 5796   4.717   4.245   2.493
 1633SOL     OW 5797   5.222   4.568   4.570
 1633SOL    HW1 5798   5.189   4.646   4.518
 1633SOL    HW2 5799   5.154   4.494   4.566
 1634SOL     OW 5800   4.367   1.337   4.464
 1634SOL    HW1 5801   4.387   1.260   4.524
 1634SOL    HW2 5802   4.394   1.314   4.370
 1635SOL     OW 5803   2.116   5.798   6.586
 1635SOL    HW1 5804   2.055   5.871   6.617
 1635SOL    HW2 5805   2.117   5.724   6.654
 1636SOL     OW 5806   3.739   5.387   1.219
 1636SOL    HW1 5807   3.645   5.418   1.204
 1636SOL    HW2 5808   3.791   5.458   1.266
 1637SOL     OW 5809   6.597   6.757   3.930
 1637SOL    HW1 5810   6.685   6.790   3.897
 1637SOL    HW2 5811   6.581   6.791   4.023
 1638SOL     OW 5812   0.180   3.034   1.572
 1638SOL    HW1 5813   0.099   3.062   1.624
 1638SOL    HW2 5814   0.152   2.981   1.492
 1639SOL     OW 5815   6.800   4.672   2.415
 1639SOL    HW1 5816   6.713   4.636   2.447
 1639SOL    HW2 5817   6.787   4.765   2.382
 1640SOL     OW 5818   6.956   0.214   0.329
 1640SOL    HW1 5819   0.001   0.274   0.285
 1640SOL    HW2 5820   6.868   0.221   0.282
 1641SOL     OW 5821   6.666   2.607   4.139
 1641SOL    HW1 5822   6.614   2.556   4.070
 1641SOL    HW2 5823   6.699   2.693   4.100
 1642SOL     OW 5824   6.979   3.040   6.530
 1642SOL    HW1 5825   6.957   2.946   6.503
 1642SOL    HW2 5826   0.028   3.038   6.601
 1643SOL     OW 5827   3.206   4.848   2.706
 1643SOL    HW1 5828   3.116   4.816   2.736
 1643SOL    HW2 5829   3.206   4.948   2.699
 1644SOL     OW 5830   5.909   3.108   6.798
 1644SOL    HW1 5831   6.002   3.087   6.828
 1644SOL    HW2 5832   5.843   3.053   6.849
 1645SOL     OW 5833   3.009   6.576   6.243
 1645SOL    HW1 5834   3.083   6.571   6.311
 1645SOL    HW2 5835   2.994   6.672   6.217
 1646SOL     OW 5836   1.835   6.021   0.364
 1646SOL    HW1 5837   1.907   6.082   0.331
 1646SOL    HW2 5838   1.796   6.057   0.448
 1647SOL     OW 5839   5.454   2.575   4.385
 1647SOL    HW1 5840   5.442   2.477   4.368
 1647SOL    HW2 5841   5.436   2.595   4.481
 1648SOL     OW 5842   5.488   6.229   0.242
 1648SOL    HW1 5843   5.557   6.179   0.191
 1648SOL    HW2 5844   5.524   6.252   0.333
 1649SOL     OW 5845   3.888   1.086   3.607
 1649SOL    HW1 5846   3.848   1.150   3.673
 1649SOL    HW2 5847   3.844   0.997   3.616
 1650SOL     OW 5848   1.177   5.246   5.499
 1650SOL    HW1 5849   1.255   5.211   5.446
 1650SOL    HW2 5850   1.182   5.212   5.593
 1651SOL     OW 5851   0.473   2.255   2.464
 1651SOL    HW1 5852   0.471   2.331   2.530
 1651SOL    HW2 5853   0.482   2.169   2.514
 1652SOL     OW 5854   0.884   3.474   2.356
 1652SOL    HW1 5855   0.967   3.431   2.391
 1652SOL    HW2 5856   0.904   3.569   2.333
 1653SOL     OW 5857   6.958   5.545   1.390
 1653SOL    HW1 5858   7.009   5.590   1.463
 1653SOL    HW2 5859   6.873   5.508   1.425
 1654SOL     OW 5860   6.910   3.106   1.359
 1654SOL    HW1 5861   6.836   3.167   1.331
 1654SOL    HW2 5862   6.980   3.104   1.287
 1655SOL     OW 5863   6.301   1.203   4.440
 1655SOL    HW1 5864   6.278   1.181   4.345
 1655SOL    HW2 5865   6.341   1.123   4.484
 1656SOL     OW 5866   2.210   5.672   3.580
 1656SOL    HW1 5867   2.161   5.589   3.554
 1656SOL    HW2 5868   2.306   5.650   3.600
 1657SOL     OW 5869   6.500   0.470   5.278
 1657SOL    HW1 5870   6.588   0.511   5.299
 1657SOL    HW2 5871   6.453   0.446   5.363
 1658SOL     OW 5872   0.017   0.541   0.568
 1658SOL    HW1 5873   0.098   0.508   0.519
 1658SOL    HW2 5874   6.973   0.467   0.580
 1659SOL     OW 5875   3.739   0.503   6.973
 1659SOL    HW1 5876   3.649   0.487   6.933
 1659SOL    HW2 5877   3.728   0.528   0.048
 1660SOL     OW 5878   1.724   0.180   2.515
 1660SOL    HW1 5879   1.671   0.107   2.474
 1660SOL    HW2 5880   1.673   0.221   2.591
 1661SOL     OW 5881   3.050   5.782   2.152
 1661SOL    HW1 5882   2.956   5.748   2.139
 1661SOL    HW2 5883   3.063   5.806   2.248
 1662SOL     OW 5884   6.137   0.417   5.319
 1662SOL    HW1 5885   6.127   0.367   5.405
 1662SOL    HW2 5886   6.093   0.365   5.245
 1663SOL     OW 5887   5.163   5.300   2.691
 1663SOL    HW1 5888   5.162   5.275   2.594
 1663SOL    HW2 5889   5.071   5.323   2.721
 1664SOL     OW 5890   2.210   6.725   5.808
 1664SOL    HW1 5891   2.217   6.776   5.722
 1664SOL    HW2 5892   2.248   6.633   5.795
 1665SOL     OW 5893   0.083   3.879   1.719
 1665SOL    HW1 5894   0.165   3.834   1.684
 1665SOL    HW2 5895   0.060   3.841   1.809
 1666SOL     OW 5896   6.082   0.346   0.387
 1666SOL    HW1 5897   6.091   0.269   0.450
 1666SOL    HW2 5898   6.004   0.402   0.414
 1667SOL     OW 5899   6.784   6.277   1.602
 1667SOL    HW1 5900   6.722   6.308   1.674
 1667SOL    HW2 5901   6.851   6.214   1.641
 1668SOL     OW 5902   4.858   4.559   2.945
 1668SOL    HW1 5903   4.912   4.640   2.965
 1668SOL    HW2 5904   4.893   4.515   2.862
 1669SOL     OW 5905   0.145   4.399   5.188
 1669SOL    HW1 5906   0.232   4.394   5.139
 1669SOL    HW2 5907   0.159   4.380   5.285
 1670SOL     OW 5908   0.410   4.310   5.060
 1670SOL    HW1 5909   0.441   4.296   5.154
 1670SOL    HW2 5910   0.364   4.228   5.027
 1671SOL     OW 5911   5.773   1.519   2.930
 1671SOL    HW1 5912   5.863   1.540   2.891
 1671SOL    HW2 5913   5.714   1.481   2.859
 1672SOL     OW 5914   1.806   4.314   6.299
 1672SOL    HW1 5915   1.816   4.348   6.205
 1672SOL    HW2 5916   1.886   4.341   6.353
 1673SOL     OW 5917   1.662   1.477   4.961
 1673SOL    HW1 5918   1.669   1.554   5.025
 1673SOL    HW2 5919   1.687   1.393   5.009
 1674SOL     OW 5920   6.616   2.402   2.344
 1674SOL    HW1 5921   6.684   2.343   2.299
 1674SOL    HW2 5922   6.633   2.497   2.319
 1675SOL     OW 5923   5.052   0.587   0.254
 1675SOL    HW1 5924   5.092   0.625   0.338
 1675SOL    HW2 5925   5.119   0.527   0.210
 1676SOL     OW 5926   2.451   2.462   2.227
 1676SOL    HW1 5927   2.455   2.373   2.182
 1676SOL    HW2 5928   2.540   2.482   2.267
 1677SOL     OW 5929   4.022   3.838   3.525
 1677SOL    HW1 5930   3.952   3.906   3.501
 1677SOL    HW2 5931   4.080   3.822   3.445
 1678SOL     OW 5932   0.392   5.954   1.460
 1678SOL    HW1 5933   0.359   6.046   1.436
 1678SOL    HW2 5934   0.342   5.886   1.407
 1679SOL     OW 5935   1.673   1.209   4.505
 1679SOL    HW1 5936   1.722   1.194   4.590
 1679SOL    HW2 5937   1.738   1.215   4.429
 1680SOL     OW 5938   5.983   3.711   5.484
 1680SOL    HW1 5939   5.931   3.670   5.409
 1680SOL    HW2 5940   5.923   3.773   5.536
 1681SOL     OW 5941   2.099   6.205   5.342
 1681SOL    HW1 5942   2.003   6.191   5.317
 1681SOL    HW2 5943   2.141   6.117   5.364
 1682SOL     OW 5944   2.119   0.908   6.004
 1682SOL    HW1 5945   2.091   0.816   5.975
 1682SOL    HW2 5946   2.122   0.911   6.104
 1683SOL     OW 5947   5.893   6.012   2.841
 1683SOL    HW1 5948   5.840   5.972   2.917
 1683SOL    HW2 5949   5.990   6.008   2.863
 1684SOL     OW 5950   0.628   5.447   2.065
 1684SOL    HW1 5951   0.569   5.372   2.095
 1684SOL    HW2 5952   0.702   5.460   2.131
 1685SOL     OW 5953   1.814   1.844   5.639
 1685SOL    HW1 5954   1.777   1.871   5.728
 1685SOL    HW2 5955   1.891   1.782   5.652
 1686SOL     OW 5956   3.467   6.078   4.148
 1686SOL    HW1 5957   3.443   6.053   4.242
 1686SOL    HW2 5958   3.399   6.141   4.112
 1687SOL     OW 5959   0.340   4.048   1.948
 1687SOL    HW1 5960   0.265   4.092   1.899
 1687SOL    HW2 5961   0.356   4.096   2.034
 1688SOL     OW 5962   1.752   2.298   3.850
 1688SOL    HW1 5963   1.664   2.321   3.810
 1688SOL    HW2 5964   1.816   2.374   3.838
 1689SOL     OW 5965   6.271   0.875   2.428
 1689SOL    HW1 5966   6.201   0.860   2.498
 1689SOL    HW2 5967   6.244   0.829   2.344
 1690SOL     OW 5968   0.268   3.247   4.421
 1690SOL    HW1 5969   0.328   3.268   4.499
 1690SOL    HW2 5970   0.246   3.150   4.422
 1691SOL     OW 5971   5.241   3.040   3.917
 1691SOL    HW1 5972   5.311   3.067   3.982
 1691SOL    HW2 5973   5.152   3.075   3.947
 1692SOL     OW 5974   5.194   5.295   1.500
 1692SOL    HW1 5975   5.165   5.316   1.593
 1692SOL    HW2 5976   5.151   5.210   1.470
 1693SOL     OW 5977   6.754   1.560   4.480
 1693SOL    HW1 5978   6.834   1.503   4.501
 1693SOL    HW2 5979   6.781   1.657   4.483
 1694SOL     OW 5980   6.339   0.667   4.327
 1694SOL    HW1 5981   6.249   0.625   4.334
 1694SOL    HW2 5982   6.408   0.596   4.310
 1695SOL     OW 5983   3.479   0.787   6.891
 1695SOL    HW1 5984   3.579   0.780   6.888
 1695SOL    HW2 5985   3.450   0.869   6.841
 1696SOL     OW 5986   3.731   5.851   0.714
 1696SOL    HW1 5987   3.789   5.812   0.786
 1696SOL    HW2 5988   3.737   5.951   0.717
 1697SOL     OW 5989   6.318   2.321   1.047
 1697SOL    HW1 5990   6.229   2.275   1.048
 1697SOL    HW2 5991   6.383   2.270   1.103
 1698SOL     OW 5992   3.834   1.311   1.392
 1698SOL    HW1 5993   3.855   1.226   1.343
 1698SOL    HW2 5994   3.897   1.321   1.469
 1699SOL     OW 5995   2.162   1.993   5.929
 1699SOL    HW1 5996   2.217   2.019   6.009
 1699SOL    HW2 5997   2.222   1.980   5.850
 1700SOL     OW 5998   6.029   3.552   3.518
 1700SOL    HW1 5999   6.016   3.473   3.579
 1700SOL    HW2 6000   6.111   3.601   3.545
 1701SOL     OW 6001   6.022   5.185   5.369
 1701SOL    HW1 6002   6.009   5.106   5.428
 1701SOL    HW2 6003   5.993   5.268   5.418
 1702SOL     OW 6004   1.366   1.211   0.271
 1702SOL    HW1 6005   1.420   1.128   0.265
 1702SOL    HW2 6006   1.296   1.211   0.199
 1703SOL     OW 6007   4.300   1.723   6.344
 1703SOL    HW1 6008   4.273   1.644   6.289
 1703SOL    HW2 6009   4.318   1.693   6.438
 1704SOL     OW 6010   1.497   2.009   6.743
 1704SOL    HW1 6011   1.595   2.017   6.730
 1704SOL    HW2 6012   1.468   2.064   6.822
 1705SOL     OW 6013   3.650   2.061   1.494
 1705SOL    HW1 6014   3.706   2.106   1.564
 1705SOL    HW2 6015   3.570   2.019   1.537
 1706SOL     OW 6016   4.515   1.842   1.438
 1706SOL    HW1 6017   4.518   1.917   1.504
 1706SOL    HW2 6018   4.574   1.767   1.470
 1707SOL     OW 6019   4.694   2.750   2.716
 1707SOL    HW1 6020   4.643   2.817   2.663
 1707SOL    HW2 6021   4.767   2.712   2.660
 1708SOL     OW 6022   4.299   5.348   1.714
 1708SOL    HW1 6023   4.379   5.292   1.736
 1708SOL    HW2 6024   4.245   5.302   1.643
 1709SOL     OW 6025   3.819   6.931   0.900
 1709SOL    HW1 6026   3.723   6.928   0.870
 1709SOL    HW2 6027   3.834   7.013   0.954
 1710SOL     OW 6028   3.803   4.876   3.567
 1710SOL    HW1 6029   3.862   4.938   3.515
 1710SOL    HW2 6030   3.859   4.817   3.625
 1711SOL     OW 6031   2.334   5.112   5.484
 1711SOL    HW1 6032   2.433   5.114   5.492
 1711SOL    HW2 6033   2.300   5.020   5.502
 1712SOL     OW 6034   6.971   2.109   4.480
 1712SOL    HW1 6035   0.002   2.024   4.491
 1712SOL    HW2 6036   6.923   2.106   4.393
 1713SOL     OW 6037   3.667   1.487   3.199
 1713SOL    HW1 6038   3.582   1.478   3.146
 1713SOL    HW2 6039   3.660   1.430   3.281
 1714SOL     OW 6040   4.163   1.639   6.969
 1714SOL    HW1 6041   4.100   1.606   0.018
 1714SOL    HW2 6042   4.124   1.622   6.879
 1715SOL     OW 6043   2.628   5.811   3.045
 1715SOL    HW1 6044   2.682   5.804   2.961
 1715SOL    HW2 6045   2.646   5.731   3.103
 1716SOL     OW 6046   4.494   0.366   3.578
 1716SOL    HW1 6047   4.419   0.332   3.521
 1716SOL    HW2 6048   4.458   0.402   3.664
 1717SOL     OW 6049   3.715   5.214   5.331
 1717SOL    HW1 6050   3.641   5.242   5.270
 1717SOL    HW2 6051   3.787   5.284   5.331
 1718SOL     OW 6052   2.722   1.958   2.805
 1718SOL    HW1 6053   2.759   2.023   2.737
 1718SOL    HW2 6054   2.797   1.922   2.860
 1719SOL     OW 6055   2.212   4.186   1.193
 1719SOL    HW1 6056   2.172   4.252   1.129
 1719SOL    HW2 6057   2.282   4.232   1.248
 1720SOL     OW 6058   0.024   2.402   5.187
 1720SOL    HW1 6059   0.047   2.399   5.284
 1720SOL    HW2 6060   0.043   2.313   5.145
 1721SOL     OW 6061   1.430   0.276   1.932
 1721SOL    HW1 6062   1.444   0.233   1.843
 1721SOL    HW2 6063   1.332   0.273   1.955
 1722SOL     OW 6064   4.312   1.491   3.039
 1722SOL    HW1 6065   4.373   1.541   3.100
 1722SOL    HW2 6066   4.297   1.545   2.956
 1723SOL     OW 6067   4.426   2.036   6.684
 1723SOL    HW1 6068   4.460   2.119   6.640
 1723SOL    HW2 6069   4.387   2.059   6.774
 1724SOL     OW 6070   6.480   2.073   1.830
 1724SOL    HW1 6071   6.496   2.051   1.927
 1724SOL    HW2 6072   6.432   2.160   1.823
 1725SOL     OW 6073   2.164   5.128   6.715
 1725SOL    HW1 6074   2.217   5.103   6.797
 1725SOL    HW2 6075   2.068   5.141   6.741
 1726SOL     OW 6076   5.434   4.185   4.218
 1726SOL    HW1 6077   5.458   4.272   4.177
 1726SOL    HW2 6078   5.334   4.174   4.216
 1727SOL     OW 6079   3.948   3.632   2.902
 1727SOL    HW1 6080   3.971   3.711   2.844
 1727SOL    HW2 6081   4.031   3.582   2.925
 1728SOL     OW 6082   5.065   4.436   5.209
 1728SOL    HW1 6083   5.094   4.511   5.270
 1728SOL    HW2 6084   5.090   4.459   5.115
 1729SOL     OW 6085   1.007   4.021   2.993
 1729SOL    HW1 6086   0.919   4.044   2.952
 1729SOL    HW2 6087   1.023   3.923   2.986
 1730SOL     OW 6088   2.783   6.660   5.374
 1730SOL    HW1 6089   2.767   6.577   5.426
 1730SOL    HW2 6090   2.697   6.695   5.339
 1731SOL     OW 6091   6.079   4.939   3.697
 1731SOL    HW1 6092   6.080   4.967   3.793
 1731SOL    HW2 6093   6.034   5.010   3.643
 1732SOL     OW 6094   1.697   4.180   6.559
 1732SOL    HW1 6095   1.766   4.110   6.575
 1732SOL    HW2 6096   1.723   4.235   6.480
 1733SOL     OW 6097   2.434   3.826   1.695
 1733SOL    HW1 6098   2.446   3.910   1.747
 1733SOL    HW2 6099   2.347   3.830   1.645
 1734SOL     OW 6100   5.906   2.967   1.389
 1734SOL    HW1 6101   5.939   2.873   1.385
 1734SOL    HW2 6102   5.943   3.012   1.471
 1735SOL     OW 6103   4.500   5.342   5.762
 1735SOL    HW1 6104   4.426   5.409   5.751
 1735SOL    HW2 6105   4.585   5.389   5.783
 1736SOL     OW 6106   3.739   4.005   0.470
 1736SOL    HW1 6107   3.685   4.033   0.391
 1736SOL    HW2 6108   3.698   3.923   0.511
 1737SOL     OW 6109   5.275   0.096   4.530
 1737SOL    HW1 6110   5.211   0.093   4.454
 1737SOL    HW2 6111   5.294   0.003   4.562
 1738SOL     OW 6112   1.588   3.716   4.070
 1738SOL    HW1 6113   1.559   3.739   4.163
 1738SOL    HW2 6114   1.657   3.643   4.074
 1739SOL     OW 6115   6.346   0.203   4.264
 1739SOL    HW1 6116   6.404   0.137   4.311
 1739SOL    HW2 6117   6.317   0.166   4.175
 1740SOL     OW 6118   6.848   1.631   5.212
 1740SOL    HW1 6119   6.842   1.535   5.242
 1740SOL    HW2 6120   6.795   1.642   5.128
 1741SOL     OW 6121   2.590   1.558   4.055
 1741SOL    HW1 6122   2.504   1.513   4.077
 1741SOL    HW2 6123   2.640   1.505   3.987
 1742SOL     OW 6124   5.760   1.264   6.173
 1742SOL    HW1 6125   5.816   1.254   6.255
 1742SOL    HW2 6126   5.804   1.216   6.097
 1743SOL     OW 6127   1.375   0.899   2.636
 1743SOL    HW1 6128   1.341   0.976   2.583
 1743SOL    HW2 6129   1.473   0.886   2.617
 1744SOL     OW 6130   5.438   2.378   2.927
 1744SOL    HW1 6131   5.353   2.370   2.979
 1744SOL    HW2 6132   5.454   2.473   2.904
 1745SOL     OW 6133   6.171   6.313   1.839
 1745SOL    HW1 6134   6.169   6.214   1.825
 1745SOL    HW2 6135   6.104   6.337   1.910
 1746SOL     OW 6136   2.218   3.915   4.093
 1746SOL    HW1 6137   2.257   3.824   4.075
 1746SOL    HW2 6138   2.155   3.909   4.170
 1747SOL     OW 6139   3.737   1.387   1.805
 1747SOL    HW1 6140   3.799   1.328   1.857
 1747SOL    HW2 6141   3.705   1.461   1.863
 1748SOL     OW 6142   6.198   1.453   4.446
 1748SOL    HW1 6143   6.242   1.364   4.438
 1748SOL    HW2 6144   6.203   1.484   4.541
 1749SOL     OW 6145   3.183   6.717   0.030
 1749SOL    HW1 6146   3.091   6.689   0.057
 1749SOL    HW2 6147   3.191   6.715   6.952
 1750SOL     OW 6148   4.446   0.356   4.578
 1750SOL    HW1 6149   4.374   0.391   4.638
 1750SOL    HW2 6150   4.518   0.425   4.569
 1751SOL     OW 6151   6.128   2.231   4.852
 1751SOL    HW1 6152   6.158   2.303   4.914
 1751SOL    HW2 6153   6.057   2.267   4.791
 1752SOL     OW 6154   6.338   0.917   1.291
 1752SOL    HW1 6155   6.295   0.841   1.340
 1752SOL    HW2 6156   6.361   0.888   1.198
 1753SOL     OW 6157   6.794   1.694   1.761
 1753SOL    HW1 6158   6.716   1.705   1.700
 1753SOL    HW2 6159   6.853   1.621   1.727
 1754SOL     OW 6160   1.809   6.001   6.012
 1754SOL    HW1 6161   1.772   5.936   5.945
 1754SOL    HW2 6162   1.760   5.991   6.098
 1755SOL     OW 6163   6.634   6.070   5.989
 1755SOL    HW1 6164   6.538   6.066   6.019
 1755SOL    HW2 6165   6.645   6.144   5.923
 1756SOL     OW 6166   3.725   6.417   6.003
 1756SOL    HW1 6167   3.737   6.499   6.060
 1756SOL    HW2 6168   3.815   6.385   5.973
 1757SOL     OW 6169   3.358   5.339   4.763
 1757SOL    HW1 6170   3.433   5.292   4.718
 1757SOL    HW2 6171   3.290   5.273   4.795
 1758SOL     OW 6172   1.663   0.038   4.788
 1758SOL    HW1 6173   1.755   0.014   4.757
 1758SOL    HW2 6174   1.602   0.046   4.709
 1759SOL     OW 6175   1.218   6.771   5.321
 1759SOL    HW1 6176   1.296   6.830   5.301
 1759SOL    HW2 6177   1.133   6.816   5.294
 1760SOL     OW 6178   6.155   0.754   4.966
 1760SOL    HW1 6179   6.169   0.833   5.025
 1760SOL    HW2 6180   6.143   0.785   4.871
 1761SOL     OW 6181   0.395   0.718   0.927
 1761SOL    HW1 6182   0.449   0.730   1.010
 1761SOL    HW2 6183   0.411   0.626   0.890
 1762SOL     OW 6184   0.366   1.353   4.978
 1762SOL    HW1 6185   0.282   1.405   4.993
 1762SOL    HW2 6186   0.345   1.255   4.973
 1763SOL     OW 6187   0.826   4.432   5.069
 1763SOL    HW1 6188   0.861   4.403   5.158
 1763SOL    HW2 6189   0.735   4.393   5.055
 1764SOL     OW 6190   0.946   3.674   2.039
 1764SOL    HW1 6191   0.925   3.757   1.988
 1764SOL    HW2 6192   0.900   3.596   1.995
 1765SOL     OW 6193   3.998   2.448   1.694
 1765SOL    HW1 6194   3.908   2.468   1.732
 1765SOL    HW2 6195   3.988   2.409   1.603
 1766SOL     OW 6196   5.297   4.805   4.174
 1766SOL    HW1 6197   5.329   4.888   4.128
 1766SOL    HW2 6198   5.346   4.793   4.260
 1767SOL     OW 6199   0.780   4.788   2.793
 1767SOL    HW1 6200   0.815   4.697   2.815
 1767SOL    HW2 6201   0.762   4.794   2.695
 1768SOL     OW 6202   4.458   0.532   0.248
 1768SOL    HW1 6203   4.518   0.459   0.215
 1768SOL    HW2 6204   4.453   0.604   0.179
 1769SOL     OW 6205   6.055   1.000   0.010
 1769SOL    HW1 6206   6.091   0.940   6.960
 1769SOL    HW2 6207   6.128   1.024   0.074
 1770SOL     OW 6208   0.317   4.060   5.509
 1770SOL    HW1 6209   0.298   4.026   5.602
 1770SOL    HW2 6210   0.238   4.041   5.451
 1771SOL     OW 6211   1.319   4.801   6.845
 1771SOL    HW1 6212   1.391   4.850   6.894
 1771SOL    HW2 6213   1.345   4.790   6.749
 1772SOL     OW 6214   3.933   5.190   4.274
 1772SOL    HW1 6215   3.981   5.216   4.358
 1772SOL    HW2 6216   3.892   5.100   4.286
 1773SOL     OW 6217   1.049   1.435   5.396
 1773SOL    HW1 6218   1.137   1.484   5.396
 1773SOL    HW2 6219   1.011   1.435   5.304
 1774SOL     OW 6220   5.582   6.745   2.555
 1774SOL    HW1 6221   5.528   6.663   2.535
 1774SOL    HW2 6222   5.540   6.825   2.511
 1775SOL     OW 6223   1.690   5.497   6.425
 1775SOL    HW1 6224   1.756   5.553   6.374
 1775SOL    HW2 6225   1.693   5.523   6.521
 1776SOL     OW 6226   4.906   0.551   5.651
 1776SOL    HW1 6227   4.916   0.452   5.661
 1776SOL    HW2 6228   4.809   0.576   5.653
 1777SOL     OW 6229   4.074   6.814   6.356
 1777SOL    HW1 6230   4.096   6.806   6.259
 1777SOL    HW2 6231   4.158   6.825   6.409
 1778SOL     OW 6232   4.984   1.215   4.391
 1778SOL    HW1 6233   5.057   1.150   4.369
 1778SOL    HW2 6234   5.003   1.303   4.348
 1779SOL     OW 6235   5.184   6.960   5.566
 1779SOL    HW1 6236   5.230   7.013   5.638
 1779SOL    HW2 6237   5.187   7.011   5.481
 1780SOL     OW 6238   1.639   4.718   4.567
 1780SOL    HW1 6239   1.664   4.640   4.510
 1780SOL    HW2 6240   1.540   4.720   4.579
 1781SOL     OW 6241   5.358   6.856   4.549
 1781SOL    HW1 6242   5.299   6.781   4.576
 1781SOL    HW2 6243   5.429   6.870   4.618
 1782SOL     OW 6244   2.073   1.630   2.664
 1782SOL    HW1 6245   2.009   1.588   2.727
 1782SOL    HW2 6246   2.158   1.652   2.711
 1783SOL     OW 6247   2.195   3.277   6.187
 1783SOL    HW1 6248   2.167   3.192   6.141
 1783SOL    HW2 6249   2.132   3.351   6.162
 1784SOL     OW 6250   2.449   0.827   1.671
 1784SOL    HW1 6251   2.444   0.733   1.706
 1784SOL    HW2 6252   2.407   0.889   1.737
 1785SOL     OW 6253   0.095   6.214   4.086
 1785SOL    HW1 6254   0.051   6.207   3.996
 1785SOL    HW2 6255   0.194   6.220   4.075
 1786SOL     OW 6256   1.514   5.481   0.902
 1786SOL    HW1 6257   1.436   5.518   0.953
 1786SOL    HW2 6258   1.485   5.403   0.848
 1787SOL     OW 6259   1.575   2.561   5.002
 1787SOL    HW1 6260   1.623   2.502   5.067
 1787SOL    HW2 6261   1.610   2.654   5.009
 1788SOL     OW 6262   4.890   3.671   0.293
 1788SOL    HW1 6263   4.795   3.647   0.274
 1788SOL    HW2 6264   4.942   3.589   0.315
 1789SOL     OW 6265   6.485   3.205   2.335
 1789SOL    HW1 6266   6.443   3.235   2.249
 1789SOL    HW2 6267   6.527   3.284   2.381
 1790SOL     OW 6268   3.266   1.317   4.506
 1790SOL    HW1 6269   3.284   1.300   4.603
 1790SOL    HW2 6270   3.172   1.349   4.494
 1791SOL     OW 6271   6.093   0.831   3.656
 1791SOL    HW1 6272   6.173   0.837   3.716
 1791SOL    HW2 6273   6.020   0.887   3.692
 1792SOL     OW 6274   6.287   1.433   4.931
 1792SOL    HW1 6275   6.231   1.481   4.999
 1792SOL    HW2 6276   6.360   1.494   4.899
 1793SOL     OW 6277   6.806   1.062   4.715
 1793SOL    HW1 6278   6.906   1.066   4.708
 1793SOL    HW2 6279   6.771   0.992   4.652
 1794SOL     OW 6280   6.164   0.209   6.657
 1794SOL    HW1 6281   6.122   0.139   6.715
 1794SOL    HW2 6282   6.140   0.193   6.561
 1795SOL     OW 6283   5.706   4.713   0.592
 1795SOL    HW1 6284   5.656   4.725   0.678
 1795SOL    HW2 6285   5.651   4.751   0.517
 1796SOL     OW 6286   1.850   0.980   5.901
 1796SOL    HW1 6287   1.772   0.935   5.944
 1796SOL    HW2 6288   1.928   0.980   5.964
 1797SOL     OW 6289   1.485   6.848   4.873
 1797SOL    HW1 6290   1.530   6.937   4.863
 1797SOL    HW2 6291   1.543   6.787   4.926
 1798SOL     OW 6292   3.724   3.008   4.133
 1798SOL    HW1 6293   3.672   2.972   4.056
 1798SOL    HW2 6294   3.724   3.108   4.130
 1799SOL     OW 6295   4.241   1.620   6.584
 1799SOL    HW1 6296   4.304   1.631   6.661
 1799SOL    HW2 6297   4.158   1.574   6.615
 1800SOL     OW 6298   5.169   4.340   3.674
 1800SOL    HW1 6299   5.191   4.401   3.750
 1800SOL    HW2 6300   5.101   4.383   3.615
 1801SOL     OW 6301   0.921   1.956   1.820
 1801SOL    HW1 6302   0.960   1.951   1.728
 1801SOL    HW2 6303   0.922   1.864   1.860
 1802SOL     OW 6304   6.353   5.505   3.845
 1802SOL    HW1 6305   6.378   5.413   3.877
 1802SOL    HW2 6306   6.371   5.512   3.747
 1803SOL     OW 6307   0.223   6.159   2.345
 1803SOL    HW1 6308   0.282   6.239   2.349
 1803SOL    HW2 6309   0.182   6.143   2.435
 1804SOL     OW 6310   3.556   3.584   6.019
 1804SOL    HW1 6311   3.617   3.568   6.098
 1804SOL    HW2 6312   3.601   3.552   5.936
 1805SOL     OW 6313   1.136   6.306   5.967
 1805SOL    HW1 6314   1.044   6.340   5.947
 1805SOL    HW2 6315   1.166   6.244   5.894
 1806SOL     OW 6316   6.553   2.056   2.130
 1806SOL    HW1 6317   6.545   1.963   2.166
 1806SOL    HW2 6318   6.494   2.117   2.183
 1807SOL     OW 6319   6.158   3.661   0.596
 1807SOL    HW1 6320   6.172   3.565   0.574
 1807SOL    HW2 6321   6.129   3.710   0.513
 1808SOL     OW 6322   5.458   2.855   5.015
 1808SOL    HW1 6323   5.478   2.761   5.043
 1808SOL    HW2 6324   5.458   2.915   5.095
 1809SOL     OW 6325   2.900   2.032   5.345
 1809SOL    HW1 6326   2.821   1.977   5.318
 1809SOL    HW2 6327   2.916   2.105   5.279
 1810SOL     OW 6328   0.503   0.363   4.542
 1810SOL    HW1 6329   0.500   0.321   4.633
 1810SOL    HW2 6330   0.425   0.331   4.488
 1811SOL     OW 6331   4.510   4.615   1.531
 1811SOL    HW1 6332   4.501   4.541   1.464
 1811SOL    HW2 6333   4.525   4.576   1.622
 1812SOL     OW 6334   4.492   0.169   5.950
 1812SOL    HW1 6335   4.452   0.115   5.876
 1812SOL    HW2 6336   4.499   0.113   6.032
 1813SOL     OW 6337   4.633   4.478   2.094
 1813SOL    HW1 6338   4.548   4.530   2.087
 1813SOL    HW2 6339   4.640   4.414   2.018
 1814SOL     OW 6340   6.685   6.879   0.738
 1814SOL    HW1 6341   6.744   6.953   0.769
 1814SOL    HW2 6342   6.724   6.838   0.655
 1815SOL     OW 6343   5.594   5.635   2.623
 1815SOL    HW1 6344   5.650   5.595   2.551
 1815SOL    HW2 6345   5.503   5.656   2.588
 1816SOL     OW 6346   4.057   5.874   5.611
 1816SOL    HW1 6347   4.088   5.921   5.529
 1816SOL    HW2 6348   4.093   5.921   5.692
 1817SOL     OW 6349   2.899   1.624   2.731
 1817SOL    HW1 6350   2.965   1.699   2.732
 1817SOL    HW2 6351   2.941   1.544   2.688
 1818SOL     OW 6352   1.933   6.625   0.206
 1818SOL    HW1 6353   1.955   6.716   0.241
 1818SOL    HW2 6354   1.931   6.560   0.282
 1819SOL     OW 6355   1.184   4.870   2.482
 1819SOL    HW1 6356   1.145   4.878   2.574
 1819SOL    HW2 6357   1.191   4.960   2.440
 1820SOL     OW 6358   4.001   0.263   2.493
 1820SOL    HW1 6359   3.924   0.279   2.430
 1820SOL    HW2 6360   4.057   0.346   2.498
 1821SOL     OW 6361   3.401   0.852   1.947
 1821SOL    HW1 6362   3.371   0.897   1.863
 1821SOL    HW2 6363   3.326   0.797   1.984
 1822SOL     OW 6364   1.078   3.574   1.644
 1822SOL    HW1 6365   1.132   3.635   1.586
 1822SOL    HW2 6366   1.139   3.525   1.706
 1823SOL     OW 6367   3.337   6.016   2.373
 1823SOL    HW1 6368   3.341   6.105   2.418
 1823SOL    HW2 6369   3.386   6.021   2.286
 1824SOL     OW 6370   4.214   4.049   0.779
 1824SOL    HW1 6371   4.190   4.145   0.775
 1824SOL    HW2 6372   4.155   3.997   0.717
 1825SOL     OW 6373   0.820   2.524   4.992
 1825SOL    HW1 6374   0.765   2.599   5.030
 1825SOL    HW2 6375   0.829   2.452   5.061
 1826SOL     OW 6376   3.864   1.758   1.183
 1826SOL    HW1 6377   3.775   1.801   1.170
 1826SOL    HW2 6378   3.919   1.812   1.246
 1827SOL     OW 6379   4.885   5.162   0.982
 1827SOL    HW1 6380   4.939   5.245   0.967
 1827SOL    HW2 6381   4.945   5.082   0.981
 1828SOL     OW 6382   1.259   3.742   6.301
 1828SOL    HW1 6383   1.188   3.734   6.371
 1828SOL    HW2 6384   1.323   3.666   6.310
 1829SOL     OW 6385   3.770   0.667   3.306
 1829SOL    HW1 6386   3.806   0.574   3.305
 1829SOL    HW2 6387   3.671   0.665   3.296
 1830SOL     OW 6388   5.926   6.670   5.376
 1830SOL    HW1 6389   5.962   6.579   5.353
 1830SOL    HW2 6390   5.970   6.703   5.459
 1831SOL     OW 6391   5.125   5.751   2.802
 1831SOL    HW1 6392   5.066   5.832   2.795
 1831SOL    HW2 6393   5.155   5.740   2.896
 1832SOL     OW 6394   2.875   3.973   0.369
 1832SOL    HW1 6395   2.818   3.912   0.314
 1832SOL    HW2 6396   2.829   3.993   0.455
 1833SOL     OW 6397   4.798   6.710   1.513
 1833SOL    HW1 6398   4.795   6.810   1.521
 1833SOL    HW2 6399   4.796   6.683   1.417
 1834SOL     OW 6400   2.689   2.867   0.959
 1834SOL    HW1 6401   2.691   2.776   1.000
 1834SOL    HW2 6402   2.627   2.926   1.010
 1835SOL     OW 6403   1.310   5.207   1.312
 1835SOL    HW1 6404   1.220   5.251   1.311
 1835SOL    HW2 6405   1.303   5.117   1.269
 1836SOL     OW 6406   4.743   1.365   2.459
 1836SOL    HW1 6407   4.775   1.419   2.536
 1836SOL    HW2 6408   4.687   1.422   2.399
 1837SOL     OW 6409   1.899   1.315   5.242
 1837SOL    HW1 6410   1.947   1.394   5.203
 1837SOL    HW2 6411   1.961   1.236   5.243
 1838SOL     OW 6412   6.782   0.755   0.059
 1838SOL    HW1 6413   6.699   0.746   0.005
 1838SOL    HW2 6414   6.849   0.810   0.010
 1839SOL     OW 6415   6.465   1.376   6.301
 1839SOL    HW1 6416   6.455   1.465   6.346
 1839SOL    HW2 6417   6.497   1.391   6.207
 1840SOL     OW 6418   3.696   0.006   3.124
 1840SOL    HW1 6419   3.671   0.096   3.087
 1840SOL    HW2 6420   3.692   0.009   3.224
 1841SOL     OW 6421   2.341   0.087   2.292
 1841SOL    HW1 6422   2.363   0.066   2.387
 1841SOL    HW2 6423   2.425   0.106   2.242
 1842SOL     OW 6424   1.662   5.079   0.794
 1842SOL    HW1 6425   1.712   5.166   0.793
 1842SOL    HW2 6426   1.679   5.031   0.708
 1843SOL     OW 6427   3.779   1.180   4.753
 1843SOL    HW1 6428   3.857   1.231   4.718
 1843SOL    HW2 6429   3.776   1.189   4.853
 1844SOL     OW 6430   4.879   1.729   5.690
 1844SOL    HW1 6431   4.936   1.713   5.770
 1844SOL    HW2 6432   4.820   1.649   5.675
 1845SOL     OW 6433   3.058   0.823   3.167
 1845SOL    HW1 6434   3.086   0.844   3.073
 1845SOL    HW2 6435   3.108   0.742   3.199
 1846SOL     OW 6436   4.297   1.164   2.979
 1846SOL    HW1 6437   4.352   1.122   3.051
 1846SOL    HW2 6438   4.318   1.121   2.891
 1847SOL     OW 6439   1.904   0.415   4.581
 1847SOL    HW1 6440   1.855   0.339   4.538
 1847SOL    HW2 6441   1.981   0.442   4.522
 1848SOL     OW 6442   2.564   5.831   4.139
 1848SOL    HW1 6443   2.477   5.819   4.091
 1848SOL    HW2 6444   2.614   5.908   4.098
 1849SOL     OW 6445   5.038   3.120   2.488
 1849SOL    HW1 6446   5.107   3.102   2.419
 1849SOL    HW2 6447   5.006   3.214   2.481
 1850SOL     OW 6448   4.911   1.725   2.184
 1850SOL    HW1 6449   5.010   1.726   2.202
 1850SOL    HW2 6450   4.862   1.738   2.270
 1851SOL     OW 6451   0.206   3.086   6.642
 1851SOL    HW1 6452   0.252   2.998   6.648
 1851SOL    HW2 6453   0.211   3.120   6.548
 1852SOL     OW 6454   0.552   4.310   1.959
 1852SOL    HW1 6455   0.490   4.234   1.940
 1852SOL    HW2 6456   0.639   4.295   1.911
 1853SOL     OW 6457   0.235   2.701   4.528
 1853SOL    HW1 6458   0.160   2.645   4.495
 1853SOL    HW2 6459   0.261   2.672   4.620
 1854SOL     OW 6460   1.127   5.657   3.321
 1854SOL    HW1 6461   1.192   5.643   3.246
 1854SOL    HW2 6462   1.042   5.607   3.301
 1855SOL     OW 6463   5.721   3.047   4.203
 1855SOL    HW1 6464   5.778   3.092   4.135
 1855SOL    HW2 6465   5.751   2.952   4.214
 1856SOL     OW 6466   3.793   3.113   6.857
 1856SOL    HW1 6467   3.859   3.071   6.795
 1856SOL    HW2 6468   3.743   3.041   6.907
 1857SOL     OW 6469   5.742   0.952   0.549
 1857SOL    HW1 6470   5.705   0.949   0.643
 1857SOL    HW2 6471   5.746   0.859   0.512
 1858SOL     OW 6472   4.775   2.202   4.296
 1858SOL    HW1 6473   4.808   2.118   4.254
 1858SOL    HW2 6474   4.688   2.184   4.342
 1859SOL     OW 6475   5.302   1.966   4.787
 1859SOL    HW1 6476   5.236   1.926   4.723
 1859SOL    HW2 6477   5.362   1.894   4.822
 1860SOL     OW 6478   0.826   1.760   4.737
 1860SOL    HW1 6479   0.876   1.779   4.653
 1860SOL    HW2 6480   0.809   1.845   4.786
 1861SOL     OW 6481   5.716   0.427   3.045
 1861SOL    HW1 6482   5.656   0.501   3.015
 1861SOL    HW2 6483   5.793   0.420   2.982
 1862SOL     OW 6484   1.846   6.767   6.754
 1862SOL    HW1 6485   1.822   6.803   6.664
 1862SOL    HW2 6486   1.763   6.733   6.800
 1863SOL     OW 6487   0.335   3.017   1.219
 1863SOL    HW1 6488   0.416   3.003   1.275
 1863SOL    HW2 6489   0.355   3.081   1.145
 1864SOL     OW 6490   2.879   6.351   4.344
 1864SOL    HW1 6491   2.932   6.370   4.427
 1864SOL    HW2 6492   2.787   6.320   4.369
 1865SOL     OW 6493   4.489   1.647   1.168
 1865SOL    HW1 6494   4.498   1.719   1.238
 1865SOL    HW2 6495   4.442   1.685   1.088
 1866SOL     OW 6496   6.533   3.913   4.485
 1866SOL    HW1 6497   6.556   3.842   4.552
 1866SOL    HW2 6498   6.557   3.881   4.393
 1867SOL     OW 6499   2.397   2.747   1.458
 1867SOL    HW1 6500   2.490   2.772   1.431
 1867SOL    HW2 6501   2.372   2.659   1.416
 1868SOL     OW 6502   4.803   4.066   5.051
 1868SOL    HW1 6503   4.854   3.984   5.074
 1868SOL    HW2 6504   4.770   4.060   4.957
 1869SOL     OW 6505   4.956   2.680   4.277
 1869SOL    HW1 6506   5.034   2.742   4.284
 1869SOL    HW2 6507   4.891   2.714   4.209
 1870SOL     OW 6508   1.028   3.248   4.271
 1870SOL    HW1 6509   1.029   3.151   4.248
 1870SOL    HW2 6510   0.942   3.288   4.239
 1871SOL     OW 6511   0.020   6.651   0.034
 1871SOL    HW1 6512   0.016   6.552   0.046
 1871SOL    HW2 6513   6.959   6.682   7.007
 1872SOL     OW 6514   3.017   2.515   0.861
 1872SOL    HW1 6515   3.104   2.471   0.881
 1872SOL    HW2 6516   2.970   2.465   0.789
 1873SOL     OW 6517   6.339   1.077   6.862
 1873SOL    HW1 6518   6.282   0.999   6.836
 1873SOL    HW2 6519   6.433   1.061   6.832
 1874SOL     OW 6520   1.077   0.555   6.196
 1874SOL    HW1 6521   1.064   0.629   6.262
 1874SOL    HW2 6522   1.151   0.580   6.133
 1875SOL     OW 6523   6.141   6.445   0.428
 1875SOL    HW1 6524   6.218   6.391   0.461
 1875SOL    HW2 6525   6.135   6.531   0.479
 1876SOL     OW 6526   5.676   6.476   5.929
 1876SOL    HW1 6527   5.577   6.487   5.922
 1876SOL    HW2 6528   5.709   6.419   5.854
 1877SOL     OW 6529   0.332   0.707   2.199
 1877SOL    HW1 6530   0.365   0.613   2.203
 1877SOL    HW2 6531   0.397   0.768   2.244
 1878SOL     OW 6532   0.227   4.128   3.553
 1878SOL    HW1 6533   0.171   4.051   3.523
 1878SOL    HW2 6534   0.243   4.123   3.651
 1879SOL     OW 6535   2.428   5.200   4.957
 1879SOL    HW1 6536   2.351   5.259   4.982
 1879SOL    HW2 6537   2.433   5.124   5.022
 1880SOL     OW 6538   6.759   2.330   3.027
 1880SOL    HW1 6539   6.708   2.258   3.074
 1880SOL    HW2 6540   6.857   2.310   3.031
 1881SOL     OW 6541   0.972   2.129   2.954
 1881SOL    HW1 6542   1.052   2.130   3.013
 1881SOL    HW2 6543   0.952   2.035   2.926
 1882SOL     OW 6544   1.043   5.916   0.267
 1882SOL    HW1 6545   1.004   5.977   0.336
 1882SOL    HW2 6546   1.139   5.899   0.288
 1883SOL     OW 6547   1.696   3.794   2.864
 1883SOL    HW1 6548   1.647   3.874   2.897
 1883SOL    HW2 6549   1.710   3.729   2.939
 1884SOL     OW 6550   4.425   1.152   0.996
 1884SOL    HW1 6551   4.460   1.224   0.935
 1884SOL    HW2 6552   4.326   1.145   0.984
 1885SOL     OW 6553   6.674   2.293   0.869
 1885SOL    HW1 6554   6.596   2.356   0.864
 1885SOL    HW2 6555   6.709   2.291   0.963
 1886SOL     OW 6556   1.739   1.811   6.888
 1886SOL    HW1 6557   1.646   1.808   6.851
 1886SOL    HW2 6558   1.735   1.822   6.987
 1887SOL     OW 6559   0.473   4.936   5.859
 1887SOL    HW1 6560   0.477   4.986   5.772
 1887SOL    HW2 6561   0.441   4.843   5.841
 1888SOL     OW 6562   1.694   1.672   5.180
 1888SOL    HW1 6563   1.787   1.677   5.216
 1888SOL    HW2 6564   1.671   1.758   5.134
 1889SOL     OW 6565   4.266   3.524   0.291
 1889SOL    HW1 6566   4.243   3.428   0.277
 1889SOL    HW2 6567   4.248   3.575   0.207
 1890SOL     OW 6568   1.193   5.679   5.987
 1890SOL    HW1 6569   1.106   5.648   5.948
 1890SOL    HW2 6570   1.248   5.600   6.014
 1891SOL     OW 6571   5.901   3.413   5.785
 1891SOL    HW1 6572   5.986   3.367   5.812
 1891SOL    HW2 6573   5.893   3.412   5.685
 1892SOL     OW 6574   3.855   6.320   1.235
 1892SOL    HW1 6575   3.800   6.355   1.312
 1892SOL    HW2 6576   3.800   6.254   1.184
 1893SOL     OW 6577   3.232   2.107   4.887
 1893SOL    HW1 6578   3.332   2.103   4.890
 1893SOL    HW2 6579   3.199   2.166   4.961
 1894SOL     OW 6580   3.987   3.726   1.415
 1894SOL    HW1 6581   3.917   3.784   1.458
 1894SOL    HW2 6582   4.048   3.691   1.486
 1895SOL     OW 6583   5.964   0.919   2.093
 1895SOL    HW1 6584   5.927   0.971   2.016
 1895SOL    HW2 6585   5.953   0.821   2.076
 1896SOL     OW 6586   6.503   1.257   4.098
 1896SOL    HW1 6587   6.529   1.161   4.104
 1896SOL    HW2 6588   6.528   1.304   4.183
 1897SOL     OW 6589   6.285   5.437   3.314
 1897SOL    HW1 6590   6.271   5.344   3.349
 1897SOL    HW2 6591   6.197   5.484   3.310
 1898SOL     OW 6592   5.000   6.062   1.461
 1898SOL    HW1 6593   5.087   6.062   1.412
 1898SOL    HW2 6594   4.972   5.968   1.481
 1899SOL     OW 6595   0.410   3.919   2.670
 1899SOL    HW1 6596   0.405   3.934   2.769
 1899SOL    HW2 6597   0.381   3.825   2.650
 1900SOL     OW 6598   1.078   0.039   6.821
 1900SOL    HW1 6599   0.991   0.086   6.829
 1900SOL    HW2 6600   1.063   6.968   6.784
 1901SOL     OW 6601   2.514   1.289   0.271
 1901SOL    HW1 6602   2.490   1.386   0.279
 1901SOL    HW2 6603   2.585   1.267   0.339
 1902SOL     OW 6604   1.046   2.178   4.811
 1902SOL    HW1 6605   1.115   2.247   4.833
 1902SOL    HW2 6606   1.015   2.190   4.717
 1903SOL     OW 6607   6.312   4.485   3.262
 1903SOL    HW1 6608   6.258   4.558   3.220
 1903SOL    HW2 6609   6.349   4.517   3.349
 1904SOL     OW 6610   0.502   6.736   4.479
 1904SOL    HW1 6611   0.485   6.738   4.577
 1904SOL    HW2 6612   0.545   6.822   4.450
 1905SOL     OW 6613   6.977   2.265   4.003
 1905SOL    HW1 6614   7.005   2.352   3.963
 1905SOL    HW2 6615   6.917   2.217   3.938
 1906SOL     OW 6616   2.830   6.990   5.898
 1906SOL    HW1 6617   2.880   6.927   5.839
 1906SOL    HW2 6618   2.894   0.009   5.964
 1907SOL     OW 6619   2.893   0.100   3.426
 1907SOL    HW1 6620   2.885   0.124   3.523
 1907SOL    HW2 6621   2.969   0.036   3.414
 1908SOL     OW 6622   4.716   1.480   5.699
 1908SOL    HW1 6623   4.739   1.424   5.779
 1908SOL    HW2 6624   4.660   1.427   5.636
 1909SOL     OW 6625   2.293   4.422   4.496
 1909SOL    HW1 6626   2.203   4.467   4.488
 1909SOL    HW2 6627   2.281   4.323   4.489
 1910SOL     OW 6628   5.395   2.714   6.594
 1910SOL    HW1 6629   5.434   2.712   6.502
 1910SOL    HW2 6630   5.306   2.669   6.593
 1911SOL     OW 6631   6.599   2.049   5.088
 1911SOL    HW1 6632   6.602   1.985   5.165
 1911SOL    HW2 6633   6.503   2.070   5.066
 1912SOL     OW 6634   3.499   6.524   2.653
 1912SOL    HW1 6635   3.501   6.465   2.733
 1912SOL    HW2 6636   3.475   6.617   2.680
 1913SOL     OW 6637   1.893   6.559   5.162
 1913SOL    HW1 6638   1.915   6.532   5.256
 1913SOL    HW2 6639   1.885   6.477   5.105
 1914SOL     OW 6640   2.317   2.722   6.537
 1914SOL    HW1 6641   2.262   2.797   6.501
 1914SOL    HW2 6642   2.315   2.645   6.472
 1915SOL     OW 6643   3.971   1.020   5.864
 1915SOL    HW1 6644   4.000   1.060   5.777
 1915SOL    HW2 6645   4.017   0.932   5.877
 1916SOL     OW 6646   4.139   5.837   0.847
 1916SOL    HW1 6647   4.193   5.778   0.787
 1916SOL    HW2 6648   4.068   5.883   0.794
 1917SOL     OW 6649   3.850   3.509   4.368
 1917SOL    HW1 6650   3.807   3.437   4.421
 1917SOL    HW2 6651   3.781   3.573   4.335
 1918SOL     OW 6652   6.558   6.798   5.749
 1918SOL    HW1 6653   6.491   6.740   5.704
 1918SOL    HW2 6654   6.512   6.876   5.791
 1919SOL     OW 6655   1.253   6.124   2.117
 1919SOL    HW1 6656   1.352   6.132   2.102
 1919SOL    HW2 6657   1.218   6.208   2.157
 1920SOL     OW 6658   0.600   4.225   3.898
 1920SOL    HW1 6659   0.676   4.254   3.956
 1920SOL    HW2 6660   0.635   4.195   3.809
 1921SOL     OW 6661   0.403   5.434   6.819
 1921SOL    HW1 6662   0.351   5.508   6.776
 1921SOL    HW2 6663   0.352   5.349   6.811
 1922SOL     OW 6664   4.342   3.386   1.273
 1922SOL    HW1 6665   4.399   3.466   1.291
 1922SOL    HW2 6666   4.249   3.404   1.304
 1923SOL     OW 6667   3.220   1.231   0.578
 1923SOL    HW1 6668   3.126   1.261   0.557
 1923SOL    HW2 6669   3.269   1.215   0.493
 1924SOL     OW 6670   6.362   4.638   1.856
 1924SOL    HW1 6671   6.440   4.579   1.835
 1924SOL    HW2 6672   6.345   4.637   1.955
 1925SOL     OW 6673   3.029   3.733   2.010
 1925SOL    HW1 6674   3.083   3.817   2.012
 1925SOL    HW2 6675   3.001   3.709   2.103
 1926SOL     OW 6676   1.962   0.601   4.797
 1926SOL    HW1 6677   1.883   0.662   4.795
 1926SOL    HW2 6678   1.955   0.535   4.722
 1927SOL     OW 6679   3.743   4.283   6.612
 1927SOL    HW1 6680   3.649   4.277   6.578
 1927SOL    HW2 6681   3.776   4.377   6.600
 1928SOL     OW 6682   6.514   2.800   5.707
 1928SOL    HW1 6683   6.542   2.847   5.623
 1928SOL    HW2 6684   6.500   2.703   5.688
 1929SOL     OW 6685   1.548   5.487   1.818
 1929SOL    HW1 6686   1.462   5.436   1.810
 1929SOL    HW2 6687   1.594   5.462   1.903
 1930SOL     OW 6688   5.942   4.610   0.447
 1930SOL    HW1 6689   5.872   4.681   0.441
 1930SOL    HW2 6690   5.909   4.537   0.509
 1931SOL     OW 6691   6.983   3.729   3.026
 1931SOL    HW1 6692   6.997   3.637   2.991
 1931SOL    HW2 6693   6.951   3.788   2.952
 1932SOL     OW 6694   5.275   3.567   2.854
 1932SOL    HW1 6695   5.238   3.505   2.786
 1932SOL    HW2 6696   5.226   3.654   2.851
 1933SOL     OW 6697   2.701   5.347   0.841
 1933SOL    HW1 6698   2.685   5.351   0.940
 1933SOL    HW2 6699   2.703   5.440   0.804
 1934SOL     OW 6700   1.525   0.171   5.263
 1934SOL    HW1 6701   1.556   0.179   5.169
 1934SOL    HW2 6702   1.524   0.075   5.290
 1935SOL     OW 6703   2.914   6.985   4.960
 1935SOL    HW1 6704   2.980   0.031   4.929
 1935SOL    HW2 6705   2.823   7.009   4.926
 1936SOL     OW 6706   5.556   5.374   4.866
 1936SOL    HW1 6707   5.635   5.314   4.879
 1936SOL    HW2 6708   5.576   5.439   4.793
 1937SOL     OW 6709   3.915   6.663   1.881
 1937SOL    HW1 6710   3.923   6.608   1.797
 1937SOL    HW2 6711   3.858   6.743   1.862
 1938SOL     OW 6712   4.111   1.791   3.296
 1938SOL    HW1 6713   4.077   1.758   3.208
 1938SOL    HW2 6714   4.174   1.868   3.280
 1939SOL     OW 6715   1.395   0.396   3.991
 1939SOL    HW1 6716   1.452   0.477   3.977
 1939SOL    HW2 6717   1.344   0.377   3.907
 1940SOL     OW 6718   5.409   5.411   6.559
 1940SOL    HW1 6719   5.449   5.488   6.608
 1940SOL    HW2 6720   5.406   5.431   6.461
 1941SOL     OW 6721   6.724   4.139   2.868
 1941SOL    HW1 6722   6.755   4.164   2.960
 1941SOL    HW2 6723   6.801   4.145   2.804
 1942SOL     OW 6724   6.080   6.611   2.755
 1942SOL    HW1 6725   6.041   6.522   2.729
 1942SOL    HW2 6726   6.084   6.670   2.674
 1943SOL     OW 6727   3.187   5.970   2.005
 1943SOL    HW1 6728   3.273   5.966   2.057
 1943SOL    HW2 6729   3.119   5.911   2.048
 1944SOL     OW 6730   5.251   1.968   6.618
 1944SOL    HW1 6731   5.186   1.916   6.675
 1944SOL    HW2 6732   5.289   1.908   6.548
 1945SOL     OW 6733   4.488   5.459   3.102
 1945SOL    HW1 6734   4.514   5.478   3.007
 1945SOL    HW2 6735   4.558   5.495   3.164
 1946SOL     OW 6736   0.405   1.165   0.647
 1946SOL    HW1 6737   0.418   1.088   0.710
 1946SOL    HW2 6738   0.462   1.152   0.566
 1947SOL     OW 6739   5.403   6.512   4.605
 1947SOL    HW1 6740   5.442   6.523   4.697
 1947SOL    HW2 6741   5.392   6.415   4.585
 1948SOL     OW 6742   6.458   5.308   4.282
 1948SOL    HW1 6743   6.412   5.394   4.300
 1948SOL    HW2 6744   6.463   5.292   4.183
 1949SOL     OW 6745   4.022   4.099   6.030
 1949SOL    HW1 6746   3.962   4.028   5.994
 1949SOL    HW2 6747   3.974   4.152   6.100
 1950SOL     OW 6748   3.783   3.489   0.561
 1950SOL    HW1 6749   3.800   3.391   0.552
 1950SOL    HW2 6750   3.869   3.536   0.580
 1951SOL     OW 6751   6.537   2.911   0.202
 1951SOL    HW1 6752   6.522   2.820   0.164
 1951SOL    HW2 6753   6.613   2.955   0.154
 1952SOL     OW 6754   3.298   2.673   0.426
 1952SOL    HW1 6755   3.254   2.611   0.361
 1952SOL    HW2 6756   3.236   2.694   0.501
 1953SOL     OW 6757   6.312   2.030   6.891
 1953SOL    HW1 6758   6.369   2.070   6.819
 1953SOL    HW2 6759   6.217   2.027   6.860
 1954SOL     OW 6760   5.767   1.271   4.044
 1954SOL    HW1 6761   5.703   1.321   3.985
 1954SOL    HW2 6762   5.719   1.237   4.125
 1955SOL     OW 6763   1.571   6.928   1.937
 1955SOL    HW1 6764   1.634   6.958   1.865
 1955SOL    HW2 6765   1.506   6.861   1.899
 1956SOL     OW 6766   5.849   6.421   2.921
 1956SOL    HW1 6767   5.829   6.513   2.887
 1956SOL    HW2 6768   5.934   6.388   2.880
 1957SOL     OW 6769   6.509   5.517   4.991
 1957SOL    HW1 6770   6.600   5.522   5.032
 1957SOL    HW2 6771   6.441   5.544   5.059
 1958SOL     OW 6772   6.226   3.313   3.930
 1958SOL    HW1 6773   6.261   3.326   4.023
 1958SOL    HW2 6774   6.251   3.222   3.898
 1959SOL     OW 6775   0.553   2.366   6.322
 1959SOL    HW1 6776   0.477   2.416   6.363
 1959SOL    HW2 6777   0.635   2.378   6.378
 1960SOL     OW 6778   6.689   4.375   1.106
 1960SOL    HW1 6779   6.745   4.390   1.025
 1960SOL    HW2 6780   6.736   4.413   1.186
 1961SOL     OW 6781   5.668   4.433   4.470
 1961SOL    HW1 6782   5.603   4.493   4.516
 1961SOL    HW2 6783   5.704   4.479   4.389
 1962SOL     OW 6784   1.452   5.886   3.308
 1962SOL    HW1 6785   1.470   5.859   3.403
 1962SOL    HW2 6786   1.358   5.919   3.300
 1963SOL     OW 6787   0.614   0.662   1.929
 1963SOL    HW1 6788   0.584   0.572   1.896
 1963SOL    HW2 6789   0.546   0.731   1.904
 1964SOL     OW 6790   4.359   2.804   1.397
 1964SOL    HW1 6791   4.406   2.833   1.313
 1964SOL    HW2 6792   4.340   2.706   1.392
 1965SOL     OW 6793   0.765   3.229   2.897
 1965SOL    HW1 6794   0.739   3.288   2.975
 1965SOL    HW2 6795   0.744   3.134   2.919
 1966SOL     OW 6796   0.031   5.381   5.080
 1966SOL    HW1 6797   0.124   5.358   5.110
 1966SOL    HW2 6798   7.002   5.296   5.061
 1967SOL     OW 6799   4.664   1.957   6.092
 1967SOL    HW1 6800   4.586   1.947   6.154
 1967SOL    HW2 6801   4.632   1.983   6.001
 1968SOL     OW 6802   3.321   6.370   6.964
 1968SOL    HW1 6803   3.228   6.350   6.933
 1968SOL    HW2 6804   3.331   6.345   0.038
 1969SOL     OW 6805   0.084   1.297   1.806
 1969SOL    HW1 6806   0.144   1.348   1.867
 1969SOL    HW2 6807   0.047   1.358   1.736
 1970SOL     OW 6808   2.591   1.062   6.007
 1970SOL    HW1 6809   2.574   1.139   6.068
 1970SOL    HW2 6810   2.659   1.088   5.938
 1971SOL     OW 6811   6.442   6.991   6.130
 1971SOL    HW1 6812   6.408   0.058   6.162
 1971SOL    HW2 6813   6.461   6.932   6.208
 1972SOL     OW 6814   0.206   2.748   3.080
 1972SOL    HW1 6815   0.159   2.827   3.119
 1972SOL    HW2 6816   0.255   2.699   3.152
 1973SOL     OW 6817   2.922   3.752   1.748
 1973SOL    HW1 6818   2.949   3.724   1.841
 1973SOL    HW2 6819   2.823   3.742   1.738
 1974SOL     OW 6820   6.177   5.962   3.878
 1974SOL    HW1 6821   6.170   5.981   3.976
 1974SOL    HW2 6822   6.147   5.869   3.860
 1975SOL     OW 6823   2.545   1.272   2.982
 1975SOL    HW1 6824   2.524   1.368   2.999
 1975SOL    HW2 6825   2.604   1.265   2.902
 1976SOL     OW 6826   0.546   5.850   6.893
 1976SOL    HW1 6827   0.492   5.818   6.971
 1976SOL    HW2 6828   0.618   5.911   6.925
 1977SOL     OW 6829   1.111   2.409   3.629
 1977SOL    HW1 6830   1.071   2.324   3.593
 1977SOL    HW2 6831   1.133   2.470   3.553
 1978SOL     OW 6832   1.624   0.607   4.175
 1978SOL    HW1 6833   1.562   0.591   4.098
 1978SOL    HW2 6834   1.718   0.603   4.143
 1979SOL     OW 6835   6.646   3.863   4.850
 1979SOL    HW1 6836   6.583   3.864   4.928
 1979SOL    HW2 6837   6.628   3.784   4.793
 1980SOL     OW 6838   3.143   0.881   0.511
 1980SOL    HW1 6839   3.064   0.823   0.493
 1980SOL    HW2 6840   3.164   0.935   0.429
 1981SOL     OW 6841   5.454   1.971   2.404
 1981SOL    HW1 6842   5.480   1.982   2.500
 1981SOL    HW2 6843   5.362   2.008   2.390
 1982SOL     OW 6844   6.088   4.076   5.629
 1982SOL    HW1 6845   6.140   4.002   5.585
 1982SOL    HW2 6846   6.150   4.150   5.654
 1983SOL     OW 6847   1.121   2.751   2.562
 1983SOL    HW1 6848   1.190   2.690   2.601
 1983SOL    HW2 6849   1.136   2.761   2.464
 1984SOL     OW 6850   5.540   1.050   5.523
 1984SOL    HW1 6851   5.511   1.124   5.585
 1984SOL    HW2 6852   5.459   1.007   5.483
 1985SOL     OW 6853   1.503   0.616   2.236
 1985SOL    HW1 6854   1.560   0.650   2.311
 1985SOL    HW2 6855   1.547   0.536   2.195
 1986SOL     OW 6856   1.126   1.261   0.038
 1986SOL    HW1 6857   1.113   1.351   0.078
 1986SOL    HW2 6858   1.050   1.241   6.997
 1987SOL     OW 6859   1.840   3.115   1.577
 1987SOL    HW1 6860   1.848   3.206   1.537
 1987SOL    HW2 6861   1.813   3.123   1.673
 1988SOL     OW 6862   4.858   4.237   0.615
 1988SOL    HW1 6863   4.873   4.225   0.713
 1988SOL    HW2 6864   4.761   4.227   0.594
 1989SOL     OW 6865   2.546   0.127   5.184
 1989SOL    HW1 6866   2.460   0.101   5.140
 1989SOL    HW2 6867   2.560   0.225   5.174
 1990SOL     OW 6868   3.429   0.190   1.199
 1990SOL    HW1 6869   3.368   0.263   1.230
 1990SOL    HW2 6870   3.385   0.101   1.212
 1991SOL     OW 6871   3.765   4.978   6.180
 1991SOL    HW1 6872   3.839   4.931   6.228
 1991SOL    HW2 6873   3.798   5.010   6.091
 1992SOL     OW 6874   2.255   6.709   6.803
 1992SOL    HW1 6875   2.255   6.790   6.862
 1992SOL    HW2 6876   2.277   6.628   6.858
 1993SOL     OW 6877   4.203   3.305   5.411
 1993SOL    HW1 6878   4.125   3.253   5.444
 1993SOL    HW2 6879   4.237   3.365   5.483
 1994SOL     OW 6880   1.252   2.515   1.409
 1994SOL    HW1 6881   1.294   2.448   1.470
 1994SOL    HW2 6882   1.227   2.596   1.462
 1995SOL     OW 6883   6.365   2.297   1.942
 1995SOL    HW1 6884   6.427   2.346   1.880
 1995SOL    HW2 6885   6.397   2.307   2.036
 1996SOL     OW 6886   2.697   3.594   0.865
 1996SOL    HW1 6887   2.747   3.553   0.942
 1996SOL    HW2 6888   2.663   3.522   0.805
 1997SOL     OW 6889   4.735   0.264   5.886
 1997SOL    HW1 6890   4.656   0.207   5.912
 1997SOL    HW2 6891   4.783   0.220   5.810
 1998SOL     OW 6892   3.254   3.895   5.529
 1998SOL    HW1 6893   3.320   3.948   5.476
 1998SOL    HW2 6894   3.162   3.930   5.515
 1999SOL     OW 6895   2.980   6.866   2.239
 1999SOL    HW1 6896   3.028   6.902   2.319
 1999SOL    HW2 6897   2.921   6.937   2.201
 2000SOL     OW 6898   4.000   1.938   5.572
 2000SOL    HW1 6899   4.011   1.914   5.476
 2000SOL    HW2 6900   4.061   2.014   5.595
 2001SOL     OW 6901   3.365   2.222   1.825
 2001SOL    HW1 6902   3.463   2.243   1.834
 2001SOL    HW2 6903   3.319   2.298   1.780
 2002SOL     OW 6904   0.808   5.539   6.061
 2002SOL    HW1 6905   0.710   5.526   6.069
 2002SOL    HW2 6906   0.847   5.555   6.152
 2003SOL     OW 6907   4.742   6.869   3.367
 2003SOL    HW1 6908   4.814   6.936   3.349
 2003SOL    HW2 6909   4.688   6.898   3.446
 2004SOL     OW 6910   4.972   0.981   4.797
 2004SOL    HW1 6911   4.878   1.015   4.800
 2004SOL    HW2 6912   4.983   0.907   4.865
 2005SOL     OW 6913   1.297   5.437   6.999
 2005SOL    HW1 6914   1.250   5.521   6.972
 2005SOL    HW2 6915   1.384   5.460   0.022
 2006SOL     OW 6916   5.018   3.905   3.683
 2006SOL    HW1 6917   5.005   3.820   3.734
 2006SOL    HW2 6918   4.961   3.904   3.601
 2007SOL     OW 6919   4.773   5.955   0.694
 2007SOL    HW1 6920   4.756   6.050   0.667
 2007SOL    HW2 6921   4.845   5.952   0.764
 2008SOL     OW 6922   0.743   5.223   3.629
 2008SOL    HW1 6923   0.721   5.252   3.535
 2008SOL    HW2 6924   0.812   5.285   3.667
 2009SOL     OW 6925   6.432   0.118   1.234
 2009SOL    HW1 6926   6.423   0.196   1.172
 2009SOL    HW2 6927   6.526   0.085   1.232
 2010SOL     OW 6928   1.390   1.602   0.983
 2010SOL    HW1 6929   1.407   1.538   0.908
 2010SOL    HW2 6930   1.331   1.557   1.052
 2011SOL     OW 6931   6.579   1.856   4.823
 2011SOL    HW1 6932   6.551   1.916   4.898
 2011SOL    HW2 6933   6.636   1.907   4.759
 2012SOL     OW 6934   0.798   3.651   1.212
 2012SOL    HW1 6935   0.836   3.580   1.272
 2012SOL    HW2 6936   0.863   3.668   1.137
 2013SOL     OW 6937   5.314   0.809   2.977
 2013SOL    HW1 6938   5.303   0.867   2.897
 2013SOL    HW2 6939   5.225   0.773   3.005
 2014SOL     OW 6940   1.485   5.225   3.244
 2014SOL    HW1 6941   1.488   5.279   3.159
 2014SOL    HW2 6942   1.421   5.149   3.232
 2015SOL     OW 6943   2.861   1.562   6.850
 2015SOL    HW1 6944   2.912   1.604   6.775
 2015SOL    HW2 6945   2.905   1.584   6.937
 2016SOL     OW 6946   0.776   5.923   5.458
 2016SOL    HW1 6947   0.872   5.949   5.451
 2016SOL    HW2 6948   0.739   5.954   5.545
 2017SOL     OW 6949   3.585   6.329   4.330
 2017SOL    HW1 6950   3.537   6.278   4.402
 2017SOL    HW2 6951   3.669   6.281   4.305
 2018SOL     OW 6952   6.581   6.078   6.301
 2018SOL    HW1 6953   6.656   6.143   6.291
 2018SOL    HW2 6954   6.613   5.986   6.276
 2019SOL     OW 6955   4.815   2.820   2.142
 2019SOL    HW1 6956   4.784   2.895   2.084
 2019SOL    HW2 6957   4.739   2.758   2.161
 2020SOL     OW 6958   1.227   4.814   4.761
 2020SOL    HW1 6959   1.302   4.849   4.705
 2020SOL    HW2 6960   1.261   4.742   4.822
 2021SOL     OW 6961   2.161   6.847   3.144
 2021SOL    HW1 6962   2.211   6.838   3.230
 2021SOL    HW2 6963   2.215   6.808   3.070
 2022SOL     OW 6964   2.178   3.768   2.482
 2022SOL    HW1 6965   2.128   3.700   2.429
 2022SOL    HW2 6966   2.261   3.794   2.433
 2023SOL     OW 6967   0.179   1.628   0.298
 2023SOL    HW1 6968   0.109   1.699   0.298
 2023SOL    HW2 6969   0.206   1.607   0.392
 2024SOL     OW 6970   0.064   0.526   3.151
 2024SOL    HW1 6971   0.116   0.610   3.151
 2024SOL    HW2 6972   7.015   0.530   3.080
 2025SOL     OW 6973   1.496   2.505   2.339
 2025SOL    HW1 6974   1.561   2.433   2.361
 2025SOL    HW2 6975   1.541   2.574   2.282
 2026SOL     OW 6976   1.418   2.136   6.009
 2026SOL    HW1 6977   1.373   2.096   6.089
 2026SOL    HW2 6978   1.420   2.235   6.019
 2027SOL     OW 6979   1.653   1.345   1.671
 2027SOL    HW1 6980   1.703   1.413   1.618
 2027SOL    HW2 6981   1.574   1.313   1.618
 2028SOL     OW 6982   3.259   1.430   6.107
 2028SOL    HW1 6983   3.310   1.499   6.157
 2028SOL    HW2 6984   3.227   1.359   6.169
 2029SOL     OW 6985   0.442   0.826   0.198
 2029SOL    HW1 6986   0.506   0.751   0.213
 2029SOL    HW2 6987   0.372   0.826   0.269
 2030SOL     OW 6988   1.883   1.226   3.924
 2030SOL    HW1 6989   1.826   1.279   3.987
 2030SOL    HW2 6990   1.927   1.288   3.859
 2031SOL     OW 6991   4.874   6.039   2.447
 2031SOL    HW1 6992   4.785   6.004   2.474
 2031SOL    HW2 6993   4.879   6.137   2.465
 2032SOL     OW 6994   5.250   6.105   1.370
 2032SOL    HW1 6995   5.307   6.023   1.370
 2032SOL    HW2 6996   5.308   6.186   1.360
 2033SOL     OW 6997   3.520   4.902   6.928
 2033SOL    HW1 6998   3.425   4.907   6.897
 2033SOL    HW2 6999   3.575   4.967   6.877
 2034SOL     OW 7000   2.707   0.151   4.644
 2034SOL    HW1 7001   2.699   0.130   4.741
 2034SOL    HW2 7002   2.759   0.079   4.599
 2035SOL     OW 7003   0.578   0.632   2.417
 2035SOL    HW1 7004   0.571   0.726   2.385
 2035SOL    HW2 7005   0.668   0.594   2.393
 2036SOL     OW 7006   0.566   6.011   2.986
 2036SOL    HW1 7007   0.592   6.105   3.009
 2036SOL    HW2 7008   0.625   5.978   2.912
 2037SOL     OW 7009   6.888   1.939   5.817
 2037SOL    HW1 7010   6.865   1.924   5.913
 2037SOL    HW2 7011   6.804   1.949   5.764
 2038SOL     OW 7012   1.269   1.414   6.724
 2038SOL    HW1 7013   1.314   1.353   6.789
 2038SOL    HW2 7014   1.236   1.362   6.647
 2039SOL     OW 7015   0.699   5.041   2.776
 2039SOL    HW1 7016   0.748   4.956   2.794
 2039SOL    HW2 7017   0.613   5.042   2.827
 2040SOL     OW 7018   3.212   3.142   5.066
 2040SOL    HW1 7019   3.267   3.214   5.108
 2040SOL    HW2 7020   3.207   3.063   5.127
 2041SOL     OW 7021   6.752   6.267   6.199
 2041SOL    HW1 7022   6.694   6.348   6.189
 2041SOL    HW2 7023   6.757   6.219   6.111
 2042SOL     OW 7024   6.156   5.338   0.106
 2042SOL    HW1 7025   6.179   5.361   0.200
 2042SOL    HW2 7026   6.210   5.394   0.043
 2043SOL     OW 7027   6.788   4.259   2.267
 2043SOL    HW1 7028   6.729   4.253   2.186
 2043SOL    HW2 7029   6.782   4.174   2.319
 2044SOL     OW 7030   5.101   0.373   2.189
 2044SOL    HW1 7031   5.125   0.330   2.276
 2044SOL    HW2 7032   5.171   0.439   2.164
 2045SOL     OW 7033   2.100   4.538   4.840
 2045SOL    HW1 7034   2.028   4.581   4.787
 2045SOL    HW2 7035   2.114   4.444   4.809
 2046SOL     OW 7036   6.866   0.135   4.623
 2046SOL    HW1 7037   6.834   0.095   4.537
 2046SOL    HW2 7038   6.831   0.081   4.700
 2047SOL     OW 7039   4.294   2.098   6.902
 2047SOL    HW1 7040   4.256   2.185   6.871
 2047SOL    HW2 7041   4.220   2.040   6.937
 2048SOL     OW 7042   3.111   6.171   7.021
 2048SOL    HW1 7043   3.163   6.125   6.949
 2048SOL    HW2 7044   3.165   6.172   0.084
 2049SOL     OW 7045   4.283   2.319   6.314
 2049SOL    HW1 7046   4.224   2.370   6.376
 2049SOL    HW2 7047   4.234   2.301   6.229
 2050SOL     OW 7048   6.268   2.763   3.902
 2050SOL    HW1 7049   6.218   2.848   3.914
 2050SOL    HW2 7050   6.238   2.696   3.970
 2051SOL     OW 7051   6.739   4.843   6.803
 2051SOL    HW1 7052   6.726   4.942   6.812
 2051SOL    HW2 7053   6.729   4.800   6.893
 2052SOL     OW 7054   0.446   4.290   0.324
 2052SOL    HW1 7055   0.538   4.330   0.322
 2052SOL    HW2 7056   0.453   4.191   0.340
 2053SOL     OW 7057   6.282   0.726   0.616
 2053SOL    HW1 7058   6.255   0.659   0.547
 2053SOL    HW2 7059   6.370   0.766   0.590
 2054SOL     OW 7060   4.602   2.653   2.119
 2054SOL    HW1 7061   4.653   2.576   2.157
 2054SOL    HW2 7062   4.504   2.641   2.138
 2055SOL     OW 7063   6.078   2.849   2.585
 2055SOL    HW1 7064   6.124   2.872   2.670
 2055SOL    HW2 7065   5.995   2.797   2.605
 2056SOL     OW 7066   2.219   1.385   2.977
 2056SOL    HW1 7067   2.319   1.386   2.974
 2056SOL    HW2 7068   2.184   1.329   2.902
 2057SOL     OW 7069   5.567   2.576   3.774
 2057SOL    HW1 7070   5.627   2.515   3.826
 2057SOL    HW2 7071   5.473   2.545   3.782
 2058SOL     OW 7072   1.262   1.815   3.433
 2058SOL    HW1 7073   1.183   1.872   3.411
 2058SOL    HW2 7074   1.283   1.822   3.530
 2059SOL     OW 7075   2.787   6.370   6.316
 2059SOL    HW1 7076   2.688   6.352   6.313
 2059SOL    HW2 7077   2.807   6.458   6.272
 2060SOL     OW 7078   6.985   4.174   0.892
 2060SOL    HW1 7079   6.980   4.131   0.982
 2060SOL    HW2 7080   6.969   4.272   0.901
 2061SOL     OW 7081   0.959   1.867   2.875
 2061SOL    HW1 7082   0.957   1.771   2.904
 2061SOL    HW2 7083   0.927   1.874   2.781
 2062SOL     OW 7084   5.633   0.147   3.034
 2062SOL    HW1 7085   5.701   0.096   3.085
 2062SOL    HW2 7086   5.677   0.224   2.987
 2063SOL     OW 7087   1.094   0.901   6.208
 2063SOL    HW1 7088   1.177   0.876   6.256
 2063SOL    HW2 7089   1.084   1.001   6.208
 2064SOL     OW 7090   1.006   1.496   5.660
 2064SOL    HW1 7091   1.007   1.479   5.562
 2064SOL    HW2 7092   1.096   1.530   5.689
 2065SOL     OW 7093   6.539   3.870   2.803
 2065SOL    HW1 7094   6.489   3.827   2.878
 2065SOL    HW2 7095   6.581   3.955   2.836
 2066SOL     OW 7096   0.630   5.822   3.989
 2066SOL    HW1 7097   0.703   5.865   4.042
 2066SOL    HW2 7098   0.544   5.829   4.040
 2067SOL     OW 7099   6.777   6.661   0.547
 2067SOL    HW1 7100   6.792   6.728   0.474
 2067SOL    HW2 7101   6.679   6.645   0.558
 2068SOL     OW 7102   1.016   1.227   5.710
 2068SOL    HW1 7103   1.004   1.326   5.706
 2068SOL    HW2 7104   0.991   1.187   5.622
 2069SOL     OW 7105   0.571   2.654   3.702
 2069SOL    HW1 7106   0.539   2.562   3.723
 2069SOL    HW2 7107   0.570   2.669   3.603
 2070SOL     OW 7108   2.078   0.392   2.535
 2070SOL    HW1 7109   2.053   0.417   2.628
 2070SOL    HW2 7110   2.151   0.453   2.503
 2071SOL     OW 7111   6.842   5.843   5.526
 2071SOL    HW1 7112   6.743   5.831   5.519
 2071SOL    HW2 7113   6.879   5.864   5.436
 2072SOL     OW 7114   4.506   6.534   1.514
 2072SOL    HW1 7115   4.581   6.586   1.555
 2072SOL    HW2 7116   4.419   6.568   1.550
 2073SOL     OW 7117   3.687   0.310   4.592
 2073SOL    HW1 7118   3.612   0.312   4.658
 2073SOL    HW2 7119   3.721   0.403   4.578
 2074SOL     OW 7120   0.685   3.344   0.335
 2074SOL    HW1 7121   0.648   3.254   0.314
 2074SOL    HW2 7122   0.628   3.414   0.291
 2075SOL     OW 7123   5.257   2.973   1.743
 2075SOL    HW1 7124   5.318   2.894   1.753
 2075SOL    HW2 7125   5.221   2.976   1.650
 2076SOL     OW 7126   5.176   6.814   6.913
 2076SOL    HW1 7127   5.085   6.773   6.917
 2076SOL    HW2 7128   5.175   6.903   6.959
 2077SOL     OW 7129   4.644   2.457   2.314
 2077SOL    HW1 7130   4.708   2.381   2.305
 2077SOL    HW2 7131   4.560   2.435   2.266
 2078SOL     OW 7132   1.428   6.652   6.401
 2078SOL    HW1 7133   1.352   6.663   6.465
 2078SOL    HW2 7134   1.458   6.742   6.369
 2079SOL     OW 7135   5.520   1.144   3.576
 2079SOL    HW1 7136   5.586   1.130   3.502
 2079SOL    HW2 7137   5.429   1.159   3.537
 2080SOL     OW 7138   1.840   0.925   4.904
 2080SOL    HW1 7139   1.745   0.910   4.929
 2080SOL    HW2 7140   1.846   0.951   4.807
 2081SOL     OW 7141   1.789   5.475   4.998
 2081SOL    HW1 7142   1.738   5.495   5.081
 2081SOL    HW2 7143   1.884   5.454   5.021
 2082SOL     OW 7144   6.815   0.654   3.096
 2082SOL    HW1 7145   6.838   0.656   2.999
 2082SOL    HW2 7146   6.716   0.655   3.108
 2083SOL     OW 7147   4.663   4.749   6.844
 2083SOL    HW1 7148   4.692   4.811   6.771
 2083SOL    HW2 7149   4.693   4.656   6.824
 2084SOL     OW 7150   6.713   3.999   3.444
 2084SOL    HW1 7151   6.735   4.061   3.519
 2084SOL    HW2 7152   6.768   3.916   3.453
 2085SOL     OW 7153   5.067   1.422   0.164
 2085SOL    HW1 7154   5.082   1.324   0.178
 2085SOL    HW2 7155   4.999   1.455   0.230
 2086SOL     OW 7156   3.168   6.633   5.425
 2086SOL    HW1 7157   3.103   6.709   5.425
 2086SOL    HW2 7158   3.209   6.624   5.516
 2087SOL     OW 7159   5.183   0.049   2.149
 2087SOL    HW1 7160   5.198   0.062   2.247
 2087SOL    HW2 7161   5.158   0.137   2.108
 2088SOL     OW 7162   2.900   6.221   0.742
 2088SOL    HW1 7163   2.844   6.275   0.680
 2088SOL    HW2 7164   2.868   6.126   0.742
 2089SOL     OW 7165   5.018   1.859   6.736
 2089SOL    HW1 7166   4.992   1.924   6.807
 2089SOL    HW2 7167   5.006   1.765   6.770
 2090SOL     OW 7168   3.963   3.741   5.470
 2090SOL    HW1 7169   3.913   3.821   5.436
 2090SOL    HW2 7170   4.049   3.733   5.419
 2091SOL     OW 7171   6.662   5.797   6.925
 2091SOL    HW1 7172   6.755   5.835   6.928
 2091SOL    HW2 7173   6.658   5.717   6.986
 2092SOL     OW 7174   4.371   5.249   6.591
 2092SOL    HW1 7175   4.436   5.186   6.631
 2092SOL    HW2 7176   4.419   5.331   6.559
 2093SOL     OW 7177   1.862   2.603   1.633
 2093SOL    HW1 7178   1.847   2.690   1.585
 2093SOL    HW2 7179   1.887   2.622   1.728
 2094SOL     OW 7180   5.759   1.935   1.540
 2094SOL    HW1 7181   5.848   1.960   1.502
 2094SOL    HW2 7182   5.758   1.837   1.561
 2095SOL     OW 7183   5.374   0.076   4.859
 2095SOL    HW1 7184   5.403   0.156   4.805
 2095SOL    HW2 7185   5.454   0.021   4.881
 2096SOL     OW 7186   4.399   4.606   2.492
 2096SOL    HW1 7187   4.440   4.683   2.443
 2096SOL    HW2 7188   4.305   4.629   2.517
 2097SOL     OW 7189   1.727   2.944   0.063
 2097SOL    HW1 7190   1.744   2.846   0.050
 2097SOL    HW2 7191   1.668   2.956   0.143
 2098SOL     OW 7192   4.381   5.380   3.469
 2098SOL    HW1 7193   4.402   5.283   3.486
 2098SOL    HW2 7194   4.465   5.430   3.451
 2099SOL     OW 7195   2.837   3.047   5.389
 2099SOL    HW1 7196   2.885   3.135   5.384
 2099SOL    HW2 7197   2.743   3.062   5.418
 2100SOL     OW 7198   4.264   3.464   5.661
 2100SOL    HW1 7199   4.337   3.518   5.705
 2100SOL    HW2 7200   4.192   3.445   5.728
 2101SOL     OW 7201   1.422   6.426   2.981
 2101SOL    HW1 7202   1.368   6.503   3.013
 2101SOL    HW2 7203   1.519   6.442   2.999
 2102SOL     OW 7204   6.404   5.062   2.374
 2102SOL    HW1 7205   6.344   5.140   2.395
 2102SOL    HW2 7206   6.404   5.047   2.275
 2103SOL     OW 7207   2.957   3.295   6.718
 2103SOL    HW1 7208   3.034   3.284   6.655
 2103SOL    HW2 7209   2.876   3.249   6.681
 2104SOL     OW 7210   1.074   3.679   6.796
 2104SOL    HW1 7211   1.091   3.660   6.893
 2104SOL    HW2 7212   0.999   3.745   6.787
 2105SOL     OW 7213   5.139   5.724   4.585
 2105SOL    HW1 7214   5.122   5.801   4.646
 2105SOL    HW2 7215   5.104   5.640   4.627
 2106SOL     OW 7216   4.829   3.866   0.529
 2106SOL    HW1 7217   4.808   3.879   0.432
 2106SOL    HW2 7218   4.831   3.768   0.550
 2107SOL     OW 7219   4.778   2.962   5.507
 2107SOL    HW1 7220   4.732   3.021   5.574
 2107SOL    HW2 7221   4.717   2.945   5.430
 2108SOL     OW 7222   6.958   6.246   5.564
 2108SOL    HW1 7223   6.925   6.318   5.625
 2108SOL    HW2 7224   6.890   6.228   5.493
 2109SOL     OW 7225   4.870   6.591   3.329
 2109SOL    HW1 7226   4.962   6.597   3.370
 2109SOL    HW2 7227   4.817   6.671   3.356
 2110SOL     OW 7228   2.523   2.565   5.843
 2110SOL    HW1 7229   2.461   2.592   5.770
 2110SOL    HW2 7230   2.594   2.635   5.854
 2111SOL     OW 7231   1.388   2.020   6.486
 2111SOL    HW1 7232   1.430   2.015   6.576
 2111SOL    HW2 7233   1.290   2.004   6.493
 2112SOL     OW 7234   5.325   2.303   0.808
 2112SOL    HW1 7235   5.403   2.343   0.856
 2112SOL    HW2 7236   5.240   2.344   0.843
 2113SOL     OW 7237   1.364   0.438   5.045
 2113SOL    HW1 7238   1.290   0.499   5.019
 2113SOL    HW2 7239   1.326   0.363   5.100
 2114SOL     OW 7240   1.698   2.968   0.950
 2114SOL    HW1 7241   1.794   2.983   0.925
 2114SOL    HW2 7242   1.643   3.046   0.922
 2115SOL     OW 7243   2.128   3.772   3.054
 2115SOL    HW1 7244   2.125   3.872   3.045
 2115SOL    HW2 7245   2.139   3.731   2.963
 2116SOL     OW 7246   0.387   5.055   3.481
 2116SOL    HW1 7247   0.327   5.014   3.551
 2116SOL    HW2 7248   0.331   5.109   3.418
 2117SOL     OW 7249   0.028   4.378   1.426
 2117SOL    HW1 7250   0.016   4.452   1.492
 2117SOL    HW2 7251   0.099   4.315   1.460
 2118SOL     OW 7252   6.616   3.509   1.737
 2118SOL    HW1 7253   6.697   3.451   1.742
 2118SOL    HW2 7254   6.562   3.484   1.657
 2119SOL     OW 7255   2.589   5.567   1.149
 2119SOL    HW1 7256   2.640   5.482   1.134
 2119SOL    HW2 7257   2.629   5.640   1.095
 2120SOL     OW 7258   0.244   4.818   4.331
 2120SOL    HW1 7259   0.259   4.750   4.259
 2120SOL    HW2 7260   0.194   4.776   4.406
 2121SOL     OW 7261   0.471   4.268   5.418
 2121SOL    HW1 7262   0.544   4.199   5.420
 2121SOL    HW2 7263   0.385   4.226   5.448
 2122SOL     OW 7264   5.487   4.326   6.318
 2122SOL    HW1 7265   5.442   4.303   6.231
 2122SOL    HW2 7266   5.418   4.330   6.390
 2123SOL     OW 7267   0.013   5.257   2.127
 2123SOL    HW1 7268   0.026   5.216   2.037
 2123SOL    HW2 7269   7.017   5.355   2.116
 2124SOL     OW 7270   2.788   1.787   2.105
 2124SOL    HW1 7271   2.762   1.871   2.056
 2124SOL    HW2 7272   2.860   1.808   2.171
 2125SOL     OW 7273   1.788   6.954   1.028
 2125SOL    HW1 7274   1.874   7.005   1.036
 2125SOL    HW2 7275   1.713   7.008   1.066
 2126SOL     OW 7276   3.834   0.914   0.475
 2126SOL    HW1 7277   3.778   0.994   0.451
 2126SOL    HW2 7278   3.929   0.933   0.452
 2127SOL     OW 7279   6.689   3.303   4.152
 2127SOL    HW1 7280   6.765   3.239   4.160
 2127SOL    HW2 7281   6.634   3.279   4.072
 2128SOL     OW 7282   6.564   3.799   4.232
 2128SOL    HW1 7283   6.623   3.837   4.160
 2128SOL    HW2 7284   6.574   3.700   4.235
 2129SOL     OW 7285   4.427   3.155   5.554
 2129SOL    HW1 7286   4.404   3.244   5.514
 2129SOL    HW2 7287   4.514   3.161   5.602
 2130SOL     OW 7288   3.467   0.526   2.073
 2130SOL    HW1 7289   3.482   0.460   2.147
 2130SOL    HW2 7290   3.371   0.551   2.069
 2131SOL     OW 7291   6.649   0.331   0.729
 2131SOL    HW1 7292   6.615   0.425   0.723
 2131SOL    HW2 7293   6.591   0.277   0.789
 2132SOL     OW 7294   4.219   2.137   1.423
 2132SOL    HW1 7295   4.255   2.098   1.338
 2132SOL    HW2 7296   4.285   2.200   1.462
 2133SOL     OW 7297   2.665   2.613   6.465
 2133SOL    HW1 7298   2.631   2.671   6.390
 2133SOL    HW2 7299   2.654   2.517   6.440
 2134SOL     OW 7300   0.611   2.765   7.020
 2134SOL    HW1 7301   0.659   2.788   6.936
 2134SOL    HW2 7302   0.525   2.719   6.998
 2135SOL     OW 7303   0.333   3.767   4.708
 2135SOL    HW1 7304   0.360   3.770   4.611
 2135SOL    HW2 7305   0.253   3.825   4.721
 2136SOL     OW 7306   2.077   4.393   2.789
 2136SOL    HW1 7307   2.088   4.469   2.853
 2136SOL    HW2 7308   2.166   4.349   2.773
 2137SOL     OW 7309   2.606   5.442   5.409
 2137SOL    HW1 7310   2.609   5.442   5.509
 2137SOL    HW2 7311   2.613   5.536   5.375
 2138SOL     OW 7312   6.276   6.440   3.561
 2138SOL    HW1 7313   6.230   6.527   3.546
 2138SOL    HW2 7314   6.374   6.451   3.540
 2139SOL     OW 7315   4.247   1.333   3.780
 2139SOL    HW1 7316   4.232   1.294   3.871
 2139SOL    HW2 7317   4.341   1.366   3.774
 2140SOL     OW 7318   2.827   6.944   4.529
 2140SOL    HW1 7319   2.775   6.928   4.445
 2140SOL    HW2 7320   2.894   7.016   4.514
 2141SOL     OW 7321   6.427   2.722   2.491
 2141SOL    HW1 7322   6.416   2.678   2.580
 2141SOL    HW2 7323   6.453   2.818   2.505
 2142SOL     OW 7324   1.591   1.446   2.980
 2142SOL    HW1 7325   1.597   1.418   3.076
 2142SOL    HW2 7326   1.565   1.543   2.975
 2143SOL     OW 7327   3.106   4.868   1.026
 2143SOL    HW1 7328   3.087   4.857   0.928
 2143SOL    HW2 7329   3.200   4.899   1.038
 2144SOL     OW 7330   0.358   5.456   4.606
 2144SOL    HW1 7331   0.351   5.551   4.574
 2144SOL    HW2 7332   0.453   5.425   4.598
 2145SOL     OW 7333   4.204   6.438   4.513
 2145SOL    HW1 7334   4.274   6.509   4.507
 2145SOL    HW2 7335   4.195   6.408   4.608
 2146SOL     OW 7336   2.297   3.278   1.004
 2146SOL    HW1 7337   2.395   3.272   1.024
 2146SOL    HW2 7338   2.258   3.359   1.047
 2147SOL     OW 7339   5.992   1.419   6.641
 2147SOL    HW1 7340   6.004   1.344   6.706
 2147SOL    HW2 7341   6.064   1.487   6.655
 2148SOL     OW 7342   6.028   3.325   6.207
 2148SOL    HW1 7343   6.037   3.258   6.134
 2148SOL    HW2 7344   6.095   3.399   6.194
 2149SOL     OW 7345   2.327   1.487   1.363
 2149SOL    HW1 7346   2.263   1.559   1.390
 2149SOL    HW2 7347   2.284   1.398   1.372
 2150SOL     OW 7348   2.345   2.495   2.476
 2150SOL    HW1 7349   2.356   2.469   2.380
 2150SOL    HW2 7350   2.311   2.589   2.482
 2151SOL     OW 7351   1.573   6.465   6.511
 2151SOL    HW1 7352   1.640   6.433   6.444
 2151SOL    HW2 7353   1.510   6.530   6.467
 2152SOL     OW 7354   4.151   4.714   2.052
 2152SOL    HW1 7355   4.156   4.646   1.979
 2152SOL    HW2 7356   4.069   4.770   2.039
 2153SOL     OW 7357   3.996   1.783   2.695
 2153SOL    HW1 7358   4.052   1.824   2.767
 2153SOL    HW2 7359   3.962   1.694   2.725
 2154SOL     OW 7360   4.124   6.952   4.282
 2154SOL    HW1 7361   4.102   7.013   4.358
 2154SOL    HW2 7362   4.214   6.912   4.296
 2155SOL     OW 7363   4.190   0.158   0.765
 2155SOL    HW1 7364   4.199   0.059   0.759
 2155SOL    HW2 7365   4.095   0.185   0.748
 2156SOL     OW 7366   0.275   0.274   4.934
 2156SOL    HW1 7367   0.334   0.223   4.871
 2156SOL    HW2 7368   0.223   0.342   4.883
 2157SOL     OW 7369   5.534   6.314   3.403
 2157SOL    HW1 7370   5.438   6.290   3.412
 2157SOL    HW2 7371   5.572   6.336   3.493
 2158SOL     OW 7372   3.548   6.053   0.455
 2158SOL    HW1 7373   3.552   6.021   0.550
 2158SOL    HW2 7374   3.607   6.133   0.445
 2159SOL     OW 7375   1.507   0.970   4.766
 2159SOL    HW1 7376   1.464   0.893   4.718
 2159SOL    HW2 7377   1.440   1.043   4.777
 2160SOL     OW 7378   4.883   4.194   6.935
 2160SOL    HW1 7379   4.941   4.274   6.922
 2160SOL    HW2 7380   4.917   4.118   6.879
 2161SOL     OW 7381   6.049   4.667   2.029
 2161SOL    HW1 7382   6.007   4.578   2.045
 2161SOL    HW2 7383   6.147   4.662   2.049
 2162SOL     OW 7384   3.376   6.928   1.944
 2162SOL    HW1 7385   3.428   6.990   2.004
 2162SOL    HW2 7386   3.311   6.876   1.999
 2163SOL     OW 7387   1.706   4.904   0.563
 2163SOL    HW1 7388   1.802   4.892   0.538
 2163SOL    HW2 7389   1.659   4.815   0.560
 2164SOL     OW 7390   2.100   1.945   6.641
 2164SOL    HW1 7391   2.143   1.946   6.551
 2164SOL    HW2 7392   2.093   1.851   6.674
 2165SOL     OW 7393   0.130   2.372   3.195
 2165SOL    HW1 7394   0.181   2.325   3.124
 2165SOL    HW2 7395   0.158   2.468   3.199
 2166SOL     OW 7396   1.140   3.675   4.124
 2166SOL    HW1 7397   1.100   3.600   4.176
 2166SOL    HW2 7398   1.071   3.748   4.114
 2167SOL     OW 7399   1.175   2.771   3.860
 2167SOL    HW1 7400   1.235   2.738   3.787
 2167SOL    HW2 7401   1.153   2.867   3.844
 2168SOL     OW 7402   1.195   1.749   2.621
 2168SOL    HW1 7403   1.279   1.801   2.607
 2168SOL    HW2 7404   1.211   1.677   2.689
 2169SOL     OW 7405   5.889   1.469   0.569
 2169SOL    HW1 7406   5.853   1.522   0.491
 2169SOL    HW2 7407   5.820   1.405   0.601
 2170SOL     OW 7408   6.784   4.003   5.038
 2170SOL    HW1 7409   6.752   3.961   4.953
 2170SOL    HW2 7410   6.806   3.932   5.105
 2171SOL     OW 7411   0.335   5.769   1.230
 2171SOL    HW1 7412   0.375   5.818   1.153
 2171SOL    HW2 7413   0.236   5.784   1.232
 2172SOL     OW 7414   2.104   1.676   6.769
 2172SOL    HW1 7415   2.025   1.652   6.826
 2172SOL    HW2 7416   2.114   1.607   6.696
 2173SOL     OW 7417   4.251   0.535   5.261
 2173SOL    HW1 7418   4.225   0.473   5.186
 2173SOL    HW2 7419   4.199   0.620   5.253
 2174SOL     OW 7420   6.661   5.793   4.933
 2174SOL    HW1 7421   6.633   5.720   4.996
 2174SOL    HW2 7422   6.740   5.763   4.880
 2175SOL     OW 7423   1.843   3.363   3.822
 2175SOL    HW1 7424   1.896   3.317   3.893
 2175SOL    HW2 7425   1.862   3.321   3.733
 2176SOL     OW 7426   5.679   2.133   0.845
 2176SOL    HW1 7427   5.633   2.048   0.873
 2176SOL    HW2 7428   5.634   2.168   0.763
 2177SOL     OW 7429   0.190   0.568   2.810
 2177SOL    HW1 7430   0.264   0.600   2.751
 2177SOL    HW2 7431   0.133   0.646   2.836
 2178SOL     OW 7432   1.618   1.376   2.099
 2178SOL    HW1 7433   1.616   1.405   2.194
 2178SOL    HW2 7434   1.664   1.288   2.091
 2179SOL     OW 7435   1.694   4.232   5.979
 2179SOL    HW1 7436   1.787   4.265   5.994
 2179SOL    HW2 7437   1.663   4.183   6.061
 2180SOL     OW 7438   1.485   3.148   2.304
 2180SOL    HW1 7439   1.398   3.110   2.335
 2180SOL    HW2 7440   1.491   3.140   2.205
 2181SOL     OW 7441   4.403   5.067   4.206
 2181SOL    HW1 7442   4.420   4.995   4.139
 2181SOL    HW2 7443   4.339   5.134   4.168
 2182SOL     OW 7444   1.813   4.499   3.478
 2182SOL    HW1 7445   1.761   4.445   3.544
 2182SOL    HW2 7446   1.911   4.484   3.493
 2183SOL     OW 7447   2.221   4.356   0.159
 2183SOL    HW1 7448   2.161   4.350   0.079
 2183SOL    HW2 7449   2.301   4.411   0.136
 2184SOL     OW 7450   4.394   0.587   5.944
 2184SOL    HW1 7451   4.484   0.570   5.983
 2184SOL    HW2 7452   4.383   0.533   5.861
 2185SOL     OW 7453   0.930   0.928   0.249
 2185SOL    HW1 7454   0.973   0.938   0.159
 2185SOL    HW2 7455   1.000   0.915   0.319
 2186SOL     OW 7456   6.759   5.062   0.144
 2186SOL    HW1 7457   6.852   5.080   0.177
 2186SOL    HW2 7458   6.707   5.015   0.214
 2187SOL     OW 7459   0.076   5.971   1.918
 2187SOL    HW1 7460   0.095   6.056   1.968
 2187SOL    HW2 7461   0.142   5.901   1.944
 2188SOL     OW 7462   1.058   5.492   5.171
 2188SOL    HW1 7463   1.033   5.582   5.206
 2188SOL    HW2 7464   1.005   5.472   5.089
 2189SOL     OW 7465   1.925   6.876   1.261
 2189SOL    HW1 7466   1.944   6.878   1.359
 2189SOL    HW2 7467   1.946   6.965   1.221
 2190SOL     OW 7468   6.636   3.182   1.690
 2190SOL    HW1 7469   6.700   3.169   1.766
 2190SOL    HW2 7470   6.550   3.219   1.725
 2191SOL     OW 7471   2.282   2.011   5.680
 2191SOL    HW1 7472   2.370   1.976   5.646
 2191SOL    HW2 7473   2.233   2.057   5.606
 2192SOL     OW 7474   5.211   1.020   2.479
 2192SOL    HW1 7475   5.179   1.115   2.470
 2192SOL    HW2 7476   5.206   0.992   2.575
 2193SOL     OW 7477   6.339   6.953   6.789
 2193SOL    HW1 7478   6.384   6.955   6.700
 2193SOL    HW2 7479   6.380   6.882   6.846
 2194SOL     OW 7480   1.853   3.986   6.361
 2194SOL    HW1 7481   1.947   3.958   6.378
 2194SOL    HW2 7482   1.839   3.996   6.262
 2195SOL     OW 7483   6.642   6.486   5.350
 2195SOL    HW1 7484   6.696   6.560   5.390
 2195SOL    HW2 7485   6.690   6.449   5.271
 2196SOL     OW 7486   3.071   0.187   4.908
 2196SOL    HW1 7487   3.035   0.267   4.955
 2196SOL    HW2 7488   3.171   0.186   4.915
 2197SOL     OW 7489   2.211   3.624   6.667
 2197SOL    HW1 7490   2.185   3.720   6.682
 2197SOL    HW2 7491   2.233   3.611   6.571
 2198SOL     OW 7492   5.695   0.087   1.234
 2198SOL    HW1 7493   5.743   0.174   1.226
 2198SOL    HW2 7494   5.703   0.053   1.328
 2199SOL     OW 7495   5.288   6.782   3.901
 2199SOL    HW1 7496   5.232   6.848   3.850
 2199SOL    HW2 7497   5.336   6.722   3.836
 2200SOL     OW 7498   1.949   1.795   4.287
 2200SOL    HW1 7499   1.870   1.774   4.345
 2200SOL    HW2 7500   2.004   1.866   4.330
 2201SOL     OW 7501   6.341   2.890   3.396
 2201SOL    HW1 7502   6.427   2.921   3.437
 2201SOL    HW2 7503   6.337   2.791   3.398
 2202SOL     OW 7504   3.975   5.948   1.904
 2202SOL    HW1 7505   3.911   5.955   1.980
 2202SOL    HW2 7506   4.041   6.023   1.908
 2203SOL     OW 7507   2.150   3.418   1.384
 2203SOL    HW1 7508   2.208   3.466   1.450
 2203SOL    HW2 7509   2.187   3.432   1.292
 2204SOL     OW 7510   5.015   2.109   1.094
 2204SOL    HW1 7511   4.919   2.135   1.097
 2204SOL    HW2 7512   5.038   2.073   1.004
 2205SOL     OW 7513   0.600   6.587   6.594
 2205SOL    HW1 7514   0.577   6.684   6.597
 2205SOL    HW2 7515   0.558   6.539   6.671
 2206SOL     OW 7516   3.248   4.931   5.812
 2206SOL    HW1 7517   3.221   4.902   5.904
 2206SOL    HW2 7518   3.168   4.928   5.752
 2207SOL     OW 7519   2.866   5.086   6.255
 2207SOL    HW1 7520   2.896   5.172   6.214
 2207SOL    HW2 7521   2.790   5.048   6.202
 2208SOL     OW 7522   1.726   5.146   3.431
 2208SOL    HW1 7523   1.714   5.152   3.332
 2208SOL    HW2 7524   1.819   5.114   3.451
 2209SOL     OW 7525   2.007   0.040   5.357
 2209SOL    HW1 7526   2.034   6.972   5.323
 2209SOL    HW2 7527   2.008   0.106   5.281
 2210SOL     OW 7528   0.432   4.328   4.212
 2210SOL    HW1 7529   0.353   4.285   4.168
 2210SOL    HW2 7530   0.496   4.257   4.242
 2211SOL     OW 7531   6.737   0.509   0.385
 2211SOL    HW1 7532   6.819   0.484   0.333
 2211SOL    HW2 7533   6.763   0.564   0.464
 2212SOL     OW 7534   2.501   5.768   0.751
 2212SOL    HW1 7535   2.450   5.844   0.710
 2212SOL    HW2 7536   2.553   5.720   0.680
 2213SOL     OW 7537   3.241   1.703   5.036
 2213SOL    HW1 7538   3.267   1.785   5.087
 2213SOL    HW2 7539   3.143   1.705   5.017
 2214SOL     OW 7540   3.188   3.870   4.893
 2214SOL    HW1 7541   3.267   3.882   4.953
 2214SOL    HW2 7542   3.183   3.775   4.863
 2215SOL     OW 7543   5.522   1.048   0.370
 2215SOL    HW1 7544   5.552   1.118   0.306
 2215SOL    HW2 7545   5.598   1.023   0.431
 2216SOL     OW 7546   1.522   1.096   6.840
 2216SOL    HW1 7547   1.501   1.180   6.890
 2216SOL    HW2 7548   1.558   1.028   6.904
 2217SOL     OW 7549   3.837   6.781   2.323
 2217SOL    HW1 7550   3.904   6.843   2.362
 2217SOL    HW2 7551   3.883   6.711   2.269
 2218SOL     OW 7552   0.054   5.301   7.018
 2218SOL    HW1 7553   0.138   5.331   0.042
 2218SOL    HW2 7554   0.003   5.240   0.057
 2219SOL     OW 7555   6.026   1.647   0.712
 2219SOL    HW1 7556   5.945   1.705   0.725
 2219SOL    HW2 7557   5.998   1.560   0.672
 2220SOL     OW 7558   2.329   5.748   5.285
 2220SOL    HW1 7559   2.280   5.733   5.199
 2220SOL    HW2 7560   2.282   5.700   5.359
 2221SOL     OW 7561   6.154   1.645   5.443
 2221SOL    HW1 7562   6.150   1.576   5.370
 2221SOL    HW2 7563   6.061   1.672   5.468
 2222SOL     OW 7564   5.774   0.366   1.186
 2222SOL    HW1 7565   5.786   0.443   1.250
 2222SOL    HW2 7566   5.697   0.386   1.125
 2223SOL     OW 7567   6.127   1.121   5.763
 2223SOL    HW1 7568   6.107   1.219   5.761
 2223SOL    HW2 7569   6.052   1.073   5.808
 2224SOL     OW 7570   6.380   3.954   0.620
 2224SOL    HW1 7571   6.421   3.863   0.622
 2224SOL    HW2 7572   6.297   3.954   0.675
 2225SOL     OW 7573   6.149   6.682   4.383
 2225SOL    HW1 7574   6.141   6.602   4.442
 2225SOL    HW2 7575   6.199   6.754   4.432
 2226SOL     OW 7576   3.855   5.473   0.575
 2226SOL    HW1 7577   3.789   5.447   0.646
 2226SOL    HW2 7578   3.831   5.563   0.538
 2227SOL     OW 7579   5.830   2.523   0.056
 2227SOL    HW1 7580   5.916   2.569   0.033
 2227SOL    HW2 7581   5.812   2.533   0.154
 2228SOL     OW 7582   4.543   5.333   1.107
 2228SOL    HW1 7583   4.475   5.381   1.162
 2228SOL    HW2 7584   4.528   5.353   1.010
 2229SOL     OW 7585   4.374   2.866   5.376
 2229SOL    HW1 7586   4.387   2.935   5.447
 2229SOL    HW2 7587   4.277   2.859   5.353
 2230SOL     OW 7588   5.997   6.043   0.256
 2230SOL    HW1 7589   6.081   6.015   0.210
 2230SOL    HW2 7590   5.974   5.975   0.326
 2231SOL     OW 7591   0.153   1.113   1.363
 2231SOL    HW1 7592   0.199   1.158   1.439
 2231SOL    HW2 7593   0.221   1.065   1.307
 2232SOL     OW 7594   0.733   1.721   4.408
 2232SOL    HW1 7595   0.647   1.766   4.384
 2232SOL    HW2 7596   0.809   1.784   4.394
 2233SOL     OW 7597   2.082   3.185   0.633
 2233SOL    HW1 7598   2.101   3.270   0.683
 2233SOL    HW2 7599   2.048   3.116   0.697
 2234SOL     OW 7600   4.347   1.796   0.981
 2234SOL    HW1 7601   4.394   1.769   0.897
 2234SOL    HW2 7602   4.259   1.838   0.957
 2235SOL     OW 7603   3.078   0.183   1.673
 2235SOL    HW1 7604   3.158   0.168   1.731
 2235SOL    HW2 7605   3.093   0.265   1.618
 2236SOL     OW 7606   2.213   3.927   6.124
 2236SOL    HW1 7607   2.294   3.943   6.068
 2236SOL    HW2 7608   2.134   3.912   6.064
 2237SOL     OW 7609   5.558   4.428   3.919
 2237SOL    HW1 7610   5.499   4.448   3.997
 2237SOL    HW2 7611   5.596   4.336   3.929
 2238SOL     OW 7612   4.605   5.250   1.400
 2238SOL    HW1 7613   4.587   5.340   1.440
 2238SOL    HW2 7614   4.519   5.208   1.372
 2239SOL     OW 7615   3.607   5.036   3.895
 2239SOL    HW1 7616   3.550   5.111   3.930
 2239SOL    HW2 7617   3.638   4.980   3.972
 2240SOL     OW 7618   3.575   5.445   3.446
 2240SOL    HW1 7619   3.492   5.409   3.488
 2240SOL    HW2 7620   3.641   5.371   3.434
 2241SOL     OW 7621   0.290   5.495   3.136
 2241SOL    HW1 7622   0.322   5.546   3.215
 2241SOL    HW2 7623   0.239   5.556   3.076
 2242SOL     OW 7624   5.403   3.128   2.779
 2242SOL    HW1 7625   5.395   3.046   2.834
 2242SOL    HW2 7626   5.424   3.103   2.685
 2243SOL     OW 7627   1.768   6.693   5.603
 2243SOL    HW1 7628   1.753   6.643   5.688
 2243SOL    HW2 7629   1.757   6.631   5.525
 2244SOL     OW 7630   2.187   6.650   1.279
 2244SOL    HW1 7631   2.238   6.735   1.292
 2244SOL    HW2 7632   2.105   6.652   1.336
 2245SOL     OW 7633   0.643   1.455   1.928
 2245SOL    HW1 7634   0.592   1.534   1.892
 2245SOL    HW2 7635   0.731   1.448   1.881
 2246SOL     OW 7636   1.718   1.088   4.235
 2246SOL    HW1 7637   1.799   1.148   4.239
 2246SOL    HW2 7638   1.722   1.033   4.152
 2247SOL     OW 7639   3.371   2.887   3.427
 2247SOL    HW1 7640   3.442   2.930   3.483
 2247SOL    HW2 7641   3.396   2.892   3.330
 2248SOL     OW 7642   6.462   3.907   5.054
 2248SOL    HW1 7643   6.464   3.923   5.153
 2248SOL    HW2 7644   6.393   3.966   5.012
 2249SOL     OW 7645   5.790   6.598   3.899
 2249SOL    HW1 7646   5.726   6.523   3.912
 2249SOL    HW2 7647   5.774   6.641   3.810
 2250SOL     OW 7648   3.464   3.554   5.014
 2250SOL    HW1 7649   3.555   3.588   5.037
 2250SOL    HW2 7650   3.437   3.587   4.924
 2251SOL     OW 7651   5.231   0.345   6.894
 2251SOL    HW1 7652   5.295   0.421   6.885
 2251SOL    HW2 7653   5.138   0.379   6.878
 2252SOL     OW 7654   4.472   2.342   2.524
 2252SOL    HW1 7655   4.461   2.247   2.496
 2252SOL    HW2 7656   4.512   2.395   2.448
 2253SOL     OW 7657   0.147   3.720   6.871
 2253SOL    HW1 7658   0.068   3.783   6.868
 2253SOL    HW2 7659   0.168   3.688   6.779
 2254SOL     OW 7660   3.424   2.924   4.688
 2254SOL    HW1 7661   3.411   2.938   4.786
 2254SOL    HW2 7662   3.509   2.872   4.673
 2255SOL     OW 7663   4.075   3.415   6.050
 2255SOL    HW1 7664   4.154   3.358   6.075
 2255SOL    HW2 7665   4.049   3.473   6.127
 2256SOL     OW 7666   4.754   6.372   2.492
 2256SOL    HW1 7667   4.775   6.430   2.414
 2256SOL    HW2 7668   4.835   6.319   2.517
 2257SOL     OW 7669   6.925   1.646   4.138
 2257SOL    HW1 7670   6.920   1.555   4.178
 2257SOL    HW2 7671   6.854   1.656   4.068
 2258SOL     OW 7672   1.706   5.133   4.123
 2258SOL    HW1 7673   1.660   5.127   4.211
 2258SOL    HW2 7674   1.680   5.217   4.076
 2259SOL     OW 7675   4.891   3.506   5.647
 2259SOL    HW1 7676   4.894   3.601   5.614
 2259SOL    HW2 7677   4.982   3.479   5.679
 2260SOL     OW 7678   0.687   4.663   1.369
 2260SOL    HW1 7679   0.691   4.564   1.354
 2260SOL    HW2 7680   0.593   4.694   1.357
 2261SOL     OW 7681   5.253   5.016   0.058
 2261SOL    HW1 7682   5.236   5.024   6.982
 2261SOL    HW2 7683   5.183   5.067   0.108
 2262SOL     OW 7684   6.064   0.643   3.892
 2262SOL    HW1 7685   6.048   0.734   3.930
 2262SOL    HW2 7686   6.082   0.650   3.794
 2263SOL     OW 7687   3.410   5.937   6.971
 2263SOL    HW1 7688   3.379   5.845   6.996
 2263SOL    HW2 7689   3.459   5.978   0.027
 2264SOL     OW 7690   2.899   5.302   6.815
 2264SOL    HW1 7691   2.892   5.289   6.914
 2264SOL    HW2 7692   2.855   5.388   6.789
 2265SOL     OW 7693   1.668   1.147   3.794
 2265SOL    HW1 7694   1.601   1.094   3.846
 2265SOL    HW2 7695   1.744   1.173   3.854
 2266SOL     OW 7696   5.260   1.860   0.081
 2266SOL    HW1 7697   5.320   1.806   0.022
 2266SOL    HW2 7698   5.179   1.805   0.104
 2267SOL     OW 7699   4.705   2.667   4.593
 2267SOL    HW1 7700   4.629   2.649   4.656
 2267SOL    HW2 7701   4.722   2.766   4.590
 2268SOL     OW 7702   6.147   4.434   6.431
 2268SOL    HW1 7703   6.108   4.359   6.378
 2268SOL    HW2 7704   6.144   4.519   6.378
 2269SOL     OW 7705   6.689   4.990   5.696
 2269SOL    HW1 7706   6.787   4.972   5.686
 2269SOL    HW2 7707   6.669   5.082   5.662
 2270SOL     OW 7708   3.021   2.705   5.755
 2270SOL    HW1 7709   3.017   2.656   5.669
 2270SOL    HW2 7710   2.993   2.800   5.741
 2271SOL     OW 7711   5.433   4.356   0.341
 2271SOL    HW1 7712   5.522   4.396   0.319
 2271SOL    HW2 7713   5.415   4.365   0.439
 2272SOL     OW 7714   6.194   2.459   6.262
 2272SOL    HW1 7715   6.262   2.531   6.245
 2272SOL    HW2 7716   6.240   2.374   6.287
 2273SOL     OW 7717   1.615   1.542   1.881
 2273SOL    HW1 7718   1.647   1.479   1.811
 2273SOL    HW2 7719   1.617   1.495   1.970
 2274SOL     OW 7720   1.084   2.040   6.237
 2274SOL    HW1 7721   1.018   2.002   6.302
 2274SOL    HW2 7722   1.141   2.108   6.283
 2275SOL     OW 7723   6.380   6.161   4.509
 2275SOL    HW1 7724   6.379   6.061   4.514
 2275SOL    HW2 7725   6.411   6.190   4.418
 2276SOL     OW 7726   2.549   5.551   1.969
 2276SOL    HW1 7727   2.564   5.590   1.878
 2276SOL    HW2 7728   2.476   5.601   2.015
 2277SOL     OW 7729   4.143   3.551   4.217
 2277SOL    HW1 7730   4.119   3.568   4.313
 2277SOL    HW2 7731   4.241   3.535   4.210
 2278SOL     OW 7732   6.237   4.367   4.424
 2278SOL    HW1 7733   6.308   4.425   4.464
 2278SOL    HW2 7734   6.274   4.319   4.345
 2279SOL     OW 7735   5.845   6.678   5.910
 2279SOL    HW1 7736   5.796   6.593   5.930
 2279SOL    HW2 7737   5.779   6.747   5.879
 2280SOL     OW 7738   0.018   6.921   4.554
 2280SOL    HW1 7739   6.960   6.950   4.608
 2280SOL    HW2 7740   7.017   6.839   4.502
 2281SOL     OW 7741   3.174   1.145   2.103
 2281SOL    HW1 7742   3.187   1.168   2.199
 2281SOL    HW2 7743   3.134   1.223   2.054
 2282SOL     OW 7744   5.755   0.149   5.324
 2282SOL    HW1 7745   5.690   0.213   5.364
 2282SOL    HW2 7746   5.711   0.096   5.251
 2283SOL     OW 7747   1.082   5.373   1.635
 2283SOL    HW1 7748   1.090   5.472   1.648
 2283SOL    HW2 7749   0.995   5.342   1.673
 2284SOL     OW 7750   1.837   2.664   0.158
 2284SOL    HW1 7751   1.804   2.695   0.247
 2284SOL    HW2 7752   1.904   2.730   0.123
 2285SOL     OW 7753   2.122   2.321   1.243
 2285SOL    HW1 7754   2.080   2.254   1.182
 2285SOL    HW2 7755   2.052   2.386   1.274
 2286SOL     OW 7756   5.831   0.203   3.707
 2286SOL    HW1 7757   5.902   0.241   3.648
 2286SOL    HW2 7758   5.865   0.122   3.754
 2287SOL     OW 7759   2.404   0.239   3.266
 2287SOL    HW1 7760   2.333   0.171   3.247
 2287SOL    HW2 7761   2.491   0.192   3.285
 2288SOL     OW 7762   5.841   4.790   3.934
 2288SOL    HW1 7763   5.837   4.729   4.013
 2288SOL    HW2 7764   5.937   4.808   3.911
 2289SOL     OW 7765   0.648   4.857   0.930
 2289SOL    HW1 7766   0.598   4.781   0.971
 2289SOL    HW2 7767   0.639   4.853   0.831
 2290SOL     OW 7768   0.831   4.036   0.818
 2290SOL    HW1 7769   0.910   4.094   0.800
 2290SOL    HW2 7770   0.790   4.061   0.905
 2291SOL     OW 7771   2.208   2.166   5.453
 2291SOL    HW1 7772   2.112   2.141   5.440
 2291SOL    HW2 7773   2.223   2.259   5.420
 2292SOL     OW 7774   0.520   2.023   4.531
 2292SOL    HW1 7775   0.617   2.027   4.505
 2292SOL    HW2 7776   0.488   2.115   4.554
 2293SOL     OW 7777   4.841   5.917   1.770
 2293SOL    HW1 7778   4.756   5.970   1.776
 2293SOL    HW2 7779   4.841   5.847   1.842
 2294SOL     OW 7780   3.318   0.616   6.778
 2294SOL    HW1 7781   3.247   0.610   6.848
 2294SOL    HW2 7782   3.392   0.674   6.810
 2295SOL     OW 7783   0.587   1.896   3.219
 2295SOL    HW1 7784   0.679   1.860   3.204
 2295SOL    HW2 7785   0.540   1.907   3.131
 2296SOL     OW 7786   4.759   5.295   0.783
 2296SOL    HW1 7787   4.795   5.223   0.842
 2296SOL    HW2 7788   4.781   5.274   0.687
 2297SOL     OW 7789   4.200   4.265   5.351
 2297SOL    HW1 7790   4.266   4.256   5.426
 2297SOL    HW2 7791   4.240   4.321   5.278
 2298SOL     OW 7792   4.024   3.130   1.423
 2298SOL    HW1 7793   4.018   3.080   1.337
 2298SOL    HW2 7794   3.932   3.147   1.459
 2299SOL     OW 7795   4.810   6.159   5.408
 2299SOL    HW1 7796   4.797   6.215   5.326
 2299SOL    HW2 7797   4.793   6.063   5.386
 2300SOL     OW 7798   2.157   5.489   2.769
 2300SOL    HW1 7799   2.204   5.415   2.818
 2300SOL    HW2 7800   2.215   5.520   2.693
 2301SOL     OW 7801   3.125   3.001   3.124
 2301SOL    HW1 7802   3.080   3.023   3.037
 2301SOL    HW2 7803   3.188   2.925   3.111
 2302SOL     OW 7804   3.640   0.261   0.612
 2302SOL    HW1 7805   3.695   0.320   0.554
 2302SOL    HW2 7806   3.585   0.318   0.674
 2303SOL     OW 7807   2.329   2.784   6.087
 2303SOL    HW1 7808   2.321   2.685   6.079
 2303SOL    HW2 7809   2.239   2.823   6.107
 2304SOL     OW 7810   4.556   6.782   3.802
 2304SOL    HW1 7811   4.569   6.859   3.739
 2304SOL    HW2 7812   4.499   6.811   3.879
 2305SOL     OW 7813   2.929   6.632   2.738
 2305SOL    HW1 7814   2.979   6.598   2.817
 2305SOL    HW2 7815   2.990   6.686   2.680
 2306SOL     OW 7816   2.743   5.196   2.354
 2306SOL    HW1 7817   2.786   5.130   2.416
 2306SOL    HW2 7818   2.644   5.192   2.366
 2307SOL     OW 7819   0.424   4.375   2.546
 2307SOL    HW1 7820   0.351   4.389   2.612
 2307SOL    HW2 7821   0.432   4.278   2.525
 2308SOL     OW 7822   1.357   6.370   0.455
 2308SOL    HW1 7823   1.282   6.356   0.390
 2308SOL    HW2 7824   1.322   6.417   0.536
 2309SOL     OW 7825   1.770   6.865   6.504
 2309SOL    HW1 7826   1.802   6.772   6.486
 2309SOL    HW2 7827   1.813   6.928   6.439
 2310SOL     OW 7828   5.265   6.512   1.179
 2310SOL    HW1 7829   5.256   6.531   1.081
 2310SOL    HW2 7830   5.177   6.531   1.224
 2311SOL     OW 7831   1.817   5.711   1.870
 2311SOL    HW1 7832   1.814   5.805   1.903
 2311SOL    HW2 7833   1.868   5.707   1.784
 2312SOL     OW 7834   3.647   6.729   4.229
 2312SOL    HW1 7835   3.706   6.676   4.289
 2312SOL    HW2 7836   3.698   6.756   4.147
 2313SOL     OW 7837   4.854   5.595   1.612
 2313SOL    HW1 7838   4.822   5.577   1.519
 2313SOL    HW2 7839   4.782   5.640   1.664
 2314SOL     OW 7840   5.312   0.244   5.133
 2314SOL    HW1 7841   5.292   0.337   5.164
 2314SOL    HW2 7842   5.318   0.243   5.033
 2315SOL     OW 7843   4.609   3.208   5.307
 2315SOL    HW1 7844   4.601   3.109   5.292
 2315SOL    HW2 7845   4.701   3.238   5.281
 2316SOL     OW 7846   3.144   0.589   4.724
 2316SOL    HW1 7847   3.121   0.492   4.713
 2316SOL    HW2 7848   3.170   0.627   4.635
 2317SOL     OW 7849   7.007   6.203   3.361
 2317SOL    HW1 7850   6.968   6.290   3.328
 2317SOL    HW2 7851   0.078   6.192   3.325
 2318SOL     OW 7852   2.229   2.914   4.526
 2318SOL    HW1 7853   2.285   2.864   4.460
 2318SOL    HW2 7854   2.267   2.900   4.618
 2319SOL     OW 7855   2.322   5.214   4.232
 2319SOL    HW1 7856   2.367   5.209   4.321
 2319SOL    HW2 7857   2.389   5.200   4.160
 2320SOL     OW 7858   1.028   3.048   5.078
 2320SOL    HW1 7859   1.124   3.069   5.061
 2320SOL    HW2 7860   0.972   3.127   5.052
 2321SOL     OW 7861   2.197   6.406   6.898
 2321SOL    HW1 7862   2.180   6.308   6.882
 2321SOL    HW2 7863   2.110   6.454   6.902
 2322SOL     OW 7864   1.175   3.334   3.667
 2322SOL    HW1 7865   1.233   3.401   3.620
 2322SOL    HW2 7866   1.080   3.367   3.667
 2323SOL     OW 7867   3.534   5.198   1.607
 2323SOL    HW1 7868   3.595   5.150   1.671
 2323SOL    HW2 7869   3.527   5.144   1.522
 2324SOL     OW 7870   6.960   5.554   0.655
 2324SOL    HW1 7871   6.905   5.475   0.680
 2324SOL    HW2 7872   6.901   5.627   0.622
 2325SOL     OW 7873   0.989   4.798   1.449
 2325SOL    HW1 7874   0.921   4.755   1.509
 2325SOL    HW2 7875   0.942   4.853   1.380
 2326SOL     OW 7876   3.774   5.343   6.234
 2326SOL    HW1 7877   3.727   5.311   6.316
 2326SOL    HW2 7878   3.870   5.361   6.255
 2327SOL     OW 7879   6.506   1.771   4.031
 2327SOL    HW1 7880   6.589   1.822   4.051
 2327SOL    HW2 7881   6.489   1.771   3.933
 2328SOL     OW 7882   1.757   1.773   2.884
 2328SOL    HW1 7883   1.744   1.832   2.964
 2328SOL    HW2 7884   1.801   1.688   2.913
 2329SOL     OW 7885   1.355   4.486   4.496
 2329SOL    HW1 7886   1.331   4.580   4.473
 2329SOL    HW2 7887   1.386   4.482   4.591
 2330SOL     OW 7888   1.059   3.874   1.413
 2330SOL    HW1 7889   1.114   3.840   1.338
 2330SOL    HW2 7890   1.107   3.858   1.500
 2331SOL     OW 7891   4.184   5.647   6.459
 2331SOL    HW1 7892   4.258   5.708   6.486
 2331SOL    HW2 7893   4.170   5.578   6.531
 2332SOL     OW 7894   5.496   1.544   5.570
 2332SOL    HW1 7895   5.524   1.563   5.664
 2332SOL    HW2 7896   5.434   1.615   5.539
 2333SOL     OW 7897   0.212   4.862   3.234
 2333SOL    HW1 7898   0.175   4.953   3.254
 2333SOL    HW2 7899   0.307   4.871   3.204
 2334SOL     OW 7900   2.204   0.520   0.089
 2334SOL    HW1 7901   2.255   0.595   0.131
 2334SOL    HW2 7902   2.117   0.555   0.055
 2335SOL     OW 7903   6.172   0.975   3.199
 2335SOL    HW1 7904   6.157   0.927   3.285
 2335SOL    HW2 7905   6.269   0.996   3.188
 2336SOL     OW 7906   4.466   2.523   5.070
 2336SOL    HW1 7907   4.367   2.522   5.057
 2336SOL    HW2 7908   4.489   2.565   5.158
 2337SOL     OW 7909   4.713   1.044   2.025
 2337SOL    HW1 7910   4.636   1.083   2.077
 2337SOL    HW2 7911   4.788   1.024   2.087
 2338SOL     OW 7912   0.987   2.389   5.863
 2338SOL    HW1 7913   1.075   2.436   5.862
 2338SOL    HW2 7914   0.976   2.341   5.950
 2339SOL     OW 7915   3.232   3.657   4.510
 2339SOL    HW1 7916   3.133   3.664   4.518
 2339SOL    HW2 7917   3.273   3.748   4.511
 2340SOL     OW 7918   5.917   4.087   0.582
 2340SOL    HW1 7919   5.901   4.146   0.503
 2340SOL    HW2 7920   5.876   3.997   0.567
 2341SOL     OW 7921   4.237   4.681   1.622
 2341SOL    HW1 7922   4.268   4.617   1.692
 2341SOL    HW2 7923   4.304   4.687   1.549
 2342SOL     OW 7924   0.500   0.270   5.157
 2342SOL    HW1 7925   0.556   0.258   5.075
 2342SOL    HW2 7926   0.405   0.284   5.131
 2343SOL     OW 7927   2.237   5.769   3.218
 2343SOL    HW1 7928   2.172   5.816   3.159
 2343SOL    HW2 7929   2.206   5.775   3.313
 2344SOL     OW 7930   1.947   6.566   6.946
 2344SOL    HW1 7931   1.926   6.643   6.886
 2344SOL    HW2 7932   1.970   6.602   0.016
 2345SOL     OW 7933   3.629   5.545   4.685
 2345SOL    HW1 7934   3.621   5.590   4.596
 2345SOL    HW2 7935   3.537   5.519   4.717
 2346SOL     OW 7936   4.088   2.838   5.660
 2346SOL    HW1 7937   4.124   2.813   5.570
 2346SOL    HW2 7938   4.040   2.760   5.700
 2347SOL     OW 7939   2.570   2.869   1.675
 2347SOL    HW1 7940   2.561   2.967   1.694
 2347SOL    HW2 7941   2.524   2.848   1.589
 2348SOL     OW 7942   2.643   0.318   3.737
 2348SOL    HW1 7943   2.603   0.308   3.829
 2348SOL    HW2 7944   2.580   0.280   3.670
 2349SOL     OW 7945   0.650   4.360   6.441
 2349SOL    HW1 7946   0.662   4.312   6.354
 2349SOL    HW2 7947   0.722   4.429   6.451
 2350SOL     OW 7948   4.117   6.811   6.080
 2350SOL    HW1 7949   4.071   6.892   6.042
 2350SOL    HW2 7950   4.096   6.731   6.023
 2351SOL     OW 7951   2.822   5.264   3.673
 2351SOL    HW1 7952   2.813   5.220   3.763
 2351SOL    HW2 7953   2.782   5.205   3.603
 2352SOL     OW 7954   0.837   5.540   2.217
 2352SOL    HW1 7955   0.865   5.522   2.311
 2352SOL    HW2 7956   0.822   5.639   2.205
 2353SOL     OW 7957   2.955   4.606   5.992
 2353SOL    HW1 7958   3.012   4.583   6.071
 2353SOL    HW2 7959   2.917   4.522   5.953
 2354SOL     OW 7960   3.366   1.095   5.729
 2354SOL    HW1 7961   3.461   1.101   5.697
 2354SOL    HW2 7962   3.304   1.110   5.652
 2355SOL     OW 7963   2.551   5.504   0.312
 2355SOL    HW1 7964   2.607   5.423   0.330
 2355SOL    HW2 7965   2.455   5.478   0.306
 2356SOL     OW 7966   1.437   3.766   6.934
 2356SOL    HW1 7967   1.509   3.705   6.969
 2356SOL    HW2 7968   1.425   3.842   6.998
 2357SOL     OW 7969   4.712   6.934   3.014
 2357SOL    HW1 7970   4.627   6.982   3.038
 2357SOL    HW2 7971   4.691   6.861   2.949
 2358SOL     OW 7972   4.207   5.280   5.134
 2358SOL    HW1 7973   4.206   5.214   5.059
 2358SOL    HW2 7974   4.123   5.334   5.131
 2359SOL     OW 7975   5.966   0.945   6.014
 2359SOL    HW1 7976   5.992   0.937   6.111
 2359SOL    HW2 7977   5.971   0.855   5.971
 2360SOL     OW 7978   5.920   4.718   0.157
 2360SOL    HW1 7979   5.959   4.636   0.199
 2360SOL    HW2 7980   5.897   4.784   0.229
 2361SOL     OW 7981   2.308   0.860   5.065
 2361SOL    HW1 7982   2.304   0.956   5.092
 2361SOL    HW2 7983   2.219   0.832   5.030
 2362SOL     OW 7984   2.309   0.112   5.063
 2362SOL    HW1 7985   2.261   0.119   4.976
 2362SOL    HW2 7986   2.261   0.166   5.133
 2363SOL     OW 7987   4.499   2.303   5.358
 2363SOL    HW1 7988   4.531   2.240   5.288
 2363SOL    HW2 7989   4.574   2.326   5.420
 2364SOL     OW 7990   1.060   1.810   2.218
 2364SOL    HW1 7991   1.157   1.806   2.241
 2364SOL    HW2 7992   1.018   1.888   2.265
 2365SOL     OW 7993   6.639   2.837   6.482
 2365SOL    HW1 7994   6.597   2.928   6.483
 2365SOL    HW2 7995   6.679   2.819   6.392
 2366SOL     OW 7996   1.337   5.645   6.359
 2366SOL    HW1 7997   1.391   5.575   6.313
 2366SOL    HW2 7998   1.267   5.602   6.416
 2367SOL     OW 7999   2.935   4.654   0.578
 2367SOL    HW1 8000   3.005   4.636   0.648
 2367SOL    HW2 8001   2.950   4.593   0.500
 2368SOL     OW 8002   4.582   0.259   3.148
 2368SOL    HW1 8003   4.679   0.236   3.145
 2368SOL    HW2 8004   4.528   0.178   3.124
 2369SOL     OW 8005   0.899   2.589   6.103
 2369SOL    HW1 8006   0.993   2.611   6.130
 2369SOL    HW2 8007   0.891   2.491   6.087
 2370SOL     OW 8008   5.429   3.298   0.069
 2370SOL    HW1 8009   5.382   3.267   0.151
 2370SOL    HW2 8010   5.517   3.339   0.094
 2371SOL     OW 8011   0.518   0.175   2.101
 2371SOL    HW1 8012   0.436   0.208   2.054
 2371SOL    HW2 8013   0.542   0.085   2.066
 2372SOL     OW 8014   6.783   2.230   2.173
 2372SOL    HW1 8015   6.832   2.202   2.256
 2372SOL    HW2 8016   6.715   2.161   2.150
 2373SOL     OW 8017   0.588   1.342   0.419
 2373SOL    HW1 8018   0.677   1.354   0.375
 2373SOL    HW2 8019   0.580   1.404   0.497
 2374SOL     OW 8020   6.235   1.232   3.881
 2374SOL    HW1 8021   6.146   1.194   3.858
 2374SOL    HW2 8022   6.232   1.332   3.871
 2375SOL     OW 8023   2.676   6.799   4.776
 2375SOL    HW1 8024   2.679   6.894   4.746
 2375SOL    HW2 8025   2.685   6.739   4.696
 2376SOL     OW 8026   6.490   2.519   3.964
 2376SOL    HW1 8027   6.519   2.551   3.874
 2376SOL    HW2 8028   6.418   2.449   3.953
 2377SOL     OW 8029   3.450   4.131   3.200
 2377SOL    HW1 8030   3.443   4.224   3.234
 2377SOL    HW2 8031   3.527   4.125   3.136
 2378SOL     OW 8032   5.137   2.602   6.998
 2378SOL    HW1 8033   5.070   2.603   6.923
 2378SOL    HW2 8034   5.156   2.696   0.005
 2379SOL     OW 8035   5.401   2.551   0.063
 2379SOL    HW1 8036   5.355   2.502   7.009
 2379SOL    HW2 8037   5.362   2.643   0.071
 2380SOL     OW 8038   0.757   0.315   5.549
 2380SOL    HW1 8039   0.830   0.255   5.518
 2380SOL    HW2 8040   0.793   0.378   5.618
 2381SOL     OW 8041   1.989   3.851   4.298
 2381SOL    HW1 8042   1.932   3.834   4.378
 2381SOL    HW2 8043   2.040   3.768   4.275
 2382SOL     OW 8044   2.338   4.370   3.633
 2382SOL    HW1 8045   2.340   4.298   3.564
 2382SOL    HW2 8046   2.274   4.346   3.705
 2383SOL     OW 8047   5.991   6.527   1.009
 2383SOL    HW1 8048   5.965   6.510   0.914
 2383SOL    HW2 8049   5.928   6.478   1.069
 2384SOL     OW 8050   6.788   6.657   2.614
 2384SOL    HW1 8051   6.754   6.645   2.521
 2384SOL    HW2 8052   6.828   6.748   2.623
 2385SOL     OW 8053   0.632   6.282   0.963
 2385SOL    HW1 8054   0.644   6.236   0.874
 2385SOL    HW2 8055   0.535   6.294   0.981
 2386SOL     OW 8056   5.202   5.117   4.121
 2386SOL    HW1 8057   5.191   5.211   4.155
 2386SOL    HW2 8058   5.290   5.109   4.074
 2387SOL     OW 8059   1.366   1.497   3.712
 2387SOL    HW1 8060   1.453   1.492   3.663
 2387SOL    HW2 8061   1.364   1.578   3.770
 2388SOL     OW 8062   1.419   2.299   3.577
 2388SOL    HW1 8063   1.506   2.303   3.626
 2388SOL    HW2 8064   1.361   2.375   3.605
 2389SOL     OW 8065   4.897   3.566   2.724
 2389SOL    HW1 8066   4.864   3.615   2.805
 2389SOL    HW2 8067   4.973   3.616   2.684
 2390SOL     OW 8068   3.850   3.976   3.095
 2390SOL    HW1 8069   3.928   3.924   3.129
 2390SOL    HW2 8070   3.777   3.974   3.163
 2391SOL     OW 8071   4.758   4.599   5.797
 2391SOL    HW1 8072   4.755   4.684   5.849
 2391SOL    HW2 8073   4.705   4.529   5.846
 2392SOL     OW 8074   3.544   6.715   5.403
 2392SOL    HW1 8075   3.499   6.631   5.433
 2392SOL    HW2 8076   3.585   6.700   5.314
 2393SOL     OW 8077   4.837   4.111   6.109
 2393SOL    HW1 8078   4.841   4.082   6.204
 2393SOL    HW2 8079   4.850   4.032   6.049
 2394SOL     OW 8080   1.699   3.034   4.212
 2394SOL    HW1 8081   1.754   3.003   4.135
 2394SOL    HW2 8082   1.690   2.960   4.279
 2395SOL     OW 8083   6.381   2.893   6.684
 2395SOL    HW1 8084   6.430   2.967   6.638
 2395SOL    HW2 8085   6.360   2.821   6.619
 2396SOL     OW 8086   4.368   4.975   1.050
 2396SOL    HW1 8087   4.464   4.970   1.078
 2396SOL    HW2 8088   4.346   5.070   1.027
 2397SOL     OW 8089   0.452   3.841   6.974
 2397SOL    HW1 8090   0.456   3.938   6.948
 2397SOL    HW2 8091   0.416   3.833   0.045
 2398SOL     OW 8092   2.882   3.791   6.402
 2398SOL    HW1 8093   2.800   3.847   6.405
 2398SOL    HW2 8094   2.859   3.699   6.369
 2399SOL     OW 8095   4.443   1.462   2.506
 2399SOL    HW1 8096   4.448   1.463   2.407
 2399SOL    HW2 8097   4.392   1.381   2.536
 2400SOL     OW 8098   3.106   4.886   0.066
 2400SOL    HW1 8099   3.111   4.983   0.092
 2400SOL    HW2 8100   3.161   4.871   7.005
 2401SOL     OW 8101   3.750   6.501   6.394
 2401SOL    HW1 8102   3.662   6.491   6.442
 2401SOL    HW2 8103   3.803   6.416   6.405
 2402SOL     OW 8104   0.281   0.818   4.099
 2402SOL    HW1 8105   0.276   0.783   4.006
 2402SOL    HW2 8106   0.254   0.915   4.100
 2403SOL     OW 8107   2.179   2.520   0.995
 2403SOL    HW1 8108   2.200   2.530   0.897
 2403SOL    HW2 8109   2.244   2.575   1.048
 2404SOL     OW 8110   4.936   1.127   0.986
 2404SOL    HW1 8111   4.990   1.047   1.013
 2404SOL    HW2 8112   4.869   1.148   1.057
 2405SOL     OW 8113   3.842   3.352   2.781
 2405SOL    HW1 8114   3.858   3.315   2.872
 2405SOL    HW2 8115   3.837   3.452   2.785
 2406SOL     OW 8116   2.764   6.135   3.201
 2406SOL    HW1 8117   2.736   6.082   3.281
 2406SOL    HW2 8118   2.853   6.177   3.218
 2407SOL     OW 8119   5.219   2.088   2.507
 2407SOL    HW1 8120   5.188   2.142   2.428
 2407SOL    HW2 8121   5.191   2.133   2.591
 2408SOL     OW 8122   4.355   4.923   3.618
 2408SOL    HW1 8123   4.343   4.952   3.713
 2408SOL    HW2 8124   4.270   4.880   3.586
 2409SOL     OW 8125   1.324   3.463   1.801
 2409SOL    HW1 8126   1.320   3.535   1.870
 2409SOL    HW2 8127   1.248   3.399   1.814
 2410SOL     OW 8128   5.219   2.556   5.855
 2410SOL    HW1 8129   5.150   2.522   5.919
 2410SOL    HW2 8130   5.215   2.656   5.852
 2411SOL     OW 8131   4.377   5.188   5.559
 2411SOL    HW1 8132   4.446   5.241   5.609
 2411SOL    HW2 8133   4.314   5.251   5.513
 2412SOL     OW 8134   4.234   4.501   1.201
 2412SOL    HW1 8135   4.312   4.548   1.161
 2412SOL    HW2 8136   4.187   4.562   1.265
 2413SOL     OW 8137   6.481   2.644   0.632
 2413SOL    HW1 8138   6.414   2.717   0.618
 2413SOL    HW2 8139   6.435   2.562   0.664
 2414SOL     OW 8140   4.788   3.991   2.352
 2414SOL    HW1 8141   4.732   3.908   2.342
 2414SOL    HW2 8142   4.804   4.031   2.261
 2415SOL     OW 8143   6.950   6.899   1.827
 2415SOL    HW1 8144   7.015   6.921   1.754
 2415SOL    HW2 8145   6.945   6.976   1.891
 2416SOL     OW 8146   4.138   2.253   5.359
 2416SOL    HW1 8147   4.178   2.167   5.328
 2416SOL    HW2 8148   4.055   2.272   5.308
 2417SOL     OW 8149   3.845   3.782   6.169
 2417SOL    HW1 8150   3.832   3.806   6.073
 2417SOL    HW2 8151   3.852   3.866   6.223
 2418SOL     OW 8152   3.207   4.107   3.847
 2418SOL    HW1 8153   3.219   4.203   3.822
 2418SOL    HW2 8154   3.194   4.099   3.946
 2419SOL     OW 8155   0.950   6.175   4.741
 2419SOL    HW1 8156   1.013   6.120   4.687
 2419SOL    HW2 8157   0.975   6.171   4.838
 2420SOL     OW 8158   3.102   1.269   1.672
 2420SOL    HW1 8159   3.192   1.299   1.703
 2420SOL    HW2 8160   3.097   1.275   1.572
 2421SOL     OW 8161   2.573   1.512   4.935
 2421SOL    HW1 8162   2.570   1.466   5.023
 2421SOL    HW2 8163   2.667   1.537   4.914
 2422SOL     OW 8164   5.855   0.344   1.605
 2422SOL    HW1 8165   5.928   0.368   1.669
 2422SOL    HW2 8166   5.785   0.290   1.653
 2423SOL     OW 8167   0.957   6.233   3.466
 2423SOL    HW1 8168   1.023   6.210   3.537
 2423SOL    HW2 8169   0.919   6.148   3.428
 2424SOL     OW 8170   6.141   6.423   6.615
 2424SOL    HW1 8171   6.232   6.457   6.591
 2424SOL    HW2 8172   6.087   6.410   6.531
 2425SOL     OW 8173   6.499   0.138   3.903
 2425SOL    HW1 8174   6.410   0.114   3.942
 2425SOL    HW2 8175   6.564   0.064   3.920
 2426SOL     OW 8176   1.280   5.435   4.229
 2426SOL    HW1 8177   1.326   5.384   4.157
 2426SOL    HW2 8178   1.248   5.371   4.300
 2427SOL     OW 8179   5.726   5.054   5.586
 2427SOL    HW1 8180   5.750   5.119   5.514
 2427SOL    HW2 8181   5.736   5.098   5.676
 2428SOL     OW 8182   6.049   0.178   3.507
 2428SOL    HW1 8183   6.116   0.136   3.446
 2428SOL    HW2 8184   6.092   0.197   3.595
 2429SOL     OW 8185   5.696   5.088   3.935
 2429SOL    HW1 8186   5.758   5.161   3.905
 2429SOL    HW2 8187   5.750   5.009   3.964
 2430SOL     OW 8188   6.340   1.731   1.108
 2430SOL    HW1 8189   6.282   1.689   1.038
 2430SOL    HW2 8190   6.321   1.829   1.113
 2431SOL     OW 8191   4.325   0.784   2.628
 2431SOL    HW1 8192   4.386   0.730   2.570
 2431SOL    HW2 8193   4.259   0.722   2.672
 2432SOL     OW 8194   3.434   6.556   3.266
 2432SOL    HW1 8195   3.532   6.570   3.283
 2432SOL    HW2 8196   3.400   6.629   3.206
 2433SOL     OW 8197   3.382   0.753   1.289
 2433SOL    HW1 8198   3.380   0.678   1.355
 2433SOL    HW2 8199   3.451   0.734   1.219
 2434SOL     OW 8200   4.463   0.399   4.916
 2434SOL    HW1 8201   4.375   0.425   4.956
 2434SOL    HW2 8202   4.493   0.471   4.853
 2435SOL     OW 8203   4.294   4.688   6.561
 2435SOL    HW1 8204   4.394   4.678   6.568
 2435SOL    HW2 8205   4.256   4.706   6.652
 2436SOL     OW 8206   1.743   5.758   1.524
 2436SOL    HW1 8207   1.778   5.667   1.547
 2436SOL    HW2 8208   1.648   5.766   1.557
 2437SOL     OW 8209   4.922   6.033   0.406
 2437SOL    HW1 8210   4.898   6.021   0.503
 2437SOL    HW2 8211   5.014   6.071   0.399
 2438SOL     OW 8212   3.761   1.174   5.983
 2438SOL    HW1 8213   3.815   1.240   6.035
 2438SOL    HW2 8214   3.822   1.111   5.935
 2439SOL     OW 8215   0.923   4.508   6.237
 2439SOL    HW1 8216   0.887   4.594   6.200
 2439SOL    HW2 8217   0.922   4.512   6.337
 2440SOL     OW 8218   5.060   5.840   5.885
 2440SOL    HW1 8219   5.096   5.920   5.933
 2440SOL    HW2 8220   5.011   5.870   5.803
 2441SOL     OW 8221   0.625   0.598   0.172
 2441SOL    HW1 8222   0.683   0.534   0.123
 2441SOL    HW2 8223   0.531   0.564   0.173
 2442SOL     OW 8224   6.561   4.610   4.908
 2442SOL    HW1 8225   6.503   4.623   4.827
 2442SOL    HW2 8226   6.515   4.549   4.972
 2443SOL     OW 8227   4.124   6.037   5.409
 2443SOL    HW1 8228   4.196   6.077   5.466
 2443SOL    HW2 8229   4.164   6.002   5.324
 2444SOL     OW 8230   2.902   4.325   6.158
 2444SOL    HW1 8231   2.908   4.236   6.203
 2444SOL    HW2 8232   2.888   4.396   6.227
 2445SOL     OW 8233   0.263   0.293   2.324
 2445SOL    HW1 8234   0.251   0.200   2.289
 2445SOL    HW2 8235   0.177   0.344   2.316
 2446SOL     OW 8236   0.330   4.646   4.046
 2446SOL    HW1 8237   0.413   4.608   4.087
 2446SOL    HW2 8238   0.350   4.737   4.010
 2447SOL     OW 8239   2.611   2.325   1.048
 2447SOL    HW1 8240   2.590   2.256   1.117
 2447SOL    HW2 8241   2.710   2.329   1.033
 2448SOL     OW 8242   0.559   0.426   4.864
 2448SOL    HW1 8243   0.647   0.472   4.875
 2448SOL    HW2 8244   0.573   0.327   4.859
 2449SOL     OW 8245   0.380   5.177   0.871
 2449SOL    HW1 8246   0.341   5.120   0.942
 2449SOL    HW2 8247   0.480   5.177   0.878
 2450SOL     OW 8248   2.463   4.868   3.134
 2450SOL    HW1 8249   2.520   4.912   3.064
 2450SOL    HW2 8250   2.369   4.862   3.101
 2451SOL     OW 8251   0.653   0.243   3.538
 2451SOL    HW1 8252   0.620   0.322   3.486
 2451SOL    HW2 8253   0.622   0.250   3.633
 2452SOL     OW 8254   1.691   3.305   3.015
 2452SOL    HW1 8255   1.623   3.286   3.085
 2452SOL    HW2 8256   1.714   3.403   3.017
 2453SOL     OW 8257   5.865   3.974   0.915
 2453SOL    HW1 8258   5.808   3.929   0.984
 2453SOL    HW2 8259   5.909   3.905   0.857
 2454SOL     OW 8260   3.154   1.330   0.830
 2454SOL    HW1 8261   3.158   1.278   0.745
 2454SOL    HW2 8262   3.062   1.326   0.868
 2455SOL     OW 8263   5.616   6.260   0.472
 2455SOL    HW1 8264   5.613   6.168   0.510
 2455SOL    HW2 8265   5.711   6.289   0.464
 2456SOL     OW 8266   5.992   6.768   0.789
 2456SOL    HW1 8267   5.926   6.737   0.721
 2456SOL    HW2 8268   5.973   6.721   0.876
 2457SOL     OW 8269   6.688   6.343   0.625
 2457SOL    HW1 8270   6.734   6.334   0.713
 2457SOL    HW2 8271   6.689   6.438   0.595
 2458SOL     OW 8272   2.892   6.019   3.628
 2458SOL    HW1 8273   2.989   6.013   3.649
 2458SOL    HW2 8274   2.847   5.933   3.654
 2459SOL     OW 8275   2.494   6.724   0.509
 2459SOL    HW1 8276   2.525   6.723   0.605
 2459SOL    HW2 8277   2.519   6.812   0.468
 2460SOL     OW 8278   1.838   0.724   1.290
 2460SOL    HW1 8279   1.879   0.809   1.324
 2460SOL    HW2 8280   1.898   0.683   1.222
 2461SOL     OW 8281   4.652   0.906   2.844
 2461SOL    HW1 8282   4.704   0.901   2.759
 2461SOL    HW2 8283   4.567   0.956   2.828
 2462SOL     OW 8284   2.332   5.655   6.926
 2462SOL    HW1 8285   2.256   5.630   6.866
 2462SOL    HW2 8286   2.320   5.749   6.957
 2463SOL     OW 8287   6.018   2.459   3.956
 2463SOL    HW1 8288   5.997   2.387   4.023
 2463SOL    HW2 8289   6.030   2.546   4.004
 2464SOL     OW 8290   1.186   4.966   1.534
 2464SOL    HW1 8291   1.121   4.900   1.498
 2464SOL    HW2 8292   1.245   4.999   1.460
 2465SOL     OW 8293   0.038   5.467   1.155
 2465SOL    HW1 8294   0.010   5.503   1.244
 2465SOL    HW2 8295   0.136   5.449   1.155
 2466SOL     OW 8296   3.445   0.566   1.805
 2466SOL    HW1 8297   3.349   0.583   1.785
 2466SOL    HW2 8298   3.456   0.546   1.902
 2467SOL     OW 8299   5.837   0.990   5.779
 2467SOL    HW1 8300   5.881   0.955   5.862
 2467SOL    HW2 8301   5.769   0.924   5.747
 2468SOL     OW 8302   6.540   6.300   1.748
 2468SOL    HW1 8303   6.480   6.372   1.713
 2468SOL    HW2 8304   6.590   6.334   1.828
 2469SOL     OW 8305   4.010   4.324   5.554
 2469SOL    HW1 8306   3.939   4.378   5.509
 2469SOL    HW2 8307   4.072   4.286   5.485
 2470SOL     OW 8308   2.596   3.782   6.667
 2470SOL    HW1 8309   2.565   3.725   6.591
 2470SOL    HW2 8310   2.649   3.726   6.731
 2471SOL     OW 8311   2.108   6.655   1.018
 2471SOL    HW1 8312   2.114   6.663   1.117
 2471SOL    HW2 8313   2.175   6.716   0.976
 2472SOL     OW 8314   5.323   1.436   4.687
 2472SOL    HW1 8315   5.389   1.481   4.627
 2472SOL    HW2 8316   5.235   1.482   4.681
 2473SOL     OW 8317   2.186   4.095   4.855
 2473SOL    HW1 8318   2.110   4.151   4.886
 2473SOL    HW2 8319   2.249   4.078   4.931
 2474SOL     OW 8320   0.003   5.098   0.210
 2474SOL    HW1 8321   0.084   5.149   0.240
 2474SOL    HW2 8322   0.032   5.009   0.175
 2475SOL     OW 8323   4.425   2.082   0.728
 2475SOL    HW1 8324   4.491   2.006   0.734
 2475SOL    HW2 8325   4.340   2.055   0.772
 2476SOL     OW 8326   0.356   2.574   3.261
 2476SOL    HW1 8327   0.314   2.592   3.350
 2476SOL    HW2 8328   0.435   2.515   3.274
 2477SOL     OW 8329   6.266   7.008   2.105
 2477SOL    HW1 8330   6.212   0.069   2.088
 2477SOL    HW2 8331   6.294   7.006   2.201
 2478SOL     OW 8332   5.029   7.001   2.925
 2478SOL    HW1 8333   5.076   0.062   2.957
 2478SOL    HW2 8334   5.023   6.935   3.000
 2479SOL     OW 8335   0.668   3.209   1.326
 2479SOL    HW1 8336   0.606   3.199   1.403
 2479SOL    HW2 8337   0.763   3.200   1.358
 2480SOL     OW 8338   6.834   2.802   0.903
 2480SOL    HW1 8339   6.850   2.782   0.999
 2480SOL    HW2 8340   6.754   2.750   0.872
 2481SOL     OW 8341   3.360   6.004   0.238
 2481SOL    HW1 8342   3.443   6.020   0.292
 2481SOL    HW2 8343   3.309   5.927   0.277
 2482SOL     OW 8344   4.554   2.968   5.993
 2482SOL    HW1 8345   4.615   3.013   6.057
 2482SOL    HW2 8346   4.602   2.893   5.948
 2483SOL     OW 8347   2.150   1.327   0.737
 2483SOL    HW1 8348   2.149   1.420   0.700
 2483SOL    HW2 8349   2.238   1.284   0.717
 2484SOL     OW 8350   2.008   0.666   1.035
 2484SOL    HW1 8351   2.062   0.655   1.119
 2484SOL    HW2 8352   1.987   0.576   0.997
 2485SOL     OW 8353   4.904   5.360   2.812
 2485SOL    HW1 8354   4.942   5.362   2.904
 2485SOL    HW2 8355   4.810   5.326   2.816
 2486SOL     OW 8356   2.039   5.994   2.782
 2486SOL    HW1 8357   2.070   5.996   2.877
 2486SOL    HW2 8358   2.055   6.084   2.740
 2487SOL     OW 8359   4.144   6.193   0.272
 2487SOL    HW1 8360   4.102   6.184   0.362
 2487SOL    HW2 8361   4.079   6.163   0.202
 2488SOL     OW 8362   2.693   4.140   1.659
 2488SOL    HW1 8363   2.774   4.126   1.716
 2488SOL    HW2 8364   2.690   4.235   1.629
 2489SOL     OW 8365   2.543   5.167   4.075
 2489SOL    HW1 8366   2.526   5.119   3.989
 2489SOL    HW2 8367   2.619   5.122   4.123
 2490SOL     OW 8368   6.541   4.669   0.866
 2490SOL    HW1 8369   6.619   4.713   0.912
 2490SOL    HW2 8370   6.456   4.714   0.894
 2491SOL     OW 8371   3.047   5.844   2.969
 2491SOL    HW1 8372   3.118   5.821   2.902
 2491SOL    HW2 8373   2.957   5.820   2.932
 2492SOL     OW 8374   3.861   3.030   6.305
 2492SOL    HW1 8375   3.815   3.117   6.323
 2492SOL    HW2 8376   3.831   2.961   6.370
 2493SOL     OW 8377   6.234   6.935   2.684
 2493SOL    HW1 8378   6.303   6.867   2.659
 2493SOL    HW2 8379   6.183   6.903   2.763
 2494SOL     OW 8380   5.059   3.161   2.751
 2494SOL    HW1 8381   5.043   3.073   2.797
 2494SOL    HW2 8382   5.038   3.152   2.654
 2495SOL     OW 8383   5.222   0.981   5.204
 2495SOL    HW1 8384   5.246   0.915   5.275
 2495SOL    HW2 8385   5.236   1.074   5.238
 2496SOL     OW 8386   0.830   5.104   0.271
 2496SOL    HW1 8387   0.917   5.107   0.320
 2496SOL    HW2 8388   0.830   5.028   0.207
 2497SOL     OW 8389   0.365   1.810   0.160
 2497SOL    HW1 8390   0.392   1.732   0.104
 2497SOL    HW2 8391   0.322   1.776   0.244
 2498SOL     OW 8392   2.257   2.974   3.623
 2498SOL    HW1 8393   2.300   2.921   3.550
 2498SOL    HW2 8394   2.283   2.934   3.711
 2499SOL     OW 8395   5.346   0.660   4.613
 2499SOL    HW1 8396   5.388   0.579   4.573
 2499SOL    HW2 8397   5.368   0.740   4.557
 2500SOL     OW 8398   4.381   3.739   6.141
 2500SOL    HW1 8399   4.369   3.647   6.180
 2500SOL    HW2 8400   4.296   3.766   6.095
 2501SOL     OW 8401   6.061   4.422   6.696
 2501SOL    HW1 8402   6.073   4.490   6.768
 2501SOL    HW2 8403   6.118   4.446   6.617
 2502SOL     OW 8404   2.560   6.840   3.675
 2502SOL    HW1 8405   2.587   6.798   3.588
 2502SOL    HW2 8406   2.479   6.793   3.711
 2503SOL     OW 8407   3.936   5.828   5.901
 2503SOL    HW1 8408   3.946   5.736   5.938
 2503SOL    HW2 8409   3.873   5.827   5.824
 2504SOL     OW 8410   2.490   4.992   5.128
 2504SOL    HW1 8411   2.536   4.912   5.165
 2504SOL    HW2 8412   2.511   5.072   5.185
 2505SOL     OW 8413   3.842   5.785   4.736
 2505SOL    HW1 8414   3.747   5.761   4.716
 2505SOL    HW2 8415   3.865   5.870   4.690
 2506SOL     OW 8416   6.710   3.094   6.120
 2506SOL    HW1 8417   6.689   3.003   6.155
 2506SOL    HW2 8418   6.625   3.144   6.102
 2507SOL     OW 8419   5.724   5.096   0.507
 2507SOL    HW1 8420   5.697   5.118   0.413
 2507SOL    HW2 8421   5.683   5.163   0.569
 2508SOL     OW 8422   2.704   2.022   1.991
 2508SOL    HW1 8423   2.800   2.047   1.994
 2508SOL    HW2 8424   2.666   2.043   1.901
 2509SOL     OW 8425   5.661   1.786   2.345
 2509SOL    HW1 8426   5.730   1.806   2.275
 2509SOL    HW2 8427   5.586   1.852   2.337
 2510SOL     OW 8428   2.902   4.579   0.294
 2510SOL    HW1 8429   2.864   4.635   0.220
 2510SOL    HW2 8430   2.982   4.529   0.260
 2511SOL     OW 8431   1.431   1.325   4.661
 2511SOL    HW1 8432   1.475   1.407   4.696
 2511SOL    HW2 8433   1.484   1.289   4.584
 2512SOL     OW 8434   5.399   4.466   4.151
 2512SOL    HW1 8435   5.302   4.480   4.174
 2512SOL    HW2 8436   5.455   4.531   4.202
 2513SOL     OW 8437   0.787   2.355   6.483
 2513SOL    HW1 8438   0.787   2.419   6.406
 2513SOL    HW2 8439   0.807   2.405   6.568
 2514SOL     OW 8440   0.233   1.988   4.163
 2514SOL    HW1 8441   0.184   2.046   4.227
 2514SOL    HW2 8442   0.295   2.044   4.108
 2515SOL     OW 8443   1.112   6.519   0.894
 2515SOL    HW1 8444   1.028   6.545   0.943
 2515SOL    HW2 8445   1.191   6.562   0.938
 2516SOL     OW 8446   6.045   5.313   2.933
 2516SOL    HW1 8447   6.100   5.391   2.904
 2516SOL    HW2 8448   5.999   5.273   2.853
 2517SOL     OW 8449   2.452   4.343   6.216
 2517SOL    HW1 8450   2.383   4.402   6.258
 2517SOL    HW2 8451   2.538   4.351   6.266
 2518SOL     OW 8452   2.015   2.823   0.043
 2518SOL    HW1 8453   2.009   2.794   6.969
 2518SOL    HW2 8454   2.003   2.922   0.048
 2519SOL     OW 8455   4.540   5.378   4.193
 2519SOL    HW1 8456   4.562   5.293   4.146
 2519SOL    HW2 8457   4.594   5.385   4.277
 2520SOL     OW 8458   1.467   3.100   0.709
 2520SOL    HW1 8459   1.435   3.121   0.801
 2520SOL    HW2 8460   1.556   3.144   0.694
 2521SOL     OW 8461   0.913   6.898   5.625
 2521SOL    HW1 8462   0.874   6.813   5.661
 2521SOL    HW2 8463   0.973   6.939   5.693
 2522SOL     OW 8464   1.350   3.084   4.427
 2522SOL    HW1 8465   1.328   3.011   4.361
 2522SOL    HW2 8466   1.410   3.047   4.498
 2523SOL     OW 8467   6.732   3.345   0.985
 2523SOL    HW1 8468   6.778   3.357   0.898
 2523SOL    HW2 8469   6.707   3.249   0.997
 2524SOL     OW 8470   0.374   6.017   4.226
 2524SOL    HW1 8471   0.469   6.021   4.256
 2524SOL    HW2 8472   0.357   6.089   4.159
 2525SOL     OW 8473   0.597   4.135   4.282
 2525SOL    HW1 8474   0.684   4.128   4.331
 2525SOL    HW2 8475   0.547   4.048   4.291
 2526SOL     OW 8476   0.699   2.700   5.147
 2526SOL    HW1 8477   0.723   2.787   5.190
 2526SOL    HW2 8478   0.604   2.703   5.116
 2527SOL     OW 8479   6.016   6.795   5.664
 2527SOL    HW1 8480   5.927   6.823   5.699
 2527SOL    HW2 8481   6.062   6.737   5.732
 2528SOL     OW 8482   5.451   5.157   0.618
 2528SOL    HW1 8483   5.423   5.063   0.598
 2528SOL    HW2 8484   5.422   5.217   0.544
 2529SOL     OW 8485   4.650   4.921   5.562
 2529SOL    HW1 8486   4.726   4.933   5.625
 2529SOL    HW2 8487   4.564   4.914   5.614
 2530SOL     OW 8488   1.065   6.292   3.954
 2530SOL    HW1 8489   1.051   6.313   3.857
 2530SOL    HW2 8490   0.981   6.310   4.005
 2531SOL     OW 8491   5.575   6.615   5.116
 2531SOL    HW1 8492   5.543   6.526   5.147
 2531SOL    HW2 8493   5.605   6.669   5.195
 2532SOL     OW 8494   0.642   5.620   0.631
 2532SOL    HW1 8495   0.652   5.712   0.668
 2532SOL    HW2 8496   0.608   5.559   0.702
 2533SOL     OW 8497   5.457   6.550   4.870
 2533SOL    HW1 8498   5.482   6.459   4.902
 2533SOL    HW2 8499   5.482   6.618   4.939
 2534SOL     OW 8500   2.623   0.526   3.025
 2534SOL    HW1 8501   2.716   0.524   3.061
 2534SOL    HW2 8502   2.597   0.434   2.995
 2535SOL     OW 8503   1.865   1.969   5.160
 2535SOL    HW1 8504   1.891   2.061   5.130
 2535SOL    HW2 8505   1.779   1.943   5.115
 2536SOL     OW 8506   6.736   1.447   4.035
 2536SOL    HW1 8507   6.676   1.432   4.114
 2536SOL    HW2 8508   6.681   1.462   3.954
 2537SOL     OW 8509   4.921   6.840   0.701
 2537SOL    HW1 8510   4.994   6.828   0.634
 2537SOL    HW2 8511   4.906   6.755   0.751
 2538SOL     OW 8512   1.724   4.811   4.813
 2538SOL    HW1 8513   1.658   4.780   4.744
 2538SOL    HW2 8514   1.680   4.813   4.903
 2539SOL     OW 8515   4.450   0.042   5.199
 2539SOL    HW1 8516   4.500   0.067   5.116
 2539SOL    HW2 8517   4.418   0.124   5.245
 2540SOL     OW 8518   5.544   0.666   1.227
 2540SOL    HW1 8519   5.628   0.640   1.274
 2540SOL    HW2 8520   5.494   0.732   1.283
 2541SOL     OW 8521   1.976   0.382   5.442
 2541SOL    HW1 8522   2.026   0.463   5.471
 2541SOL    HW2 8523   2.029   0.331   5.374
 2542SOL     OW 8524   4.387   1.969   4.847
 2542SOL    HW1 8525   4.389   2.044   4.914
 2542SOL    HW2 8526   4.458   1.983   4.779
 2543SOL     OW 8527   1.167   0.359   3.022
 2543SOL    HW1 8528   1.067   0.361   3.026
 2543SOL    HW2 8529   1.200   0.445   2.983
 2544SOL     OW 8530   0.269   4.821   1.732
 2544SOL    HW1 8531   0.302   4.901   1.681
 2544SOL    HW2 8532   0.335   4.747   1.725
 2545SOL     OW 8533   1.810   2.025   1.259
 2545SOL    HW1 8534   1.745   1.967   1.306
 2545SOL    HW2 8535   1.817   1.997   1.163
 2546SOL     OW 8536   6.920   3.388   1.741
 2546SOL    HW1 8537   6.952   3.435   1.659
 2546SOL    HW2 8538   6.923   3.289   1.727
 2547SOL     OW 8539   5.544   5.285   0.849
 2547SOL    HW1 8540   5.508   5.251   0.936
 2547SOL    HW2 8541   5.524   5.220   0.777
 2548SOL     OW 8542   1.944   6.979   4.704
 2548SOL    HW1 8543   1.969   0.049   4.735
 2548SOL    HW2 8544   1.963   6.970   4.606
 2549SOL     OW 8545   1.843   2.754   1.887
 2549SOL    HW1 8546   1.930   2.804   1.879
 2549SOL    HW2 8547   1.852   2.682   1.956
 2550SOL     OW 8548   5.594   0.029   6.972
 2550SOL    HW1 8549   5.662   0.073   0.008
 2550SOL    HW2 8550   5.616   6.954   6.962
 2551SOL     OW 8551   3.552   4.534   0.235
 2551SOL    HW1 8552   3.631   4.480   0.204
 2551SOL    HW2 8553   3.492   4.553   0.157
 2552SOL     OW 8554   2.158   5.340   6.318
 2552SOL    HW1 8555   2.154   5.356   6.416
 2552SOL    HW2 8556   2.124   5.421   6.270
 2553SOL     OW 8557   3.684   2.082   6.398
 2553SOL    HW1 8558   3.778   2.068   6.366
 2553SOL    HW2 8559   3.685   2.106   6.495
 2554SOL     OW 8560   1.994   5.988   0.031
 2554SOL    HW1 8561   2.046   6.027   6.977
 2554SOL    HW2 8562   1.929   6.056   0.066
 2555SOL     OW 8563   6.489   6.411   6.461
 2555SOL    HW1 8564   6.548   6.334   6.485
 2555SOL    HW2 8565   6.512   6.490   6.519
 2556SOL     OW 8566   3.919   0.224   0.749
 2556SOL    HW1 8567   3.856   0.277   0.807
 2556SOL    HW2 8568   3.870   0.193   0.668
 2557SOL     OW 8569   3.059   1.020   0.081
 2557SOL    HW1 8570   2.973   0.988   0.042
 2557SOL    HW2 8571   3.128   0.948   0.073
 2558SOL     OW 8572   5.336   4.275   6.084
 2558SOL    HW1 8573   5.336   4.178   6.110
 2558SOL    HW2 8574   5.269   4.325   6.139
 2559SOL     OW 8575   6.876   3.448   3.297
 2559SOL    HW1 8576   6.842   3.354   3.290
 2559SOL    HW2 8577   6.933   3.457   3.379
 2560SOL     OW 8578   4.972   3.573   3.563
 2560SOL    HW1 8579   4.928   3.484   3.563
 2560SOL    HW2 8580   4.953   3.620   3.650
 2561SOL     OW 8581   4.118   0.927   3.468
 2561SOL    HW1 8582   4.032   0.883   3.495
 2561SOL    HW2 8583   4.149   0.987   3.542
 2562SOL     OW 8584   3.231   6.372   3.291
 2562SOL    HW1 8585   3.224   6.342   3.386
 2562SOL    HW2 8586   3.308   6.435   3.281
 2563SOL     OW 8587   3.242   1.668   6.621
 2563SOL    HW1 8588   3.297   1.731   6.676
 2563SOL    HW2 8589   3.238   1.702   6.527
 2564SOL     OW 8590   2.196   0.061   0.644
 2564SOL    HW1 8591   2.152   0.114   0.572
 2564SOL    HW2 8592   2.270   0.114   0.685
 2565SOL     OW 8593   0.677   1.313   6.503
 2565SOL    HW1 8594   0.770   1.335   6.535
 2565SOL    HW2 8595   0.625   1.274   6.579
 2566SOL     OW 8596   2.649   6.443   1.209
 2566SOL    HW1 8597   2.657   6.387   1.127
 2566SOL    HW2 8598   2.552   6.460   1.228
 2567SOL     OW 8599   1.786   1.579   0.633
 2567SOL    HW1 8600   1.699   1.628   0.640
 2567SOL    HW2 8601   1.847   1.610   0.706
 2568SOL     OW 8602   2.569   6.861   1.267
 2568SOL    HW1 8603   2.562   6.961   1.275
 2568SOL    HW2 8604   2.558   6.835   1.171
 2569SOL     OW 8605   3.338   1.649   1.440
 2569SOL    HW1 8606   3.305   1.645   1.346
 2569SOL    HW2 8607   3.390   1.566   1.461
 2570SOL     OW 8608   5.731   5.643   6.070
 2570SOL    HW1 8609   5.802   5.598   6.125
 2570SOL    HW2 8610   5.738   5.742   6.081
 2571SOL     OW 8611   3.755   2.918   4.955
 2571SOL    HW1 8612   3.668   2.946   4.996
 2571SOL    HW2 8613   3.741   2.901   4.857
 2572SOL     OW 8614   3.035   5.837   1.445
 2572SOL    HW1 8615   3.069   5.820   1.538
 2572SOL    HW2 8616   3.110   5.825   1.380
 2573SOL     OW 8617   6.199   2.298   3.777
 2573SOL    HW1 8618   6.175   2.298   3.680
 2573SOL    HW2 8619   6.129   2.347   3.829
 2574SOL     OW 8620   6.307   3.286   1.090
 2574SOL    HW1 8621   6.376   3.357   1.079
 2574SOL    HW2 8622   6.217   3.328   1.095
 2575SOL     OW 8623   5.128   3.884   1.260
 2575SOL    HW1 8624   5.225   3.865   1.270
 2575SOL    HW2 8625   5.082   3.804   1.223
 2576SOL     OW 8626   3.247   6.907   3.218
 2576SOL    HW1 8627   3.311   6.848   3.170
 2576SOL    HW2 8628   3.220   6.983   3.159
 2577SOL     OW 8629   4.034   0.553   3.891
 2577SOL    HW1 8630   3.935   0.540   3.896
 2577SOL    HW2 8631   4.080   0.473   3.932
 2578SOL     OW 8632   5.141   3.140   5.059
 2578SOL    HW1 8633   5.048   3.171   5.041
 2578SOL    HW2 8634   5.185   3.205   5.122
 2579SOL     OW 8635   1.058   1.893   5.734
 2579SOL    HW1 8636   1.028   1.954   5.808
 2579SOL    HW2 8637   1.079   1.803   5.772
 2580SOL     OW 8638   1.556   2.970   5.532
 2580SOL    HW1 8639   1.513   3.018   5.609
 2580SOL    HW2 8640   1.654   2.990   5.530
 2581SOL     OW 8641   5.467   4.839   1.917
 2581SOL    HW1 8642   5.439   4.909   1.983
 2581SOL    HW2 8643   5.566   4.838   1.910
 2582SOL     OW 8644   2.214   4.941   2.982
 2582SOL    HW1 8645   2.245   5.027   2.941
 2582SOL    HW2 8646   2.117   4.927   2.960
 2583SOL     OW 8647   1.207   0.712   1.677
 2583SOL    HW1 8648   1.155   0.660   1.609
 2583SOL    HW2 8649   1.201   0.667   1.766
 2584SOL     OW 8650   3.765   6.565   1.110
 2584SOL    HW1 8651   3.853   6.604   1.082
 2584SOL    HW2 8652   3.779   6.474   1.148
 2585SOL     OW 8653   3.152   0.374   0.997
 2585SOL    HW1 8654   3.080   0.443   1.000
 2585SOL    HW2 8655   3.202   0.373   1.084
 2586SOL     OW 8656   5.590   1.713   5.313
 2586SOL    HW1 8657   5.532   1.767   5.374
 2586SOL    HW2 8658   5.617   1.629   5.360
 2587SOL     OW 8659   6.842   0.233   4.311
 2587SOL    HW1 8660   6.910   0.174   4.267
 2587SOL    HW2 8661   6.797   0.289   4.242
 2588SOL     OW 8662   5.376   0.187   1.081
 2588SOL    HW1 8663   5.435   0.132   1.021
 2588SOL    HW2 8664   5.423   0.272   1.104
 2589SOL     OW 8665   0.090   6.919   5.204
 2589SOL    HW1 8666   0.101   6.866   5.288
 2589SOL    HW2 8667   0.006   6.973   5.209
 2590SOL     OW 8668   3.896   0.068   2.633
 2590SOL    HW1 8669   3.965   0.013   2.682
 2590SOL    HW2 8670   3.940   0.120   2.560
 2591SOL     OW 8671   5.648   6.163   0.976
 2591SOL    HW1 8672   5.726   6.132   1.029
 2591SOL    HW2 8673   5.638   6.106   0.895
 2592SOL     OW 8674   3.155   6.093   1.766
 2592SOL    HW1 8675   3.252   6.116   1.754
 2592SOL    HW2 8676   3.143   6.043   1.852
 2593SOL     OW 8677   4.196   6.879   2.507
 2593SOL    HW1 8678   4.294   6.860   2.517
 2593SOL    HW2 8679   4.176   6.910   2.414
 2594SOL     OW 8680   0.459   6.821   6.024
 2594SOL    HW1 8681   0.366   6.808   6.060
 2594SOL    HW2 8682   0.461   6.904   5.967
 2595SOL     OW 8683   0.205   2.082   5.322
 2595SOL    HW1 8684   0.224   2.061   5.226
 2595SOL    HW2 8685   0.272   2.036   5.381
 2596SOL     OW 8686   3.722   2.475   1.727
 2596SOL    HW1 8687   3.685   2.392   1.767
 2596SOL    HW2 8688   3.683   2.555   1.772
 2597SOL     OW 8689   2.016   4.059   0.950
 2597SOL    HW1 8690   2.086   4.128   0.967
 2597SOL    HW2 8691   1.992   4.058   0.852
 2598SOL     OW 8692   6.133   2.648   4.108
 2598SOL    HW1 8693   6.211   2.642   4.170
 2598SOL    HW2 8694   6.057   2.693   4.154
 2599SOL     OW 8695   3.779   5.774   6.306
 2599SOL    HW1 8696   3.874   5.766   6.277
 2599SOL    HW2 8697   3.719   5.736   6.236
 2600SOL     OW 8698   4.901   3.720   4.238
 2600SOL    HW1 8699   4.817   3.741   4.288
 2600SOL    HW2 8700   4.914   3.621   4.235
 2601SOL     OW 8701   3.129   2.575   6.707
 2601SOL    HW1 8702   3.154   2.516   6.631
 2601SOL    HW2 8703   3.197   2.648   6.716
 2602SOL     OW 8704   6.972   4.384   3.870
 2602SOL    HW1 8705   6.946   4.313   3.934
 2602SOL    HW2 8706   0.050   4.387   3.861
 2603SOL     OW 8707   2.564   2.345   1.374
 2603SOL    HW1 8708   2.494   2.362   1.304
 2603SOL    HW2 8709   2.542   2.398   1.456
 2604SOL     OW 8710   5.033   0.865   1.036
 2604SOL    HW1 8711   4.998   0.786   1.086
 2604SOL    HW2 8712   5.024   0.848   0.937
 2605SOL     OW 8713   4.164   5.183   3.082
 2605SOL    HW1 8714   4.225   5.248   3.128
 2605SOL    HW2 8715   4.179   5.091   3.119
 2606SOL     OW 8716   0.089   4.856   0.088
 2606SOL    HW1 8717   0.168   4.826   0.142
 2606SOL    HW2 8718   0.010   4.799   0.110
 2607SOL     OW 8719   0.606   1.662   4.897
 2607SOL    HW1 8720   0.674   1.715   4.846
 2607SOL    HW2 8721   0.561   1.597   4.835
 2608SOL     OW 8722   4.947   6.555   2.760
 2608SOL    HW1 8723   4.858   6.556   2.804
 2608SOL    HW2 8724   4.982   6.648   2.752
 2609SOL     OW 8725   0.817   2.198   1.826
 2609SOL    HW1 8726   0.854   2.106   1.826
 2609SOL    HW2 8727   0.889   2.263   1.802
 2610SOL     OW 8728   6.716   5.125   4.544
 2610SOL    HW1 8729   6.746   5.198   4.482
 2610SOL    HW2 8730   6.779   5.048   4.539
 2611SOL     OW 8731   5.978   6.677   1.510
 2611SOL    HW1 8732   5.901   6.640   1.459
 2611SOL    HW2 8733   6.061   6.675   1.454
 2612SOL     OW 8734   6.216   6.108   5.156
 2612SOL    HW1 8735   6.207   6.187   5.094
 2612SOL    HW2 8736   6.127   6.088   5.197
 2613SOL     OW 8737   2.858   5.998   2.545
 2613SOL    HW1 8738   2.851   6.024   2.641
 2613SOL    HW2 8739   2.771   5.959   2.515
 2614SOL     OW 8740   6.387   6.124   6.116
 2614SOL    HW1 8741   6.310   6.067   6.145
 2614SOL    HW2 8742   6.466   6.104   6.174
 2615SOL     OW 8743   5.616   5.323   3.237
 2615SOL    HW1 8744   5.678   5.381   3.184
 2615SOL    HW2 8745   5.533   5.307   3.184
 2616SOL     OW 8746   4.026   3.367   4.046
 2616SOL    HW1 8747   4.018   3.276   4.087
 2616SOL    HW2 8748   4.053   3.432   4.117
 2617SOL     OW 8749   2.866   5.777   1.000
 2617SOL    HW1 8750   2.956   5.804   1.033
 2617SOL    HW2 8751   2.795   5.817   1.058
 2618SOL     OW 8752   0.493   6.424   3.638
 2618SOL    HW1 8753   0.561   6.498   3.637
 2618SOL    HW2 8754   0.436   6.430   3.557
 2619SOL     OW 8755   4.065   1.398   2.300
 2619SOL    HW1 8756   4.065   1.494   2.328
 2619SOL    HW2 8757   3.988   1.350   2.344
 2620SOL     OW 8758   1.521   5.783   3.572
 2620SOL    HW1 8759   1.497   5.877   3.596
 2620SOL    HW2 8760   1.456   5.720   3.615
 2621SOL     OW 8761   1.850   6.062   3.197
 2621SOL    HW1 8762   1.949   6.063   3.184
 2621SOL    HW2 8763   1.829   6.094   3.290
 2622SOL     OW 8764   1.749   2.979   6.433
 2622SOL    HW1 8765   1.668   3.035   6.451
 2622SOL    HW2 8766   1.821   3.036   6.394
 2623SOL     OW 8767   4.226   1.233   4.757
 2623SOL    HW1 8768   4.208   1.143   4.717
 2623SOL    HW2 8769   4.300   1.226   4.824
 2624SOL     OW 8770   6.671   2.834   3.332
 2624SOL    HW1 8771   6.608   2.876   3.398
 2624SOL    HW2 8772   6.764   2.838   3.367
 2625SOL     OW 8773   1.666   3.220   5.368
 2625SOL    HW1 8774   1.702   3.191   5.279
 2625SOL    HW2 8775   1.713   3.171   5.441
 2626SOL     OW 8776   0.517   6.126   3.429
 2626SOL    HW1 8777   0.505   6.160   3.522
 2626SOL    HW2 8778   0.496   6.029   3.425
 2627SOL     OW 8779   0.560   0.787   4.553
 2627SOL    HW1 8780   0.620   0.833   4.618
 2627SOL    HW2 8781   0.500   0.723   4.602
 2628SOL     OW 8782   3.437   5.504   6.367
 2628SOL    HW1 8783   3.491   5.526   6.286
 2628SOL    HW2 8784   3.444   5.579   6.433
 2629SOL     OW 8785   3.843   3.742   1.969
 2629SOL    HW1 8786   3.829   3.651   1.932
 2629SOL    HW2 8787   3.755   3.789   1.977
 2630SOL     OW 8788   3.577   1.897   2.453
 2630SOL    HW1 8789   3.558   1.963   2.380
 2630SOL    HW2 8790   3.674   1.873   2.452
 2631SOL     OW 8791   4.399   6.424   3.537
 2631SOL    HW1 8792   4.475   6.473   3.580
 2631SOL    HW2 8793   4.349   6.486   3.477
 2632SOL     OW 8794   2.897   2.055   5.642
 2632SOL    HW1 8795   2.908   2.153   5.624
 2632SOL    HW2 8796   2.894   2.006   5.555
 2633SOL     OW 8797   6.622   2.392   6.151
 2633SOL    HW1 8798   6.556   2.329   6.111
 2633SOL    HW2 8799   6.688   2.341   6.207
 2634SOL     OW 8800   1.967   4.178   3.211
 2634SOL    HW1 8801   1.943   4.154   3.305
 2634SOL    HW2 8802   1.925   4.266   3.187
 2635SOL     OW 8803   5.391   6.022   3.920
 2635SOL    HW1 8804   5.479   5.982   3.943
 2635SOL    HW2 8805   5.398   6.073   3.834
 2636SOL     OW 8806   5.460   0.523   6.298
 2636SOL    HW1 8807   5.544   0.513   6.351
 2636SOL    HW2 8808   5.408   0.438   6.300
 2637SOL     OW 8809   6.359   0.933   3.466
 2637SOL    HW1 8810   6.383   0.860   3.401
 2637SOL    HW2 8811   6.265   0.919   3.498
 2638SOL     OW 8812   6.523   6.505   2.609
 2638SOL    HW1 8813   6.497   6.546   2.696
 2638SOL    HW2 8814   6.623   6.500   2.602
 2639SOL     OW 8815   6.806   6.705   1.703
 2639SOL    HW1 8816   6.711   6.714   1.733
 2639SOL    HW2 8817   6.861   6.777   1.746
 2640SOL     OW 8818   6.965   6.601   5.733
 2640SOL    HW1 8819   6.938   6.660   5.809
 2640SOL    HW2 8820   6.916   6.629   5.650
 2641SOL     OW 8821   6.152   3.046   1.578
 2641SOL    HW1 8822   6.220   3.118   1.562
 2641SOL    HW2 8823   6.196   2.957   1.576
 2642SOL     OW 8824   5.203   0.350   4.533
 2642SOL    HW1 8825   5.276   0.401   4.488
 2642SOL    HW2 8826   5.234   0.257   4.552
 2643SOL     OW 8827   0.813   4.934   3.399
 2643SOL    HW1 8828   0.808   4.882   3.313
 2643SOL    HW2 8829   0.783   5.027   3.382
 2644SOL     OW 8830   0.092   4.306   5.496
 2644SOL    HW1 8831   7.020   4.294   5.529
 2644SOL    HW2 8832   0.131   4.217   5.472
 2645SOL     OW 8833   4.737   6.648   5.197
 2645SOL    HW1 8834   4.791   6.669   5.115
 2645SOL    HW2 8835   4.649   6.695   5.192
 2646SOL     OW 8836   6.466   6.790   6.312
 2646SOL    HW1 8837   6.513   6.785   6.401
 2646SOL    HW2 8838   6.377   6.745   6.318
 2647SOL     OW 8839   5.471   0.801   0.982
 2647SOL    HW1 8840   5.420   0.851   1.052
 2647SOL    HW2 8841   5.538   0.741   1.026
 2648SOL     OW 8842   6.567   6.558   3.555
 2648SOL    HW1 8843   6.505   6.628   3.589
 2648SOL    HW2 8844   6.646   6.550   3.616
 2649SOL     OW 8845   4.155   2.059   6.168
 2649SOL    HW1 8846   4.087   2.033   6.237
 2649SOL    HW2 8847   4.246   2.039   6.202
 2650SOL     OW 8848   0.786   4.281   4.110
 2650SOL    HW1 8849   0.858   4.213   4.127
 2650SOL    HW2 8850   0.698   4.244   4.139
 2651SOL     OW 8851   1.524   1.716   0.640
 2651SOL    HW1 8852   1.480   1.762   0.563
 2651SOL    HW2 8853   1.482   1.627   0.654
 2652SOL     OW 8854   2.917   3.762   3.550
 2652SOL    HW1 8855   2.877   3.778   3.640
 2652SOL    HW2 8856   3.009   3.798   3.547
 2653SOL     OW 8857   5.043   6.870   5.146
 2653SOL    HW1 8858   5.073   6.935   5.077
 2653SOL    HW2 8859   5.120   6.812   5.173
 2654SOL     OW 8860   4.676   3.295   0.415
 2654SOL    HW1 8861   4.650   3.365   0.481
 2654SOL    HW2 8862   4.625   3.211   0.435
 2655SOL     OW 8863   4.779   4.818   4.356
 2655SOL    HW1 8864   4.765   4.764   4.273
 2655SOL    HW2 8865   4.748   4.912   4.340
 2656SOL     OW 8866   4.633   4.704   4.136
 2656SOL    HW1 8867   4.628   4.733   4.040
 2656SOL    HW2 8868   4.543   4.714   4.178
 2657SOL     OW 8869   2.761   4.483   6.421
 2657SOL    HW1 8870   2.797   4.559   6.367
 2657SOL    HW2 8871   2.804   4.482   6.511
 2658SOL     OW 8872   5.728   4.681   6.861
 2658SOL    HW1 8873   5.751   4.662   6.765
 2658SOL    HW2 8874   5.757   4.774   6.884
 2659SOL     OW 8875   6.375   2.603   4.227
 2659SOL    HW1 8876   6.420   2.568   4.145
 2659SOL    HW2 8877   6.417   2.562   4.308
 2660SOL     OW 8878   0.970   1.833   0.943
 2660SOL    HW1 8879   0.939   1.912   0.890
 2660SOL    HW2 8880   1.039   1.783   0.892
 2661SOL     OW 8881   1.992   6.219   1.937
 2661SOL    HW1 8882   2.030   6.153   1.871
 2661SOL    HW2 8883   1.983   6.308   1.894
 2662SOL     OW 8884   4.345   6.991   4.651
 2662SOL    HW1 8885   4.362   0.034   4.725
 2662SOL    HW2 8886   4.432   6.956   4.617
 2663SOL     OW 8887   2.306   5.165   0.997
 2663SOL    HW1 8888   2.327   5.247   0.945
 2663SOL    HW2 8889   2.239   5.187   1.068
 2664SOL     OW 8890   3.806   3.703   3.312
 2664SOL    HW1 8891   3.792   3.647   3.393
 2664SOL    HW2 8892   3.765   3.793   3.326
 2665SOL     OW 8893   3.569   1.907   5.083
 2665SOL    HW1 8894   3.475   1.935   5.106
 2665SOL    HW2 8895   3.567   1.845   5.005
 2666SOL     OW 8896   4.832   3.345   1.179
 2666SOL    HW1 8897   4.744   3.298   1.169
 2666SOL    HW2 8898   4.817   3.434   1.221
 2667SOL     OW 8899   1.327   5.748   4.635
 2667SOL    HW1 8900   1.246   5.765   4.579
 2667SOL    HW2 8901   1.301   5.745   4.731
 2668SOL     OW 8902   6.625   3.481   3.444
 2668SOL    HW1 8903   6.573   3.507   3.363
 2668SOL    HW2 8904   6.720   3.462   3.418
 2669SOL     OW 8905   3.120   4.638   5.508
 2669SOL    HW1 8906   3.151   4.659   5.415
 2669SOL    HW2 8907   3.175   4.562   5.544
 2670SOL     OW 8908   6.182   1.112   6.439
 2670SOL    HW1 8909   6.130   1.074   6.516
 2670SOL    HW2 8910   6.258   1.167   6.473
 2671SOL     OW 8911   2.706   4.435   6.984
 2671SOL    HW1 8912   2.776   4.485   0.013
 2671SOL    HW2 8913   2.678   4.489   6.904
 2672SOL     OW 8914   0.628   5.646   6.418
 2672SOL    HW1 8915   0.639   5.547   6.417
 2672SOL    HW2 8916   0.578   5.673   6.501
 2673SOL     OW 8917   5.244   2.496   3.732
 2673SOL    HW1 8918   5.217   2.548   3.813
 2673SOL    HW2 8919   5.184   2.417   3.721
 2674SOL     OW 8920   2.434   4.406   4.151
 2674SOL    HW1 8921   2.503   4.418   4.080
 2674SOL    HW2 8922   2.449   4.474   4.223
 2675SOL     OW 8923   0.893   4.359   5.352
 2675SOL    HW1 8924   0.885   4.379   5.450
 2675SOL    HW2 8925   0.977   4.307   5.336
 2676SOL     OW 8926   4.053   1.040   2.731
 2676SOL    HW1 8927   3.988   1.112   2.707
 2676SOL    HW2 8928   4.144   1.079   2.739
 2677SOL     OW 8929   3.553   5.065   1.351
 2677SOL    HW1 8930   3.553   4.965   1.339
 2677SOL    HW2 8931   3.646   5.096   1.371
 2678SOL     OW 8932   0.356   4.645   0.686
 2678SOL    HW1 8933   0.365   4.568   0.623
 2678SOL    HW2 8934   0.358   4.731   0.634
 2679SOL     OW 8935   4.502   5.575   0.775
 2679SOL    HW1 8936   4.415   5.591   0.729
 2679SOL    HW2 8937   4.495   5.495   0.834
 2680SOL     OW 8938   1.693   1.393   1.312
 2680SOL    HW1 8939   1.673   1.393   1.214
 2680SOL    HW2 8940   1.668   1.305   1.352
 2681SOL     OW 8941   1.238   2.880   4.294
 2681SOL    HW1 8942   1.248   2.798   4.351
 2681SOL    HW2 8943   1.243   2.855   4.198
 2682SOL     OW 8944   5.481   2.911   2.532
 2682SOL    HW1 8945   5.434   2.824   2.519
 2682SOL    HW2 8946   5.438   2.982   2.476
 2683SOL     OW 8947   1.717   3.729   1.050
 2683SOL    HW1 8948   1.683   3.673   1.125
 2683SOL    HW2 8949   1.655   3.805   1.033
 2684SOL     OW 8950   3.676   5.338   2.380
 2684SOL    HW1 8951   3.727   5.424   2.379
 2684SOL    HW2 8952   3.660   5.309   2.474
 2685SOL     OW 8953   6.615   6.307   5.110
 2685SOL    HW1 8954   6.588   6.211   5.112
 2685SOL    HW2 8955   6.644   6.331   5.018
 2686SOL     OW 8956   1.410   2.177   4.849
 2686SOL    HW1 8957   1.362   2.136   4.771
 2686SOL    HW2 8958   1.370   2.266   4.871
 2687SOL     OW 8959   4.625   4.687   2.612
 2687SOL    HW1 8960   4.698   4.646   2.558
 2687SOL    HW2 8961   4.538   4.643   2.590
 2688SOL     OW 8962   4.410   5.975   6.406
 2688SOL    HW1 8963   4.342   5.997   6.336
 2688SOL    HW2 8964   4.436   6.058   6.455
 2689SOL     OW 8965   2.030   1.929   3.701
 2689SOL    HW1 8966   2.129   1.916   3.702
 2689SOL    HW2 8967   1.986   1.855   3.753
 2690SOL     OW 8968   3.291   3.211   3.875
 2690SOL    HW1 8969   3.229   3.251   3.807
 2690SOL    HW2 8970   3.248   3.130   3.916
 2691SOL     OW 8971   1.774   5.272   2.493
 2691SOL    HW1 8972   1.812   5.246   2.581
 2691SOL    HW2 8973   1.675   5.266   2.496
 2692SOL     OW 8974   5.519   6.217   4.254
 2692SOL    HW1 8975   5.490   6.294   4.196
 2692SOL    HW2 8976   5.553   6.252   4.341
 2693SOL     OW 8977   2.325   4.231   2.958
 2693SOL    HW1 8978   2.357   4.323   2.980
 2693SOL    HW2 8979   2.311   4.223   2.859
 2694SOL     OW 8980   3.306   0.560   2.952
 2694SOL    HW1 8981   3.245   0.555   3.031
 2694SOL    HW2 8982   3.390   0.510   2.973
 2695SOL     OW 8983   5.162   1.670   2.716
 2695SOL    HW1 8984   5.206   1.719   2.792
 2695SOL    HW2 8985   5.159   1.729   2.636
 2696SOL     OW 8986   3.213   2.672   5.322
 2696SOL    HW1 8987   3.309   2.682   5.347
 2696SOL    HW2 8988   3.197   2.580   5.285
 2697SOL     OW 8989   4.774   2.034   4.016
 2697SOL    HW1 8990   4.818   2.105   3.961
 2697SOL    HW2 8991   4.690   2.004   3.970
 2698SOL     OW 8992   2.109   5.137   0.658
 2698SOL    HW1 8993   2.085   5.110   0.564
 2698SOL    HW2 8994   2.139   5.056   0.709
 2699SOL     OW 8995   3.666   5.364   0.011
 2699SOL    HW1 8996   3.628   5.372   6.940
 2699SOL    HW2 8997   3.723   5.445   0.030
 2700SOL     OW 8998   2.110   3.270   2.164
 2700SOL    HW1 8999   2.170   3.334   2.117
 2700SOL    HW2 9000   2.018   3.310   2.171
 2701SOL     OW 9001   3.986   0.331   6.490
 2701SOL    HW1 9002   3.948   0.303   6.401
 2701SOL    HW2 9003   3.928   0.402   6.529
 2702SOL     OW 9004   0.064   1.444   3.319
 2702SOL    HW1 9005   0.096   1.490   3.401
 2702SOL    HW2 9006   0.074   1.505   3.240
 2703SOL     OW 9007   2.030   0.668   2.813
 2703SOL    HW1 9008   2.022   0.568   2.812
 2703SOL    HW2 9009   2.104   0.695   2.752
 2704SOL     OW 9010   0.978   5.347   0.644
 2704SOL    HW1 9011   0.902   5.342   0.580
 2704SOL    HW2 9012   0.967   5.279   0.716
 2705SOL     OW 9013   0.979   5.217   3.957
 2705SOL    HW1 9014   0.964   5.233   4.055
 2705SOL    HW2 9015   1.067   5.255   3.931
 2706SOL     OW 9016   0.189   0.798   1.617
 2706SOL    HW1 9017   0.262   0.860   1.589
 2706SOL    HW2 9018   0.106   0.818   1.566
 2707SOL     OW 9019   2.241   0.721   5.729
 2707SOL    HW1 9020   2.279   0.641   5.683
 2707SOL    HW2 9021   2.297   0.744   5.809
 2708SOL     OW 9022   1.603   2.877   1.825
 2708SOL    HW1 9023   1.649   2.965   1.837
 2708SOL    HW2 9024   1.665   2.803   1.849
 2709SOL     OW 9025   5.567   6.556   1.009
 2709SOL    HW1 9026   5.642   6.516   1.063
 2709SOL    HW2 9027   5.485   6.560   1.066
 2710SOL     OW 9028   6.666   3.490   2.696
 2710SOL    HW1 9029   6.761   3.481   2.727
 2710SOL    HW2 9030   6.608   3.426   2.746
 2711SOL     OW 9031   2.898   0.010   2.652
 2711SOL    HW1 9032   2.961   0.062   2.594
 2711SOL    HW2 9033   2.837   0.073   2.700
 2712SOL     OW 9034   4.179   5.158   0.331
 2712SOL    HW1 9035   4.139   5.097   0.263
 2712SOL    HW2 9036   4.214   5.240   0.286
 2713SOL     OW 9037   1.650   2.783   4.434
 2713SOL    HW1 9038   1.601   2.847   4.493
 2713SOL    HW2 9039   1.613   2.789   4.341
 2714SOL     OW 9040   4.885   2.300   0.175
 2714SOL    HW1 9041   4.970   2.342   0.143
 2714SOL    HW2 9042   4.809   2.332   0.119
 2715SOL     OW 9043   6.010   0.292   0.102
 2715SOL    HW1 9044   5.946   0.365   0.079
 2715SOL    HW2 9045   6.068   0.322   0.177
 2716SOL     OW 9046   6.073   5.312   1.931
 2716SOL    HW1 9047   6.146   5.344   1.871
 2716SOL    HW2 9048   5.988   5.304   1.879
 2717SOL     OW 9049   1.215   5.546   2.141
 2717SOL    HW1 9050   1.214   5.578   2.235
 2717SOL    HW2 9051   1.148   5.597   2.087
 2718SOL     OW 9052   2.178   3.491   4.032
 2718SOL    HW1 9053   2.153   3.526   4.122
 2718SOL    HW2 9054   2.131   3.405   4.016
 2719SOL     OW 9055   4.912   4.892   1.492
 2719SOL    HW1 9056   4.838   4.892   1.425
 2719SOL    HW2 9057   4.979   4.822   1.468
 2720SOL     OW 9058   2.140   6.154   3.687
 2720SOL    HW1 9059   2.161   6.251   3.687
 2720SOL    HW2 9060   2.124   6.124   3.593
 2721SOL     OW 9061   2.856   0.118   5.453
 2721SOL    HW1 9062   2.784   0.142   5.518
 2721SOL    HW2 9063   2.815   0.066   5.377
 2722SOL     OW 9064   6.250   5.271   2.482
 2722SOL    HW1 9065   6.174   5.286   2.419
 2722SOL    HW2 9066   6.296   5.358   2.501
 2723SOL     OW 9067   1.832   0.653   6.465
 2723SOL    HW1 9068   1.822   0.580   6.397
 2723SOL    HW2 9069   1.848   0.613   6.555
 2724SOL     OW 9070   3.194   6.652   5.950
 2724SOL    HW1 9071   3.185   6.693   6.041
 2724SOL    HW2 9072   3.251   6.711   5.893
 2725SOL     OW 9073   6.274   5.179   3.075
 2725SOL    HW1 9074   6.253   5.088   3.037
 2725SOL    HW2 9075   6.208   5.246   3.040
 2726SOL     OW 9076   6.412   4.323   1.536
 2726SOL    HW1 9077   6.446   4.233   1.507
 2726SOL    HW2 9078   6.459   4.351   1.620
 2727SOL     OW 9079   0.476   4.721   2.838
 2727SOL    HW1 9080   0.392   4.690   2.882
 2727SOL    HW2 9081   0.488   4.819   2.852
 2728SOL     OW 9082   3.347   0.632   5.237
 2728SOL    HW1 9083   3.283   0.696   5.279
 2728SOL    HW2 9084   3.430   0.681   5.212
 2729SOL     OW 9085   6.987   5.693   1.623
 2729SOL    HW1 9086   6.919   5.763   1.603
 2729SOL    HW2 9087   0.057   5.730   1.609
 2730SOL     OW 9088   1.364   6.541   1.038
 2730SOL    HW1 9089   1.452   6.492   1.046
 2730SOL    HW2 9090   1.370   6.628   1.086
 2731SOL     OW 9091   3.242   3.448   1.482
 2731SOL    HW1 9092   3.180   3.460   1.405
 2731SOL    HW2 9093   3.308   3.523   1.484
 2732SOL     OW 9094   5.701   3.480   2.329
 2732SOL    HW1 9095   5.781   3.421   2.315
 2732SOL    HW2 9096   5.729   3.568   2.365
 2733SOL     OW 9097   0.526   6.937   4.877
 2733SOL    HW1 9098   0.561   6.846   4.898
 2733SOL    HW2 9099   0.465   6.967   4.950
 2734SOL     OW 9100   2.165   5.281   2.974
 2734SOL    HW1 9101   2.195   5.360   3.028
 2734SOL    HW2 9102   2.089   5.236   3.021
 2735SOL     OW 9103   0.980   3.369   2.724
 2735SOL    HW1 9104   0.900   3.335   2.774
 2735SOL    HW2 9105   0.950   3.435   2.655
 2736SOL     OW 9106   5.185   0.712   4.263
 2736SOL    HW1 9107   5.274   0.673   4.285
 2736SOL    HW2 9108   5.138   0.738   4.348
 2737SOL     OW 9109   3.328   3.225   5.603
 2737SOL    HW1 9110   3.399   3.257   5.540
 2737SOL    HW2 9111   3.371   3.177   5.679
 2738SOL     OW 9112   5.409   5.767   4.746
 2738SOL    HW1 9113   5.324   5.718   4.723
 2738SOL    HW2 9114   5.460   5.785   4.662
 2739SOL     OW 9115   6.059   4.289   0.074
 2739SOL    HW1 9116   6.141   4.248   0.035
 2739SOL    HW2 9117   6.032   4.368   0.020
 2740SOL     OW 9118   5.414   2.286   2.073
 2740SOL    HW1 9119   5.449   2.193   2.081
 2740SOL    HW2 9120   5.452   2.343   2.146
 2741SOL     OW 9121   0.322   1.808   6.215
 2741SOL    HW1 9122   0.416   1.779   6.199
 2741SOL    HW2 9123   0.321   1.884   6.281
 2742SOL     OW 9124   1.519   5.514   6.188
 2742SOL    HW1 9125   1.574   5.507   6.272
 2742SOL    HW2 9126   1.580   5.529   6.110
 2743SOL     OW 9127   5.834   5.324   1.814
 2743SOL    HW1 9128   5.770   5.400   1.826
 2743SOL    HW2 9129   5.859   5.317   1.717
 2744SOL     OW 9130   3.319   2.916   0.323
 2744SOL    HW1 9131   3.333   2.822   0.354
 2744SOL    HW2 9132   3.293   2.972   0.401
 2745SOL     OW 9133   2.250   6.929   6.973
 2745SOL    HW1 9134   2.294   6.945   0.039
 2745SOL    HW2 9135   2.150   6.936   6.984
 2746SOL     OW 9136   1.917   3.103   4.667
 2746SOL    HW1 9137   1.846   3.161   4.626
 2746SOL    HW2 9138   2.006   3.146   4.656
 2747SOL     OW 9139   5.621   4.027   5.078
 2747SOL    HW1 9140   5.672   4.069   5.002
 2747SOL    HW2 9141   5.672   4.040   5.163
 2748SOL     OW 9142   3.332   1.331   1.767
 2748SOL    HW1 9143   3.425   1.297   1.753
 2748SOL    HW2 9144   3.333   1.406   1.833
 2749SOL     OW 9145   5.476   5.133   4.087
 2749SOL    HW1 9146   5.519   5.153   4.175
 2749SOL    HW2 9147   5.546   5.101   4.023
 2750SOL     OW 9148   0.409   5.412   1.531
 2750SOL    HW1 9149   0.340   5.348   1.497
 2750SOL    HW2 9150   0.366   5.477   1.595
 2751SOL     OW 9151   1.982   0.153   0.474
 2751SOL    HW1 9152   1.965   0.060   0.442
 2751SOL    HW2 9153   1.923   0.217   0.425
 2752SOL     OW 9154   5.485   5.529   5.559
 2752SOL    HW1 9155   5.571   5.480   5.545
 2752SOL    HW2 9156   5.409   5.475   5.521
 2753SOL     OW 9157   2.007   0.229   6.036
 2753SOL    HW1 9158   2.093   0.249   5.989
 2753SOL    HW2 9159   2.022   0.236   6.135
 2754SOL     OW 9160   6.528   0.466   4.551
 2754SOL    HW1 9161   6.613   0.420   4.577
 2754SOL    HW2 9162   6.522   0.470   4.451
 2755SOL     OW 9163   3.041   6.218   3.206
 2755SOL    HW1 9164   3.106   6.292   3.224
 2755SOL    HW2 9165   3.067   6.170   3.123
 2756SOL     OW 9166   5.667   4.176   3.980
 2756SOL    HW1 9167   5.710   4.101   3.930
 2756SOL    HW2 9168   5.710   4.184   4.070
 2757SOL     OW 9169   2.986   1.699   6.652
 2757SOL    HW1 9170   3.086   1.698   6.641
 2757SOL    HW2 9171   2.944   1.737   6.569
 2758SOL     OW 9172   5.095   6.089   3.617
 2758SOL    HW1 9173   5.029   6.018   3.591
 2758SOL    HW2 9174   5.085   6.109   3.714
 2759SOL     OW 9175   3.654   4.800   5.223
 2759SOL    HW1 9176   3.584   4.836   5.285
 2759SOL    HW2 9177   3.667   4.702   5.241
 2760SOL     OW 9178   6.254   5.464   2.847
 2760SOL    HW1 9179   6.332   5.403   2.839
 2760SOL    HW2 9180   6.282   5.547   2.896
 2761SOL     OW 9181   1.590   3.790   3.794
 2761SOL    HW1 9182   1.577   3.788   3.893
 2761SOL    HW2 9183   1.643   3.711   3.766
 2762SOL     OW 9184   1.248   2.315   6.761
 2762SOL    HW1 9185   1.185   2.340   6.687
 2762SOL    HW2 9186   1.203   2.253   6.824
 2763SOL     OW 9187   5.507   1.667   5.816
 2763SOL    HW1 9188   5.413   1.654   5.845
 2763SOL    HW2 9189   5.557   1.717   5.887
 2764SOL     OW 9190   0.451   5.019   2.892
 2764SOL    HW1 9191   0.384   5.077   2.845
 2764SOL    HW2 9192   0.433   5.020   2.991
 2765SOL     OW 9193   0.534   0.478   1.282
 2765SOL    HW1 9194   0.625   0.437   1.272
 2765SOL    HW2 9195   0.532   0.536   1.363
 2766SOL     OW 9196   4.243   1.286   6.949
 2766SOL    HW1 9197   4.220   1.301   0.024
 2766SOL    HW2 9198   4.343   1.283   6.939
 2767SOL     OW 9199   5.821   5.985   6.828
 2767SOL    HW1 9200   5.889   5.912   6.818
 2767SOL    HW2 9201   5.848   6.047   6.902
 2768SOL     OW 9202   4.484   1.187   0.395
 2768SOL    HW1 9203   4.432   1.184   0.310
 2768SOL    HW2 9204   4.575   1.226   0.378
 2769SOL     OW 9205   1.937   4.633   6.168
 2769SOL    HW1 9206   2.000   4.694   6.120
 2769SOL    HW2 9207   1.849   4.634   6.122
 2770SOL     OW 9208   3.528   6.074   6.304
 2770SOL    HW1 9209   3.449   6.054   6.362
 2770SOL    HW2 9210   3.507   6.151   6.245
 2771SOL     OW 9211   5.565   6.969   4.697
 2771SOL    HW1 9212   5.648   6.962   4.641
 2771SOL    HW2 9213   5.570   6.902   4.771
 2772SOL     OW 9214   3.457   0.628   2.444
 2772SOL    HW1 9215   3.423   0.694   2.510
 2772SOL    HW2 9216   3.555   0.613   2.459
 2773SOL     OW 9217   0.068   2.505   3.916
 2773SOL    HW1 9218   0.015   2.584   3.887
 2773SOL    HW2 9219   0.102   2.456   3.836
 2774SOL     OW 9220   5.056   2.926   2.924
 2774SOL    HW1 9221   5.076   2.834   2.889
 2774SOL    HW2 9222   5.132   2.958   2.980
 2775SOL     OW 9223   6.893   3.675   3.596
 2775SOL    HW1 9224   6.978   3.655   3.645
 2775SOL    HW2 9225   6.911   3.680   3.498
 2776SOL     OW 9226   5.134   5.517   6.336
 2776SOL    HW1 9227   5.157   5.451   6.265
 2776SOL    HW2 9228   5.132   5.471   6.425
 2777SOL     OW 9229   2.447   1.863   5.959
 2777SOL    HW1 9230   2.423   1.804   6.036
 2777SOL    HW2 9231   2.419   1.957   5.978
 2778SOL     OW 9232   2.026   6.161   6.375
 2778SOL    HW1 9233   2.011   6.180   6.278
 2778SOL    HW2 9234   1.983   6.074   6.399
 2779SOL     OW 9235   5.631   6.353   2.330
 2779SOL    HW1 9236   5.705   6.413   2.301
 2779SOL    HW2 9237   5.604   6.293   2.254
 2780SOL     OW 9238   6.779   0.402   6.003
 2780SOL    HW1 9239   6.712   0.389   5.930
 2780SOL    HW2 9240   6.848   0.468   5.973
 2781SOL     OW 9241   5.954   0.386   2.888
 2781SOL    HW1 9242   6.051   0.378   2.863
 2781SOL    HW2 9243   5.925   0.302   2.934
 2782SOL     OW 9244   4.481   1.233   5.552
 2782SOL    HW1 9245   4.472   1.176   5.470
 2782SOL    HW2 9246   4.517   1.178   5.627
 2783SOL     OW 9247   6.062   3.500   1.444
 2783SOL    HW1 9248   6.067   3.539   1.537
 2783SOL    HW2 9249   6.033   3.571   1.380
 2784SOL     OW 9250   2.910   1.790   2.434
 2784SOL    HW1 9251   2.947   1.874   2.475
 2784SOL    HW2 9252   2.831   1.759   2.486
 2785SOL     OW 9253   5.123   2.230   1.337
 2785SOL    HW1 9254   5.070   2.213   1.254
 2785SOL    HW2 9255   5.149   2.142   1.378
 2786SOL     OW 9256   6.171   5.846   1.107
 2786SOL    HW1 9257   6.177   5.830   1.205
 2786SOL    HW2 9258   6.075   5.839   1.078
 2787SOL     OW 9259   6.459   5.786   5.689
 2787SOL    HW1 9260   6.360   5.801   5.690
 2787SOL    HW2 9261   6.479   5.697   5.648
 2788SOL     OW 9262   3.188   6.044   6.257
 2788SOL    HW1 9263   3.228   6.030   6.348
 2788SOL    HW2 9264   3.108   6.103   6.264
 2789SOL     OW 9265   0.968   2.616   3.822
 2789SOL    HW1 9266   1.025   2.698   3.828
 2789SOL    HW2 9267   1.008   2.553   3.755
 2790SOL     OW 9268   3.000   4.923   0.504
 2790SOL    HW1 9269   2.960   4.833   0.523
 2790SOL    HW2 9270   3.065   4.915   0.429
 2791SOL     OW 9271   0.197   4.332   2.287
 2791SOL    HW1 9272   0.137   4.316   2.209
 2791SOL    HW2 9273   0.149   4.386   2.356
 2792SOL     OW 9274   3.238   0.732   4.499
 2792SOL    HW1 9275   3.183   0.676   4.438
 2792SOL    HW2 9276   3.228   0.829   4.474
 2793SOL     OW 9277   4.945   4.126   1.837
 2793SOL    HW1 9278   4.912   4.087   1.751
 2793SOL    HW2 9279   5.044   4.119   1.841
 2794SOL     OW 9280   0.226   1.572   6.313
 2794SOL    HW1 9281   0.147   1.521   6.279
 2794SOL    HW2 9282   0.225   1.664   6.276
 2795SOL     OW 9283   0.836   5.448   1.278
 2795SOL    HW1 9284   0.787   5.480   1.197
 2795SOL    HW2 9285   0.770   5.421   1.349
 2796SOL     OW 9286   0.512   5.117   4.821
 2796SOL    HW1 9287   0.516   5.093   4.724
 2796SOL    HW2 9288   0.421   5.096   4.857
 2797SOL     OW 9289   5.390   5.191   5.549
 2797SOL    HW1 9290   5.378   5.242   5.635
 2797SOL    HW2 9291   5.479   5.213   5.510
 2798SOL     OW 9292   6.722   6.157   2.579
 2798SOL    HW1 9293   6.750   6.061   2.578
 2798SOL    HW2 9294   6.802   6.216   2.571
 2799SOL     OW 9295   5.090   5.525   5.446
 2799SOL    HW1 9296   5.073   5.467   5.525
 2799SOL    HW2 9297   5.069   5.475   5.362
 2800SOL     OW 9298   5.945   0.638   6.800
 2800SOL    HW1 9299   5.924   0.651   6.897
 2800SOL    HW2 9300   5.901   0.710   6.746
 2801SOL     OW 9301   1.632   5.476   5.875
 2801SOL    HW1 9302   1.619   5.572   5.899
 2801SOL    HW2 9303   1.730   5.458   5.863
 2802SOL     OW 9304   0.006   6.214   5.020
 2802SOL    HW1 9305   0.090   6.163   5.037
 2802SOL    HW2 9306   6.954   6.150   4.996
 2803SOL     OW 9307   3.251   3.826   5.811
 2803SOL    HW1 9308   3.172   3.766   5.823
 2803SOL    HW2 9309   3.243   3.875   5.724
 2804SOL     OW 9310   0.389   3.134   4.175
 2804SOL    HW1 9311   0.372   3.189   4.257
 2804SOL    HW2 9312   0.481   3.152   4.141
 2805SOL     OW 9313   5.506   3.861   2.220
 2805SOL    HW1 9314   5.529   3.951   2.182
 2805SOL    HW2 9315   5.531   3.860   2.317
 2806SOL     OW 9316   2.278   4.526   6.332
 2806SOL    HW1 9317   2.327   4.542   6.418
 2806SOL    HW2 9318   2.185   4.497   6.352
 2807SOL     OW 9319   3.027   0.320   2.815
 2807SOL    HW1 9320   2.979   0.255   2.874
 2807SOL    HW2 9321   3.021   0.289   2.720
 2808SOL     OW 9322   5.380   5.914   1.029
 2808SOL    HW1 9323   5.435   5.956   0.956
 2808SOL    HW2 9324   5.335   5.986   1.082
 2809SOL     OW 9325   5.601   3.222   1.696
 2809SOL    HW1 9326   5.562   3.163   1.625
 2809SOL    HW2 9327   5.672   3.172   1.745
 2810SOL     OW 9328   2.458   5.738   3.412
 2810SOL    HW1 9329   2.553   5.749   3.381
 2810SOL    HW2 9330   2.397   5.783   3.347
 2811SOL     OW 9331   0.955   0.832   2.549
 2811SOL    HW1 9332   0.961   0.795   2.641
 2811SOL    HW2 9333   0.973   0.759   2.482
 2812SOL     OW 9334   0.092   3.330   0.722
 2812SOL    HW1 9335   0.167   3.267   0.703
 2812SOL    HW2 9336   0.066   3.378   0.639
 2813SOL     OW 9337   0.996   1.293   1.339
 2813SOL    HW1 9338   0.922   1.350   1.305
 2813SOL    HW2 9339   0.993   1.204   1.294
 2814SOL     OW 9340   2.885   4.104   6.301
 2814SOL    HW1 9341   2.822   4.045   6.251
 2814SOL    HW2 9342   2.971   4.056   6.316
 2815SOL     OW 9343   0.170   6.153   5.812
 2815SOL    HW1 9344   0.073   6.128   5.813
 2815SOL    HW2 9345   0.200   6.161   5.717
 2816SOL     OW 9346   0.009   5.877   4.999
 2816SOL    HW1 9347   0.029   5.780   5.007
 2816SOL    HW2 9348   7.006   5.914   5.089
 2817SOL     OW 9349   3.818   0.960   1.950
 2817SOL    HW1 9350   3.722   0.982   1.937
 2817SOL    HW2 9351   3.846   0.985   2.043
 2818SOL     OW 9352   0.561   1.334   0.871
 2818SOL    HW1 9353   0.485   1.301   0.928
 2818SOL    HW2 9354   0.524   1.374   0.787
 2819SOL     OW 9355   0.911   0.561   1.202
 2819SOL    HW1 9356   0.855   0.479   1.208
 2819SOL    HW2 9357   0.994   0.541   1.149
 2820SOL     OW 9358   1.427   1.810   2.238
 2820SOL    HW1 9359   1.422   1.730   2.298
 2820SOL    HW2 9360   1.484   1.788   2.159
 2821SOL     OW 9361   3.439   5.231   6.044
 2821SOL    HW1 9362   3.411   5.157   6.106
 2821SOL    HW2 9363   3.405   5.212   5.952
 2822SOL     OW 9364   3.813   2.926   0.436
 2822SOL    HW1 9365   3.788   2.971   0.350
 2822SOL    HW2 9366   3.734   2.923   0.497
 2823SOL     OW 9367   5.338   0.991   0.600
 2823SOL    HW1 9368   5.361   1.051   0.676
 2823SOL    HW2 9369   5.394   1.014   0.520
 2824SOL     OW 9370   1.481   3.765   5.514
 2824SOL    HW1 9371   1.419   3.773   5.436
 2824SOL    HW2 9372   1.512   3.671   5.523
 2825SOL     OW 9373   5.376   0.782   6.664
 2825SOL    HW1 9374   5.473   0.770   6.644
 2825SOL    HW2 9375   5.322   0.752   6.586
 2826SOL     OW 9376   1.821   3.486   6.333
 2826SOL    HW1 9377   1.898   3.450   6.385
 2826SOL    HW2 9378   1.853   3.559   6.273
 2827SOL     OW 9379   0.681   0.599   6.329
 2827SOL    HW1 9380   0.736   0.592   6.246
 2827SOL    HW2 9381   0.621   0.679   6.322
 2828SOL     OW 9382   1.440   3.339   1.145
 2828SOL    HW1 9383   1.511   3.372   1.208
 2828SOL    HW2 9384   1.352   3.379   1.170
 2829SOL     OW 9385   3.714   3.635   3.060
 2829SOL    HW1 9386   3.747   3.647   3.153
 2829SOL    HW2 9387   3.791   3.639   2.996
 2830SOL     OW 9388   3.699   4.262   5.295
 2830SOL    HW1 9389   3.799   4.258   5.296
 2830SOL    HW2 9390   3.662   4.174   5.325
 2831SOL     OW 9391   0.078   1.889   2.363
 2831SOL    HW1 9392   0.168   1.924   2.387
 2831SOL    HW2 9393   0.048   1.928   2.276
 2832SOL     OW 9394   0.913   3.222   1.452
 2832SOL    HW1 9395   0.976   3.170   1.395
 2832SOL    HW2 9396   0.906   3.179   1.542
 2833SOL     OW 9397   2.392   0.788   2.005
 2833SOL    HW1 9398   2.418   0.700   1.964
 2833SOL    HW2 9399   2.292   0.793   2.012
 2834SOL     OW 9400   4.666   6.066   5.043
 2834SOL    HW1 9401   4.603   6.046   4.968
 2834SOL    HW2 9402   4.751   6.104   5.006
 2835SOL     OW 9403   1.104   6.351   0.357
 2835SOL    HW1 9404   1.147   6.367   0.268
 2835SOL    HW2 9405   1.018   6.401   0.363
 2836SOL     OW 9406   3.991   6.256   3.318
 2836SOL    HW1 9407   3.950   6.288   3.404
 2836SOL    HW2 9408   4.084   6.224   3.335
 2837SOL     OW 9409   5.796   3.979   2.350
 2837SOL    HW1 9410   5.825   3.994   2.255
 2837SOL    HW2 9411   5.755   4.063   2.386
 2838SOL     OW 9412   4.999   3.996   6.791
 2838SOL    HW1 9413   5.066   4.025   6.722
 2838SOL    HW2 9414   5.029   3.910   6.833
 2839SOL     OW 9415   6.696   2.452   3.448
 2839SOL    HW1 9416   6.630   2.501   3.391
 2839SOL    HW2 9417   6.713   2.504   3.532
 2840SOL     OW 9418   1.502   5.697   2.906
 2840SOL    HW1 9419   1.557   5.640   2.846
 2840SOL    HW2 9420   1.562   5.756   2.960
 2841SOL     OW 9421   6.155   2.607   0.717
 2841SOL    HW1 9422   6.184   2.692   0.759
 2841SOL    HW2 9423   6.073   2.573   0.762
 2842SOL     OW 9424   1.114   5.538   4.711
 2842SOL    HW1 9425   1.088   5.470   4.643
 2842SOL    HW2 9426   1.031   5.581   4.748
 2843SOL     OW 9427   2.364   2.547   2.872
 2843SOL    HW1 9428   2.446   2.569   2.820
 2843SOL    HW2 9429   2.357   2.447   2.882
 2844SOL     OW 9430   4.659   4.340   1.500
 2844SOL    HW1 9431   4.570   4.385   1.498
 2844SOL    HW2 9432   4.672   4.296   1.589
 2845SOL     OW 9433   5.119   2.773   3.896
 2845SOL    HW1 9434   5.170   2.857   3.916
 2845SOL    HW2 9435   5.070   2.783   3.809
 2846SOL     OW 9436   4.050   0.681   0.059
 2846SOL    HW1 9437   4.078   0.753   7.016
 2846SOL    HW2 9438   4.001   0.723   0.135
 2847SOL     OW 9439   4.799   4.084   2.083
 2847SOL    HW1 9440   4.712   4.132   2.069
 2847SOL    HW2 9441   4.866   4.118   2.017
 2848SOL     OW 9442   1.261   2.290   5.467
 2848SOL    HW1 9443   1.284   2.317   5.560
 2848SOL    HW2 9444   1.217   2.366   5.420
 2849SOL     OW 9445   3.783   0.870   1.599
 2849SOL    HW1 9446   3.693   0.906   1.623
 2849SOL    HW2 9447   3.854   0.931   1.635
 2850SOL     OW 9448   2.084   0.046   3.665
 2850SOL    HW1 9449   1.986   0.052   3.686
 2850SOL    HW2 9450   2.115   0.133   3.625
 2851SOL     OW 9451   3.873   3.358   6.904
 2851SOL    HW1 9452   3.849   3.405   6.989
 2851SOL    HW2 9453   3.832   3.267   6.903
 2852SOL     OW 9454   6.352   4.185   0.059
 2852SOL    HW1 9455   6.366   4.232   0.146
 2852SOL    HW2 9456   6.396   4.095   0.063
 2853SOL     OW 9457   0.244   3.319   6.924
 2853SOL    HW1 9458   0.276   3.414   6.920
 2853SOL    HW2 9459   0.164   3.314   6.984
 2854SOL     OW 9460   3.533   1.095   6.113
 2854SOL    HW1 9461   3.585   1.101   6.198
 2854SOL    HW2 9462   3.582   1.145   6.041
 2855SOL     OW 9463   0.981   2.526   4.366
 2855SOL    HW1 9464   0.970   2.625   4.370
 2855SOL    HW2 9465   0.936   2.490   4.284
 2856SOL     OW 9466   1.702   3.012   3.060
 2856SOL    HW1 9467   1.693   3.110   3.042
 2856SOL    HW2 9468   1.775   2.974   3.004
 2857SOL     OW 9469   0.283   3.663   0.499
 2857SOL    HW1 9470   0.363   3.707   0.539
 2857SOL    HW2 9471   0.199   3.700   0.540
 2858SOL     OW 9472   5.716   6.262   2.760
 2858SOL    HW1 9473   5.751   6.324   2.830
 2858SOL    HW2 9474   5.763   6.174   2.767
 2859SOL     OW 9475   5.432   5.708   0.413
 2859SOL    HW1 9476   5.431   5.789   0.354
 2859SOL    HW2 9477   5.421   5.736   0.509
 2860SOL     OW 9478   1.747   6.160   1.392
 2860SOL    HW1 9479   1.790   6.248   1.411
 2860SOL    HW2 9480   1.802   6.087   1.432
 2861SOL     OW 9481   2.944   5.041   5.845
 2861SOL    HW1 9482   2.979   5.010   5.756
 2861SOL    HW2 9483   2.849   5.014   5.854
 2862SOL     OW 9484   4.408   2.755   1.688
 2862SOL    HW1 9485   4.426   2.794   1.598
 2862SOL    HW2 9486   4.493   2.722   1.729
 2863SOL     OW 9487   5.309   1.097   6.265
 2863SOL    HW1 9488   5.402   1.088   6.300
 2863SOL    HW2 9489   5.306   1.059   6.172
 2864SOL     OW 9490   4.299   3.003   1.109
 2864SOL    HW1 9491   4.229   2.940   1.144
 2864SOL    HW2 9492   4.389   2.959   1.117
 2865SOL     OW 9493   4.179   6.305   4.182
 2865SOL    HW1 9494   4.120   6.317   4.103
 2865SOL    HW2 9495   4.191   6.393   4.228
 2866SOL     OW 9496   5.849   4.419   6.895
 2866SOL    HW1 9497   5.815   4.512   6.886
 2866SOL    HW2 9498   5.862   4.379   6.804
 2867SOL     OW 9499   6.494   6.513   2.257
 2867SOL    HW1 9500   6.519   6.419   2.235
 2867SOL    HW2 9501   6.401   6.532   2.228
 2868SOL     OW 9502   1.209   1.217   5.920
 2868SOL    HW1 9503   1.282   1.155   5.892
 2868SOL    HW2 9504   1.148   1.234   5.842
 2869SOL     OW 9505   6.240   0.094   4.028
 2869SOL    HW1 9506   6.171   0.166   4.019
 2869SOL    HW2 9507   6.198   0.005   4.009
 2870SOL     OW 9508   1.162   2.166   6.984
 2870SOL    HW1 9509   1.240   2.216   0.001
 2870SOL    HW2 9510   1.193   2.075   6.955
 2871SOL     OW 9511   6.892   0.784   0.595
 2871SOL    HW1 9512   6.935   0.696   0.574
 2871SOL    HW2 9513   6.948   0.858   0.558
 2872SOL     OW 9514   2.705   1.442   1.663
 2872SOL    HW1 9515   2.620   1.490   1.686
 2872SOL    HW2 9516   2.783   1.500   1.683
 2873SOL     OW 9517   0.278   5.580   1.717
 2873SOL    HW1 9518   0.238   5.543   1.800
 2873SOL    HW2 9519   0.235   5.668   1.696
 2874SOL     OW 9520   3.721   0.133   2.824
 2874SOL    HW1 9521   3.772   0.118   2.739
 2874SOL    HW2 9522   3.637   0.078   2.823
 2875SOL     OW 9523   3.106   6.971   2.864
 2875SOL    HW1 9524   3.030   6.964   2.799
 2875SOL    HW2 9525   3.178   0.008   2.825
 2876SOL     OW 9526   1.255   6.449   1.968
 2876SOL    HW1 9527   1.216   6.373   1.916
 2876SOL    HW2 9528   1.254   6.427   2.066
 2877SOL     OW 9529   2.181   1.914   6.404
 2877SOL    HW1 9530   2.102   1.860   6.377
 2877SOL    HW2 9531   2.264   1.874   6.364
 2878SOL     OW 9532   2.983   3.219   4.634
 2878SOL    HW1 9533   2.978   3.236   4.732
 2878SOL    HW2 9534   2.976   3.121   4.617
 2879SOL     OW 9535   4.571   5.099   5.900
 2879SOL    HW1 9536   4.482   5.079   5.940
 2879SOL    HW2 9537   4.561   5.168   5.828
 2880SOL     OW 9538   0.775   1.863   3.581
 2880SOL    HW1 9539   0.823   1.817   3.506
 2880SOL    HW2 9540   0.833   1.865   3.662
 2881SOL     OW 9541   3.172   5.138   0.097
 2881SOL    HW1 9542   3.140   5.232   0.101
 2881SOL    HW2 9543   3.269   5.135   0.122
 2882SOL     OW 9544   5.780   6.691   0.645
 2882SOL    HW1 9545   5.755   6.715   0.551
 2882SOL    HW2 9546   5.708   6.722   0.707
 2883SOL     OW 9547   6.664   6.630   3.276
 2883SOL    HW1 9548   6.596   6.609   3.346
 2883SOL    HW2 9549   6.683   6.547   3.222
 2884SOL     OW 9550   6.821   4.915   2.274
 2884SOL    HW1 9551   6.899   4.954   2.225
 2884SOL    HW2 9552   6.739   4.925   2.218
 2885SOL     OW 9553   1.163   2.234   4.225
 2885SOL    HW1 9554   1.145   2.316   4.279
 2885SOL    HW2 9555   1.234   2.253   4.157
 2886SOL     OW 9556   2.600   4.444   0.294
 2886SOL    HW1 9557   2.557   4.426   0.383
 2886SOL    HW2 9558   2.698   4.427   0.301
 2887SOL     OW 9559   0.306   6.085   3.811
 2887SOL    HW1 9560   0.290   5.992   3.846
 2887SOL    HW2 9561   0.403   6.097   3.792
 2888SOL     OW 9562   0.235   5.618   6.723
 2888SOL    HW1 9563   0.200   5.698   6.772
 2888SOL    HW2 9564   0.165   5.585   6.659
 2889SOL     OW 9565   3.373   6.180   3.003
 2889SOL    HW1 9566   3.275   6.159   2.999
 2889SOL    HW2 9567   3.385   6.279   3.006
 2890SOL     OW 9568   2.290   6.173   0.735
 2890SOL    HW1 9569   2.282   6.084   0.689
 2890SOL    HW2 9570   2.256   6.165   0.829
 2891SOL     OW 9571   1.262   3.404   2.740
 2891SOL    HW1 9572   1.163   3.400   2.736
 2891SOL    HW2 9573   1.294   3.358   2.823
 2892SOL     OW 9574   6.520   3.472   1.088
 2892SOL    HW1 9575   6.589   3.426   1.033
 2892SOL    HW2 9576   6.506   3.565   1.054
 2893SOL     OW 9577   1.403   5.496   4.592
 2893SOL    HW1 9578   1.376   5.440   4.670
 2893SOL    HW2 9579   1.363   5.587   4.600
 2894SOL     OW 9580   2.419   4.349   1.966
 2894SOL    HW1 9581   2.477   4.397   1.900
 2894SOL    HW2 9582   2.323   4.371   1.948
 2895SOL     OW 9583   3.515   0.852   5.991
 2895SOL    HW1 9584   3.422   0.856   5.954
 2895SOL    HW2 9585   3.532   0.934   6.046
 2896SOL     OW 9586   5.924   0.285   5.991
 2896SOL    HW1 9587   5.982   0.366   5.997
 2896SOL    HW2 9588   5.837   0.310   5.948
 2897SOL     OW 9589   3.735   4.891   2.880
 2897SOL    HW1 9590   3.751   4.879   2.978
 2897SOL    HW2 9591   3.636   4.894   2.862
 2898SOL     OW 9592   5.918   4.027   3.551
 2898SOL    HW1 9593   5.833   4.072   3.577
 2898SOL    HW2 9594   5.898   3.934   3.520
 2899SOL     OW 9595   6.806   2.253   1.555
 2899SOL    HW1 9596   6.716   2.215   1.576
 2899SOL    HW2 9597   6.834   2.221   1.464
 2900SOL     OW 9598   3.810   4.673   6.765
 2900SOL    HW1 9599   3.873   4.721   6.827
 2900SOL    HW2 9600   3.756   4.607   6.817
 2901SOL     OW 9601   1.479   4.797   4.017
 2901SOL    HW1 9602   1.425   4.723   3.977
 2901SOL    HW2 9603   1.424   4.880   4.020
 2902SOL     OW 9604   6.988   5.955   3.693
 2902SOL    HW1 9605   6.946   5.881   3.745
 2902SOL    HW2 9606   0.027   5.916   3.623
 2903SOL     OW 9607   4.271   6.098   0.717
 2903SOL    HW1 9608   4.237   6.089   0.811
 2903SOL    HW2 9609   4.352   6.041   0.705
 2904SOL     OW 9610   2.871   4.654   5.391
 2904SOL    HW1 9611   2.885   4.642   5.293
 2904SOL    HW2 9612   2.960   4.662   5.436
 2905SOL     OW 9613   1.350   4.084   3.337
 2905SOL    HW1 9614   1.375   4.071   3.241
 2905SOL    HW2 9615   1.252   4.097   3.344
 2906SOL     OW 9616   5.452   6.589   2.899
 2906SOL    HW1 9617   5.480   6.683   2.879
 2906SOL    HW2 9618   5.426   6.582   2.995
 2907SOL     OW 9619   1.006   0.981   4.033
 2907SOL    HW1 9620   0.965   0.900   3.990
 2907SOL    HW2 9621   0.933   1.043   4.063
 2908SOL     OW 9622   5.355   0.238   3.646
 2908SOL    HW1 9623   5.434   0.288   3.612
 2908SOL    HW2 9624   5.382   0.185   3.727
 2909SOL     OW 9625   1.341   6.684   3.018
 2909SOL    HW1 9626   1.391   6.759   3.062
 2909SOL    HW2 9627   1.324   6.707   2.922
 2910SOL     OW 9628   6.970   1.123   3.647
 2910SOL    HW1 9629   6.941   1.042   3.697
 2910SOL    HW2 9630   6.928   1.123   3.556
 2911SOL     OW 9631   1.311   4.603   3.933
 2911SOL    HW1 9632   1.264   4.528   3.978
 2911SOL    HW2 9633   1.252   4.641   3.861
 2912SOL     OW 9634   6.998   6.479   0.493
 2912SOL    HW1 9635   6.956   6.570   0.497
 2912SOL    HW2 9636   6.987   6.441   0.401
 2913SOL     OW 9637   2.400   4.445   2.220
 2913SOL    HW1 9638   2.439   4.534   2.245
 2913SOL    HW2 9639   2.439   4.416   2.132
 2914SOL     OW 9640   5.053   5.111   1.321
 2914SOL    HW1 9641   5.013   5.033   1.370
 2914SOL    HW2 9642   4.980   5.170   1.287
 2915SOL     OW 9643   2.809   2.228   3.088
 2915SOL    HW1 9644   2.845   2.229   3.181
 2915SOL    HW2 9645   2.724   2.281   3.084
 2916SOL     OW 9646   2.042   5.368   0.213
 2916SOL    HW1 9647   1.986   5.447   0.238
 2916SOL    HW2 9648   2.002   5.322   0.134
 2917SOL     OW 9649   2.885   0.178   3.681
 2917SOL    HW1 9650   2.813   0.247   3.690
 2917SOL    HW2 9651   2.974   0.220   3.701
 2918SOL     OW 9652   6.160   3.369   0.574
 2918SOL    HW1 9653   6.107   3.344   0.655
 2918SOL    HW2 9654   6.204   3.287   0.537
 2919SOL     OW 9655   6.675   6.224   3.832
 2919SOL    HW1 9656   6.763   6.206   3.876
 2919SOL    HW2 9657   6.640   6.312   3.864
 2920SOL     OW 9658   2.342   0.519   1.595
 2920SOL    HW1 9659   2.263   0.579   1.605
 2920SOL    HW2 9660   2.399   0.525   1.677
 2921SOL     OW 9661   6.910   0.075   5.206
 2921SOL    HW1 9662   6.890   0.157   5.259
 2921SOL    HW2 9663   6.889   0.091   5.110
 2922SOL     OW 9664   4.261   0.232   2.067
 2922SOL    HW1 9665   4.285   0.175   2.145
 2922SOL    HW2 9666   4.333   0.300   2.052
 2923SOL     OW 9667   6.455   4.901   4.292
 2923SOL    HW1 9668   6.544   4.946   4.294
 2923SOL    HW2 9669   6.391   4.951   4.351
 2924SOL     OW 9670   6.927   1.505   4.770
 2924SOL    HW1 9671   6.840   1.526   4.815
 2924SOL    HW2 9672   6.948   1.575   4.702
 2925SOL     OW 9673   5.620   1.088   6.796
 2925SOL    HW1 9674   5.656   1.172   6.756
 2925SOL    HW2 9675   5.528   1.070   6.760
 2926SOL     OW 9676   6.577   2.326   5.056
 2926SOL    HW1 9677   6.665   2.372   5.067
 2926SOL    HW2 9678   6.584   2.231   5.085
 2927SOL     OW 9679   2.121   3.421   0.782
 2927SOL    HW1 9680   2.211   3.461   0.763
 2927SOL    HW2 9681   2.065   3.487   0.831
 2928SOL     OW 9682   6.300   1.319   0.278
 2928SOL    HW1 9683   6.330   1.409   0.310
 2928SOL    HW2 9684   6.241   1.277   0.348
 2929SOL     OW 9685   1.336   2.670   5.019
 2929SOL    HW1 9686   1.248   2.643   4.979
 2929SOL    HW2 9687   1.402   2.595   5.008
 2930SOL     OW 9688   6.139   5.966   5.641
 2930SOL    HW1 9689   6.202   6.033   5.600
 2930SOL    HW2 9690   6.142   5.882   5.588
 2931SOL     OW 9691   4.500   5.299   0.837
 2931SOL    HW1 9692   4.596   5.314   0.814
 2931SOL    HW2 9693   4.453   5.258   0.759
 2932SOL     OW 9694   6.714   5.522   2.265
 2932SOL    HW1 9695   6.791   5.497   2.324
 2932SOL    HW2 9696   6.741   5.512   2.170
 2933SOL     OW 9697   0.404   0.148   1.788
 2933SOL    HW1 9698   0.430   0.057   1.822
 2933SOL    HW2 9699   0.383   0.207   1.866
 2934SOL     OW 9700   4.290   3.051   1.477
 2934SOL    HW1 9701   4.307   2.956   1.453
 2934SOL    HW2 9702   4.209   3.084   1.429
 2935SOL     OW 9703   1.130   2.465   6.531
 2935SOL    HW1 9704   1.147   2.552   6.483
 2935SOL    HW2 9705   1.068   2.481   6.608
 2936SOL     OW 9706   4.623   0.134   0.609
 2936SOL    HW1 9707   4.526   0.122   0.591
 2936SOL    HW2 9708   4.663   0.192   0.538
 2937SOL     OW 9709   4.730   4.585   1.359
 2937SOL    HW1 9710   4.663   4.639   1.409
 2937SOL    HW2 9711   4.750   4.501   1.410
 2938SOL     OW 9712   6.227   5.366   0.375
 2938SOL    HW1 9713   6.201   5.311   0.454
 2938SOL    HW2 9714   6.326   5.377   0.373
 2939SOL     OW 9715   0.479   6.817   1.631
 2939SOL    HW1 9716   0.451   6.873   1.553
 2939SOL    HW2 9717   0.522   6.733   1.599
 2940SOL     OW 9718   5.892   5.949   4.382
 2940SOL    HW1 9719   5.992   5.951   4.381
 2940SOL    HW2 9720   5.860   5.867   4.334
 2941SOL     OW 9721   2.340   2.764   3.080
 2941SOL    HW1 9722   2.407   2.723   3.142
 2941SOL    HW2 9723   2.341   2.715   2.993
 2942SOL     OW 9724   3.088   2.700   0.609
 2942SOL    HW1 9725   3.051   2.639   0.679
 2942SOL    HW2 9726   3.065   2.795   0.632
 2943SOL     OW 9727   6.221   4.680   3.833
 2943SOL    HW1 9728   6.216   4.777   3.856
 2943SOL    HW2 9729   6.177   4.626   3.905
 2944SOL     OW 9730   2.759   6.346   3.895
 2944SOL    HW1 9731   2.689   6.416   3.906
 2944SOL    HW2 9732   2.767   6.322   3.798
 2945SOL     OW 9733   5.027   3.833   1.671
 2945SOL    HW1 9734   4.972   3.782   1.737
 2945SOL    HW2 9735   5.124   3.813   1.686
 2946SOL     OW 9736   2.159   4.142   5.839
 2946SOL    HW1 9737   2.229   4.074   5.822
 2946SOL    HW2 9738   2.196   4.215   5.898
 2947SOL     OW 9739   0.165   5.902   0.246
 2947SOL    HW1 9740   0.181   5.813   0.205
 2947SOL    HW2 9741   0.201   5.973   0.185
 2948SOL     OW 9742   6.025   4.951   3.353
 2948SOL    HW1 9743   6.043   5.022   3.285
 2948SOL    HW2 9744   6.111   4.910   3.383
 2949SOL     OW 9745   0.851   6.300   6.909
 2949SOL    HW1 9746   0.859   6.353   6.825
 2949SOL    HW2 9747   0.942   6.284   6.947
 2950SOL     OW 9748   5.823   5.010   2.736
 2950SOL    HW1 9749   5.780   4.931   2.694
 2950SOL    HW2 9750   5.887   4.980   2.807
 2951SOL     OW 9751   5.820   0.983   1.422
 2951SOL    HW1 9752   5.770   1.055   1.375
 2951SOL    HW2 9753   5.819   0.899   1.367
 2952SOL     OW 9754   6.010   0.301   5.072
 2952SOL    HW1 9755   5.951   0.251   5.009
 2952SOL    HW2 9756   6.103   0.305   5.035
 2953SOL     OW 9757   6.866   4.767   3.100
 2953SOL    HW1 9758   6.784   4.823   3.098
 2953SOL    HW2 9759   6.931   4.799   3.031
 2954SOL     OW 9760   6.929   4.663   6.657
 2954SOL    HW1 9761   6.935   4.577   6.708
 2954SOL    HW2 9762   6.948   4.646   6.560
 2955SOL     OW 9763   1.059   4.010   7.013
 2955SOL    HW1 9764   1.094   4.003   6.919
 2955SOL    HW2 9765   1.065   4.105   0.022
 2956SOL     OW 9766   6.895   5.267   3.919
 2956SOL    HW1 9767   6.953   5.201   3.967
 2956SOL    HW2 9768   6.841   5.220   3.850
 2957SOL     OW 9769   4.171   4.921   1.256
 2957SOL    HW1 9770   4.248   4.940   1.197
 2957SOL    HW2 9771   4.087   4.919   1.202
 2958SOL     OW 9772   1.981   5.034   3.393
 2958SOL    HW1 9773   1.960   4.938   3.406
 2958SOL    HW2 9774   2.075   5.052   3.421
 2959SOL     OW 9775   5.439   2.645   2.823
 2959SOL    HW1 9776   5.386   2.643   2.738
 2959SOL    HW2 9777   5.469   2.739   2.841
 2960SOL     OW 9778   3.350   0.857   0.093
 2960SOL    HW1 9779   3.348   0.803   0.177
 2960SOL    HW2 9780   3.399   0.806   0.022
 2961SOL     OW 9781   6.169   4.962   2.939
 2961SOL    HW1 9782   6.083   4.912   2.949
 2961SOL    HW2 9783   6.170   5.009   2.851
 2962SOL     OW 9784   4.886   6.687   3.623
 2962SOL    HW1 9785   4.983   6.669   3.607
 2962SOL    HW2 9786   4.869   6.692   3.722
 2963SOL     OW 9787   1.553   1.165   6.538
 2963SOL    HW1 9788   1.558   1.172   6.638
 2963SOL    HW2 9789   1.610   1.089   6.508
 2964SOL     OW 9790   0.426   2.865   6.589
 2964SOL    HW1 9791   0.510   2.820   6.620
 2964SOL    HW2 9792   0.449   2.942   6.530
 2965SOL     OW 9793   1.695   0.660   4.815
 2965SOL    HW1 9794   1.688   0.726   4.740
 2965SOL    HW2 9795   1.614   0.602   4.817
 2966SOL     OW 9796   4.811   5.513   4.057
 2966SOL    HW1 9797   4.789   5.496   4.153
 2966SOL    HW2 9798   4.835   5.609   4.044
 2967SOL     OW 9799   6.884   1.462   5.939
 2967SOL    HW1 9800   6.808   1.451   5.875
 2967SOL    HW2 9801   6.931   1.548   5.921
 2968SOL     OW 9802   2.196   3.026   0.986
 2968SOL    HW1 9803   2.169   2.966   1.061
 2968SOL    HW2 9804   2.220   3.116   1.022
 2969SOL     OW 9805   4.838   4.163   4.762
 2969SOL    HW1 9806   4.854   4.139   4.667
 2969SOL    HW2 9807   4.916   4.134   4.817
 2970SOL     OW 9808   2.946   2.783   5.395
 2970SOL    HW1 9809   2.913   2.876   5.381
 2970SOL    HW2 9810   3.040   2.775   5.363
 2971SOL     OW 9811   5.862   3.932   0.238
 2971SOL    HW1 9812   5.795   3.903   0.306
 2971SOL    HW2 9813   5.893   4.025   0.259
 2972SOL     OW 9814   5.611   5.144   0.260
 2972SOL    HW1 9815   5.577   5.059   0.219
 2972SOL    HW2 9816   5.544   5.217   0.247
 2973SOL     OW 9817   4.676   6.742   2.810
 2973SOL    HW1 9818   4.606   6.682   2.849
 2973SOL    HW2 9819   4.671   6.737   2.710
 2974SOL     OW 9820   6.062   4.288   3.649
 2974SOL    HW1 9821   5.979   4.333   3.679
 2974SOL    HW2 9822   6.047   4.189   3.646
 2975SOL     OW 9823   4.941   4.429   3.529
 2975SOL    HW1 9824   4.907   4.367   3.600
 2975SOL    HW2 9825   4.881   4.508   3.522
 2976SOL     OW 9826   4.635   1.949   3.056
 2976SOL    HW1 9827   4.657   1.858   3.022
 2976SOL    HW2 9828   4.562   1.989   3.000
 2977SOL     OW 9829   1.094   0.280   2.493
 2977SOL    HW1 9830   1.181   0.319   2.462
 2977SOL    HW2 9831   1.053   0.339   2.562
 2978SOL     OW 9832   4.062   4.167   0.005
 2978SOL    HW1 9833   3.999   4.107   0.054
 2978SOL    HW2 9834   4.117   4.113   6.962
 2979SOL     OW 9835   3.417   1.525   4.429
 2979SOL    HW1 9836   3.355   1.603   4.436
 2979SOL    HW2 9837   3.372   1.443   4.466
 2980SOL     OW 9838   2.497   4.682   6.169
 2980SOL    HW1 9839   2.438   4.608   6.203
 2980SOL    HW2 9840   2.510   4.672   6.070
 2981SOL     OW 9841   2.223   1.984   6.986
 2981SOL    HW1 9842   2.221   2.055   6.916
 2981SOL    HW2 9843   2.281   1.908   6.955
 2982SOL     OW 9844   2.036   6.340   2.252
 2982SOL    HW1 9845   2.013   6.362   2.157
 2982SOL    HW2 9846   2.094   6.412   2.290
 2983SOL     OW 9847   0.205   2.666   0.288
 2983SOL    HW1 9848   0.180   2.570   0.274
 2983SOL    HW2 9849   0.183   2.693   0.382
 2984SOL     OW 9850   6.682   4.577   6.792
 2984SOL    HW1 9851   6.684   4.519   6.711
 2984SOL    HW2 9852   6.725   4.665   6.771
 2985SOL     OW 9853   0.880   0.583   4.482
 2985SOL    HW1 9854   0.927   0.524   4.416
 2985SOL    HW2 9855   0.790   0.609   4.446
 2986SOL     OW 9856   3.097   3.972   2.564
 2986SOL    HW1 9857   3.077   3.996   2.659
 2986SOL    HW2 9858   3.195   3.977   2.548
 2987SOL     OW 9859   1.561   2.094   4.435
 2987SOL    HW1 9860   1.635   2.060   4.378
 2987SOL    HW2 9861   1.576   2.190   4.457
 2988SOL     OW 9862   1.460   0.184   1.670
 2988SOL    HW1 9863   1.512   0.105   1.640
 2988SOL    HW2 9864   1.462   0.254   1.599
 2989SOL     OW 9865   5.669   3.817   5.354
 2989SOL    HW1 9866   5.722   3.901   5.344
 2989SOL    HW2 9867   5.575   3.834   5.325
 2990SOL     OW 9868   5.422   2.312   4.337
 2990SOL    HW1 9869   5.413   2.265   4.424
 2990SOL    HW2 9870   5.406   2.247   4.262
 2991SOL     OW 9871   5.954   3.692   0.401
 2991SOL    HW1 9872   5.932   3.596   0.418
 2991SOL    HW2 9873   5.989   3.703   0.307
 2992SOL     OW 9874   0.812   4.733   4.402
 2992SOL    HW1 9875   0.868   4.786   4.465
 2992SOL    HW2 9876   0.783   4.791   4.326
 2993SOL     OW 9877   0.154   5.299   0.342
 2993SOL    HW1 9878   0.213   5.225   0.375
 2993SOL    HW2 9879   0.195   5.387   0.363
 2994SOL     OW 9880   4.441   6.455   0.125
 2994SOL    HW1 9881   4.421   6.371   0.175
 2994SOL    HW2 9882   4.493   6.517   0.184
 2995SOL     OW 9883   4.605   0.327   0.116
 2995SOL    HW1 9884   4.570   0.284   0.033
 2995SOL    HW2 9885   4.665   0.403   0.092
 2996SOL     OW 9886   1.458   1.826   4.829
 2996SOL    HW1 9887   1.484   1.796   4.738
 2996SOL    HW2 9888   1.377   1.884   4.823
 2997SOL     OW 9889   4.183   0.623   3.118
 2997SOL    HW1 9890   4.191   0.717   3.151
 2997SOL    HW2 9891   4.262   0.571   3.147
 2998SOL     OW 9892   3.058   0.477   3.872
 2998SOL    HW1 9893   3.062   0.377   3.871
 2998SOL    HW2 9894   3.125   0.512   3.936
 2999SOL     OW 9895   2.606   4.784   6.515
 2999SOL    HW1 9896   2.632   4.866   6.566
 2999SOL    HW2 9897   2.683   4.752   6.461
 3000SOL     OW 9898   2.743   3.711   6.031
 3000SOL    HW1 9899   2.743   3.613   6.050
 3000SOL    HW2 9900   2.656   3.750   6.061
 3001SOL     OW 9901   6.152   2.030   0.165
 3001SOL    HW1 9902   6.126   2.112   0.114
 3001SOL    HW2 9903   6.130   1.949   0.111
 3002SOL     OW 9904   3.244   1.558   1.197
 3002SOL    HW1 9905   3.217   1.475   1.246
 3002SOL    HW2 9906   3.252   1.538   1.099
 3003SOL     OW 9907   0.888   6.363   1.043
 3003SOL    HW1 9908   0.793   6.355   1.011
 3003SOL    HW2 9909   0.889   6.379   1.141
 3004SOL     OW 9910   1.921   4.525   4.117
 3004SOL    HW1 9911   1.992   4.596   4.112
 3004SOL    HW2 9912   1.875   4.517   4.029
 3005SOL     OW 9913   0.922   3.297   5.802
 3005SOL    HW1 9914   0.945   3.272   5.708
 3005SOL    HW2 9915   0.985   3.369   5.834
 3006SOL     OW 9916   5.774   1.260   5.727
 3006SOL    HW1 9917   5.804   1.164   5.728
 3006SOL    HW2 9918   5.688   1.267   5.676
 3007SOL     OW 9919   4.683   5.639   0.070
 3007SOL    HW1 9920   4.709   5.717   0.014
 3007SOL    HW2 9921   4.755   5.570   0.067
 3008SOL     OW 9922   3.687   2.461   6.408
 3008SOL    HW1 9923   3.719   2.415   6.490
 3008SOL    HW2 9924   3.744   2.434   6.330
 3009SOL     OW 9925   6.803   2.660   3.020
 3009SOL    HW1 9926   6.832   2.661   2.925
 3009SOL    HW2 9927   6.807   2.566   3.056
 3010SOL     OW 9928   3.498   5.907   5.268
 3010SOL    HW1 9929   3.571   5.861   5.218
 3010SOL    HW2 9930   3.489   6.001   5.236
 3011SOL     OW 9931   6.613   0.383   1.796
 3011SOL    HW1 9932   6.581   0.405   1.704
 3011SOL    HW2 9933   6.630   0.285   1.803
 3012SOL     OW 9934   2.695   3.586   6.829
 3012SOL    HW1 9935   2.783   3.592   6.783
 3012SOL    HW2 9936   2.631   3.533   6.772
 3013SOL     OW 9937   6.353   5.160   3.360
 3013SOL    HW1 9938   6.438   5.132   3.406
 3013SOL    HW2 9939   6.370   5.168   3.262
 3014SOL     OW 9940   5.004   1.295   6.460
 3014SOL    HW1 9941   4.952   1.263   6.381
 3014SOL    HW2 9942   4.941   1.319   6.534
 3015SOL     OW 9943   2.596   1.160   0.756
 3015SOL    HW1 9944   2.685   1.155   0.711
 3015SOL    HW2 9945   2.542   1.079   0.734
 3016SOL     OW 9946   3.076   0.220   4.237
 3016SOL    HW1 9947   3.164   0.264   4.254
 3016SOL    HW2 9948   3.046   0.173   4.320
 3017SOL     OW 9949   5.879   4.709   2.380
 3017SOL    HW1 9950   5.965   4.662   2.404
 3017SOL    HW2 9951   5.898   4.805   2.362
 3018SOL     OW 9952   4.006   0.087   6.670
 3018SOL    HW1 9953   3.927   0.081   6.732
 3018SOL    HW2 9954   3.995   0.166   6.610
 3019SOL     OW 9955   0.889   6.908   0.405
 3019SOL    HW1 9956   0.900   7.001   0.440
 3019SOL    HW2 9957   0.877   6.911   0.305
 3020SOL     OW 9958   4.595   3.360   0.151
 3020SOL    HW1 9959   4.662   3.350   0.078
 3020SOL    HW2 9960   4.633   3.323   0.236
 3021SOL     OW 9961   2.455   6.799   4.316
 3021SOL    HW1 9962   2.543   6.753   4.303
 3021SOL    HW2 9963   2.405   6.755   4.391
 3022SOL     OW 9964   3.725   6.055   4.084
 3022SOL    HW1 9965   3.629   6.075   4.103
 3022SOL    HW2 9966   3.733   6.014   3.993
 3023SOL     OW 9967   4.074   6.928   2.742
 3023SOL    HW1 9968   4.118   6.964   2.824
 3023SOL    HW2 9969   4.143   6.911   2.672
 3024SOL     OW 9970   6.155   5.700   5.518
 3024SOL    HW1 9971   6.149   5.623   5.580
 3024SOL    HW2 9972   6.086   5.690   5.446
 3025SOL     OW 9973   3.924   6.039   0.884
 3025SOL    HW1 9974   3.949   6.038   0.980
 3025SOL    HW2 9975   3.931   6.132   0.848
 3026SOL     OW 9976   6.896   0.968   6.920
 3026SOL    HW1 9977   6.955   1.023   6.980
 3026SOL    HW2 9978   6.838   1.029   6.866
 3027SOL     OW 9979   3.895   1.256   2.014
 3027SOL    HW1 9980   3.975   1.199   1.993
 3027SOL    HW2 9981   3.848   1.219   2.094
 3028SOL     OW 9982   1.809   3.965   6.099
 3028SOL    HW1 9983   1.715   3.969   6.065
 3028SOL    HW2 9984   1.873   3.984   6.025
 3029SOL     OW 9985   0.715   2.186   3.730
 3029SOL    HW1 9986   0.708   2.187   3.830
 3029SOL    HW2 9987   0.692   2.095   3.696
 3030SOL     OW 9988   1.546   3.952   0.990
 3030SOL    HW1 9989   1.580   4.041   1.022
 3030SOL    HW2 9990   1.446   3.952   0.993
 3031SOL     OW 9991   1.325   5.342   1.744
 3031SOL    HW1 9992   1.388   5.318   1.670
 3031SOL    HW2 9993   1.231   5.342   1.710
 3032SOL     OW 9994   1.646   5.831   3.124
 3032SOL    HW1 9995   1.579   5.868   3.188
 3032SOL    HW2 9996   1.717   5.899   3.106
 3033SOL     OW 9997   6.716   2.155   3.460
 3033SOL    HW1 9998   6.732   2.253   3.449
 3033SOL    HW2 9999   6.642   2.140   3.525
 3034SOL     OW10000   1.140   5.826   3.531
 3034SOL    HW110001   1.157   5.768   3.611
 3034SOL    HW210002   1.151   5.773   3.448
 3035SOL     OW10003   1.251   3.360   6.220
 3035SOL    HW110004   1.240   3.334   6.315
 3035SOL    HW210005   1.163   3.390   6.183
 3036SOL     OW10006   1.353   1.845   5.527
 3036SOL    HW110007   1.442   1.801   5.514
 3036SOL    HW210008   1.362   1.919   5.594
 3037SOL     OW10009   0.068   5.314   5.413
 3037SOL    HW110010   0.082   5.236   5.351
 3037SOL    HW210011   7.013   5.369   5.381
 3038SOL     OW10012   4.964   5.325   5.702
 3038SOL    HW110013   4.882   5.287   5.660
 3038SOL    HW210014   4.939   5.374   5.786
 3039SOL     OW10015   6.802   3.050   6.819
 3039SOL    HW110016   6.768   2.961   6.790
 3039SOL    HW210017   6.849   3.095   6.743
 3040SOL     OW10018   3.248   4.038   5.991
 3040SOL    HW110019   3.180   4.109   5.969
 3040SOL    HW210020   3.238   3.962   5.927
 3041SOL     OW10021   0.809   3.988   5.561
 3041SOL    HW110022   0.820   4.081   5.595
 3041SOL    HW210023   0.719   3.979   5.517
 3042SOL     OW10024   6.482   5.804   2.104
 3042SOL    HW110025   6.575   5.798   2.068
 3042SOL    HW210026   6.466   5.896   2.140
 3043SOL     OW10027   3.065   3.772   0.247
 3043SOL    HW110028   3.018   3.857   0.221
 3043SOL    HW210029   3.144   3.795   0.304
 3044SOL     OW10030   3.090   4.430   5.762
 3044SOL    HW110031   3.126   4.381   5.682
 3044SOL    HW210032   3.057   4.520   5.733
 3045SOL     OW10033   4.286   0.298   3.026
 3045SOL    HW110034   4.353   0.345   3.082
 3045SOL    HW210035   4.319   0.292   2.931
 3046SOL     OW10036   4.435   6.086   6.765
 3046SOL    HW110037   4.361   6.144   6.731
 3046SOL    HW210038   4.411   6.052   6.856
 3047SOL     OW10039   6.511   6.626   0.618
 3047SOL    HW110040   6.453   6.615   0.537
 3047SOL    HW210041   6.464   6.588   0.698
 3048SOL     OW10042   4.086   2.831   0.934
 3048SOL    HW110043   4.163   2.801   0.878
 3048SOL    HW210044   4.013   2.864   0.874
 3049SOL     OW10045   1.281   0.828   4.016
 3049SOL    HW110046   1.304   0.757   4.083
 3049SOL    HW210047   1.191   0.866   4.037
 3050SOL     OW10048   2.145   2.456   1.537
 3050SOL    HW110049   2.100   2.412   1.615
 3050SOL    HW210050   2.078   2.471   1.464
 3051SOL     OW10051   2.865   6.932   6.473
 3051SOL    HW110052   2.957   6.897   6.491
 3051SOL    HW210053   2.866   0.010   6.475
 3052SOL     OW10054   5.486   6.278   2.593
 3052SOL    HW110055   5.565   6.291   2.654
 3052SOL    HW210056   5.515   6.293   2.498
 3053SOL     OW10057   1.000   4.137   1.060
 3053SOL    HW110058   0.914   4.087   1.051
 3053SOL    HW210059   0.984   4.234   1.040
 3054SOL     OW10060   5.706   1.072   3.383
 3054SOL    HW110061   5.802   1.044   3.390
 3054SOL    HW210062   5.659   1.013   3.318
 3055SOL     OW10063   5.930   6.829   6.124
 3055SOL    HW110064   5.970   6.761   6.186
 3055SOL    HW210065   5.899   6.784   6.041
 3056SOL     OW10066   6.020   1.463   6.182
 3056SOL    HW110067   6.025   1.394   6.110
 3056SOL    HW210068   5.997   1.420   6.269
 3057SOL     OW10069   5.612   6.363   3.663
 3057SOL    HW110070   5.587   6.450   3.707
 3057SOL    HW210071   5.704   6.337   3.692
 3058SOL     OW10072   6.465   4.037   1.477
 3058SOL    HW110073   6.513   4.030   1.389
 3058SOL    HW210074   6.371   4.004   1.466
 3059SOL     OW10075   2.213   2.279   4.406
 3059SOL    HW110076   2.143   2.277   4.477
 3059SOL    HW210077   2.172   2.254   4.318
 3060SOL     OW10078   2.772   5.260   6.501
 3060SOL    HW110079   2.742   5.232   6.410
 3060SOL    HW210080   2.741   5.193   6.568
 3061SOL     OW10081   5.904   4.999   5.984
 3061SOL    HW110082   5.965   4.931   5.943
 3061SOL    HW210083   5.884   5.071   5.918
 3062SOL     OW10084   3.935   5.414   1.015
 3062SOL    HW110085   3.908   5.352   0.941
 3062SOL    HW210086   3.879   5.395   1.096
 3063SOL     OW10087   1.099   4.741   0.397
 3063SOL    HW110088   1.129   4.646   0.402
 3063SOL    HW210089   1.177   4.799   0.375
 3064SOL     OW10090   4.541   3.048   0.400
 3064SOL    HW110091   4.445   3.040   0.428
 3064SOL    HW210092   4.595   2.980   0.449
 3065SOL     OW10093   0.915   1.409   6.567
 3065SOL    HW110094   1.008   1.400   6.531
 3065SOL    HW210095   0.910   1.488   6.628
 3066SOL     OW10096   4.799   4.985   6.000
 3066SOL    HW110097   4.791   4.904   6.058
 3066SOL    HW210098   4.710   5.030   5.991
 3067SOL     OW10099   2.120   2.003   0.425
 3067SOL    HW110100   2.021   2.002   0.431
 3067SOL    HW210101   2.159   1.951   0.501
 3068SOL     OW10102   0.641   1.141   1.416
 3068SOL    HW110103   0.645   1.108   1.321
 3068SOL    HW210104   0.645   1.240   1.417
 3069SOL     OW10105   6.233   6.696   3.479
 3069SOL    HW110106   6.318   6.743   3.454
 3069SOL    HW210107   6.191   6.657   3.398
 3070SOL     OW10108   3.106   1.220   6.727
 3070SOL    HW110109   3.016   1.254   6.753
 3070SOL    HW210110   3.100   1.173   6.639
 3071SOL     OW10111   6.906   4.249   4.092
 3071SOL    HW110112   6.864   4.322   4.146
 3071SOL    HW210113   6.882   4.161   4.133
 3072SOL     OW10114   1.681   5.990   7.003
 3072SOL    HW110115   1.777   6.015   7.011
 3072SOL    HW210116   1.630   6.026   0.060
 3073SOL     OW10117   0.404   4.547   1.286
 3073SOL    HW110118   0.378   4.567   1.380
 3073SOL    HW210119   0.479   4.482   1.285
 3074SOL     OW10120   1.391   4.125   1.585
 3074SOL    HW110121   1.489   4.134   1.602
 3074SOL    HW210122   1.363   4.188   1.513
 3075SOL     OW10123   2.302   4.923   3.860
 3075SOL    HW110124   2.224   4.864   3.838
 3075SOL    HW210125   2.269   5.007   3.903
 3076SOL     OW10126   0.068   1.132   5.047
 3076SOL    HW110127   0.126   1.082   4.982
 3076SOL    HW210128   0.121   1.205   5.090
 3077SOL     OW10129   6.313   3.551   2.027
 3077SOL    HW110130   6.394   3.595   1.987
 3077SOL    HW210131   6.307   3.574   2.124
 3078SOL     OW10132   6.576   2.671   2.260
 3078SOL    HW110133   6.553   2.748   2.201
 3078SOL    HW210134   6.525   2.677   2.345
 3079SOL     OW10135   2.675   2.450   4.080
 3079SOL    HW110136   2.589   2.489   4.046
 3079SOL    HW210137   2.714   2.390   4.010
 3080SOL     OW10138   4.694   4.223   1.753
 3080SOL    HW110139   4.781   4.237   1.800
 3080SOL    HW210140   4.620   4.219   1.819
 3081SOL     OW10141   0.863   4.455   6.853
 3081SOL    HW110142   0.938   4.405   6.809
 3081SOL    HW210143   0.789   4.391   6.874
 3082SOL     OW10144   2.874   5.409   4.721
 3082SOL    HW110145   2.966   5.414   4.759
 3082SOL    HW210146   2.878   5.430   4.623
 3083SOL     OW10147   2.974   5.293   2.501
 3083SOL    HW110148   3.029   5.353   2.559
 3083SOL    HW210149   2.884   5.335   2.486
 3084SOL     OW10150   0.583   3.900   2.463
 3084SOL    HW110151   0.519   3.919   2.537
 3084SOL    HW210152   0.539   3.920   2.375
 3085SOL     OW10153   5.188   4.752   0.695
 3085SOL    HW110154   5.109   4.767   0.636
 3085SOL    HW210155   5.254   4.826   0.681
 3086SOL     OW10156   4.879   1.537   0.346
 3086SOL    HW110157   4.874   1.573   0.439
 3086SOL    HW210158   4.843   1.604   0.281
 3087SOL     OW10159   2.372   6.421   2.090
 3087SOL    HW110160   2.472   6.426   2.083
 3087SOL    HW210161   2.334   6.392   2.003
 3088SOL     OW10162   1.114   2.948   5.686
 3088SOL    HW110163   1.126   2.979   5.781
 3088SOL    HW210164   1.133   2.850   5.681
 3089SOL     OW10165   4.855   1.026   5.251
 3089SOL    HW110166   4.916   0.975   5.190
 3089SOL    HW210167   4.881   1.123   5.250
 3090SOL     OW10168   2.002   1.129   2.247
 3090SOL    HW110169   2.087   1.169   2.210
 3090SOL    HW210170   1.973   1.053   2.189
 3091SOL     OW10171   1.451   1.431   0.695
 3091SOL    HW110172   1.541   1.403   0.730
 3091SOL    HW210173   1.427   1.373   0.617
 3092SOL     OW10174   4.950   6.874   2.128
 3092SOL    HW110175   5.027   6.914   2.178
 3092SOL    HW210176   4.983   6.835   2.042
 3093SOL     OW10177   5.739   6.138   5.827
 3093SOL    HW110178   5.639   6.139   5.824
 3093SOL    HW210179   5.770   6.105   5.916
 3094SOL     OW10180   2.815   0.497   4.008
 3094SOL    HW110181   2.882   0.495   3.934
 3094SOL    HW210182   2.724   0.478   3.972
 3095SOL     OW10183   2.549   3.009   5.451
 3095SOL    HW110184   2.465   2.992   5.502
 3095SOL    HW210185   2.528   3.015   5.353
 3096SOL     OW10186   0.639   3.740   4.788
 3096SOL    HW110187   0.665   3.751   4.884
 3096SOL    HW210188   0.662   3.824   4.738
 3097SOL     OW10189   5.843   2.983   0.193
 3097SOL    HW110190   5.914   2.956   0.128
 3097SOL    HW210191   5.766   3.024   0.144
 3098SOL     OW10192   1.678   2.711   2.248
 3098SOL    HW110193   1.679   2.802   2.289
 3098SOL    HW210194   1.749   2.654   2.290
 3099SOL     OW10195   0.999   6.025   3.670
 3099SOL    HW110196   1.060   5.987   3.600
 3099SOL    HW210197   0.907   5.988   3.658
 3100SOL     OW10198   0.018   6.312   2.912
 3100SOL    HW110199   0.117   6.319   2.911
 3100SOL    HW210200   7.000   6.381   2.851
 3101SOL     OW10201   4.796   0.079   5.690
 3101SOL    HW110202   4.741   0.099   5.609
 3101SOL    HW210203   4.860   0.005   5.669
 3102SOL     OW10204   6.833   5.953   0.073
 3102SOL    HW110205   6.804   6.029   0.015
 3102SOL    HW210206   6.770   5.944   0.151
 3103SOL     OW10207   4.704   0.915   1.130
 3103SOL    HW110208   4.794   0.927   1.171
 3103SOL    HW210209   4.713   0.909   1.030
 3104SOL     OW10210   4.423   0.033   6.529
 3104SOL    HW110211   4.387   6.963   6.511
 3104SOL    HW210212   4.357   0.101   6.498
 3105SOL     OW10213   5.195   3.349   0.786
 3105SOL    HW110214   5.119   3.359   0.850
 3105SOL    HW210215   5.166   3.381   0.696
 3106SOL     OW10216   5.187   0.435   5.761
 3106SOL    HW110217   5.211   0.504   5.830
 3106SOL    HW210218   5.114   0.377   5.796
 3107SOL     OW10219   4.171   1.879   4.648
 3107SOL    HW110220   4.214   1.906   4.734
 3107SOL    HW210221   4.203   1.939   4.575
 3108SOL     OW10222   2.260   4.695   4.640
 3108SOL    HW110223   2.344   4.666   4.684
 3108SOL    HW210224   2.182   4.649   4.683
 3109SOL     OW10225   6.290   0.299   5.013
 3109SOL    HW110226   6.346   0.352   5.077
 3109SOL    HW210227   6.338   0.215   4.988
 3110SOL     OW10228   2.429   4.480   3.274
 3110SOL    HW110229   2.482   4.490   3.358
 3110SOL    HW210230   2.374   4.397   3.280
 3111SOL     OW10231   6.482   4.737   3.782
 3111SOL    HW110232   6.391   4.700   3.767
 3111SOL    HW210233   6.548   4.662   3.787
 3112SOL     OW10234   3.298   3.476   6.723
 3112SOL    HW110235   3.370   3.407   6.727
 3112SOL    HW210236   3.224   3.444   6.664
 3113SOL     OW10237   3.150   5.560   2.421
 3113SOL    HW110238   3.232   5.534   2.472
 3113SOL    HW210239   3.148   5.659   2.409
 3114SOL     OW10240   3.993   1.202   0.329
 3114SOL    HW110241   3.941   1.216   0.413
 3114SOL    HW210242   4.069   1.140   0.346
 3115SOL     OW10243   4.235   4.590   5.332
 3115SOL    HW110244   4.253   4.564   5.427
 3115SOL    HW210245   4.278   4.523   5.271
 3116SOL     OW10246   1.073   1.959   0.633
 3116SOL    HW110247   1.022   1.874   0.647
 3116SOL    HW210248   1.010   2.036   0.628
 3117SOL     OW10249   4.909   2.588   5.423
 3117SOL    HW110250   5.000   2.563   5.456
 3117SOL    HW210251   4.917   2.641   5.339
 3118SOL     OW10252   1.435   0.302   2.620
 3118SOL    HW110253   1.424   0.335   2.526
 3118SOL    HW210254   1.420   0.377   2.684
 3119SOL     OW10255   2.927   2.465   5.369
 3119SOL    HW110256   3.014   2.443   5.324
 3119SOL    HW210257   2.917   2.564   5.375
 3120SOL     OW10258   3.230   0.396   5.520
 3120SOL    HW110259   3.201   0.300   5.514
 3120SOL    HW210260   3.241   0.433   5.427
 3121SOL     OW10261   4.975   1.831   4.314
 3121SOL    HW110262   5.004   1.735   4.323
 3121SOL    HW210263   5.026   1.875   4.241
 3122SOL     OW10264   4.505   4.510   4.764
 3122SOL    HW110265   4.528   4.589   4.707
 3122SOL    HW210266   4.454   4.540   4.844
 3123SOL     OW10267   2.005   0.530   3.465
 3123SOL    HW110268   2.080   0.596   3.471
 3123SOL    HW210269   1.974   0.506   3.557
 3124SOL     OW10270   5.352   6.616   4.311
 3124SOL    HW110271   5.273   6.662   4.271
 3124SOL    HW210272   5.325   6.567   4.393
 3125SOL     OW10273   0.852   2.833   5.736
 3125SOL    HW110274   0.913   2.812   5.659
 3125SOL    HW210275   0.768   2.779   5.727
 3126SOL     OW10276   5.719   4.744   6.075
 3126SOL    HW110277   5.765   4.830   6.054
 3126SOL    HW210278   5.625   4.747   6.040
 3127SOL     OW10279   1.524   2.587   5.318
 3127SOL    HW110280   1.572   2.674   5.305
 3127SOL    HW210281   1.572   2.515   5.268
 3128SOL     OW10282   3.700   0.767   0.662
 3128SOL    HW110283   3.743   0.677   0.674
 3128SOL    HW210284   3.760   0.825   0.606
 3129SOL     OW10285   5.404   3.235   0.920
 3129SOL    HW110286   5.328   3.262   0.860
 3129SOL    HW210287   5.399   3.287   1.005
 3130SOL     OW10288   1.624   4.254   1.303
 3130SOL    HW110289   1.615   4.334   1.362
 3130SOL    HW210290   1.642   4.173   1.359
 3131SOL     OW10291   0.045   3.501   2.317
 3131SOL    HW110292   0.109   3.457   2.254
 3131SOL    HW210293   0.057   3.600   2.313
 3132SOL     OW10294   4.315   5.087   6.872
 3132SOL    HW110295   4.309   5.099   6.971
 3132SOL    HW210296   4.409   5.098   6.843
 3133SOL     OW10297   3.760   1.525   3.549
 3133SOL    HW110298   3.849   1.550   3.512
 3133SOL    HW210299   3.763   1.528   3.649
 3134SOL     OW10300   3.711   5.003   1.713
 3134SOL    HW110301   3.772   4.993   1.792
 3134SOL    HW210302   3.705   4.916   1.664
 3135SOL     OW10303   5.464   6.607   6.428
 3135SOL    HW110304   5.534   6.540   6.401
 3135SOL    HW210305   5.450   6.602   6.527
 3136SOL     OW10306   5.632   0.668   1.983
 3136SOL    HW110307   5.632   0.739   2.053
 3136SOL    HW210308   5.691   0.593   2.011
 3137SOL     OW10309   6.684   6.999   2.243
 3137SOL    HW110310   6.609   0.031   2.282
 3137SOL    HW210311   6.692   7.019   2.145
 3138SOL     OW10312   6.102   5.265   3.658
 3138SOL    HW110313   6.051   5.218   3.585
 3138SOL    HW210314   6.199   5.246   3.648
 3139SOL     OW10315   3.624   4.787   1.363
 3139SOL    HW110316   3.544   4.733   1.387
 3139SOL    HW210317   3.659   4.757   1.274
 3140SOL     OW10318   0.003   5.922   5.288
 3140SOL    HW110319   0.062   5.841   5.276
 3140SOL    HW210320   0.058   5.998   5.322
 3141SOL     OW10321   6.966   1.751   0.291
 3141SOL    HW110322   6.988   1.846   0.312
 3141SOL    HW210323   6.912   1.712   0.365
 3142SOL     OW10324   3.901   1.247   2.653
 3142SOL    HW110325   3.842   1.235   2.732
 3142SOL    HW210326   3.943   1.338   2.655
 3143SOL     OW10327   6.395   1.786   0.000
 3143SOL    HW110328   6.371   1.883   7.016
 3143SOL    HW210329   6.461   1.773   0.075
 3144SOL     OW10330   4.051   3.818   6.938
 3144SOL    HW110331   3.963   3.849   6.975
 3144SOL    HW210332   4.099   3.896   6.897
 3145SOL     OW10333   1.760   6.758   2.190
 3145SOL    HW110334   1.779   6.773   2.287
 3145SOL    HW210335   1.835   6.704   2.150
 3146SOL     OW10336   1.053   1.075   4.948
 3146SOL    HW110337   1.094   1.073   5.039
 3146SOL    HW210338   1.123   1.092   4.879
 3147SOL     OW10339   3.236   5.307   6.631
 3147SOL    HW110340   3.267   5.294   6.537
 3147SOL    HW210341   3.287   5.245   6.692
 3148SOL     OW10342   0.223   0.372   3.796
 3148SOL    HW110343   0.269   0.362   3.708
 3148SOL    HW210344   0.134   0.416   3.783
 3149SOL     OW10345   3.162   1.279   6.314
 3149SOL    HW110346   3.183   1.320   6.403
 3149SOL    HW210347   3.084   1.216   6.325
 3150SOL     OW10348   6.410   5.470   5.963
 3150SOL    HW110349   6.403   5.470   5.863
 3150SOL    HW210350   6.471   5.397   5.992
 3151SOL     OW10351   0.187   2.128   6.082
 3151SOL    HW110352   0.161   2.035   6.058
 3151SOL    HW210353   0.157   2.147   6.176
 3152SOL     OW10354   1.074   4.309   6.707
 3152SOL    HW110355   1.171   4.328   6.692
 3152SOL    HW210356   1.039   4.250   6.633
 3153SOL     OW10357   6.230   5.002   0.465
 3153SOL    HW110358   6.238   4.999   0.366
 3153SOL    HW210359   6.178   5.083   0.492
 3154SOL     OW10360   5.792   1.003   1.046
 3154SOL    HW110361   5.856   1.076   1.071
 3154SOL    HW210362   5.704   1.020   1.091
 3155SOL     OW10363   6.389   4.492   0.352
 3155SOL    HW110364   6.467   4.448   0.308
 3155SOL    HW210365   6.422   4.544   0.432
 3156SOL     OW10366   3.624   3.965   2.039
 3156SOL    HW110367   3.648   3.950   2.135
 3156SOL    HW210368   3.525   3.961   2.028
 3157SOL     OW10369   1.620   1.895   5.064
 3157SOL    HW110370   1.530   1.934   5.081
 3157SOL    HW210371   1.636   1.887   4.966
 3158SOL     OW10372   2.602   1.591   5.464
 3158SOL    HW110373   2.518   1.628   5.426
 3158SOL    HW210374   2.652   1.663   5.512
 3159SOL     OW10375   5.360   0.581   6.852
 3159SOL    HW110376   5.367   0.632   6.767
 3159SOL    HW210377   5.382   0.641   6.929
 3160SOL     OW10378   2.086   6.808   5.237
 3160SOL    HW110379   2.063   6.713   5.217
 3160SOL    HW210380   2.182   6.825   5.214
 3161SOL     OW10381   2.135   2.700   2.787
 3161SOL    HW110382   2.145   2.608   2.825
 3161SOL    HW210383   2.164   2.767   2.856
 3162SOL     OW10384   2.062   5.793   0.390
 3162SOL    HW110385   1.995   5.864   0.410
 3162SOL    HW210386   2.056   5.722   0.460
 3163SOL     OW10387   3.510   3.383   0.524
 3163SOL    HW110388   3.596   3.422   0.557
 3163SOL    HW210389   3.466   3.333   0.599
 3164SOL     OW10390   3.613   5.732   2.139
 3164SOL    HW110391   3.645   5.780   2.058
 3164SOL    HW210392   3.624   5.633   2.126
 3165SOL     OW10393   1.064   5.667   1.196
 3165SOL    HW110394   1.016   5.583   1.172
 3165SOL    HW210395   1.016   5.713   1.270
 3166SOL     OW10396   4.465   1.550   4.065
 3166SOL    HW110397   4.432   1.492   4.140
 3166SOL    HW210398   4.464   1.497   3.980
 3167SOL     OW10399   5.551   4.705   0.858
 3167SOL    HW110400   5.495   4.639   0.908
 3167SOL    HW210401   5.610   4.755   0.921
 3168SOL     OW10402   5.934   2.498   0.829
 3168SOL    HW110403   5.897   2.582   0.868
 3168SOL    HW210404   5.926   2.423   0.895
 3169SOL     OW10405   1.900   4.420   3.126
 3169SOL    HW110406   1.968   4.415   3.053
 3169SOL    HW210407   1.899   4.512   3.165
 3170SOL     OW10408   4.058   5.798   2.757
 3170SOL    HW110409   3.987   5.764   2.819
 3170SOL    HW210410   4.105   5.875   2.799
 3171SOL     OW10411   5.518   2.225   1.776
 3171SOL    HW110412   5.501   2.264   1.866
 3171SOL    HW210413   5.608   2.182   1.775
 3172SOL     OW10414   0.559   5.552   0.043
 3172SOL    HW110415   0.610   5.494   0.106
 3172SOL    HW210416   0.582   5.528   6.970
 3173SOL     OW10417   2.857   2.472   6.789
 3173SOL    HW110418   2.808   2.399   6.742
 3173SOL    HW210419   2.947   2.484   6.747
 3174SOL     OW10420   2.576   2.813   6.270
 3174SOL    HW110421   2.489   2.831   6.224
 3174SOL    HW210422   2.610   2.897   6.311
 3175SOL     OW10423   5.666   1.015   1.919
 3175SOL    HW110424   5.720   0.958   1.856
 3175SOL    HW210425   5.641   0.961   2.000
 3176SOL     OW10426   0.412   2.749   5.404
 3176SOL    HW110427   0.473   2.822   5.435
 3176SOL    HW210428   0.460   2.661   5.411
 3177SOL     OW10429   5.130   4.180   3.922
 3177SOL    HW110430   5.144   4.099   3.978
 3177SOL    HW210431   5.041   4.220   3.942
 3178SOL     OW10432   6.290   2.293   0.194
 3178SOL    HW110433   6.308   2.232   0.117
 3178SOL    HW210434   6.193   2.291   0.216
 3179SOL     OW10435   1.221   1.756   1.829
 3179SOL    HW110436   1.268   1.675   1.864
 3179SOL    HW210437   1.268   1.838   1.862
 3180SOL     OW10438   5.615   6.748   0.408
 3180SOL    HW110439   5.563   6.674   0.364
 3180SOL    HW210440   5.590   6.835   0.367
 3181SOL     OW10441   6.597   1.385   4.313
 3181SOL    HW110442   6.595   1.292   4.350
 3181SOL    HW210443   6.656   1.442   4.370
 3182SOL     OW10444   2.744   0.797   6.551
 3182SOL    HW110445   2.837   0.762   6.535
 3182SOL    HW210446   2.730   0.877   6.494
 3183SOL     OW10447   4.462   4.840   2.367
 3183SOL    HW110448   4.555   4.834   2.329
 3183SOL    HW210449   4.399   4.870   2.295
 3184SOL     OW10450   0.301   2.000   2.548
 3184SOL    HW110451   0.394   1.992   2.512
 3184SOL    HW210452   0.283   1.923   2.610
 3185SOL     OW10453   5.968   6.531   6.409
 3185SOL    HW110454   5.919   6.505   6.326
 3185SOL    HW210455   5.906   6.579   6.471
 3186SOL     OW10456   2.933   1.532   0.749
 3186SOL    HW110457   2.948   1.543   0.848
 3186SOL    HW210458   2.864   1.598   0.719
 3187SOL     OW10459   3.115   5.260   2.007
 3187SOL    HW110460   3.057   5.322   2.060
 3187SOL    HW210461   3.191   5.229   2.063
 3188SOL     OW10462   2.207   5.841   4.678
 3188SOL    HW110463   2.176   5.868   4.769
 3188SOL    HW210464   2.168   5.904   4.610
 3189SOL     OW10465   2.131   1.545   0.380
 3189SOL    HW110466   2.035   1.569   0.394
 3189SOL    HW210467   2.139   1.447   0.359
 3190SOL     OW10468   6.441   5.748   6.729
 3190SOL    HW110469   6.464   5.832   6.679
 3190SOL    HW210470   6.508   5.734   6.802
 3191SOL     OW10471   4.544   5.229   1.779
 3191SOL    HW110472   4.604   5.162   1.736
 3191SOL    HW210473   4.586   5.261   1.864
 3192SOL     OW10474   0.019   2.625   0.874
 3192SOL    HW110475   0.004   2.577   0.960
 3192SOL    HW210476   6.980   2.704   0.868
 3193SOL     OW10477   4.038   1.246   4.952
 3193SOL    HW110478   4.109   1.209   4.892
 3193SOL    HW210479   4.058   1.341   4.972
 3194SOL     OW10480   0.631   1.336   5.033
 3194SOL    HW110481   0.533   1.338   5.014
 3194SOL    HW210482   0.672   1.423   5.006
 3195SOL     OW10483   0.545   1.401   1.547
 3195SOL    HW110484   0.612   1.356   1.606
 3195SOL    HW210485   0.460   1.347   1.545
 3196SOL     OW10486   6.734   0.561   6.579
 3196SOL    HW110487   6.688   0.544   6.667
 3196SOL    HW210488   6.831   0.540   6.589
 3197SOL     OW10489   2.350   6.787   5.486
 3197SOL    HW110490   2.264   6.738   5.474
 3197SOL    HW210491   2.333   6.885   5.484
 3198SOL     OW10492   6.321   2.265   3.012
 3198SOL    HW110493   6.243   2.321   2.983
 3198SOL    HW210494   6.402   2.323   3.022
 3199SOL     OW10495   5.369   4.907   2.911
 3199SOL    HW110496   5.350   4.931   3.006
 3199SOL    HW210497   5.305   4.954   2.851
 3200SOL     OW10498   6.238   2.955   2.863
 3200SOL    HW110499   6.287   2.869   2.878
 3200SOL    HW210500   6.158   2.958   2.922
 3201SOL     OW10501   6.613   5.009   3.379
 3201SOL    HW110502   6.710   4.991   3.399
 3201SOL    HW210503   6.593   4.984   3.285
 3202SOL     OW10504   0.979   5.040   0.723
 3202SOL    HW110505   0.882   5.063   0.717
 3202SOL    HW210506   1.006   5.030   0.819
 3203SOL     OW10507   5.586   1.636   1.331
 3203SOL    HW110508   5.676   1.629   1.374
 3203SOL    HW210509   5.562   1.733   1.319
 3204SOL     OW10510   3.173   0.806   2.932
 3204SOL    HW110511   3.183   0.844   2.840
 3204SOL    HW210512   3.218   0.717   2.936
 3205SOL     OW10513   5.045   2.989   5.435
 3205SOL    HW110514   5.082   3.070   5.479
 3205SOL    HW210515   4.946   2.986   5.447
 3206SOL     OW10516   2.180   3.901   1.261
 3206SOL    HW110517   2.197   3.993   1.225
 3206SOL    HW210518   2.103   3.860   1.211
 3207SOL     OW10519   1.407   0.902   6.685
 3207SOL    HW110520   1.471   0.847   6.633
 3207SOL    HW210521   1.457   0.958   6.751
 3208SOL     OW10522   5.707   5.902   6.183
 3208SOL    HW110523   5.649   5.983   6.187
 3208SOL    HW210524   5.713   5.860   6.273
 3209SOL     OW10525   3.237   5.121   4.874
 3209SOL    HW110526   3.261   5.059   4.949
 3209SOL    HW210527   3.140   5.143   4.878
 3210SOL     OW10528   1.337   4.955   1.230
 3210SOL    HW110529   1.400   4.968   1.154
 3210SOL    HW210530   1.296   4.863   1.223
 3211SOL     OW10531   2.070   4.595   0.661
 3211SOL    HW110532   2.121   4.545   0.591
 3211SOL    HW210533   2.126   4.603   0.744
 3212SOL     OW10534   3.497   6.795   2.372
 3212SOL    HW110535   3.534   6.727   2.308
 3212SOL    HW210536   3.562   6.810   2.446
 3213SOL     OW10537   1.775   0.437   6.654
 3213SOL    HW110538   1.832   0.357   6.671
 3213SOL    HW210539   1.682   0.407   6.632
 3214SOL     OW10540   4.527   6.233   2.588
 3214SOL    HW110541   4.584   6.315   2.581
 3214SOL    HW210542   4.585   6.152   2.581
 3215SOL     OW10543   0.709   4.114   1.052
 3215SOL    HW110544   0.692   4.202   1.007
 3215SOL    HW210545   0.624   4.080   1.092
 3216SOL     OW10546   5.726   5.474   0.936
 3216SOL    HW110547   5.643   5.425   0.906
 3216SOL    HW210548   5.806   5.419   0.913
 3217SOL     OW10549   0.203   5.649   2.403
 3217SOL    HW110550   0.275   5.581   2.411
 3217SOL    HW210551   0.236   5.726   2.349
 3218SOL     OW10552   6.094   2.367   2.856
 3218SOL    HW110553   6.144   2.381   2.771
 3218SOL    HW210554   6.020   2.434   2.862
 3219SOL     OW10555   6.774   0.416   4.663
 3219SOL    HW110556   6.718   0.431   4.745
 3219SOL    HW210557   6.837   0.341   4.679
 3220SOL     OW10558   0.307   5.657   6.383
 3220SOL    HW110559   0.353   5.694   6.302
 3220SOL    HW210560   0.263   5.731   6.433
 3221SOL     OW10561   3.201   6.740   2.581
 3221SOL    HW110562   3.299   6.744   2.600
 3221SOL    HW210563   3.172   6.825   2.536
 3222SOL     OW10564   3.008   0.942   2.361
 3222SOL    HW110565   2.917   0.956   2.322
 3222SOL    HW210566   3.067   1.018   2.335
 3223SOL     OW10567   2.705   6.972   0.178
 3223SOL    HW110568   2.703   6.903   0.105
 3223SOL    HW210569   2.797   6.978   0.215
 3224SOL     OW10570   4.759   2.569   5.008
 3224SOL    HW110571   4.664   2.550   5.032
 3224SOL    HW210572   4.788   2.505   4.936
 3225SOL     OW10573   4.535   1.451   5.397
 3225SOL    HW110574   4.514   1.369   5.451
 3225SOL    HW210575   4.634   1.462   5.391
 3226SOL     OW10576   2.183   0.586   1.975
 3226SOL    HW110577   2.105   0.578   2.037
 3226SOL    HW210578   2.150   0.607   1.883
 3227SOL     OW10579   3.451   3.208   6.734
 3227SOL    HW110580   3.540   3.251   6.746
 3227SOL    HW210581   3.440   3.181   6.639
 3228SOL     OW10582   6.680   3.793   0.667
 3228SOL    HW110583   6.712   3.762   0.756
 3228SOL    HW210584   6.603   3.735   0.638
 3229SOL     OW10585   3.664   0.468   5.537
 3229SOL    HW110586   3.731   0.533   5.573
 3229SOL    HW210587   3.573   0.508   5.539
 3230SOL     OW10588   1.721   5.703   6.073
 3230SOL    HW110589   1.782   5.708   6.152
 3230SOL    HW210590   1.774   5.718   5.989
 3231SOL     OW10591   2.546   0.748   2.868
 3231SOL    HW110592   2.632   0.789   2.836
 3231SOL    HW210593   2.562   0.653   2.895
 3232SOL     OW10594   4.129   5.831   4.038
 3232SOL    HW110595   4.069   5.862   3.964
 3232SOL    HW210596   4.224   5.832   4.007
 3233SOL     OW10597   0.188   2.743   0.582
 3233SOL    HW110598   0.100   2.784   0.606
 3233SOL    HW210599   0.196   2.653   0.626
 3234SOL     OW10600   1.053   2.979   0.151
 3234SOL    HW110601   0.954   2.978   0.136
 3234SOL    HW210602   1.101   2.951   0.068
 3235SOL     OW10603   6.538   0.102   1.960
 3235SOL    HW110604   6.446   0.075   1.987
 3235SOL    HW210605   6.561   0.059   1.873
 3236SOL     OW10606   1.025   4.525   0.770
 3236SOL    HW110607   1.020   4.611   0.719
 3236SOL    HW210608   1.089   4.463   0.725
 3237SOL     OW10609   6.107   1.209   2.536
 3237SOL    HW110610   6.020   1.253   2.561
 3237SOL    HW210611   6.106   1.186   2.439
 3238SOL     OW10612   5.860   5.250   0.228
 3238SOL    HW110613   5.923   5.223   0.155
 3238SOL    HW210614   5.786   5.184   0.234
 3239SOL     OW10615   0.213   0.758   3.567
 3239SOL    HW110616   0.165   0.674   3.540
 3239SOL    HW210617   0.155   0.837   3.547
 3240SOL     OW10618   0.606   0.508   5.856
 3240SOL    HW110619   0.572   0.582   5.913
 3240SOL    HW210620   0.597   0.421   5.905
 3241SOL     OW10621   5.225   1.617   5.784
 3241SOL    HW110622   5.234   1.519   5.797
 3241SOL    HW210623   5.140   1.649   5.826
 3242SOL     OW10624   4.610   3.811   5.990
 3242SOL    HW110625   4.525   3.770   6.022
 3242SOL    HW210626   4.611   3.812   5.890
 3243SOL     OW10627   4.496   5.407   0.055
 3243SOL    HW110628   4.581   5.356   0.058
 3243SOL    HW210629   4.514   5.503   0.078
 3244SOL     OW10630   5.917   6.221   6.982
 3244SOL    HW110631   5.836   6.275   6.960
 3244SOL    HW210632   5.954   6.251   0.048
 3245SOL     OW10633   4.762   1.786   4.651
 3245SOL    HW110634   4.677   1.733   4.654
 3245SOL    HW210635   4.838   1.729   4.680
 3246SOL     OW10636   6.591   6.934   2.802
 3246SOL    HW110637   6.623   6.975   2.716
 3246SOL    HW210638   6.660   6.871   2.837
 3247SOL     OW10639   6.319   4.669   2.134
 3247SOL    HW110640   6.371   4.595   2.177
 3247SOL    HW210641   6.346   4.756   2.174
 3248SOL     OW10642   5.320   2.215   2.751
 3248SOL    HW110643   5.398   2.185   2.696
 3248SOL    HW210644   5.351   2.275   2.824
 3249SOL     OW10645   3.557   3.717   3.717
 3249SOL    HW110646   3.556   3.698   3.815
 3249SOL    HW210647   3.463   3.723   3.683
 3250SOL     OW10648   5.369   0.433   2.879
 3250SOL    HW110649   5.425   0.398   2.803
 3250SOL    HW210650   5.424   0.492   2.937
 3251SOL     OW10651   2.975   0.918   4.296
 3251SOL    HW110652   2.911   0.842   4.284
 3251SOL    HW210653   2.977   0.973   4.212
 3252SOL     OW10654   3.006   0.484   2.449
 3252SOL    HW110655   2.981   0.556   2.385
 3252SOL    HW210656   3.029   0.525   2.538
 3253SOL     OW10657   4.538   3.546   0.482
 3253SOL    HW110658   4.583   3.534   0.393
 3253SOL    HW210659   4.442   3.568   0.467
 3254SOL     OW10660   4.950   6.490   6.840
 3254SOL    HW110661   4.893   6.475   6.759
 3254SOL    HW210662   4.926   6.577   6.882
 3255SOL     OW10663   4.745   6.722   1.260
 3255SOL    HW110664   4.645   6.730   1.261
 3255SOL    HW210665   4.781   6.767   1.179
 3256SOL     OW10666   3.542   2.050   1.023
 3256SOL    HW110667   3.598   2.020   0.946
 3256SOL    HW210668   3.557   1.990   1.101
 3257SOL     OW10669   2.012   1.596   1.752
 3257SOL    HW110670   2.003   1.588   1.851
 3257SOL    HW210671   1.962   1.677   1.721
 3258SOL     OW10672   4.012   5.405   3.348
 3258SOL    HW110673   3.989   5.502   3.353
 3258SOL    HW210674   4.086   5.391   3.282
 3259SOL     OW10675   4.757   5.415   4.350
 3259SOL    HW110676   4.762   5.354   4.429
 3259SOL    HW210677   4.763   5.510   4.381
 3260SOL     OW10678   1.627   3.405   1.377
 3260SOL    HW110679   1.567   3.391   1.456
 3260SOL    HW210680   1.720   3.376   1.400
 3261SOL     OW10681   5.203   0.660   1.256
 3261SOL    HW110682   5.109   0.669   1.223
 3261SOL    HW210683   5.259   0.733   1.218
 3262SOL     OW10684   3.860   2.035   1.923
 3262SOL    HW110685   3.839   2.014   1.828
 3262SOL    HW210686   3.781   2.079   1.966
 3263SOL     OW10687   3.303   1.152   2.591
 3263SOL    HW110688   3.392   1.197   2.583
 3263SOL    HW210689   3.295   1.110   2.681
 3264SOL     OW10690   1.910   5.498   0.955
 3264SOL    HW110691   1.896   5.424   0.890
 3264SOL    HW210692   2.007   5.510   0.973
 3265SOL     OW10693   5.612   6.973   6.639
 3265SOL    HW110694   5.577   6.931   6.556
 3265SOL    HW210695   5.608   0.051   6.631
 3266SOL     OW10696   3.044   4.628   6.681
 3266SOL    HW110697   2.987   4.691   6.629
 3266SOL    HW210698   3.126   4.605   6.628
 3267SOL     OW10699   2.715   6.850   2.476
 3267SOL    HW110700   2.747   6.773   2.532
 3267SOL    HW210701   2.750   6.935   2.515
 3268SOL     OW10702   1.790   4.593   1.230
 3268SOL    HW110703   1.794   4.634   1.321
 3268SOL    HW210704   1.695   4.569   1.209
 3269SOL     OW10705   6.761   5.801   1.999
 3269SOL    HW110706   6.757   5.703   1.979
 3269SOL    HW210707   6.806   5.849   1.924
 3270SOL     OW10708   1.584   3.480   6.955
 3270SOL    HW110709   1.493   3.460   6.919
 3270SOL    HW210710   1.616   3.403   7.009
 3271SOL     OW10711   0.002   3.120   1.800
 3271SOL    HW110712   7.009   3.031   1.842
 3271SOL    HW210713   6.987   3.191   1.860
 3272SOL     OW10714   2.868   4.432   6.663
 3272SOL    HW110715   2.937   4.502   6.680
 3272SOL    HW210716   2.889   4.350   6.717
 3273SOL     OW10717   6.687   5.099   6.883
 3273SOL    HW110718   6.704   5.086   6.981
 3273SOL    HW210719   6.771   5.127   6.838
 3274SOL     OW10720   5.869   0.419   0.722
 3274SOL    HW110721   5.923   0.432   0.805
 3274SOL    HW210722   5.851   0.322   0.708
 3275SOL     OW10723   4.627   1.123   6.985
 3275SOL    HW110724   4.706   1.182   6.999
 3275SOL    HW210725   4.656   1.034   6.952
 3276SOL     OW10726   4.157   6.583   6.809
 3276SOL    HW110727   4.150   6.597   6.908
 3276SOL    HW210728   4.066   6.566   6.771
 3277SOL     OW10729   3.708   1.380   1.060
 3277SOL    HW110730   3.765   1.298   1.059
 3277SOL    HW210731   3.667   1.392   1.150
 3278SOL     OW10732   1.357   0.991   5.813
 3278SOL    HW110733   1.267   0.964   5.779
 3278SOL    HW210734   1.417   0.911   5.815
 3279SOL     OW10735   5.303   0.112   0.677
 3279SOL    HW110736   5.283   0.170   0.598
 3279SOL    HW210737   5.224   0.054   0.696
 3280SOL     OW10738   4.869   4.837   4.801
 3280SOL    HW110739   4.967   4.837   4.783
 3280SOL    HW210740   4.821   4.787   4.728
 3281SOL     OW10741   0.854   5.248   1.083
 3281SOL    HW110742   0.831   5.343   1.063
 3281SOL    HW210743   0.912   5.244   1.164
 3282SOL     OW10744   6.694   4.830   5.243
 3282SOL    HW110745   6.606   4.846   5.288
 3282SOL    HW210746   6.761   4.800   5.311
 3283SOL     OW10747   3.347   1.057   1.333
 3283SOL    HW110748   3.353   0.958   1.320
 3283SOL    HW210749   3.356   1.103   1.244
 3284SOL     OW10750   1.123   5.908   5.766
 3284SOL    HW110751   1.049   5.972   5.748
 3284SOL    HW210752   1.111   5.868   5.857
 3285SOL     OW10753   4.749   2.342   4.855
 3285SOL    HW110754   4.723   2.271   4.920
 3285SOL    HW210755   4.808   2.302   4.784
 3286SOL     OW10756   3.363   2.675   1.650
 3286SOL    HW110757   3.328   2.583   1.669
 3286SOL    HW210758   3.393   2.718   1.735
 3287SOL     OW10759   0.651   0.279   0.396
 3287SOL    HW110760   0.742   0.248   0.368
 3287SOL    HW210761   0.632   0.368   0.355
 3288SOL     OW10762   1.810   6.910   0.327
 3288SOL    HW110763   1.901   6.873   0.309
 3288SOL    HW210764   1.774   6.952   0.243
 3289SOL     OW10765   2.580   1.347   5.999
 3289SOL    HW110766   2.511   1.385   5.938
 3289SOL    HW210767   2.621   1.420   6.053
 3290SOL     OW10768   6.630   5.074   0.778
 3290SOL    HW110769   6.550   5.038   0.731
 3290SOL    HW210770   6.665   5.006   0.841
 3291SOL     OW10771   2.499   0.978   5.750
 3291SOL    HW110772   2.596   0.967   5.726
 3291SOL    HW210773   2.492   1.024   5.839
 3292SOL     OW10774   0.241   1.101   0.434
 3292SOL    HW110775   0.223   1.108   0.532
 3292SOL    HW210776   0.273   1.188   0.399
 3293SOL     OW10777   6.520   4.812   1.663
 3293SOL    HW110778   6.581   4.758   1.604
 3293SOL    HW210779   6.440   4.756   1.687
 3294SOL     OW10780   4.929   2.522   6.062
 3294SOL    HW110781   4.955   2.521   6.159
 3294SOL    HW210782   4.936   2.430   6.025
 3295SOL     OW10783   1.113   3.310   1.871
 3295SOL    HW110784   1.099   3.340   1.965
 3295SOL    HW210785   1.130   3.212   1.869
 3296SOL     OW10786   0.947   0.703   3.403
 3296SOL    HW110787   0.914   0.775   3.464
 3296SOL    HW210788   0.987   0.629   3.458
 3297SOL     OW10789   2.721   1.344   5.618
 3297SOL    HW110790   2.760   1.274   5.557
 3297SOL    HW210791   2.623   1.353   5.599
 3298SOL     OW10792   6.592   2.265   5.836
 3298SOL    HW110793   6.686   2.272   5.870
 3298SOL    HW210794   6.530   2.249   5.913
 3299SOL     OW10795   3.579   6.037   3.172
 3299SOL    HW110796   3.513   6.086   3.115
 3299SOL    HW210797   3.621   5.963   3.119
 3300SOL     OW10798   1.572   0.585   6.190
 3300SOL    HW110799   1.532   0.494   6.195
 3300SOL    HW210800   1.505   0.653   6.222
 3301SOL     OW10801   1.863   3.231   3.578
 3301SOL    HW110802   1.836   3.298   3.509
 3301SOL    HW210803   1.962   3.223   3.580
 3302SOL     OW10804   0.656   4.822   5.164
 3302SOL    HW110805   0.698   4.896   5.216
 3302SOL    HW210806   0.672   4.837   5.066
 3303SOL     OW10807   3.001   3.719   6.945
 3303SOL    HW110808   2.984   3.802   6.998
 3303SOL    HW210809   3.073   3.737   6.878
 3304SOL     OW10810   1.591   5.210   6.277
 3304SOL    HW110811   1.643   5.220   6.192
 3304SOL    HW210812   1.637   5.260   6.350
 3305SOL     OW10813   3.008   1.025   1.811
 3305SOL    HW110814   2.910   1.034   1.824
 3305SOL    HW210815   3.044   1.107   1.765
 3306SOL     OW10816   1.185   4.977   4.506
 3306SOL    HW110817   1.221   5.057   4.554
 3306SOL    HW210818   1.086   4.986   4.496
 3307SOL     OW10819   0.954   0.115   5.456
 3307SOL    HW110820   0.918   0.105   5.363
 3307SOL    HW210821   0.939   0.030   5.506
 3308SOL     OW10822   3.198   5.487   1.099
 3308SOL    HW110823   3.258   5.494   1.178
 3308SOL    HW210824   3.233   5.417   1.036
 3309SOL     OW10825   6.309   4.694   4.170
 3309SOL    HW110826   6.360   4.611   4.151
 3309SOL    HW210827   6.366   4.759   4.220
 3310SOL     OW10828   6.902   4.087   4.630
 3310SOL    HW110829   6.959   4.104   4.549
 3310SOL    HW210830   6.810   4.062   4.602
 3311SOL     OW10831   3.147   4.022   0.613
 3311SOL    HW110832   3.160   4.031   0.712
 3311SOL    HW210833   3.060   3.977   0.595
 3312SOL     OW10834   4.006   3.271   5.799
 3312SOL    HW110835   4.040   3.296   5.889
 3312SOL    HW210836   4.072   3.210   5.754
 3313SOL     OW10837   1.267   0.127   3.586
 3313SOL    HW110838   1.340   0.074   3.628
 3313SOL    HW210839   1.250   0.094   3.493
 3314SOL     OW10840   2.501   0.574   1.832
 3314SOL    HW110841   2.508   0.489   1.884
 3314SOL    HW210842   2.592   0.613   1.820
 3315SOL     OW10843   0.567   3.915   5.135
 3315SOL    HW110844   0.478   3.910   5.181
 3315SOL    HW210845   0.553   3.915   5.036
 3316SOL     OW10846   4.449   0.775   4.996
 3316SOL    HW110847   4.469   0.703   4.930
 3316SOL    HW210848   4.449   0.736   5.089
 3317SOL     OW10849   5.165   2.444   2.421
 3317SOL    HW110850   5.114   2.406   2.498
 3317SOL    HW210851   5.115   2.522   2.383
 3318SOL     OW10852   1.876   1.668   0.405
 3318SOL    HW110853   1.845   1.635   0.494
 3318SOL    HW210854   1.829   1.753   0.383
 3319SOL     OW10855   5.517   1.118   3.879
 3319SOL    HW110856   5.461   1.191   3.919
 3319SOL    HW210857   5.507   1.119   3.780
 3320SOL     OW10858   5.826   0.992   0.128
 3320SOL    HW110859   5.901   1.008   0.063
 3320SOL    HW210860   5.852   1.027   0.218
 3321SOL     OW10861   5.801   1.799   0.752
 3321SOL    HW110862   5.734   1.834   0.817
 3321SOL    HW210863   5.798   1.853   0.668
 3322SOL     OW10864   0.015   2.572   1.145
 3322SOL    HW110865   0.026   2.527   1.234
 3322SOL    HW210866   6.976   2.651   1.154
 3323SOL     OW10867   2.235   2.550   0.745
 3323SOL    HW110868   2.238   2.650   0.743
 3323SOL    HW210869   2.226   2.515   0.652
 3324SOL     OW10870   4.463   4.982   6.261
 3324SOL    HW110871   4.405   4.996   6.341
 3324SOL    HW210872   4.439   4.896   6.217
 3325SOL     OW10873   0.340   3.858   0.187
 3325SOL    HW110874   0.251   3.893   0.160
 3325SOL    HW210875   0.371   3.904   0.270
 3326SOL     OW10876   4.544   1.623   1.809
 3326SOL    HW110877   4.452   1.661   1.804
 3326SOL    HW210878   4.580   1.610   1.717
 3327SOL     OW10879   3.138   5.509   1.522
 3327SOL    HW110880   3.236   5.497   1.506
 3327SOL    HW210881   3.123   5.590   1.579
 3328SOL     OW10882   3.868   1.853   0.625
 3328SOL    HW110883   3.816   1.824   0.545
 3328SOL    HW210884   3.807   1.903   0.687
 3329SOL     OW10885   5.576   0.294   5.829
 3329SOL    HW110886   5.560   0.212   5.883
 3329SOL    HW210887   5.499   0.310   5.767
 3330SOL     OW10888   6.374   3.246   1.809
 3330SOL    HW110889   6.324   3.296   1.739
 3330SOL    HW210890   6.319   3.168   1.841
 3331SOL     OW10891   2.418   3.267   1.389
 3331SOL    HW110892   2.359   3.311   1.456
 3331SOL    HW210893   2.376   3.181   1.359
 3332SOL     OW10894   5.917   5.356   0.499
 3332SOL    HW110895   5.828   5.397   0.516
 3332SOL    HW210896   5.911   5.295   0.420
 3333SOL     OW10897   3.649   5.583   6.158
 3333SOL    HW110898   3.595   5.544   6.083
 3333SOL    HW210899   3.727   5.524   6.178
 3334SOL     OW10900   3.024   3.483   1.267
 3334SOL    HW110901   3.000   3.580   1.277
 3334SOL    HW210902   2.969   3.429   1.331
 3335SOL     OW10903   4.701   5.065   5.345
 3335SOL    HW110904   4.612   5.079   5.302
 3335SOL    HW210905   4.689   5.021   5.434
 3336SOL     OW10906   2.842   4.986   5.209
 3336SOL    HW110907   2.771   4.957   5.273
 3336SOL    HW210908   2.857   4.914   5.141
 3337SOL     OW10909   3.109   2.911   1.863
 3337SOL    HW110910   3.059   2.850   1.801
 3337SOL    HW210911   3.087   3.006   1.841
 3338SOL     OW10912   6.055   3.385   1.060
 3338SOL    HW110913   6.056   3.485   1.067
 3338SOL    HW210914   6.005   3.347   1.138
 3339SOL     OW10915   6.659   0.062   6.646
 3339SOL    HW110916   6.717   0.107   6.579
 3339SOL    HW210917   6.564   0.092   6.635
 3340SOL     OW10918   3.961   0.327   1.379
 3340SOL    HW110919   4.044   0.331   1.435
 3340SOL    HW210920   3.881   0.316   1.438
 3341SOL     OW10921   1.686   6.054   4.133
 3341SOL    HW110922   1.741   5.977   4.100
 3341SOL    HW210923   1.631   6.024   4.211
 3342SOL     OW10924   2.361   6.495   4.152
 3342SOL    HW110925   2.276   6.484   4.100
 3342SOL    HW210926   2.382   6.592   4.162
 3343SOL     OW10927   4.934   3.021   0.481
 3343SOL    HW110928   5.018   3.072   0.459
 3343SOL    HW210929   4.954   2.951   0.549
 3344SOL     OW10930   5.913   3.448   4.664
 3344SOL    HW110931   5.990   3.504   4.633
 3344SOL    HW210932   5.882   3.388   4.590
 3345SOL     OW10933   1.957   3.736   5.624
 3345SOL    HW110934   1.928   3.666   5.559
 3345SOL    HW210935   1.877   3.779   5.665
 3346SOL     OW10936   1.596   1.004   1.853
 3346SOL    HW110937   1.628   0.966   1.766
 3346SOL    HW210938   1.498   0.990   1.861
 3347SOL     OW10939   0.620   4.807   3.759
 3347SOL    HW110940   0.688   4.881   3.761
 3347SOL    HW210941   0.542   4.831   3.817
 3348SOL     OW10942   3.024   3.146   3.329
 3348SOL    HW110943   3.054   3.078   3.263
 3348SOL    HW210944   3.038   3.111   3.422
 3349SOL     OW10945   0.582   4.634   4.493
 3349SOL    HW110946   0.673   4.652   4.454
 3349SOL    HW210947   0.561   4.536   4.483
 3350SOL     OW10948   1.135   1.952   6.527
 3350SOL    HW110949   1.107   1.856   6.528
 3350SOL    HW210950   1.054   2.011   6.531
 3351SOL     OW10951   5.050   0.284   2.458
 3351SOL    HW110952   5.008   0.232   2.532
 3351SOL    HW210953   5.078   0.374   2.490
 3352SOL     OW10954   0.037   3.693   0.677
 3352SOL    HW110955   6.992   3.751   0.630
 3352SOL    HW210956   0.045   3.606   0.628
 3353SOL     OW10957   1.186   6.375   2.218
 3353SOL    HW110958   1.091   6.378   2.251
 3353SOL    HW210959   1.245   6.422   2.285
 3354SOL     OW10960   5.625   2.712   4.242
 3354SOL    HW110961   5.552   2.672   4.296
 3354SOL    HW210962   5.589   2.742   4.154
 3355SOL     OW10963   1.487   1.425   0.163
 3355SOL    HW110964   1.461   1.341   0.211
 3355SOL    HW210965   1.575   1.458   0.198
 3356SOL     OW10966   2.039   3.363   0.044
 3356SOL    HW110967   2.060   3.375   6.968
 3356SOL    HW210968   2.042   3.452   0.089
 3357SOL     OW10969   2.365   5.110   2.097
 3357SOL    HW110970   2.420   5.122   2.015
 3357SOL    HW210971   2.335   5.199   2.131
 3358SOL     OW10972   4.548   0.278   1.682
 3358SOL    HW110973   4.535   0.378   1.681
 3358SOL    HW210974   4.459   0.233   1.686
 3359SOL     OW10975   6.768   0.063   4.038
 3359SOL    HW110976   6.866   0.053   4.056
 3359SOL    HW210977   6.717   7.018   4.094
 3360SOL     OW10978   0.082   1.087   0.714
 3360SOL    HW110979   0.004   1.100   0.654
 3360SOL    HW210980   0.071   1.003   0.766
 3361SOL     OW10981   0.564   5.257   2.311
 3361SOL    HW110982   0.598   5.207   2.391
 3361SOL    HW210983   0.576   5.201   2.229
 3362SOL     OW10984   3.695   1.565   4.504
 3362SOL    HW110985   3.601   1.565   4.469
 3362SOL    HW210986   3.693   1.561   4.604
 3363SOL     OW10987   1.046   0.430   6.801
 3363SOL    HW110988   1.071   0.349   6.749
 3363SOL    HW210989   1.090   0.426   6.891
 3364SOL     OW10990   1.173   4.437   4.090
 3364SOL    HW110991   1.102   4.474   4.151
 3364SOL    HW210992   1.202   4.347   4.123
 3365SOL     OW10993   0.580   2.279   5.022
 3365SOL    HW110994   0.530   2.210   4.970
 3365SOL    HW210995   0.674   2.249   5.036
 3366SOL     OW10996   6.356   0.093   5.587
 3366SOL    HW110997   6.431   0.033   5.560
 3366SOL    HW210998   6.276   0.039   5.611
 3367SOL     OW10999   1.898   2.516   2.080
 3367SOL    HW111000   1.890   2.452   2.157
 3367SOL    HW211001   1.947   2.598   2.109
 3368SOL     OW11002   0.966   6.150   6.624
 3368SOL    HW111003   1.008   6.111   6.706
 3368SOL    HW211004   1.000   6.103   6.543
 3369SOL     OW11005   3.526   2.150   5.966
 3369SOL    HW111006   3.512   2.059   5.927
 3369SOL    HW211007   3.517   2.219   5.894
 3370SOL     OW11008   6.554   6.029   5.573
 3370SOL    HW111009   6.532   5.943   5.620
 3370SOL    HW211010   6.588   6.009   5.481
 3371SOL     OW11011   0.559   4.603   2.424
 3371SOL    HW111012   0.554   4.590   2.325
 3371SOL    HW211013   0.497   4.538   2.469
 3372SOL     OW11014   1.149   1.163   2.219
 3372SOL    HW111015   1.056   1.199   2.212
 3372SOL    HW211016   1.146   1.063   2.212
 3373SOL     OW11017   6.311   1.348   3.561
 3373SOL    HW111018   6.285   1.410   3.487
 3373SOL    HW211019   6.277   1.383   3.648
 3374SOL     OW11020   2.551   5.476   4.414
 3374SOL    HW111021   2.562   5.524   4.327
 3374SOL    HW211022   2.486   5.526   4.472
 3375SOL     OW11023   4.925   5.047   5.130
 3375SOL    HW111024   4.876   5.025   5.215
 3375SOL    HW211025   4.872   5.113   5.077
 3376SOL     OW11026   4.161   3.516   3.000
 3376SOL    HW111027   4.261   3.514   3.006
 3376SOL    HW211028   4.122   3.491   3.089
 3377SOL     OW11029   0.203   5.911   4.523
 3377SOL    HW111030   0.212   5.977   4.597
 3377SOL    HW211031   0.139   5.946   4.454
 3378SOL     OW11032   6.537   0.586   0.783
 3378SOL    HW111033   6.548   0.673   0.736
 3378SOL    HW211034   6.449   0.545   0.759
 3379SOL     OW11035   6.633   5.108   6.245
 3379SOL    HW111036   6.585   5.157   6.319
 3379SOL    HW211037   6.716   5.066   6.281
 3380SOL     OW11038   6.208   5.948   6.174
 3380SOL    HW111039   6.182   5.911   6.085
 3380SOL    HW211040   6.146   5.914   6.244
 3381SOL     OW11041   1.560   2.346   0.558
 3381SOL    HW111042   1.581   2.271   0.620
 3381SOL    HW211043   1.493   2.407   0.601
 3382SOL     OW11044   0.919   1.165   0.664
 3382SOL    HW111045   0.857   1.163   0.742
 3382SOL    HW211046   1.004   1.117   0.687
 3383SOL     OW11047   4.684   5.209   2.958
 3383SOL    HW111048   4.704   5.220   3.055
 3383SOL    HW211049   4.644   5.294   2.922
 3384SOL     OW11050   3.015   3.220   4.906
 3384SOL    HW111051   2.941   3.159   4.936
 3384SOL    HW211052   3.099   3.197   4.955
 3385SOL     OW11053   0.085   3.611   3.732
 3385SOL    HW111054   0.169   3.589   3.682
 3385SOL    HW211055   0.097   3.590   3.829
 3386SOL     OW11056   6.242   3.078   5.392
 3386SOL    HW111057   6.209   3.159   5.440
 3386SOL    HW211058   6.167   3.012   5.382
 3387SOL     OW11059   2.649   0.571   2.618
 3387SOL    HW111060   2.735   0.583   2.667
 3387SOL    HW211061   2.574   0.564   2.683
 3388SOL     OW11062   6.144   3.626   1.681
 3388SOL    HW111063   6.134   3.564   1.759
 3388SOL    HW211064   6.125   3.720   1.710
 3389SOL     OW11065   4.750   5.197   4.949
 3389SOL    HW111066   4.714   5.288   4.926
 3389SOL    HW211067   4.727   5.132   4.877
 3390SOL     OW11068   5.451   4.785   5.937
 3390SOL    HW111069   5.354   4.773   5.959
 3390SOL    HW211070   5.459   4.844   5.856
 3391SOL     OW11071   5.933   2.231   4.479
 3391SOL    HW111072   5.933   2.284   4.394
 3391SOL    HW211073   5.962   2.289   4.555
 3392SOL     OW11074   2.521   1.140   3.208
 3392SOL    HW111075   2.470   1.216   3.249
 3392SOL    HW211076   2.556   1.167   3.119
 3393SOL     OW11077   0.202   6.441   0.663
 3393SOL    HW111078   0.278   6.459   0.600
 3393SOL    HW211079   0.116   6.469   0.620
 3394SOL     OW11080   5.956   3.321   0.772
 3394SOL    HW111081   5.981   3.313   0.868
 3394SOL    HW211082   5.860   3.348   0.764
 3395SOL     OW11083   6.509   3.501   3.808
 3395SOL    HW111084   6.548   3.551   3.730
 3395SOL    HW211085   6.424   3.544   3.837
 3396SOL     OW11086   6.889   2.010   3.602
 3396SOL    HW111087   6.855   1.917   3.616
 3396SOL    HW211088   6.837   2.054   3.529
 3397SOL     OW11089   2.871   1.293   6.007
 3397SOL    HW111090   2.808   1.364   5.975
 3397SOL    HW211091   2.902   1.239   5.930
 3398SOL     OW11092   1.314   6.863   3.910
 3398SOL    HW111093   1.245   6.895   3.845
 3398SOL    HW211094   1.329   6.765   3.896
 3399SOL     OW11095   5.141   4.590   4.171
 3399SOL    HW111096   5.202   4.668   4.158
 3399SOL    HW211097   5.084   4.606   4.252
 3400SOL     OW11098   4.414   1.716   5.464
 3400SOL    HW111099   4.467   1.789   5.422
 3400SOL    HW211100   4.448   1.627   5.432
 3401SOL     OW11101   6.741   3.364   1.304
 3401SOL    HW111102   6.835   3.356   1.271
 3401SOL    HW211103   6.679   3.367   1.226
 3402SOL     OW11104   4.539   6.449   0.530
 3402SOL    HW111105   4.463   6.439   0.595
 3402SOL    HW211106   4.516   6.403   0.445
 3403SOL     OW11107   3.620   0.575   4.507
 3403SOL    HW111108   3.675   0.625   4.440
 3403SOL    HW211109   3.543   0.631   4.536
 3404SOL     OW11110   5.459   1.688   6.730
 3404SOL    HW111111   5.460   1.592   6.704
 3404SOL    HW211112   5.418   1.742   6.656
 3405SOL     OW11113   6.356   3.784   3.998
 3405SOL    HW111114   6.286   3.718   4.026
 3405SOL    HW211115   6.418   3.801   4.075
 3406SOL     OW11116   1.156   4.387   2.015
 3406SOL    HW111117   1.230   4.326   1.986
 3406SOL    HW211118   1.141   4.379   2.113
 3407SOL     OW11119   1.504   4.953   0.001
 3407SOL    HW111120   1.416   4.990   0.030
 3407SOL    HW211121   1.578   5.003   0.046
 3408SOL     OW11122   5.386   4.040   4.861
 3408SOL    HW111123   5.330   4.119   4.834
 3408SOL    HW211124   5.435   4.061   4.945
 3409SOL     OW11125   3.008   6.444   5.987
 3409SOL    HW111126   3.097   6.485   5.967
 3409SOL    HW211127   2.997   6.435   6.086
 3410SOL     OW11128   6.218   5.769   0.296
 3410SOL    HW111129   6.262   5.804   0.214
 3410SOL    HW211130   6.157   5.694   0.272
 3411SOL     OW11131   0.216   2.698   2.085
 3411SOL    HW111132   0.213   2.795   2.060
 3411SOL    HW211133   0.143   2.649   2.037
 3412SOL     OW11134   4.521   3.016   6.685
 3412SOL    HW111135   4.460   3.059   6.751
 3412SOL    HW211136   4.468   2.988   6.604
 3413SOL     OW11137   4.735   0.911   2.571
 3413SOL    HW111138   4.735   1.010   2.559
 3413SOL    HW211139   4.821   0.873   2.535
 3414SOL     OW11140   2.032   1.740   5.752
 3414SOL    HW111141   2.041   1.820   5.811
 3414SOL    HW211142   2.052   1.657   5.805
 3415SOL     OW11143   2.021   4.484   4.459
 3415SOL    HW111144   1.980   4.487   4.367
 3415SOL    HW211145   1.948   4.489   4.527
 3416SOL     OW11146   6.582   5.505   0.031
 3416SOL    HW111147   6.673   5.472   0.005
 3416SOL    HW211148   6.548   5.452   0.108
 3417SOL     OW11149   0.122   5.778   3.568
 3417SOL    HW111150   0.145   5.703   3.630
 3417SOL    HW211151   0.038   5.756   3.519
 3418SOL     OW11152   3.925   0.253   4.884
 3418SOL    HW111153   3.827   0.272   4.884
 3418SOL    HW211154   3.953   0.218   4.795
 3419SOL     OW11155   3.659   5.554   5.008
 3419SOL    HW111156   3.680   5.568   4.911
 3419SOL    HW211157   3.564   5.523   5.016
 3420SOL     OW11158   5.419   2.638   3.242
 3420SOL    HW111159   5.457   2.730   3.232
 3420SOL    HW211160   5.473   2.586   3.308
 3421SOL     OW11161   6.132   0.613   6.298
 3421SOL    HW111162   6.223   0.651   6.286
 3421SOL    HW211163   6.134   0.541   6.367
 3422SOL     OW11164   2.131   6.267   1.280
 3422SOL    HW111165   2.116   6.206   1.203
 3422SOL    HW211166   2.158   6.214   1.360
 3423SOL     OW11167   2.066   6.822   0.579
 3423SOL    HW111168   2.087   6.914   0.615
 3423SOL    HW211169   2.130   6.756   0.618
 3424SOL     OW11170   3.070   6.516   2.472
 3424SOL    HW111171   3.065   6.533   2.373
 3424SOL    HW211172   3.112   6.595   2.517
 3425SOL     OW11173   5.244   3.903   2.055
 3425SOL    HW111174   5.228   3.806   2.036
 3425SOL    HW211175   5.334   3.914   2.097
 3426SOL     OW11176   2.443   2.982   0.028
 3426SOL    HW111177   2.479   2.899   7.007
 3426SOL    HW211178   2.503   3.059   0.005
 3427SOL     OW11179   6.799   0.001   6.205
 3427SOL    HW111180   6.865   0.037   6.139
 3427SOL    HW211181   6.726   0.067   6.221
 3428SOL     OW11182   3.694   4.977   1.023
 3428SOL    HW111183   3.694   4.899   1.085
 3428SOL    HW211184   3.729   4.949   0.934
 3429SOL     OW11185   0.950   1.216   6.885
 3429SOL    HW111186   0.942   1.244   6.789
 3429SOL    HW211187   0.863   1.176   6.914
 3430SOL     OW11188   0.335   6.622   5.172
 3430SOL    HW111189   0.367   6.599   5.264
 3430SOL    HW211190   0.236   6.607   5.167
 3431SOL     OW11191   1.585   0.063   1.160
 3431SOL    HW111192   1.492   0.089   1.185
 3431SOL    HW211193   1.650   0.104   1.223
 3432SOL     OW11194   2.760   2.167   6.508
 3432SOL    HW111195   2.808   2.254   6.494
 3432SOL    HW211196   2.665   2.176   6.477
 3433SOL     OW11197   0.874   6.830   6.505
 3433SOL    HW111198   0.840   6.776   6.428
 3433SOL    HW211199   0.819   6.913   6.515
 3434SOL     OW11200   3.766   2.429   0.970
 3434SOL    HW111201   3.671   2.424   0.939
 3434SOL    HW211202   3.769   2.450   1.068
 3435SOL     OW11203   1.163   1.830   1.351
 3435SOL    HW111204   1.102   1.889   1.299
 3435SOL    HW211205   1.128   1.736   1.348
 3436SOL     OW11206   3.907   6.582   5.511
 3436SOL    HW111207   3.875   6.552   5.421
 3436SOL    HW211208   3.891   6.509   5.578
 3437SOL     OW11209   3.495   0.808   6.341
 3437SOL    HW111210   3.574   0.747   6.340
 3437SOL    HW211211   3.416   0.759   6.376
 3438SOL     OW11212   1.564   2.681   0.367
 3438SOL    HW111213   1.624   2.604   0.347
 3438SOL    HW211214   1.619   2.760   0.392
 3439SOL     OW11215   1.849   6.859   6.040
 3439SOL    HW111216   1.933   6.867   5.986
 3439SOL    HW211217   1.770   6.882   5.982
 3440SOL     OW11218   4.095   3.392   1.365
 3440SOL    HW111219   4.075   3.296   1.382
 3440SOL    HW211220   4.106   3.440   1.452
 3441SOL     OW11221   4.790   0.342   3.795
 3441SOL    HW111222   4.848   0.422   3.808
 3441SOL    HW211223   4.725   0.335   3.871
 3442SOL     OW11224   3.210   4.905   2.394
 3442SOL    HW111225   3.122   4.866   2.369
 3442SOL    HW211226   3.234   4.876   2.487
 3443SOL     OW11227   5.689   0.378   2.228
 3443SOL    HW111228   5.632   0.338   2.155
 3443SOL    HW211229   5.635   0.445   2.279
 3444SOL     OW11230   4.903   5.361   6.769
 3444SOL    HW111231   4.998   5.331   6.761
 3444SOL    HW211232   4.857   5.348   6.681
 3445SOL     OW11233   5.981   5.363   4.068
 3445SOL    HW111234   6.033   5.432   4.119
 3445SOL    HW211235   6.044   5.296   4.029
 3446SOL     OW11236   6.011   0.888   2.918
 3446SOL    HW111237   6.003   0.796   2.956
 3446SOL    HW211238   5.986   0.955   2.987
 3447SOL     OW11239   5.544   4.350   1.040
 3447SOL    HW111240   5.572   4.279   0.976
 3447SOL    HW211241   5.445   4.345   1.054
 3448SOL     OW11242   2.805   0.051   1.016
 3448SOL    HW111243   2.903   0.040   0.999
 3448SOL    HW211244   2.791   0.125   1.082
 3449SOL     OW11245   6.268   6.248   4.094
 3449SOL    HW111246   6.218   6.252   4.180
 3449SOL    HW211247   6.203   6.250   4.018
 3450SOL     OW11248   0.676   2.850   6.703
 3450SOL    HW111249   0.659   2.938   6.747
 3450SOL    HW211250   0.764   2.852   6.656
 3451SOL     OW11251   1.076   5.446   3.033
 3451SOL    HW111252   1.063   5.368   3.094
 3451SOL    HW211253   1.156   5.497   3.061
 3452SOL     OW11254   5.678   2.068   6.882
 3452SOL    HW111255   5.687   1.979   6.838
 3452SOL    HW211256   5.688   2.057   6.981
 3453SOL     OW11257   6.804   6.299   5.885
 3453SOL    HW111258   6.751   6.380   5.861
 3453SOL    HW211259   6.897   6.327   5.909
 3454SOL     OW11260   1.884   0.903   6.836
 3454SOL    HW111261   1.869   0.807   6.859
 3454SOL    HW211262   1.797   0.952   6.842
 3455SOL     OW11263   2.006   3.280   4.390
 3455SOL    HW111264   2.011   3.185   4.360
 3455SOL    HW211265   2.043   3.288   4.483
 3456SOL     OW11266   5.406   6.531   2.617
 3456SOL    HW111267   5.429   6.434   2.616
 3456SOL    HW211268   5.394   6.562   2.711
 3457SOL     OW11269   2.329   5.539   3.982
 3457SOL    HW111270   2.413   5.510   4.027
 3457SOL    HW211271   2.252   5.526   4.044
 3458SOL     OW11272   5.037   6.931   0.348
 3458SOL    HW111273   5.084   6.856   0.302
 3458SOL    HW211274   4.943   6.937   0.315
 3459SOL     OW11275   6.471   3.672   2.588
 3459SOL    HW111276   6.431   3.733   2.657
 3459SOL    HW211277   6.508   3.591   2.633
 3460SOL     OW11278   2.693   3.849   0.219
 3460SOL    HW111279   2.716   3.761   0.177
 3460SOL    HW211280   2.595   3.852   0.238
 3461SOL     OW11281   4.329   5.887   4.640
 3461SOL    HW111282   4.342   5.982   4.612
 3461SOL    HW211283   4.274   5.885   4.724
 3462SOL     OW11284   0.115   3.868   2.322
 3462SOL    HW111285   0.213   3.865   2.304
 3462SOL    HW211286   0.093   3.811   2.401
 3463SOL     OW11287   1.020   2.829   3.137
 3463SOL    HW111288   1.012   2.776   3.052
 3463SOL    HW211289   1.100   2.799   3.187
 3464SOL     OW11290   6.422   2.245   6.704
 3464SOL    HW111291   6.327   2.271   6.719
 3464SOL    HW211292   6.482   2.322   6.725
 3465SOL     OW11293   0.364   2.944   2.008
 3465SOL    HW111294   0.349   3.023   1.948
 3465SOL    HW211295   0.403   2.869   1.955
 3466SOL     OW11296   6.739   4.530   6.339
 3466SOL    HW111297   6.719   4.499   6.432
 3466SOL    HW211298   6.691   4.472   6.274
 3467SOL     OW11299   2.299   1.845   0.600
 3467SOL    HW111300   2.358   1.876   0.526
 3467SOL    HW211301   2.282   1.921   0.664
 3468SOL     OW11302   5.402   0.954   3.228
 3468SOL    HW111303   5.348   1.035   3.205
 3468SOL    HW211304   5.413   0.897   3.147
 3469SOL     OW11305   4.644   0.755   4.364
 3469SOL    HW111306   4.696   0.838   4.381
 3469SOL    HW211307   4.556   0.777   4.323
 3470SOL     OW11308   0.478   2.378   1.448
 3470SOL    HW111309   0.435   2.387   1.537
 3470SOL    HW211310   0.574   2.354   1.460
 3471SOL     OW11311   4.611   4.314   3.915
 3471SOL    HW111312   4.541   4.260   3.870
 3471SOL    HW211313   4.574   4.404   3.939
 3472SOL     OW11314   2.769   0.742   1.800
 3472SOL    HW111315   2.836   0.810   1.830
 3472SOL    HW211316   2.707   0.784   1.734
 3473SOL     OW11317   6.762   2.877   2.633
 3473SOL    HW111318   6.724   2.873   2.541
 3473SOL    HW211319   6.704   2.935   2.691
 3474SOL     OW11320   0.254   4.788   2.371
 3474SOL    HW111321   0.180   4.751   2.428
 3474SOL    HW211322   0.327   4.823   2.430
 3475SOL     OW11323   0.919   4.586   3.894
 3475SOL    HW111324   0.926   4.669   3.950
 3475SOL    HW211325   0.851   4.525   3.934
 3476SOL     OW11326   2.502   2.196   2.561
 3476SOL    HW111327   2.445   2.172   2.639
 3476SOL    HW211328   2.553   2.279   2.582
 3477SOL     OW11329   2.209   4.918   0.854
 3477SOL    HW111330   2.254   4.985   0.914
 3477SOL    HW211331   2.154   4.856   0.909
 3478SOL     OW11332   2.103   6.087   5.844
 3478SOL    HW111333   2.040   6.013   5.868
 3478SOL    HW211334   2.186   6.080   5.901
 3479SOL     OW11335   0.873   0.648   3.099
 3479SOL    HW111336   0.959   0.617   3.058
 3479SOL    HW211337   0.886   0.659   3.198
 3480SOL     OW11338   0.109   5.617   4.370
 3480SOL    HW111339   0.200   5.580   4.350
 3480SOL    HW211340   0.118   5.702   4.421
 3481SOL     OW11341   5.086   1.028   0.505
 3481SOL    HW111342   5.083   1.004   0.408
 3481SOL    HW211343   5.178   1.014   0.540
 3482SOL     OW11344   6.477   1.002   2.096
 3482SOL    HW111345   6.419   1.060   2.039
 3482SOL    HW211346   6.513   1.055   2.173
 3483SOL     OW11347   5.284   2.078   1.710
 3483SOL    HW111348   5.381   2.077   1.735
 3483SOL    HW211349   5.229   2.044   1.786
 3484SOL     OW11350   1.006   2.919   0.431
 3484SOL    HW111351   1.091   2.943   0.479
 3484SOL    HW211352   1.010   2.955   0.338
 3485SOL     OW11353   1.927   1.524   4.582
 3485SOL    HW111354   1.928   1.599   4.648
 3485SOL    HW211355   2.011   1.525   4.528
 3486SOL     OW11356   2.452   0.515   3.258
 3486SOL    HW111357   2.443   0.417   3.275
 3486SOL    HW211358   2.510   0.530   3.178
 3487SOL     OW11359   6.982   2.012   0.649
 3487SOL    HW111360   6.890   1.979   0.674
 3487SOL    HW211361   0.026   1.979   0.717
 3488SOL     OW11362   5.846   0.777   5.243
 3488SOL    HW111363   5.887   0.757   5.332
 3488SOL    HW211364   5.831   0.692   5.193
 3489SOL     OW11365   3.798   0.471   1.868
 3489SOL    HW111366   3.829   0.538   1.936
 3489SOL    HW211367   3.796   0.513   1.778
 3490SOL     OW11368   4.330   4.118   1.069
 3490SOL    HW111369   4.270   4.042   1.045
 3490SOL    HW211370   4.304   4.199   1.016
 3491SOL     OW11371   4.369   2.349   5.871
 3491SOL    HW111372   4.388   2.322   5.776
 3491SOL    HW211373   4.449   2.330   5.927
 3492SOL     OW11374   6.696   3.961   0.943
 3492SOL    HW111375   6.749   4.012   1.011
 3492SOL    HW211376   6.689   3.865   0.971
 3493SOL     OW11377   4.906   4.136   4.503
 3493SOL    HW111378   4.878   4.142   4.407
 3493SOL    HW211379   4.987   4.078   4.511
 3494SOL     OW11380   2.863   0.961   1.560
 3494SOL    HW111381   2.949   0.924   1.595
 3494SOL    HW211382   2.798   0.886   1.543
 3495SOL     OW11383   6.076   4.840   1.798
 3495SOL    HW111384   6.114   4.776   1.731
 3495SOL    HW211385   6.069   4.794   1.887
 3496SOL     OW11386   6.357   4.836   0.956
 3496SOL    HW111387   6.287   4.767   0.973
 3496SOL    HW211388   6.353   4.905   1.028
 3497SOL     OW11389   2.722   1.568   3.572
 3497SOL    HW111390   2.637   1.580   3.624
 3497SOL    HW211391   2.775   1.493   3.610
 3498SOL     OW11392   3.125   1.805   1.421
 3498SOL    HW111393   3.055   1.820   1.491
 3498SOL    HW211394   3.181   1.726   1.446
 3499SOL     OW11395   5.622   3.974   4.197
 3499SOL    HW111396   5.575   4.060   4.177
 3499SOL    HW211397   5.694   3.959   4.129
 3500SOL     OW11398   1.463   3.168   3.517
 3500SOL    HW111399   1.482   3.240   3.451
 3500SOL    HW211400   1.477   3.202   3.610
 3501SOL     OW11401   3.065   5.746   5.916
 3501SOL    HW111402   3.044   5.744   6.014
 3501SOL    HW211403   3.051   5.838   5.881
 3502SOL     OW11404   6.730   1.706   1.413
 3502SOL    HW111405   6.659   1.655   1.463
 3502SOL    HW211406   6.776   1.769   1.476
 3503SOL     OW11407   6.131   5.749   5.009
 3503SOL    HW111408   6.112   5.679   5.078
 3503SOL    HW211409   6.053   5.811   5.003
 3504SOL     OW11410   2.244   0.254   1.541
 3504SOL    HW111411   2.263   0.352   1.538
 3504SOL    HW211412   2.330   0.204   1.548
 3505SOL     OW11413   5.366   4.257   5.814
 3505SOL    HW111414   5.357   4.279   5.911
 3505SOL    HW211415   5.301   4.312   5.762
 3506SOL     OW11416   5.559   4.678   5.344
 3506SOL    HW111417   5.529   4.635   5.260
 3506SOL    HW211418   5.501   4.757   5.364
 3507SOL     OW11419   2.630   0.655   0.973
 3507SOL    HW111420   2.671   0.693   0.889
 3507SOL    HW211421   2.683   0.684   1.052
 3508SOL     OW11422   1.915   2.125   5.926
 3508SOL    HW111423   1.987   2.058   5.941
 3508SOL    HW211424   1.941   2.185   5.850
 3509SOL     OW11425   4.994   0.481   6.861
 3509SOL    HW111426   4.969   0.548   6.791
 3509SOL    HW211427   4.940   0.398   6.848
 3510SOL     OW11428   1.166   0.888   2.144
 3510SOL    HW111429   1.109   0.815   2.182
 3510SOL    HW211430   1.262   0.863   2.156
 3511SOL     OW11431   2.192   4.632   1.334
 3511SOL    HW111432   2.238   4.651   1.421
 3511SOL    HW211433   2.155   4.539   1.335
 3512SOL     OW11434   0.753   4.693   0.357
 3512SOL    HW111435   0.806   4.771   0.326
 3512SOL    HW211436   0.662   4.695   0.316
 3513SOL     OW11437   5.494   2.142   0.399
 3513SOL    HW111438   5.565   2.179   0.339
 3513SOL    HW211439   5.490   2.043   0.389
 3514SOL     OW11440   6.968   1.058   1.910
 3514SOL    HW111441   0.018   1.102   1.856
 3514SOL    HW211442   6.929   1.124   1.974
 3515SOL     OW11443   4.436   6.139   3.200
 3515SOL    HW111444   4.518   6.132   3.258
 3515SOL    HW211445   4.416   6.049   3.160
 3516SOL     OW11446   5.124   6.937   0.992
 3516SOL    HW111447   5.093   0.006   0.960
 3516SOL    HW211448   5.215   6.918   0.955
 3517SOL     OW11449   0.826   1.912   1.407
 3517SOL    HW111450   0.877   1.863   1.336
 3517SOL    HW211451   0.783   1.992   1.366
 3518SOL     OW11452   4.918   3.227   4.635
 3518SOL    HW111453   4.932   3.323   4.659
 3518SOL    HW211454   4.973   3.169   4.695
 3519SOL     OW11455   1.440   1.195   6.300
 3519SOL    HW111456   1.389   1.280   6.290
 3519SOL    HW211457   1.443   1.169   6.397
 3520SOL     OW11458   3.150   5.562   6.920
 3520SOL    HW111459   3.205   5.573   6.837
 3520SOL    HW211460   3.075   5.628   6.920
 3521SOL     OW11461   4.885   2.711   0.208
 3521SOL    HW111462   4.810   2.703   0.273
 3521SOL    HW211463   4.847   2.719   0.115
 3522SOL     OW11464   0.486   4.624   1.031
 3522SOL    HW111465   0.533   4.548   0.987
 3522SOL    HW211466   0.461   4.599   1.124
 3523SOL     OW11467   1.231   4.563   5.571
 3523SOL    HW111468   1.291   4.628   5.617
 3523SOL    HW211469   1.280   4.520   5.494
 3524SOL     OW11470   4.959   1.450   1.733
 3524SOL    HW111471   5.006   1.410   1.812
 3524SOL    HW211472   4.887   1.387   1.702
 3525SOL     OW11473   6.884   4.481   3.467
 3525SOL    HW111474   6.911   4.528   3.383
 3525SOL    HW211475   6.956   4.417   3.494
 3526SOL     OW11476   2.355   6.718   3.774
 3526SOL    HW111477   2.409   6.635   3.789
 3526SOL    HW211478   2.318   6.750   3.861
 3527SOL     OW11479   5.400   3.435   5.980
 3527SOL    HW111480   5.346   3.351   5.984
 3527SOL    HW211481   5.487   3.422   6.028
 3528SOL     OW11482   1.288   6.186   5.427
 3528SOL    HW111483   1.331   6.096   5.423
 3528SOL    HW211484   1.351   6.251   5.469
 3529SOL     OW11485   3.911   0.323   0.436
 3529SOL    HW111486   3.961   0.376   0.367
 3529SOL    HW211487   3.917   0.225   0.414
 3530SOL     OW11488   6.281   5.751   2.354
 3530SOL    HW111489   6.344   5.674   2.360
 3530SOL    HW211490   6.330   5.833   2.325
 3531SOL     OW11491   5.527   3.353   1.165
 3531SOL    HW111492   5.436   3.315   1.176
 3531SOL    HW211493   5.553   3.403   1.247
 3532SOL     OW11494   2.595   6.472   1.758
 3532SOL    HW111495   2.624   6.481   1.853
 3532SOL    HW211496   2.646   6.536   1.700
 3533SOL     OW11497   0.942   1.877   2.615
 3533SOL    HW111498   1.027   1.829   2.593
 3533SOL    HW211499   0.927   1.951   2.549
 3534SOL     OW11500   6.857   1.771   1.025
 3534SOL    HW111501   6.779   1.723   1.066
 3534SOL    HW211502   6.922   1.796   1.096
 3535SOL     OW11503   1.630   5.322   6.726
 3535SOL    HW111504   1.634   5.420   6.743
 3535SOL    HW211505   1.711   5.295   6.673
 3536SOL     OW11506   3.179   1.773   3.194
 3536SOL    HW111507   3.109   1.723   3.143
 3536SOL    HW211508   3.203   1.857   3.144
 3537SOL     OW11509   3.036   5.850   2.396
 3537SOL    HW111510   2.975   5.904   2.454
 3537SOL    HW211511   3.129   5.857   2.431
 3538SOL     OW11512   1.868   7.018   6.270
 3538SOL    HW111513   1.858   6.961   6.189
 3538SOL    HW211514   1.956   0.044   6.267
 3539SOL     OW11515   3.793   3.239   5.620
 3539SOL    HW111516   3.699   3.243   5.652
 3539SOL    HW211517   3.855   3.262   5.695
 3540SOL     OW11518   1.869   2.439   5.500
 3540SOL    HW111519   1.770   2.433   5.505
 3540SOL    HW211520   1.898   2.428   5.404
 3541SOL     OW11521   2.052   2.887   6.109
 3541SOL    HW111522   1.967   2.842   6.081
 3541SOL    HW211523   2.042   2.986   6.098
 3542SOL     OW11524   1.900   5.666   3.106
 3542SOL    HW111525   1.809   5.704   3.118
 3542SOL    HW211526   1.910   5.633   3.012
 3543SOL     OW11527   0.745   2.420   4.734
 3543SOL    HW111528   0.651   2.450   4.719
 3543SOL    HW211529   0.778   2.457   4.821
 3544SOL     OW11530   2.213   4.216   6.192
 3544SOL    HW111531   2.307   4.243   6.212
 3544SOL    HW211532   2.208   4.117   6.180
 3545SOL     OW11533   4.042   5.575   0.163
 3545SOL    HW111534   3.947   5.591   0.138
 3545SOL    HW211535   4.077   5.652   0.216
 3546SOL     OW11536   1.294   4.016   4.514
 3546SOL    HW111537   1.334   4.087   4.457
 3546SOL    HW211538   1.210   4.050   4.556
 3547SOL     OW11539   6.838   4.177   3.610
 3547SOL    HW111540   6.777   4.243   3.654
 3547SOL    HW211541   6.929   4.216   3.599
 3548SOL     OW11542   5.955   1.665   5.768
 3548SOL    HW111543   5.875   1.723   5.781
 3548SOL    HW211544   6.038   1.720   5.778
 3549SOL     OW11545   6.432   5.010   6.078
 3549SOL    HW111546   6.388   4.926   6.108
 3549SOL    HW211547   6.495   5.042   6.148
 3550SOL     OW11548   6.278   2.141   2.506
 3550SOL    HW111549   6.263   2.142   2.605
 3550SOL    HW211550   6.305   2.049   2.477
 3551SOL     OW11551   3.811   0.714   2.043
 3551SOL    HW111552   3.819   0.799   1.991
 3551SOL    HW211553   3.742   0.725   2.114
 3552SOL     OW11554   5.361   6.667   2.179
 3552SOL    HW111555   5.373   6.569   2.161
 3552SOL    HW211556   5.442   6.717   2.148
 3553SOL     OW11557   5.371   4.288   1.337
 3553SOL    HW111558   5.346   4.222   1.408
 3553SOL    HW211559   5.458   4.262   1.296
 3554SOL     OW11560   4.155   2.498   0.864
 3554SOL    HW111561   4.097   2.458   0.793
 3554SOL    HW211562   4.104   2.567   0.914
 3555SOL     OW11563   1.086   3.906   3.765
 3555SOL    HW111564   1.147   3.910   3.845
 3555SOL    HW211565   1.038   3.993   3.756
 3556SOL     OW11566   4.539   1.359   3.319
 3556SOL    HW111567   4.449   1.317   3.308
 3556SOL    HW211568   4.608   1.288   3.333
 3557SOL     OW11569   1.437   0.195   4.164
 3557SOL    HW111570   1.481   0.246   4.238
 3557SOL    HW211571   1.436   0.251   4.082
 3558SOL     OW11572   1.364   6.870   1.369
 3558SOL    HW111573   1.274   6.862   1.327
 3558SOL    HW211574   1.400   6.779   1.388
 3559SOL     OW11575   0.178   6.104   4.740
 3559SOL    HW111576   0.175   6.204   4.739
 3559SOL    HW211577   0.087   6.068   4.759
 3560SOL     OW11578   0.826   5.777   1.390
 3560SOL    HW111579   0.730   5.772   1.417
 3560SOL    HW211580   0.859   5.871   1.402
 3561SOL     OW11581   4.171   4.845   5.187
 3561SOL    HW111582   4.210   4.757   5.215
 3561SOL    HW211583   4.222   4.881   5.108
 3562SOL     OW11584   5.226   1.140   3.478
 3562SOL    HW111585   5.180   1.195   3.546
 3562SOL    HW211586   5.206   1.043   3.494
 3563SOL     OW11587   5.726   1.309   0.307
 3563SOL    HW111588   5.791   1.385   0.303
 3563SOL    HW211589   5.643   1.332   0.256
 3564SOL     OW11590   1.550   4.262   4.079
 3564SOL    HW111591   1.568   4.357   4.103
 3564SOL    HW211592   1.478   4.258   4.010
 3565SOL     OW11593   3.709   5.802   5.122
 3565SOL    HW111594   3.677   5.725   5.066
 3565SOL    HW211595   3.752   5.766   5.205
 3566SOL     OW11596   6.778   3.603   6.348
 3566SOL    HW111597   6.725   3.522   6.373
 3566SOL    HW211598   6.874   3.590   6.375
 3567SOL     OW11599   1.055   3.280   6.940
 3567SOL    HW111600   0.978   3.232   6.982
 3567SOL    HW211601   1.050   3.377   6.963
 3568SOL     OW11602   4.830   5.782   4.060
 3568SOL    HW111603   4.745   5.827   4.030
 3568SOL    HW211604   4.883   5.846   4.116
 3569SOL     OW11605   3.079   2.691   6.010
 3569SOL    HW111606   2.994   2.696   6.062
 3569SOL    HW211607   3.058   2.674   5.914
 3570SOL     OW11608   5.132   0.010   4.967
 3570SOL    HW111609   5.108   0.106   4.980
 3570SOL    HW211610   5.226   0.003   4.933
 3571SOL     OW11611   1.975   0.763   5.246
 3571SOL    HW111612   1.904   0.702   5.211
 3571SOL    HW211613   2.050   0.768   5.180
 3572SOL     OW11614   5.723   3.435   2.765
 3572SOL    HW111615   5.752   3.367   2.696
 3572SOL    HW211616   5.633   3.411   2.799
 3573SOL     OW11617   6.284   3.949   2.665
 3573SOL    HW111618   6.344   3.959   2.745
 3573SOL    HW211619   6.229   3.866   2.675
 3574SOL     OW11620   0.705   3.127   0.669
 3574SOL    HW111621   0.715   3.089   0.761
 3574SOL    HW211622   0.782   3.187   0.649
 3575SOL     OW11623   4.942   5.573   2.662
 3575SOL    HW111624   4.933   5.485   2.710
 3575SOL    HW211625   4.992   5.637   2.720
 3576SOL     OW11626   0.685   2.058   0.274
 3576SOL    HW111627   0.675   2.137   0.212
 3576SOL    HW211628   0.746   1.991   0.232
 3577SOL     OW11629   1.686   2.833   6.779
 3577SOL    HW111630   1.649   2.925   6.789
 3577SOL    HW211631   1.625   2.778   6.722
 3578SOL     OW11632   5.103   1.843   1.186
 3578SOL    HW111633   5.114   1.942   1.194
 3578SOL    HW211634   5.074   1.821   1.093
 3579SOL     OW11635   6.887   2.316   2.716
 3579SOL    HW111636   6.921   2.224   2.699
 3579SOL    HW211637   6.828   2.316   2.797
 3580SOL     OW11638   5.970   3.035   0.448
 3580SOL    HW111639   5.925   3.019   0.360
 3580SOL    HW211640   5.908   3.085   0.508
 3581SOL     OW11641   0.646   5.656   3.436
 3581SOL    HW111642   0.658   5.625   3.530
 3581SOL    HW211643   0.716   5.613   3.378
 3582SOL     OW11644   1.686   4.536   5.333
 3582SOL    HW111645   1.749   4.607   5.301
 3582SOL    HW211646   1.660   4.555   5.428
 3583SOL     OW11647   1.253   4.762   0.105
 3583SOL    HW111648   1.294   4.675   0.133
 3583SOL    HW211649   1.253   4.768   0.006
 3584SOL     OW11650   5.626   4.405   5.435
 3584SOL    HW111651   5.589   4.496   5.415
 3584SOL    HW211652   5.650   4.400   5.532
 3585SOL     OW11653   2.587   2.396   4.800
 3585SOL    HW111654   2.539   2.366   4.883
 3585SOL    HW211655   2.685   2.402   4.818
 3586SOL     OW11656   6.746   1.654   4.952
 3586SOL    HW111657   6.748   1.746   4.914
 3586SOL    HW211658   6.652   1.619   4.947
 3587SOL     OW11659   1.852   5.829   5.778
 3587SOL    HW111660   1.872   5.864   5.687
 3587SOL    HW211661   1.890   5.737   5.787
 3588SOL     OW11662   6.876   2.897   5.156
 3588SOL    HW111663   6.948   2.830   5.140
 3588SOL    HW211664   6.882   2.970   5.088
 3589SOL     OW11665   5.842   0.631   6.293
 3589SOL    HW111666   5.936   0.597   6.292
 3589SOL    HW211667   5.781   0.560   6.330
 3590SOL     OW11668   6.689   3.571   0.294
 3590SOL    HW111669   6.657   3.658   0.331
 3590SOL    HW211670   6.750   3.588   0.217
 3591SOL     OW11671   5.378   3.690   0.115
 3591SOL    HW111672   5.400   3.692   0.018
 3591SOL    HW211673   5.446   3.633   0.163
 3592SOL     OW11674   0.328   6.900   3.009
 3592SOL    HW111675   0.376   6.822   3.049
 3592SOL    HW211676   0.389   6.946   2.945
 3593SOL     OW11677   0.119   4.155   5.893
 3593SOL    HW111678   0.140   4.180   5.988
 3593SOL    HW211679   0.077   4.232   5.846
 3594SOL     OW11680   4.414   0.408   3.865
 3594SOL    HW111681   4.344   0.336   3.873
 3594SOL    HW211682   4.492   0.386   3.923
 3595SOL     OW11683   5.424   5.990   6.368
 3595SOL    HW111684   5.329   6.021   6.366
 3595SOL    HW211685   5.433   5.906   6.315
 3596SOL     OW11686   5.023   2.998   3.557
 3596SOL    HW111687   4.997   3.010   3.462
 3596SOL    HW211688   5.006   2.903   3.584
 3597SOL     OW11689   1.650   2.839   5.281
 3597SOL    HW111690   1.730   2.811   5.335
 3597SOL    HW211691   1.590   2.894   5.339
 3598SOL     OW11692   2.034   6.494   5.858
 3598SOL    HW111693   2.035   6.412   5.802
 3598SOL    HW211694   2.099   6.561   5.822
 3599SOL     OW11695   4.921   2.330   0.742
 3599SOL    HW111696   4.840   2.280   0.772
 3599SOL    HW211697   4.921   2.337   0.642
 3600SOL     OW11698   0.606   2.776   2.264
 3600SOL    HW111699   0.687   2.753   2.318
 3600SOL    HW211700   0.632   2.791   2.169
 3601SOL     OW11701   5.364   2.978   5.843
 3601SOL    HW111702   5.315   2.894   5.865
 3601SOL    HW211703   5.347   3.002   5.747
 3602SOL     OW11704   1.235   3.829   1.194
 3602SOL    HW111705   1.245   3.919   1.151
 3602SOL    HW211706   1.264   3.758   1.130
 3603SOL     OW11707   3.767   1.069   4.375
 3603SOL    HW111708   3.764   1.075   4.275
 3603SOL    HW211709   3.809   1.151   4.412
 3604SOL     OW11710   6.821   6.855   3.844
 3604SOL    HW111711   6.859   6.946   3.862
 3604SOL    HW211712   6.881   6.785   3.883
 3605SOL     OW11713   0.570   4.530   3.866
 3605SOL    HW111714   0.558   4.616   3.816
 3605SOL    HW211715   0.632   4.471   3.816
 3606SOL     OW11716   1.030   6.664   3.623
 3606SOL    HW111717   1.018   6.760   3.647
 3606SOL    HW211718   1.099   6.656   3.551
 3607SOL     OW11719   5.659   3.992   1.928
 3607SOL    HW111720   5.660   4.071   1.865
 3607SOL    HW211721   5.675   4.024   2.021
 3608SOL     OW11722   5.023   1.289   4.684
 3608SOL    HW111723   4.945   1.264   4.742
 3608SOL    HW211724   5.004   1.263   4.589
 3609SOL     OW11725   2.276   0.167   4.188
 3609SOL    HW111726   2.360   0.125   4.223
 3609SOL    HW211727   2.265   0.144   4.091
 3610SOL     OW11728   1.662   0.903   6.073
 3610SOL    HW111729   1.612   0.988   6.054
 3610SOL    HW211730   1.707   0.911   6.161
 3611SOL     OW11731   4.029   4.804   3.718
 3611SOL    HW111732   4.082   4.745   3.657
 3611SOL    HW211733   4.057   4.787   3.813
 3612SOL     OW11734   0.484   0.795   6.384
 3612SOL    HW111735   0.451   0.765   6.473
 3612SOL    HW211736   0.433   0.876   6.354
 3613SOL     OW11737   5.118   4.469   1.950
 3613SOL    HW111738   5.162   4.407   1.884
 3613SOL    HW211739   5.183   4.491   2.022
 3614SOL     OW11740   3.250   3.817   0.443
 3614SOL    HW111741   3.247   3.748   0.515
 3614SOL    HW211742   3.242   3.908   0.485
 3615SOL     OW11743   5.629   2.548   6.150
 3615SOL    HW111744   5.549   2.496   6.181
 3615SOL    HW211745   5.662   2.509   6.064
 3616SOL     OW11746   1.082   0.201   6.152
 3616SOL    HW111747   1.049   0.248   6.233
 3616SOL    HW211748   1.120   0.267   6.088
 3617SOL     OW11749   4.092   0.525   5.606
 3617SOL    HW111750   4.016   0.516   5.670
 3617SOL    HW211751   4.061   0.575   5.525
 3618SOL     OW11752   2.377   3.247   5.358
 3618SOL    HW111753   2.405   3.170   5.301
 3618SOL    HW211754   2.457   3.302   5.382
 3619SOL     OW11755   5.631   3.297   6.542
 3619SOL    HW111756   5.681   3.297   6.455
 3619SOL    HW211757   5.558   3.229   6.538
 3620SOL     OW11758   5.810   5.664   5.528
 3620SOL    HW111759   5.778   5.758   5.528
 3620SOL    HW211760   5.781   5.620   5.614
 3621SOL     OW11761   3.502   2.998   5.024
 3621SOL    HW111762   3.508   3.097   5.032
 3621SOL    HW211763   3.434   2.964   5.088
 3622SOL     OW11764   2.471   0.919   0.699
 3622SOL    HW111765   2.427   0.860   0.766
 3622SOL    HW211766   2.405   0.946   0.629
 3623SOL     OW11767   6.370   5.558   4.608
 3623SOL    HW111768   6.330   5.521   4.524
 3623SOL    HW211769   6.427   5.488   4.651
 3624SOL     OW11770   1.347   6.836   2.181
 3624SOL    HW111771   1.379   6.926   2.211
 3624SOL    HW211772   1.422   6.770   2.185
 3625SOL     OW11773   6.772   3.154   6.377
 3625SOL    HW111774   6.859   3.138   6.423
 3625SOL    HW211775   6.782   3.138   6.279
 3626SOL     OW11776   0.741   2.927   5.316
 3626SOL    HW111777   0.737   3.008   5.257
 3626SOL    HW211778   0.684   2.943   5.397
 3627SOL     OW11779   4.454   3.448   1.622
 3627SOL    HW111780   4.406   3.524   1.665
 3627SOL    HW211781   4.425   3.362   1.664
 3628SOL     OW11782   1.332   1.277   2.063
 3628SOL    HW111783   1.280   1.237   2.139
 3628SOL    HW211784   1.426   1.294   2.092
 3629SOL     OW11785   0.877   0.240   4.869
 3629SOL    HW111786   0.901   0.332   4.902
 3629SOL    HW211787   0.856   0.244   4.772
 3630SOL     OW11788   6.559   3.005   3.530
 3630SOL    HW111789   6.562   2.991   3.629
 3630SOL    HW211790   6.509   3.088   3.509
 3631SOL     OW11791   1.708   6.857   3.525
 3631SOL    HW111792   1.775   6.783   3.533
 3631SOL    HW211793   1.661   6.849   3.437
 3632SOL     OW11794   5.088   4.571   0.274
 3632SOL    HW111795   5.001   4.619   0.284
 3632SOL    HW211796   5.070   4.475   0.253
 3633SOL     OW11797   4.661   2.852   6.318
 3633SOL    HW111798   4.632   2.938   6.360
 3633SOL    HW211799   4.581   2.798   6.293
 3634SOL     OW11800   1.957   6.221   6.128
 3634SOL    HW111801   1.904   6.151   6.081
 3634SOL    HW211802   2.017   6.267   6.063
 3635SOL     OW11803   2.915   1.271   0.933
 3635SOL    HW111804   2.916   1.179   0.972
 3635SOL    HW211805   2.853   1.329   0.986
 3636SOL     OW11806   6.580   5.588   0.603
 3636SOL    HW111807   6.537   5.638   0.527
 3636SOL    HW211808   6.525   5.509   0.627
 3637SOL     OW11809   0.721   2.869   1.069
 3637SOL    HW111810   0.776   2.901   0.992
 3637SOL    HW211811   0.629   2.847   1.038
 3638SOL     OW11812   6.951   4.321   2.939
 3638SOL    HW111813   6.889   4.396   2.917
 3638SOL    HW211814   7.013   4.350   3.013
 3639SOL     OW11815   3.604   5.114   6.349
 3639SOL    HW111816   3.614   5.058   6.431
 3639SOL    HW211817   3.661   5.075   6.276
 3640SOL     OW11818   4.912   1.839   0.590
 3640SOL    HW111819   4.988   1.893   0.554
 3640SOL    HW211820   4.869   1.888   0.666
 3641SOL     OW11821   5.774   3.590   1.623
 3641SOL    HW111822   5.691   3.610   1.674
 3641SOL    HW211823   5.839   3.541   1.681
 3642SOL     OW11824   4.956   2.284   6.703
 3642SOL    HW111825   4.994   2.226   6.631
 3642SOL    HW211826   4.856   2.277   6.701
 3643SOL     OW11827   4.153   6.009   5.849
 3643SOL    HW111828   4.189   6.078   5.911
 3643SOL    HW211829   4.085   5.954   5.897
 3644SOL     OW11830   2.286   0.791   1.377
 3644SOL    HW111831   2.372   0.754   1.412
 3644SOL    HW211832   2.305   0.851   1.299
 3645SOL     OW11833   1.268   3.497   3.971
 3645SOL    HW111834   1.236   3.571   4.030
 3645SOL    HW211835   1.290   3.533   3.880
 3646SOL     OW11836   1.787   4.279   5.227
 3646SOL    HW111837   1.690   4.269   5.205
 3646SOL    HW211838   1.803   4.370   5.265
 3647SOL     OW11839   2.432   6.130   6.999
 3647SOL    HW111840   2.489   6.064   0.026
 3647SOL    HW211841   2.469   6.222   7.015
 3648SOL     OW11842   4.854   5.632   3.151
 3648SOL    HW111843   4.870   5.537   3.123
 3648SOL    HW211844   4.931   5.688   3.123
 3649SOL     OW11845   6.665   3.329   0.095
 3649SOL    HW111846   6.714   3.415   0.085
 3649SOL    HW211847   6.590   3.340   0.161
 3650SOL     OW11848   6.251   4.292   0.818
 3650SOL    HW111849   6.176   4.350   0.786
 3650SOL    HW211850   6.304   4.341   0.888
 3651SOL     OW11851   2.144   0.220   4.412
 3651SOL    HW111852   2.193   0.192   4.329
 3651SOL    HW211853   2.206   0.217   4.490
 3652SOL     OW11854   5.767   6.978   3.155
 3652SOL    HW111855   5.766   6.884   3.120
 3652SOL    HW211856   5.769   6.976   3.255
 3653SOL     OW11857   2.108   1.033   2.981
 3653SOL    HW111858   2.047   1.113   2.977
 3653SOL    HW211859   2.068   0.964   3.042
 3654SOL     OW11860   5.095   5.696   0.409
 3654SOL    HW111861   5.077   5.684   0.312
 3654SOL    HW211862   5.010   5.719   0.456
 3655SOL     OW11863   3.181   1.462   4.020
 3655SOL    HW111864   3.214   1.548   4.059
 3655SOL    HW211865   3.208   1.386   4.080
 3656SOL     OW11866   1.300   5.593   1.358
 3656SOL    HW111867   1.318   5.562   1.265
 3656SOL    HW211868   1.216   5.648   1.359
 3657SOL     OW11869   4.976   5.486   4.959
 3657SOL    HW111870   4.956   5.449   4.868
 3657SOL    HW211871   4.976   5.412   5.026
 3658SOL     OW11872   1.885   5.153   6.779
 3658SOL    HW111873   1.807   5.092   6.793
 3658SOL    HW211874   1.878   5.195   6.688
 3659SOL     OW11875   0.713   1.624   6.930
 3659SOL    HW111876   0.648   1.558   6.968
 3659SOL    HW211877   0.674   1.716   6.938
 3660SOL     OW11878   6.118   5.992   4.559
 3660SOL    HW111879   6.186   5.918   4.562
 3660SOL    HW211880   6.098   6.022   4.652
 3661SOL     OW11881   0.863   0.606   4.774
 3661SOL    HW111882   0.834   0.702   4.774
 3661SOL    HW211883   0.873   0.575   4.679
 3662SOL     OW11884   4.104   1.185   4.316
 3662SOL    HW111885   4.113   1.219   4.410
 3662SOL    HW211886   4.007   1.179   4.292
 3663SOL     OW11887   1.950   2.733   6.825
 3663SOL    HW111888   1.855   2.763   6.820
 3663SOL    HW211889   1.979   2.696   6.737
 3664SOL     OW11890   4.408   2.319   1.555
 3664SOL    HW111891   4.373   2.395   1.609
 3664SOL    HW211892   4.431   2.243   1.616
 3665SOL     OW11893   0.572   5.679   5.670
 3665SOL    HW111894   0.657   5.636   5.638
 3665SOL    HW211895   0.502   5.610   5.682
 3666SOL     OW11896   0.995   3.118   3.185
 3666SOL    HW111897   0.986   3.021   3.161
 3666SOL    HW211898   1.091   3.142   3.195
 3667SOL     OW11899   0.804   1.090   3.694
 3667SOL    HW111900   0.745   1.103   3.774
 3667SOL    HW211901   0.880   1.155   3.698
 3668SOL     OW11902   1.837   0.660   1.705
 3668SOL    HW111903   1.836   0.597   1.783
 3668SOL    HW211904   1.744   0.670   1.669
 3669SOL     OW11905   5.461   1.429   3.966
 3669SOL    HW111906   5.507   1.480   4.039
 3669SOL    HW211907   5.368   1.406   3.994
 3670SOL     OW11908   3.015   5.373   0.632
 3670SOL    HW111909   3.053   5.378   0.539
 3670SOL    HW211910   2.945   5.302   0.636
 3671SOL     OW11911   7.021   0.997   4.177
 3671SOL    HW111912   0.076   1.036   4.125
 3671SOL    HW211913   0.025   0.906   4.209
 3672SOL     OW11914   4.728   2.155   2.247
 3672SOL    HW111915   4.657   2.115   2.189
 3672SOL    HW211916   4.818   2.134   2.209
 3673SOL     OW11917   3.815   5.478   6.541
 3673SOL    HW111918   3.820   5.541   6.618
 3673SOL    HW211919   3.868   5.515   6.464
 3674SOL     OW11920   1.482   5.821   5.094
 3674SOL    HW111921   1.418   5.819   5.172
 3674SOL    HW211922   1.482   5.912   5.054
 3675SOL     OW11923   0.625   2.635   4.456
 3675SOL    HW111924   0.544   2.597   4.413
 3675SOL    HW211925   0.680   2.683   4.387
 3676SOL     OW11926   5.790   2.773   2.661
 3676SOL    HW111927   5.761   2.865   2.685
 3676SOL    HW211928   5.718   2.727   2.609
 3677SOL     OW11929   2.450   0.454   5.136
 3677SOL    HW111930   2.477   0.431   5.042
 3677SOL    HW211931   2.456   0.553   5.149
 3678SOL     OW11932   1.714   1.381   4.090
 3678SOL    HW111933   1.624   1.337   4.080
 3678SOL    HW211934   1.702   1.476   4.118
 3679SOL     OW11935   6.770   0.298   3.796
 3679SOL    HW111936   6.741   0.271   3.704
 3679SOL    HW211937   6.746   0.225   3.860
 3680SOL     OW11938   4.549   2.658   4.348
 3680SOL    HW111939   4.462   2.676   4.394
 3680SOL    HW211940   4.623   2.664   4.414
 3681SOL     OW11941   1.338   0.862   6.310
 3681SOL    HW111942   1.333   0.791   6.380
 3681SOL    HW211943   1.350   0.951   6.353
 3682SOL     OW11944   5.781   2.633   0.306
 3682SOL    HW111945   5.842   2.691   0.360
 3682SOL    HW211946   5.709   2.596   0.364
 3683SOL     OW11947   0.257   1.286   4.396
 3683SOL    HW111948   0.350   1.319   4.411
 3683SOL    HW211949   0.227   1.312   4.304
 3684SOL     OW11950   1.120   5.623   6.891
 3684SOL    HW111951   1.026   5.656   6.901
 3684SOL    HW211952   1.143   5.616   6.794
 3685SOL     OW11953   2.747   6.148   5.448
 3685SOL    HW111954   2.732   6.144   5.547
 3685SOL    HW211955   2.760   6.055   5.413
 3686SOL     OW11956   6.124   4.548   4.033
 3686SOL    HW111957   6.187   4.615   4.071
 3686SOL    HW211958   6.176   4.479   3.983
 3687SOL     OW11959   4.637   6.552   3.640
 3687SOL    HW111960   4.599   6.612   3.711
 3687SOL    HW211961   4.721   6.593   3.604
 3688SOL     OW11962   6.234   3.263   6.558
 3688SOL    HW111963   6.247   3.331   6.487
 3688SOL    HW211964   6.145   3.219   6.547
 3689SOL     OW11965   2.615   2.204   5.655
 3689SOL    HW111966   2.700   2.255   5.643
 3689SOL    HW211967   2.582   2.217   5.749
 3690SOL     OW11968   4.749   6.083   1.274
 3690SOL    HW111969   4.838   6.063   1.315
 3690SOL    HW211970   4.752   6.174   1.233
 3691SOL     OW11971   2.698   1.983   5.852
 3691SOL    HW111972   2.699   2.023   5.760
 3691SOL    HW211973   2.604   1.965   5.879
 3692SOL     OW11974   6.669   4.305   6.171
 3692SOL    HW111975   6.574   4.281   6.194
 3692SOL    HW211976   6.722   4.222   6.154
 3693SOL     OW11977   1.909   1.542   2.937
 3693SOL    HW111978   2.004   1.574   2.941
 3693SOL    HW211979   1.907   1.446   2.911
 3694SOL     OW11980   1.475   6.712   1.668
 3694SOL    HW111981   1.556   6.712   1.608
 3694SOL    HW211982   1.425   6.798   1.655
 3695SOL     OW11983   6.179   1.686   1.978
 3695SOL    HW111984   6.153   1.731   1.892
 3695SOL    HW211985   6.178   1.587   1.964
 3696SOL     OW11986   4.083   0.054   5.626
 3696SOL    HW111987   4.095   0.016   5.535
 3696SOL    HW211988   3.997   0.104   5.630
 3697SOL     OW11989   6.824   6.144   2.957
 3697SOL    HW111990   6.787   6.191   3.037
 3697SOL    HW211991   6.906   6.193   2.925
 3698SOL     OW11992   2.310   1.293   3.789
 3698SOL    HW111993   2.246   1.355   3.834
 3698SOL    HW211994   2.263   1.242   3.717
 3699SOL     OW11995   2.013   2.062   3.468
 3699SOL    HW111996   1.994   2.006   3.548
 3699SOL    HW211997   2.014   2.005   3.386
 3700SOL     OW11998   1.320   5.174   4.648
 3700SOL    HW111999   1.309   5.210   4.740
 3700SOL    HW212000   1.416   5.182   4.620
 3701SOL     OW12001   0.738   6.485   2.841
 3701SOL    HW112002   0.647   6.508   2.877
 3701SOL    HW212003   0.732   6.400   2.788
 3702SOL     OW12004   5.825   6.587   3.390
 3702SOL    HW112005   5.867   6.554   3.306
 3702SOL    HW212006   5.802   6.684   3.380
 3703SOL     OW12007   0.809   0.137   6.753
 3703SOL    HW112008   0.748   0.193   6.698
 3703SOL    HW212009   0.757   0.062   6.795
 3704SOL     OW12010   5.404   3.020   1.222
 3704SOL    HW112011   5.361   2.930   1.216
 3704SOL    HW212012   5.436   3.048   1.131
 3705SOL     OW12013   4.745   4.990   3.717
 3705SOL    HW112014   4.727   5.028   3.627
 3705SOL    HW212015   4.844   4.984   3.731
 3706SOL     OW12016   0.740   4.265   0.048
 3706SOL    HW112017   0.739   4.166   0.058
 3706SOL    HW212018   0.656   4.304   0.085
 3707SOL     OW12019   4.371   5.799   3.901
 3707SOL    HW112020   4.353   5.751   3.815
 3707SOL    HW212021   4.423   5.739   3.962
 3708SOL     OW12022   4.659   6.737   0.948
 3708SOL    HW112023   4.733   6.784   0.995
 3708SOL    HW212024   4.632   6.788   0.867
 3709SOL     OW12025   2.472   0.098   1.295
 3709SOL    HW112026   2.395   0.128   1.239
 3709SOL    HW212027   2.442   0.086   1.390
 3710SOL     OW12028   0.626   5.585   5.086
 3710SOL    HW112029   0.547   5.589   5.025
 3710SOL    HW212030   0.603   5.631   5.172
 3711SOL     OW12031   1.163   6.061   4.619
 3711SOL    HW112032   1.132   5.980   4.570
 3711SOL    HW212033   1.258   6.049   4.648
 3712SOL     OW12034   1.580   6.026   0.244
 3712SOL    HW112035   1.500   5.991   0.293
 3712SOL    HW212036   1.662   6.008   0.299
 3713SOL     OW12037   1.010   0.852   4.634
 3713SOL    HW112038   0.985   0.756   4.626
 3713SOL    HW212039   1.083   0.873   4.570
 3714SOL     OW12040   6.467   5.224   6.781
 3714SOL    HW112041   6.539   5.168   6.822
 3714SOL    HW212042   6.398   5.165   6.739
 3715SOL     OW12043   0.679   5.059   2.470
 3715SOL    HW112044   0.670   5.033   2.566
 3715SOL    HW212045   0.756   5.011   2.429
 3716SOL     OW12046   5.734   5.547   4.433
 3716SOL    HW112047   5.742   5.475   4.364
 3716SOL    HW212048   5.816   5.547   4.490
 3717SOL     OW12049   6.278   1.324   0.856
 3717SOL    HW112050   6.329   1.349   0.774
 3717SOL    HW212051   6.211   1.254   0.834
 3718SOL     OW12052   6.424   0.295   6.681
 3718SOL    HW112053   6.422   0.391   6.710
 3718SOL    HW212054   6.331   0.263   6.666
 3719SOL     OW12055   3.979   3.308   6.376
 3719SOL    HW112056   4.054   3.244   6.362
 3719SOL    HW212057   3.983   3.344   6.469
 3720SOL     OW12058   5.520   3.982   0.576
 3720SOL    HW112059   5.522   4.034   0.491
 3720SOL    HW212060   5.606   3.933   0.586
 3721SOL     OW12061   0.073   5.215   0.789
 3721SOL    HW112062   0.048   5.220   0.885
 3721SOL    HW212063   0.172   5.228   0.780
 3722SOL     OW12064   5.200   6.440   1.566
 3722SOL    HW112065   5.232   6.359   1.617
 3722SOL    HW212066   5.113   6.419   1.522
 3723SOL     OW12067   5.077   5.582   0.162
 3723SOL    HW112068   5.034   5.520   0.096
 3723SOL    HW212069   5.176   5.571   0.159
 3724SOL     OW12070   1.509   4.824   5.300
 3724SOL    HW112071   1.444   4.842   5.374
 3724SOL    HW212072   1.570   4.749   5.327
 3725SOL     OW12073   0.527   6.209   6.903
 3725SOL    HW112074   0.488   6.121   6.931
 3725SOL    HW212075   0.543   6.209   6.805
 3726SOL     OW12076   5.406   3.703   6.007
 3726SOL    HW112077   5.477   3.721   6.076
 3726SOL    HW212078   5.412   3.608   5.977
 3727SOL     OW12079   6.678   3.303   5.164
 3727SOL    HW112080   6.589   3.259   5.170
 3727SOL    HW212081   6.667   3.401   5.147
 3728SOL     OW12082   2.483   3.988   6.772
 3728SOL    HW112083   2.499   3.903   6.722
 3728SOL    HW212084   2.557   4.053   6.753
 3729SOL     OW12085   0.760   0.362   4.288
 3729SOL    HW112086   0.695   0.437   4.296
 3729SOL    HW212087   0.850   0.392   4.319
 3730SOL     OW12088   3.886   6.148   5.721
 3730SOL    HW112089   3.963   6.083   5.720
 3730SOL    HW212090   3.801   6.097   5.713
 3731SOL     OW12091   0.382   1.586   0.003
 3731SOL    HW112092   0.415   1.508   6.972
 3731SOL    HW212093   0.287   1.606   7.000
 3732SOL     OW12094   1.910   2.324   0.590
 3732SOL    HW112095   1.885   2.312   0.494
 3732SOL    HW212096   1.871   2.250   0.644
 3733SOL     OW12097   1.941   2.390   3.527
 3733SOL    HW112098   1.927   2.453   3.603
 3733SOL    HW212099   2.005   2.319   3.554
 3734SOL     OW12100   4.422   0.651   1.384
 3734SOL    HW112101   4.520   0.639   1.372
 3734SOL    HW212102   4.389   0.721   1.321
 3735SOL     OW12103   3.945   0.612   2.447
 3735SOL    HW112104   3.948   0.582   2.352
 3735SOL    HW212105   3.854   0.595   2.485
 3736SOL     OW12106   7.014   1.306   1.193
 3736SOL    HW112107   0.082   1.297   1.238
 3736SOL    HW212108   6.964   1.220   1.200
 3737SOL     OW12109   6.240   2.021   3.397
 3737SOL    HW112110   6.267   1.933   3.437
 3737SOL    HW212111   6.160   2.055   3.447
 3738SOL     OW12112   6.522   6.275   0.968
 3738SOL    HW112113   6.583   6.350   0.940
 3738SOL    HW212114   6.574   6.211   1.024
 3739SOL     OW12115   2.692   4.438   1.633
 3739SOL    HW112116   2.731   4.478   1.551
 3739SOL    HW212117   2.757   4.446   1.709
 3740SOL     OW12118   6.045   5.566   0.326
 3740SOL    HW112119   6.113   5.494   0.339
 3740SOL    HW212120   5.986   5.572   0.406
 3741SOL     OW12121   3.890   2.897   6.654
 3741SOL    HW112122   3.986   2.875   6.642
 3741SOL    HW212123   3.838   2.863   6.575
 3742SOL     OW12124   4.350   0.128   0.541
 3742SOL    HW112125   4.313   0.152   0.631
 3742SOL    HW212126   4.332   0.203   0.477
 3743SOL     OW12127   5.491   3.913   1.523
 3743SOL    HW112128   5.439   3.992   1.554
 3743SOL    HW212129   5.572   3.944   1.473
 3744SOL     OW12130   1.202   6.703   2.471
 3744SOL    HW112131   1.107   6.672   2.472
 3744SOL    HW212132   1.262   6.626   2.449
 3745SOL     OW12133   5.452   4.039   2.493
 3745SOL    HW112134   5.433   3.942   2.510
 3745SOL    HW212135   5.397   4.070   2.416
 3746SOL     OW12136   5.930   0.322   3.318
 3746SOL    HW112137   5.832   0.333   3.333
 3746SOL    HW212138   5.971   0.271   3.394
 3747SOL     OW12139   5.096   6.661   5.819
 3747SOL    HW112140   4.998   6.647   5.806
 3747SOL    HW212141   5.141   6.658   5.730
 3748SOL     OW12142   5.385   0.457   2.249
 3748SOL    HW112143   5.430   0.417   2.330
 3748SOL    HW212144   5.361   0.552   2.269
 3749SOL     OW12145   2.157   4.507   3.462
 3749SOL    HW112146   2.229   4.494   3.530
 3749SOL    HW212147   2.195   4.494   3.371
 3750SOL     OW12148   5.961   4.238   0.947
 3750SOL    HW112149   6.036   4.226   1.012
 3750SOL    HW212150   5.936   4.150   0.907
 3751SOL     OW12151   0.298   2.842   0.994
 3751SOL    HW112152   0.274   2.907   1.065
 3751SOL    HW212153   0.221   2.781   0.977
 3752SOL     OW12154   0.670   6.767   0.522
 3752SOL    HW112155   0.620   6.829   0.583
 3752SOL    HW212156   0.747   6.816   0.480
 3753SOL     OW12157   0.412   0.087   4.362
 3753SOL    HW112158   0.442   0.029   4.286
 3753SOL    HW212159   0.325   0.130   4.338
 3754SOL     OW12160   4.700   6.147   1.889
 3754SOL    HW112161   4.633   6.220   1.876
 3754SOL    HW212162   4.653   6.062   1.912
 3755SOL     OW12163   5.333   5.825   4.994
 3755SOL    HW112164   5.278   5.752   5.035
 3755SOL    HW212165   5.370   5.793   4.906
 3756SOL     OW12166   1.869   0.546   6.191
 3756SOL    HW112167   1.926   0.573   6.114
 3756SOL    HW212168   1.775   0.574   6.174
 3757SOL     OW12169   4.011   6.179   6.825
 3757SOL    HW112170   3.993   6.112   6.753
 3757SOL    HW212171   3.932   6.241   6.834
 3758SOL     OW12172   1.513   1.442   4.420
 3758SOL    HW112173   1.436   1.387   4.389
 3758SOL    HW212174   1.585   1.383   4.456
 3759SOL     OW12175   3.988   4.706   5.397
 3759SOL    HW112176   3.985   4.801   5.367
 3759SOL    HW212177   4.073   4.663   5.363
 3760SOL     OW12178   0.915   3.444   4.502
 3760SOL    HW112179   0.991   3.504   4.528
 3760SOL    HW212180   0.947   3.349   4.502
 3761SOL     OW12181   0.818   6.781   4.920
 3761SOL    HW112182   0.801   6.796   4.823
 3761SOL    HW212183   0.736   6.743   4.963
 3762SOL     OW12184   0.666   5.541   6.796
 3762SOL    HW112185   0.662   5.635   6.763
 3762SOL    HW212186   0.578   5.497   6.784
 3763SOL     OW12187   6.480   4.790   0.186
 3763SOL    HW112188   6.443   4.697   0.178
 3763SOL    HW212189   6.427   4.851   0.127
 3764SOL     OW12190   1.956   0.697   3.770
 3764SOL    HW112191   2.049   0.733   3.767
 3764SOL    HW212192   1.892   0.769   3.745
 3765SOL     OW12193   5.362   1.492   1.736
 3765SOL    HW112194   5.295   1.426   1.703
 3765SOL    HW212195   5.363   1.492   1.836
 3766SOL     OW12196   1.008   1.268   4.519
 3766SOL    HW112197   0.970   1.322   4.594
 3766SOL    HW212198   0.976   1.174   4.526
 3767SOL     OW12199   2.294   5.391   0.339
 3767SOL    HW112200   2.216   5.389   0.277
 3767SOL    HW212201   2.337   5.301   0.342
 3768SOL     OW12202   2.212   5.631   5.502
 3768SOL    HW112203   2.252   5.539   5.492
 3768SOL    HW212204   2.236   5.668   5.592
 3769SOL     OW12205   5.557   5.422   5.143
 3769SOL    HW112206   5.542   5.432   5.044
 3769SOL    HW212207   5.570   5.326   5.165
 3770SOL     OW12208   1.772   0.652   6.876
 3770SOL    HW112209   1.711   0.603   6.939
 3770SOL    HW212210   1.794   0.594   6.798
 3771SOL     OW12211   5.697   2.032   0.131
 3771SOL    HW112212   5.735   2.094   0.200
 3771SOL    HW212213   5.598   2.023   0.146
 3772SOL     OW12214   6.651   1.549   0.565
 3772SOL    HW112215   6.664   1.474   0.629
 3772SOL    HW212216   6.720   1.620   0.580
 3773SOL     OW12217   6.126   3.147   6.031
 3773SOL    HW112218   6.206   3.197   5.999
 3773SOL    HW212219   6.143   3.112   6.123
 3774SOL     OW12220   0.529   6.536   6.867
 3774SOL    HW112221   0.618   6.581   6.861
 3774SOL    HW212222   0.534   6.459   6.931
 3775SOL     OW12223   5.273   4.173   2.288
 3775SOL    HW112224   5.200   4.116   2.250
 3775SOL    HW212225   5.233   4.253   2.333
 3776SOL     OW12226   3.471   0.881   0.999
 3776SOL    HW112227   3.552   0.939   1.003
 3776SOL    HW212228   3.473   0.825   0.916
 3777SOL     OW12229   3.150   4.860   4.435
 3777SOL    HW112230   3.057   4.879   4.467
 3777SOL    HW212231   3.214   4.919   4.482
 3778SOL     OW12232   2.952   5.455   3.482
 3778SOL    HW112233   2.974   5.357   3.478
 3778SOL    HW212234   3.032   5.505   3.515
 3779SOL     OW12235   1.906   4.524   0.968
 3779SOL    HW112236   1.850   4.540   1.050
 3779SOL    HW212237   1.900   4.604   0.908
 3780SOL     OW12238   4.484   4.615   5.623
 3780SOL    HW112239   4.464   4.697   5.570
 3780SOL    HW212240   4.571   4.627   5.671
 3781SOL     OW12241   1.455   6.638   4.441
 3781SOL    HW112242   1.411   6.689   4.515
 3781SOL    HW212243   1.394   6.566   4.408
 3782SOL     OW12244   2.994   2.241   4.202
 3782SOL    HW112245   2.963   2.163   4.148
 3782SOL    HW212246   2.921   2.310   4.206
 3783SOL     OW12247   5.537   6.397   5.339
 3783SOL    HW112248   5.538   6.462   5.414
 3783SOL    HW212249   5.567   6.307   5.372
 3784SOL     OW12250   5.043   1.939   3.544
 3784SOL    HW112251   5.141   1.926   3.527
 3784SOL    HW212252   5.023   2.036   3.553
 3785SOL     OW12253   1.861   0.995   0.144
 3785SOL    HW112254   1.918   1.014   0.223
 3785SOL    HW212255   1.824   1.081   0.108
 3786SOL     OW12256   2.870   6.423   3.126
 3786SOL    HW112257   2.811   6.376   3.059
 3786SOL    HW212258   2.925   6.355   3.174
 3787SOL     OW12259   5.911   6.070   3.540
 3787SOL    HW112260   5.931   6.118   3.626
 3787SOL    HW212261   5.816   6.038   3.541
 3788SOL     OW12262   0.442   3.148   3.496
 3788SOL    HW112263   0.437   3.048   3.493
 3788SOL    HW212264   0.472   3.182   3.407
 3789SOL     OW12265   0.964   2.920   4.041
 3789SOL    HW112266   0.910   2.837   4.029
 3789SOL    HW212267   0.933   2.990   3.977
 3790SOL     OW12268   1.530   3.696   5.160
 3790SOL    HW112269   1.558   3.787   5.130
 3790SOL    HW212270   1.607   3.648   5.201
 3791SOL     OW12271   6.233   6.915   0.850
 3791SOL    HW112272   6.159   6.870   0.799
 3791SOL    HW212273   6.196   6.962   0.929
 3792SOL     OW12274   6.794   0.889   4.059
 3792SOL    HW112275   6.818   0.793   4.050
 3792SOL    HW212276   6.873   0.940   4.093
 3793SOL     OW12277   3.861   6.777   2.850
 3793SOL    HW112278   3.883   6.684   2.821
 3793SOL    HW212279   3.942   6.835   2.840
 3794SOL     OW12280   3.303   4.641   1.147
 3794SOL    HW112281   3.319   4.736   1.119
 3794SOL    HW212282   3.216   4.610   1.110
 3795SOL     OW12283   3.618   6.704   0.080
 3795SOL    HW112284   3.561   6.715   0.162
 3795SOL    HW212285   3.561   6.678   0.003
 3796SOL     OW12286   2.717   2.125   1.344
 3796SOL    HW112287   2.683   2.217   1.362
 3796SOL    HW212288   2.770   2.125   1.259
 3797SOL     OW12289   6.402   4.379   2.457
 3797SOL    HW112290   6.344   4.434   2.516
 3797SOL    HW212291   6.404   4.285   2.490
 3798SOL     OW12292   3.670   5.705   3.467
 3798SOL    HW112293   3.760   5.721   3.428
 3798SOL    HW212294   3.639   5.612   3.445
 3799SOL     OW12295   0.022   2.628   4.767
 3799SOL    HW112296   6.954   2.599   4.734
 3799SOL    HW212297   0.052   2.566   4.839
 3800SOL     OW12298   5.143   3.088   4.741
 3800SOL    HW112299   5.134   3.006   4.797
 3800SOL    HW212300   5.228   3.136   4.765
 3801SOL     OW12301   0.084   6.486   4.035
 3801SOL    HW112302   0.161   6.493   3.972
 3801SOL    HW212303   0.093   6.402   4.090
 3802SOL     OW12304   0.065   1.836   3.985
 3802SOL    HW112305   0.015   1.769   4.041
 3802SOL    HW212306   0.127   1.889   4.043
 3803SOL     OW12307   3.862   1.827   1.456
 3803SOL    HW112308   3.770   1.860   1.477
 3803SOL    HW212309   3.887   1.755   1.520
 3804SOL     OW12310   5.088   2.013   4.102
 3804SOL    HW112311   5.023   2.087   4.083
 3804SOL    HW212312   5.082   1.944   4.031
 3805SOL     OW12313   2.665   3.651   1.713
 3805SOL    HW112314   2.674   3.641   1.614
 3805SOL    HW212315   2.573   3.685   1.735
 3806SOL     OW12316   2.389   3.833   0.257
 3806SOL    HW112317   2.415   3.823   0.162
 3806SOL    HW212318   2.368   3.743   0.296
 3807SOL     OW12319   2.359   1.059   3.573
 3807SOL    HW112320   2.458   1.049   3.584
 3807SOL    HW212321   2.339   1.145   3.526
 3808SOL     OW12322   3.911   1.233   0.907
 3808SOL    HW112323   3.964   1.194   0.983
 3808SOL    HW212324   3.955   1.317   0.875
 3809SOL     OW12325   6.332   2.848   0.628
 3809SOL    HW112326   6.260   2.896   0.678
 3809SOL    HW212327   6.346   2.892   0.539
 3810SOL     OW12328   4.456   2.606   5.346
 3810SOL    HW112329   4.522   2.582   5.417
 3810SOL    HW212330   4.420   2.698   5.364
 3811SOL     OW12331   0.464   4.745   4.705
 3811SOL    HW112332   0.493   4.700   4.789
 3811SOL    HW212333   0.508   4.702   4.626
 3812SOL     OW12334   5.728   1.164   5.369
 3812SOL    HW112335   5.657   1.130   5.431
 3812SOL    HW212336   5.711   1.129   5.277
 3813SOL     OW12337   3.988   3.980   0.635
 3813SOL    HW112338   3.897   4.008   0.607
 3813SOL    HW212339   3.982   3.915   0.710
 3814SOL     OW12340   6.720   6.713   1.447
 3814SOL    HW112341   6.742   6.701   1.544
 3814SOL    HW212342   6.732   6.626   1.398
 3815SOL     OW12343   5.078   2.593   0.376
 3815SOL    HW112344   5.168   2.634   0.359
 3815SOL    HW212345   5.011   2.632   0.313
 3816SOL     OW12346   6.816   5.764   0.545
 3816SOL    HW112347   6.755   5.690   0.516
 3816SOL    HW212348   6.761   5.841   0.576
 3817SOL     OW12349   4.847   3.126   3.725
 3817SOL    HW112350   4.915   3.068   3.682
 3817SOL    HW212351   4.803   3.077   3.801
 3818SOL     OW12352   5.403   0.356   0.781
 3818SOL    HW112353   5.380   0.271   0.733
 3818SOL    HW212354   5.319   0.405   0.804
 3819SOL     OW12355   5.644   5.480   0.629
 3819SOL    HW112356   5.571   5.428   0.674
 3819SOL    HW212357   5.707   5.516   0.697
 3820SOL     OW12358   6.871   6.769   4.201
 3820SOL    HW112359   6.788   6.820   4.223
 3820SOL    HW212360   6.898   6.713   4.280
 3821SOL     OW12361   1.766   3.099   1.839
 3821SOL    HW112362   1.721   3.136   1.920
 3821SOL    HW212363   1.857   3.066   1.863
 3822SOL     OW12364   1.337   5.585   2.680
 3822SOL    HW112365   1.408   5.595   2.750
 3822SOL    HW212366   1.250   5.566   2.724
 3823SOL     OW12367   4.055   2.575   5.800
 3823SOL    HW112368   4.128   2.531   5.852
 3823SOL    HW212369   4.000   2.632   5.861
 3824SOL     OW12370   6.240   1.572   6.047
 3824SOL    HW112371   6.167   1.574   6.115
 3824SOL    HW212372   6.241   1.483   6.002
 3825SOL     OW12373   0.322   0.410   1.054
 3825SOL    HW112374   0.385   0.427   1.130
 3825SOL    HW212375   0.285   0.317   1.062
 3826SOL     OW12376   0.826   3.812   6.369
 3826SOL    HW112377   0.892   3.750   6.412
 3826SOL    HW212378   0.801   3.777   6.279
 3827SOL     OW12379   3.248   3.460   0.567
 3827SOL    HW112380   3.215   3.366   0.576
 3827SOL    HW212381   3.336   3.460   0.521
 3828SOL     OW12382   4.331   2.379   1.213
 3828SOL    HW112383   4.363   2.407   1.123
 3828SOL    HW212384   4.381   2.429   1.284
 3829SOL     OW12385   2.366   4.743   4.156
 3829SOL    HW112386   2.411   4.656   4.176
 3829SOL    HW212387   2.398   4.813   4.220
 3830SOL     OW12388   0.771   0.256   4.628
 3830SOL    HW112389   0.699   0.302   4.576
 3830SOL    HW212390   0.812   0.184   4.572
 3831SOL     OW12391   4.486   1.770   2.229
 3831SOL    HW112392   4.436   1.834   2.287
 3831SOL    HW212393   4.577   1.806   2.209
 3832SOL     OW12394   5.919   0.841   2.401
 3832SOL    HW112395   5.969   0.879   2.324
 3832SOL    HW212396   5.899   0.745   2.384
 3833SOL     OW12397   0.930   5.700   5.903
 3833SOL    HW112398   0.873   5.636   5.955
 3833SOL    HW212399   0.907   5.692   5.806
 3834SOL     OW12400   3.351   2.961   0.695
 3834SOL    HW112401   3.263   2.987   0.655
 3834SOL    HW212402   3.338   2.925   0.787
 3835SOL     OW12403   3.036   4.874   5.006
 3835SOL    HW112404   3.019   4.777   5.022
 3835SOL    HW212405   2.989   4.903   4.923
 3836SOL     OW12406   2.031   3.474   5.105
 3836SOL    HW112407   2.047   3.376   5.091
 3836SOL    HW212408   2.105   3.512   5.161
 3837SOL     OW12409   4.724   3.400   6.945
 3837SOL    HW112410   4.793   3.471   6.953
 3837SOL    HW212411   4.766   3.316   6.910
 3838SOL     OW12412   6.279   4.150   4.221
 3838SOL    HW112413   6.254   4.239   4.183
 3838SOL    HW212414   6.262   4.079   4.153
 3839SOL     OW12415   4.301   0.259   4.091
 3839SOL    HW112416   4.332   0.189   4.027
 3839SOL    HW212417   4.205   0.280   4.074
 3840SOL     OW12418   1.842   1.171   5.554
 3840SOL    HW112419   1.770   1.238   5.536
 3840SOL    HW212420   1.816   1.114   5.632
 3841SOL     OW12421   6.987   3.479   5.028
 3841SOL    HW112422   0.050   3.484   5.081
 3841SOL    HW212423   7.001   3.521   4.938
 3842SOL     OW12424   1.273   5.036   0.185
 3842SOL    HW112425   1.245   5.107   0.120
 3842SOL    HW212426   1.253   4.946   0.146
 3843SOL     OW12427   6.812   3.682   1.156
 3843SOL    HW112428   6.906   3.709   1.176
 3843SOL    HW212429   6.798   3.587   1.182
 3844SOL     OW12430   6.974   4.592   5.592
 3844SOL    HW112431   6.899   4.529   5.612
 3844SOL    HW212432   0.033   4.539   5.565
 3845SOL     OW12433   3.401   2.865   2.575
 3845SOL    HW112434   3.326   2.807   2.607
 3845SOL    HW212435   3.433   2.923   2.650
 3846SOL     OW12436   0.221   4.219   4.046
 3846SOL    HW112437   0.152   4.279   4.085
 3846SOL    HW212438   0.204   4.208   3.948
 3847SOL     OW12439   6.558   1.852   5.912
 3847SOL    HW112440   6.572   1.858   5.813
 3847SOL    HW212441   6.470   1.894   5.935
 3848SOL     OW12442   2.579   5.574   3.164
 3848SOL    HW112443   2.626   5.632   3.231
 3848SOL    HW212444   2.514   5.514   3.211
 3849SOL     OW12445   0.814   0.859   5.615
 3849SOL    HW112446   0.795   0.920   5.692
 3849SOL    HW212447   0.877   0.903   5.552
 3850SOL     OW12448   2.074   3.642   1.875
 3850SOL    HW112449   2.079   3.630   1.776
 3850SOL    HW212450   2.092   3.554   1.920
 3851SOL     OW12451   1.472   4.249   2.872
 3851SOL    HW112452   1.455   4.200   2.787
 3851SOL    HW212453   1.439   4.343   2.864
 3852SOL     OW12454   4.934   0.025   4.772
 3852SOL    HW112455   4.893   0.097   4.828
 3852SOL    HW212456   5.028   0.009   4.803
 3853SOL     OW12457   1.439   3.624   2.714
 3853SOL    HW112458   1.499   3.605   2.636
 3853SOL    HW212459   1.373   3.549   2.723
 3854SOL     OW12460   0.583   3.923   3.292
 3854SOL    HW112461   0.524   3.869   3.353
 3854SOL    HW212462   0.656   3.865   3.257
 3855SOL     OW12463   5.547   5.617   6.697
 3855SOL    HW112464   5.585   5.578   6.782
 3855SOL    HW212465   5.622   5.641   6.636
 3856SOL     OW12466   0.355   6.530   4.735
 3856SOL    HW112467   0.330   6.482   4.650
 3856SOL    HW212468   0.454   6.530   4.745
 3857SOL     OW12469   1.351   6.555   5.172
 3857SOL    HW112470   1.282   6.622   5.198
 3857SOL    HW212471   1.427   6.557   5.237
 3858SOL     OW12472   1.395   6.049   6.092
 3858SOL    HW112473   1.330   5.977   6.114
 3858SOL    HW212474   1.357   6.138   6.119
 3859SOL     OW12475   0.191   1.871   2.836
 3859SOL    HW112476   0.121   1.860   2.766
 3859SOL    HW212477   0.177   1.958   2.883
 3860SOL     OW12478   2.231   6.365   4.490
 3860SOL    HW112479   2.229   6.300   4.413
 3860SOL    HW212480   2.186   6.450   4.462
 3861SOL     OW12481   5.714   4.470   1.248
 3861SOL    HW112482   5.685   4.403   1.180
 3861SOL    HW212483   5.716   4.427   1.338
 3862SOL     OW12484   6.809   6.820   5.285
 3862SOL    HW112485   6.768   6.787   5.200
 3862SOL    HW212486   6.892   6.872   5.263
 3863SOL     OW12487   3.720   4.375   0.084
 3863SOL    HW112488   3.688   4.281   0.096
 3863SOL    HW212489   3.722   4.398   7.008
 3864SOL     OW12490   4.160   2.313   6.059
 3864SOL    HW112491   4.163   2.215   6.077
 3864SOL    HW212492   4.217   2.334   5.979
 3865SOL     OW12493   4.010   0.745   1.500
 3865SOL    HW112494   4.034   0.781   1.410
 3865SOL    HW212495   3.918   0.776   1.524
 3866SOL     OW12496   4.110   0.987   0.448
 3866SOL    HW112497   4.185   0.992   0.514
 3866SOL    HW212498   4.143   0.943   0.365
 3867SOL     OW12499   2.149   3.666   3.826
 3867SOL    HW112500   2.168   3.589   3.887
 3867SOL    HW212501   2.067   3.714   3.858
 3868SOL     OW12502   2.192   5.900   2.049
 3868SOL    HW112503   2.260   5.973   2.041
 3868SOL    HW212504   2.109   5.938   2.090
 3869SOL     OW12505   0.225   2.688   4.075
 3869SOL    HW112506   0.282   2.728   4.003
 3869SOL    HW212507   0.181   2.605   4.040
 3870SOL     OW12508   3.840   5.193   0.129
 3870SOL    HW112509   3.792   5.246   0.060
 3870SOL    HW212510   3.777   5.130   0.173
 3871SOL     OW12511   3.637   6.936   2.554
 3871SOL    HW112512   3.729   6.974   2.542
 3871SOL    HW212513   3.574   7.009   2.581
 3872SOL     OW12514   3.765   3.030   1.090
 3872SOL    HW112515   3.799   3.102   1.029
 3872SOL    HW212516   3.843   2.984   1.132
 3873SOL     OW12517   5.521   5.710   1.524
 3873SOL    HW112518   5.569   5.662   1.450
 3873SOL    HW212519   5.469   5.643   1.578
 3874SOL     OW12520   4.085   6.735   0.089
 3874SOL    HW112521   4.170   6.718   0.138
 3874SOL    HW212522   4.013   6.674   0.124
 3875SOL     OW12523   1.090   3.759   2.953
 3875SOL    HW112524   1.137   3.763   2.865
 3875SOL    HW212525   1.073   3.664   2.977
 3876SOL     OW12526   4.690   4.881   6.392
 3876SOL    HW112527   4.766   4.840   6.342
 3876SOL    HW212528   4.630   4.930   6.328
 3877SOL     OW12529   6.949   1.533   1.342
 3877SOL    HW112530   6.849   1.534   1.347
 3877SOL    HW212531   6.978   1.470   1.270
 3878SOL     OW12532   2.599   6.071   6.151
 3878SOL    HW112533   2.572   6.167   6.149
 3878SOL    HW212534   2.544   6.022   6.219
 3879SOL     OW12535   4.806   5.551   1.333
 3879SOL    HW112536   4.835   5.459   1.309
 3879SOL    HW212537   4.824   5.612   1.256
 3880SOL     OW12538   6.088   4.288   2.758
 3880SOL    HW112539   6.035   4.276   2.674
 3880SOL    HW212540   6.127   4.200   2.786
 3881SOL     OW12541   1.265   5.313   0.873
 3881SOL    HW112542   1.231   5.232   0.920
 3881SOL    HW212543   1.228   5.395   0.917
 3882SOL     OW12544   6.819   0.839   5.815
 3882SOL    HW112545   6.742   0.901   5.825
 3882SOL    HW212546   6.805   0.782   5.733
 3883SOL     OW12547   4.857   1.445   4.184
 3883SOL    HW112548   4.774   1.482   4.226
 3883SOL    HW212549   4.835   1.413   4.092
 3884SOL     OW12550   1.423   6.268   4.422
 3884SOL    HW112551   1.441   6.233   4.514
 3884SOL    HW212552   1.338   6.321   4.423
 3885SOL     OW12553   6.403   1.009   4.574
 3885SOL    HW112554   6.449   0.924   4.547
 3885SOL    HW212555   6.382   1.005   4.672
 3886SOL     OW12556   6.599   0.350   5.770
 3886SOL    HW112557   6.557   0.410   5.702
 3886SOL    HW212558   6.531   0.325   5.839
 3887SOL     OW12559   4.790   1.510   5.413
 3887SOL    HW112560   4.836   1.569   5.347
 3887SOL    HW212561   4.767   1.563   5.494
 3888SOL     OW12562   6.799   1.465   0.013
 3888SOL    HW112563   6.863   1.415   6.976
 3888SOL    HW212564   6.739   1.521   6.978
 3889SOL     OW12565   0.629   5.363   6.465
 3889SOL    HW112566   0.538   5.332   6.491
 3889SOL    HW212567   0.696   5.329   6.531
 3890SOL     OW12568   5.955   6.195   3.279
 3890SOL    HW112569   5.894   6.152   3.213
 3890SOL    HW212570   5.937   6.158   3.370
 3891SOL     OW12571   5.275   5.298   4.756
 3891SOL    HW112572   5.203   5.275   4.821
 3891SOL    HW212573   5.361   5.311   4.805
 3892SOL     OW12574   0.500   0.112   2.910
 3892SOL    HW112575   0.600   0.111   2.916
 3892SOL    HW212576   0.467   0.206   2.917
 3893SOL     OW12577   3.898   5.496   3.680
 3893SOL    HW112578   3.818   5.513   3.738
 3893SOL    HW212579   3.895   5.403   3.645
 3894SOL     OW12580   3.561   2.641   0.558
 3894SOL    HW112581   3.604   2.722   0.598
 3894SOL    HW212582   3.464   2.659   0.542
 3895SOL     OW12583   1.528   1.430   5.315
 3895SOL    HW112584   1.543   1.335   5.289
 3895SOL    HW212585   1.610   1.484   5.295
 3896SOL     OW12586   0.446   1.522   5.750
 3896SOL    HW112587   0.382   1.501   5.824
 3896SOL    HW212588   0.403   1.587   5.687
 3897SOL     OW12589   2.814   6.364   2.396
 3897SOL    HW112590   2.776   6.310   2.321
 3897SOL    HW212591   2.866   6.441   2.359
 3898SOL     OW12592   3.355   2.877   4.087
 3898SOL    HW112593   3.324   2.814   4.158
 3898SOL    HW212594   3.277   2.926   4.048
 3899SOL     OW12595   5.313   1.205   5.341
 3899SOL    HW112596   5.409   1.182   5.326
 3899SOL    HW212597   5.281   1.265   5.268
 3900SOL     OW12598   6.525   2.609   3.250
 3900SOL    HW112599   6.552   2.572   3.161
 3900SOL    HW212600   6.588   2.681   3.278
 3901SOL     OW12601   1.258   6.335   4.684
 3901SOL    HW112602   1.305   6.363   4.768
 3901SOL    HW212603   1.229   6.240   4.692
 3902SOL     OW12604   5.591   4.847   1.517
 3902SOL    HW112605   5.653   4.810   1.587
 3902SOL    HW212606   5.557   4.771   1.461
 3903SOL     OW12607   4.122   2.332   0.192
 3903SOL    HW112608   4.157   2.426   0.191
 3903SOL    HW212609   4.115   2.300   0.286
 3904SOL     OW12610   1.113   0.124   0.122
 3904SOL    HW112611   1.160   0.091   0.204
 3904SOL    HW212612   1.032   0.068   0.106
 3905SOL     OW12613   6.788   6.742   6.100
 3905SOL    HW112614   6.730   6.671   6.142
 3905SOL    HW212615   6.775   6.828   6.149
 3906SOL     OW12616   1.535   4.653   3.612
 3906SOL    HW112617   1.590   4.611   3.540
 3906SOL    HW212618   1.560   4.749   3.621
 3907SOL     OW12619   0.073   0.854   4.833
 3907SOL    HW112620   0.145   0.903   4.785
 3907SOL    HW212621   7.017   0.838   4.772
 3908SOL     OW12622   1.698   0.856   5.633
 3908SOL    HW112623   1.675   0.772   5.583
 3908SOL    HW212624   1.786   0.844   5.680
 3909SOL     OW12625   5.388   3.080   5.571
 3909SOL    HW112626   5.482   3.068   5.603
 3909SOL    HW212627   5.365   3.177   5.570
 3910SOL     OW12628   3.159   3.213   1.889
 3910SOL    HW112629   3.232   3.262   1.842
 3910SOL    HW212630   3.071   3.254   1.866
 3911SOL     OW12631   5.430   0.486   1.075
 3911SOL    HW112632   5.351   0.531   1.034
 3911SOL    HW212633   5.469   0.546   1.145
 3912SOL     OW12634   3.014   2.265   6.934
 3912SOL    HW112635   3.018   2.201   6.857
 3912SOL    HW212636   2.918   2.288   6.952
 3913SOL     OW12637   3.973   6.579   0.621
 3913SOL    HW112638   3.895   6.639   0.602
 3913SOL    HW212639   4.009   6.599   0.712
 3914SOL     OW12640   6.042   1.462   1.381
 3914SOL    HW112641   6.120   1.407   1.350
 3914SOL    HW212642   5.957   1.417   1.355
 3915SOL     OW12643   4.587   5.708   0.367
 3915SOL    HW112644   4.617   5.692   0.273
 3915SOL    HW212645   4.664   5.745   0.420
 3916SOL     OW12646   2.928   0.606   2.734
 3916SOL    HW112647   2.993   0.677   2.706
 3916SOL    HW212648   2.976   0.534   2.783
 3917SOL     OW12649   2.402   5.419   0.809
 3917SOL    HW112650   2.351   5.421   0.723
 3917SOL    HW212651   2.494   5.456   0.794
 3918SOL     OW12652   5.370   1.234   0.781
 3918SOL    HW112653   5.398   1.221   0.876
 3918SOL    HW212654   5.272   1.255   0.779
 3919SOL     OW12655   4.718   1.193   1.165
 3919SOL    HW112656   4.640   1.255   1.151
 3919SOL    HW212657   4.688   1.098   1.156
 3920SOL     OW12658   3.004   1.532   6.289
 3920SOL    HW112659   3.071   1.469   6.249
 3920SOL    HW212660   3.018   1.624   6.252
 3921SOL     OW12661   0.390   2.499   6.491
 3921SOL    HW112662   0.442   2.516   6.575
 3921SOL    HW212663   0.328   2.575   6.474
 3922SOL     OW12664   4.896   4.745   1.791
 3922SOL    HW112665   4.992   4.761   1.812
 3922SOL    HW212666   4.886   4.655   1.747
 3923SOL     OW12667   5.872   0.915   1.782
 3923SOL    HW112668   5.888   0.993   1.721
 3923SOL    HW212669   5.939   0.843   1.763
 3924SOL     OW12670   6.571   4.437   4.311
 3924SOL    HW112671   6.522   4.477   4.389
 3924SOL    HW212672   6.666   4.469   4.311
 3925SOL     OW12673   5.128   3.785   0.137
 3925SOL    HW112674   5.061   3.760   0.207
 3925SOL    HW212675   5.199   3.716   0.133
 3926SOL     OW12676   1.364   0.548   6.400
 3926SOL    HW112677   1.281   0.563   6.454
 3926SOL    HW212678   1.341   0.500   6.315
 3927SOL     OW12679   0.841   2.340   5.242
 3927SOL    HW112680   0.909   2.386   5.299
 3927SOL    HW212681   0.799   2.266   5.295
 3928SOL     OW12682   2.130   6.788   3.625
 3928SOL    HW112683   2.145   6.886   3.635
 3928SOL    HW212684   2.195   6.738   3.682
 3929SOL     OW12685   0.045   1.690   5.078
 3929SOL    HW112686   0.120   1.697   5.144
 3929SOL    HW212687   6.982   1.666   5.126
 3930SOL     OW12688   1.183   3.081   3.810
 3930SOL    HW112689   1.235   3.060   3.893
 3930SOL    HW212690   1.213   3.168   3.773
 3931SOL     OW12691   1.364   2.412   1.642
 3931SOL    HW112692   1.452   2.447   1.613
 3931SOL    HW212693   1.328   2.469   1.716
 3932SOL     OW12694   1.985   5.828   4.193
 3932SOL    HW112695   1.934   5.882   4.261
 3932SOL    HW212696   1.925   5.804   4.118
 3933SOL     OW12697   2.438   5.128   0.387
 3933SOL    HW112698   2.412   5.072   0.466
 3933SOL    HW212699   2.488   5.071   0.321
 3934SOL     OW12700   0.864   1.362   2.837
 3934SOL    HW112701   0.803   1.385   2.913
 3934SOL    HW212702   0.887   1.264   2.842
 3935SOL     OW12703   6.296   3.506   6.443
 3935SOL    HW112704   6.335   3.570   6.509
 3935SOL    HW212705   6.302   3.545   6.351
 3936SOL     OW12706   6.536   5.376   5.305
 3936SOL    HW112707   6.464   5.335   5.362
 3936SOL    HW212708   6.612   5.312   5.298
 3937SOL     OW12709   6.514   5.810   2.656
 3937SOL    HW112710   6.546   5.836   2.565
 3937SOL    HW212711   6.593   5.799   2.717
 3938SOL     OW12712   6.443   4.001   3.390
 3938SOL    HW112713   6.409   4.093   3.403
 3938SOL    HW212714   6.530   3.990   3.439
 3939SOL     OW12715   0.752   1.198   2.489
 3939SOL    HW112716   0.820   1.159   2.428
 3939SOL    HW212717   0.688   1.256   2.437
 3940SOL     OW12718   3.095   4.919   1.932
 3940SOL    HW112719   3.099   4.851   1.859
 3940SOL    HW212720   3.000   4.942   1.952
 3941SOL     OW12721   5.836   6.782   4.308
 3941SOL    HW112722   5.822   6.683   4.306
 3941SOL    HW212723   5.928   6.802   4.344
 3942SOL     OW12724   1.141   6.358   6.444
 3942SOL    HW112725   1.100   6.317   6.363
 3942SOL    HW212726   1.177   6.286   6.503
 3943SOL     OW12727   1.289   3.160   1.469
 3943SOL    HW112728   1.370   3.122   1.423
 3943SOL    HW212729   1.208   3.108   1.443
 3944SOL     OW12730   6.593   2.517   6.762
 3944SOL    HW112731   6.668   2.503   6.826
 3944SOL    HW212732   6.631   2.540   6.672
 3945SOL     OW12733   1.015   1.217   3.143
 3945SOL    HW112734   1.033   1.197   3.047
 3945SOL    HW212735   1.016   1.316   3.157
 3946SOL     OW12736   0.325   2.935   0.478
 3946SOL    HW112737   0.257   2.877   0.523
 3946SOL    HW212738   0.371   2.883   0.406
 3947SOL     OW12739   5.878   5.862   0.449
 3947SOL    HW112740   5.951   5.842   0.514
 3947SOL    HW212741   5.821   5.780   0.437
 3948SOL     OW12742   1.728   2.307   6.050
 3948SOL    HW112743   1.662   2.344   5.985
 3948SOL    HW212744   1.791   2.245   6.001
 3949SOL     OW12745   6.051   6.390   2.067
 3949SOL    HW112746   6.032   6.310   2.124
 3949SOL    HW212747   5.966   6.439   2.048
 3950SOL     OW12748   4.063   4.304   1.294
 3950SOL    HW112749   4.119   4.221   1.298
 3950SOL    HW212750   4.119   4.381   1.264
 3951SOL     OW12751   0.453   1.889   5.701
 3951SOL    HW112752   0.462   1.893   5.602
 3951SOL    HW212753   0.361   1.918   5.728
 3952SOL     OW12754   6.149   2.409   5.580
 3952SOL    HW112755   6.184   2.446   5.666
 3952SOL    HW212756   6.073   2.465   5.548
 3953SOL     OW12757   3.430   4.511   6.279
 3953SOL    HW112758   3.442   4.599   6.232
 3953SOL    HW212759   3.372   4.451   6.223
 3954SOL     OW12760   0.102   3.564   4.780
 3954SOL    HW112761   0.199   3.551   4.798
 3954SOL    HW212762   0.075   3.657   4.808
 3955SOL     OW12763   5.387   5.818   6.610
 3955SOL    HW112764   5.449   5.749   6.646
 3955SOL    HW212765   5.406   5.833   6.513
 3956SOL     OW12766   0.581   2.676   6.155
 3956SOL    HW112767   0.626   2.750   6.104
 3956SOL    HW212768   0.633   2.656   6.238
 3957SOL     OW12769   2.346   6.820   4.028
 3957SOL    HW112770   2.357   6.901   3.971
 3957SOL    HW212771   2.336   6.849   4.124
 3958SOL     OW12772   6.402   6.395   6.178
 3958SOL    HW112773   6.413   6.415   6.275
 3958SOL    HW212774   6.366   6.302   6.167
 3959SOL     OW12775   3.467   5.229   0.149
 3959SOL    HW112776   3.439   5.287   0.226
 3959SOL    HW212777   3.540   5.274   0.098
 3960SOL     OW12778   3.530   3.092   0.233
 3960SOL    HW112779   3.482   3.022   0.284
 3960SOL    HW212780   3.466   3.141   0.173
 3961SOL     OW12781   5.132   1.091   1.865
 3961SOL    HW112782   5.035   1.096   1.840
 3961SOL    HW212783   5.158   1.174   1.914
 3962SOL     OW12784   0.723   6.823   7.006
 3962SOL    HW112785   0.730   6.763   6.926
 3962SOL    HW212786   0.686   6.771   0.062
 3963SOL     OW12787   4.687   5.711   4.407
 3963SOL    HW112788   4.739   5.757   4.479
 3963SOL    HW212789   4.610   5.769   4.380
 3964SOL     OW12790   5.080   6.020   5.461
 3964SOL    HW112791   5.000   5.996   5.516
 3964SOL    HW212792   5.127   5.937   5.432
 3965SOL     OW12793   3.647   4.449   6.851
 3965SOL    HW112794   3.559   4.445   6.899
 3965SOL    HW212795   3.677   4.357   6.828
 3966SOL     OW12796   6.323   4.449   5.347
 3966SOL    HW112797   6.247   4.385   5.354
 3966SOL    HW212798   6.409   4.401   5.363
 3967SOL     OW12799   0.417   6.316   5.437
 3967SOL    HW112800   0.419   6.415   5.424
 3967SOL    HW212801   0.413   6.271   5.348
 3968SOL     OW12802   5.226   0.878   2.720
 3968SOL    HW112803   5.304   0.824   2.687
 3968SOL    HW212804   5.153   0.815   2.750
 3969SOL     OW12805   0.984   4.944   2.694
 3969SOL    HW112806   0.992   5.032   2.741
 3969SOL    HW212807   0.915   4.888   2.740
 3970SOL     OW12808   4.934   4.753   3.308
 3970SOL    HW112809   4.990   4.682   3.266
 3970SOL    HW212810   4.892   4.717   3.391
 3971SOL     OW12811   2.116   6.015   3.279
 3971SOL    HW112812   2.088   5.935   3.332
 3971SOL    HW212813   2.208   6.044   3.307
 3972SOL     OW12814   0.420   6.475   0.488
 3972SOL    HW112815   0.407   6.391   0.435
 3972SOL    HW212816   0.513   6.479   0.524
 3973SOL     OW12817   3.591   4.122   4.140
 3973SOL    HW112818   3.654   4.067   4.085
 3973SOL    HW212819   3.557   4.199   4.085
 3974SOL     OW12820   6.756   1.179   6.078
 3974SOL    HW112821   6.700   1.182   6.161
 3974SOL    HW212822   6.702   1.139   6.003
 3975SOL     OW12823   6.765   1.204   6.360
 3975SOL    HW112824   6.752   1.144   6.438
 3975SOL    HW212825   6.842   1.171   6.305
 3976SOL     OW12826   1.746   4.125   1.082
 3976SOL    HW112827   1.832   4.080   1.106
 3976SOL    HW212828   1.716   4.183   1.158
 3977SOL     OW12829   2.514   6.328   6.309
 3977SOL    HW112830   2.438   6.313   6.245
 3977SOL    HW212831   2.497   6.410   6.363
 3978SOL     OW12832   5.837   1.923   5.523
 3978SOL    HW112833   5.920   1.970   5.554
 3978SOL    HW212834   5.855   1.825   5.514
 3979SOL     OW12835   1.160   6.965   2.334
 3979SOL    HW112836   1.206   6.910   2.264
 3979SOL    HW212837   1.152   6.912   2.418
 3980SOL     OW12838   4.962   3.193   4.362
 3980SOL    HW112839   4.911   3.112   4.335
 3980SOL    HW212840   5.001   3.180   4.453
 3981SOL     OW12841   6.670   2.071   0.360
 3981SOL    HW112842   6.604   2.139   0.389
 3981SOL    HW212843   6.639   1.980   0.388
 3982SOL     OW12844   2.464   1.606   3.735
 3982SOL    HW112845   2.518   1.690   3.745
 3982SOL    HW212846   2.476   1.549   3.816
 3983SOL     OW12847   3.024   6.810   4.013
 3983SOL    HW112848   2.935   6.850   4.033
 3983SOL    HW212849   3.087   6.829   4.089
 3984SOL     OW12850   1.471   6.639   1.936
 3984SOL    HW112851   1.489   6.668   1.842
 3984SOL    HW212852   1.411   6.559   1.935
 3985SOL     OW12853   1.738   3.711   6.969
 3985SOL    HW112854   1.697   3.796   6.935
 3985SOL    HW212855   1.675   3.635   6.952
 3986SOL     OW12856   6.950   2.102   1.301
 3986SOL    HW112857   0.007   2.083   1.243
 3986SOL    HW212858   6.928   2.022   1.356
 3987SOL     OW12859   1.964   5.162   6.333
 3987SOL    HW112860   2.040   5.224   6.311
 3987SOL    HW212861   1.947   5.102   6.255
 3988SOL     OW12862   3.623   2.433   0.289
 3988SOL    HW112863   3.629   2.489   0.206
 3988SOL    HW212864   3.575   2.484   0.360
 3989SOL     OW12865   6.013   0.027   7.010
 3989SOL    HW112866   6.029   7.011   6.918
 3989SOL    HW212867   6.024   0.126   7.008
 3990SOL     OW12868   0.687   2.915   4.437
 3990SOL    HW112869   0.762   2.913   4.503
 3990SOL    HW212870   0.601   2.896   4.484
 3991SOL     OW12871   0.478   2.386   3.707
 3991SOL    HW112872   0.410   2.327   3.662
 3991SOL    HW212873   0.567   2.341   3.704
 3992SOL     OW12874   4.032   3.380   6.678
 3992SOL    HW112875   4.072   3.289   6.665
 3992SOL    HW212876   3.981   3.382   6.763
 3993SOL     OW12877   2.930   2.233   2.863
 3993SOL    HW112878   3.029   2.215   2.859
 3993SOL    HW212879   2.899   2.222   2.957
 3994SOL     OW12880   2.398   2.790   4.120
 3994SOL    HW112881   2.350   2.760   4.202
 3994SOL    HW212882   2.438   2.711   4.074
 3995SOL     OW12883   2.306   4.164   3.462
 3995SOL    HW112884   2.293   4.068   3.486
 3995SOL    HW212885   2.253   4.185   3.379
 3996SOL     OW12886   1.248   1.091   4.153
 3996SOL    HW112887   1.161   1.062   4.114
 3996SOL    HW212888   1.304   1.011   4.172
 3997SOL     OW12889   4.869   3.743   2.960
 3997SOL    HW112890   4.822   3.803   3.025
 3997SOL    HW212891   4.900   3.796   2.881
 3998SOL     OW12892   6.552   1.918   2.633
 3998SOL    HW112893   6.576   2.010   2.603
 3998SOL    HW212894   6.486   1.879   2.569
 3999SOL     OW12895   6.334   4.259   2.852
 3999SOL    HW112896   6.274   4.312   2.792
 3999SOL    HW212897   6.394   4.322   2.902
 4000SOL     OW12898   2.482   5.531   2.910
 4000SOL    HW112899   2.581   5.545   2.908
 4000SOL    HW212900   2.457   5.481   2.994
 4001SOL     OW12901   2.918   4.001   5.797
 4001SOL    HW112902   2.927   3.907   5.828
 4001SOL    HW212903   2.972   4.061   5.856
 4002SOL     OW12904   3.675   3.175   5.241
 4002SOL    HW112905   3.775   3.171   5.236
 4002SOL    HW212906   3.640   3.229   5.164
 4003SOL     OW12907   2.724   1.545   6.355
 4003SOL    HW112908   2.726   1.547   6.255
 4003SOL    HW212909   2.813   1.516   6.389
 4004SOL     OW12910   6.394   3.310   3.059
 4004SOL    HW112911   6.308   3.361   3.065
 4004SOL    HW212912   6.388   3.227   3.115
 4005SOL     OW12913   4.120   3.356   0.606
 4005SOL    HW112914   4.082   3.270   0.640
 4005SOL    HW212915   4.209   3.372   0.649
 4006SOL     OW12916   5.217   5.248   1.915
 4006SOL    HW112917   5.209   5.155   1.952
 4006SOL    HW212918   5.311   5.280   1.927
 4007SOL     OW12919   0.490   1.874   2.970
 4007SOL    HW112920   0.538   1.843   2.887
 4007SOL    HW212921   0.393   1.885   2.949
 4008SOL     OW12922   3.087   0.284   0.152
 4008SOL    HW112923   3.115   0.205   0.206
 4008SOL    HW212924   3.167   0.338   0.126
 4009SOL     OW12925   4.801   1.914   1.577
 4009SOL    HW112926   4.900   1.928   1.579
 4009SOL    HW212927   4.773   1.882   1.487
 4010SOL     OW12928   3.702   4.689   1.117
 4010SOL    HW112929   3.645   4.664   1.038
 4010SOL    HW212930   3.772   4.619   1.131
 4011SOL     OW12931   6.989   6.077   0.776
 4011SOL    HW112932   6.901   6.057   0.731
 4011SOL    HW212933   7.015   5.999   0.833
 4012SOL     OW12934   4.185   6.762   1.886
 4012SOL    HW112935   4.171   6.855   1.919
 4012SOL    HW212936   4.103   6.708   1.902
 4013SOL     OW12937   1.747   6.696   0.940
 4013SOL    HW112938   1.648   6.706   0.951
 4013SOL    HW212939   1.792   6.784   0.954
 4014SOL     OW12940   3.466   6.477   4.117
 4014SOL    HW112941   3.505   6.422   4.191
 4014SOL    HW212942   3.539   6.504   4.054
 4015SOL     OW12943   4.558   4.690   6.543
 4015SOL    HW112944   4.616   4.640   6.607
 4015SOL    HW212945   4.610   4.767   6.505
 4016SOL     OW12946   2.944   5.176   0.356
 4016SOL    HW112947   2.975   5.146   0.266
 4016SOL    HW212948   2.945   5.099   0.419
 4017SOL     OW12949   0.057   5.105   5.227
 4017SOL    HW112950   0.010   5.051   5.297
 4017SOL    HW212951   0.033   5.071   5.136
 4018SOL     OW12952   4.410   6.926   2.084
 4018SOL    HW112953   4.418   6.849   2.020
 4018SOL    HW212954   4.429   7.011   2.036
 4019SOL     OW12955   5.316   3.433   2.158
 4019SOL    HW112956   5.273   3.493   2.092
 4019SOL    HW212957   5.406   3.404   2.124
 4020SOL     OW12958   6.454   3.482   4.803
 4020SOL    HW112959   6.462   3.539   4.885
 4020SOL    HW212960   6.471   3.387   4.826
 4021SOL     OW12961   3.652   4.021   5.407
 4021SOL    HW112962   3.671   3.930   5.372
 4021SOL    HW212963   3.724   4.048   5.471
 4022SOL     OW12964   3.959   0.070   0.296
 4022SOL    HW112965   4.019   7.019   0.329
 4022SOL    HW212966   3.984   0.095   0.203
 4023SOL     OW12967   6.979   1.017   5.427
 4023SOL    HW112968   0.046   1.047   5.463
 4023SOL    HW212969   6.916   1.000   5.502
 4024SOL     OW12970   2.101   4.936   4.703
 4024SOL    HW112971   2.189   4.928   4.749
 4024SOL    HW212972   2.060   4.845   4.693
 4025SOL     OW12973   1.040   6.035   4.157
 4025SOL    HW112974   1.125   5.984   4.167
 4025SOL    HW212975   1.040   6.085   4.070
 4026SOL     OW12976   6.431   6.251   4.793
 4026SOL    HW112977   6.392   6.220   4.706
 4026SOL    HW212978   6.424   6.351   4.799
 4027SOL     OW12979   2.938   1.691   0.063
 4027SOL    HW112980   2.924   1.781   0.020
 4027SOL    HW212981   2.915   1.696   0.160
 4028SOL     OW12982   4.317   1.626   3.384
 4028SOL    HW112983   4.371   1.618   3.300
 4028SOL    HW212984   4.233   1.675   3.364
 4029SOL     OW12985   2.431   4.022   5.891
 4029SOL    HW112986   2.455   3.930   5.859
 4029SOL    HW212987   2.453   4.088   5.819
 4030SOL     OW12988   6.946   1.040   1.192
 4030SOL    HW112989   0.007   1.033   1.248
 4030SOL    HW212990   6.925   0.951   1.152
 4031SOL     OW12991   4.998   6.394   2.987
 4031SOL    HW112992   4.990   6.468   2.920
 4031SOL    HW212993   4.910   6.346   2.994
 4032SOL     OW12994   0.339   0.047   2.678
 4032SOL    HW112995   0.416   0.074   2.737
 4032SOL    HW212996   0.341   0.101   2.594
 4033SOL     OW12997   1.939   2.191   2.773
 4033SOL    HW112998   2.006   2.259   2.743
 4033SOL    HW212999   1.968   2.100   2.743
 4034SOL     OW13000   6.025   1.851   5.148
 4034SOL    HW113001   6.043   1.780   5.216
 4034SOL    HW213002   5.927   1.853   5.128
 4035SOL     OW13003   6.528   1.141   1.613
 4035SOL    HW113004   6.561   1.105   1.700
 4035SOL    HW213005   6.453   1.204   1.630
 4036SOL     OW13006   4.048   5.055   2.291
 4036SOL    HW113007   3.976   5.099   2.237
 4036SOL    HW213008   4.006   4.991   2.356
 4037SOL     OW13009   2.014   1.694   6.403
 4037SOL    HW113010   1.987   1.673   6.309
 4037SOL    HW213011   1.997   1.614   6.461
 4038SOL     OW13012   4.845   3.027   0.222
 4038SOL    HW113013   4.878   3.027   0.316
 4038SOL    HW213014   4.867   2.939   0.179
 4039SOL     OW13015   4.569   5.889   1.885
 4039SOL    HW113016   4.604   5.811   1.936
 4039SOL    HW213017   4.474   5.906   1.911
 4040SOL     OW13018   2.828   6.404   4.794
 4040SOL    HW113019   2.835   6.501   4.814
 4040SOL    HW213020   2.866   6.385   4.703
 4041SOL     OW13021   2.075   5.788   1.319
 4041SOL    HW113022   2.065   5.692   1.347
 4041SOL    HW213023   2.155   5.798   1.260
 4042SOL     OW13024   5.967   6.296   4.172
 4042SOL    HW113025   5.984   6.365   4.101
 4042SOL    HW213026   5.894   6.235   4.142
 4043SOL     OW13027   0.119   1.846   6.547
 4043SOL    HW113028   0.055   1.892   6.608
 4043SOL    HW213029   0.173   1.780   6.598
 4044SOL     OW13030   5.214   5.440   2.968
 4044SOL    HW113031   5.212   5.360   2.908
 4044SOL    HW213032   5.307   5.453   3.002
 4045SOL     OW13033   3.989   6.357   5.850
 4045SOL    HW113034   3.998   6.341   5.948
 4045SOL    HW213035   3.950   6.276   5.806
 4046SOL     OW13036   0.842   2.448   2.355
 4046SOL    HW113037   0.809   2.398   2.435
 4046SOL    HW213038   0.776   2.439   2.280
 4047SOL     OW13039   2.500   2.384   6.630
 4047SOL    HW113040   2.465   2.471   6.665
 4047SOL    HW213041   2.498   2.384   6.530
 4048SOL     OW13042   5.686   1.261   1.756
 4048SOL    HW113043   5.715   1.171   1.789
 4048SOL    HW213044   5.618   1.299   1.818
 4049SOL     OW13045   5.091   5.787   6.264
 4049SOL    HW113046   4.999   5.826   6.258
 4049SOL    HW213047   5.086   5.694   6.299
 4050SOL     OW13048   1.141   6.235   1.840
 4050SOL    HW113049   1.087   6.282   1.769
 4050SOL    HW213050   1.148   6.138   1.817
 4051SOL     OW13051   4.515   1.329   6.166
 4051SOL    HW113052   4.497   1.426   6.176
 4051SOL    HW213053   4.443   1.276   6.212
 4052SOL     OW13054   5.927   2.206   3.113
 4052SOL    HW113055   5.846   2.222   3.057
 4052SOL    HW213056   5.975   2.293   3.127
 4053SOL     OW13057   2.492   5.856   4.767
 4053SOL    HW113058   2.497   5.843   4.866
 4053SOL    HW213059   2.403   5.824   4.734
 4054SOL     OW13060   5.036   4.251   1.104
 4054SOL    HW113061   5.008   4.184   1.173
 4054SOL    HW213062   5.133   4.241   1.085
 4055SOL     OW13063   2.474   4.428   0.871
 4055SOL    HW113064   2.547   4.366   0.901
 4055SOL    HW213065   2.471   4.507   0.932
 4056SOL     OW13066   5.404   3.947   1.069
 4056SOL    HW113067   5.497   3.984   1.073
 4056SOL    HW213068   5.404   3.853   1.104
 4057SOL     OW13069   7.006   2.842   0.180
 4057SOL    HW113070   0.065   2.794   0.215
 4057SOL    HW213071   6.948   2.870   0.257
 4058SOL     OW13072   3.213   6.779   4.956
 4058SOL    HW113073   3.205   6.801   5.054
 4058SOL    HW213074   3.124   6.789   4.912
 4059SOL     OW13075   0.339   1.459   2.589
 4059SOL    HW113076   0.262   1.483   2.530
 4059SOL    HW213077   0.425   1.484   2.544
 4060SOL     OW13078   5.526   4.880   5.676
 4060SOL    HW113079   5.465   4.885   5.597
 4060SOL    HW213080   5.597   4.950   5.668
 4061SOL     OW13081   2.337   4.749   2.472
 4061SOL    HW113082   2.288   4.717   2.553
 4061SOL    HW213083   2.417   4.692   2.456
 4062SOL     OW13084   2.466   0.169   1.878
 4062SOL    HW113085   2.388   0.224   1.908
 4062SOL    HW213086   2.457   0.076   1.913
 4063SOL     OW13087   6.041   0.105   0.523
 4063SOL    HW113088   5.971   0.059   0.577
 4063SOL    HW213089   6.126   0.108   0.576
 4064SOL     OW13090   2.911   1.246   4.242
 4064SOL    HW113091   2.927   1.289   4.331
 4064SOL    HW213092   2.855   1.164   4.255
 4065SOL     OW13093   1.293   6.924   1.652
 4065SOL    HW113094   1.313   6.971   1.566
 4065SOL    HW213095   1.231   6.980   1.707
 4066SOL     OW13096   6.521   4.575   2.826
 4066SOL    HW113097   6.449   4.642   2.807
 4066SOL    HW213098   6.492   4.514   2.899
 4067SOL     OW13099   6.158   3.736   2.776
 4067SOL    HW113100   6.178   3.640   2.756
 4067SOL    HW213101   6.118   3.743   2.867
 4068SOL     OW13102   2.057   2.006   4.478
 4068SOL    HW113103   2.093   1.963   4.560
 4068SOL    HW213104   1.995   2.080   4.503
 4069SOL     OW13105   3.802   5.238   6.680
 4069SOL    HW113106   3.877   5.245   6.746
 4069SOL    HW213107   3.800   5.320   6.623
 4070SOL     OW13108   0.406   2.371   2.719
 4070SOL    HW113109   0.438   2.327   2.803
 4070SOL    HW213110   0.460   2.453   2.702
 4071SOL     OW13111   1.286   1.173   4.807
 4071SOL    HW113112   1.343   1.211   4.734
 4071SOL    HW213113   1.265   1.245   4.874
 4072SOL     OW13114   0.664   5.408   4.419
 4072SOL    HW113115   0.580   5.414   4.364
 4072SOL    HW213116   0.741   5.446   4.366
 4073SOL     OW13117   2.537   5.920   6.421
 4073SOL    HW113118   2.629   5.898   6.388
 4073SOL    HW213119   2.541   6.001   6.479
 4074SOL     OW13120   0.543   5.009   1.117
 4074SOL    HW113121   0.583   4.950   1.047
 4074SOL    HW213122   0.589   5.098   1.115
 4075SOL     OW13123   4.871   1.923   1.283
 4075SOL    HW113124   4.850   2.006   1.231
 4075SOL    HW213125   4.945   1.874   1.238
 4076SOL     OW13126   2.405   3.242   6.625
 4076SOL    HW113127   2.350   3.239   6.542
 4076SOL    HW213128   2.408   3.152   6.667
 4077SOL     OW13129   3.752   2.181   0.244
 4077SOL    HW113130   3.738   2.278   0.267
 4077SOL    HW213131   3.723   2.124   0.321
 4078SOL     OW13132   1.994   5.143   1.932
 4078SOL    HW113133   1.983   5.097   1.844
 4078SOL    HW213134   2.038   5.080   1.997
 4079SOL     OW13135   2.023   1.076   3.566
 4079SOL    HW113136   2.120   1.057   3.555
 4079SOL    HW213137   1.975   1.051   3.482
 4080SOL     OW13138   4.944   2.856   6.275
 4080SOL    HW113139   4.849   2.878   6.298
 4080SOL    HW213140   4.995   2.941   6.261
 4081SOL     OW13141   1.631   2.641   3.861
 4081SOL    HW113142   1.664   2.599   3.946
 4081SOL    HW213143   1.583   2.726   3.883
 4082SOL     OW13144   1.169   4.450   0.410
 4082SOL    HW113145   1.110   4.395   0.470
 4082SOL    HW213146   1.167   4.411   0.317
 4083SOL     OW13147   6.898   3.338   2.663
 4083SOL    HW113148   6.992   3.371   2.662
 4083SOL    HW213149   6.867   3.321   2.569
 4084SOL     OW13150   5.927   2.466   3.637
 4084SOL    HW113151   5.934   2.564   3.620
 4084SOL    HW213152   5.946   2.448   3.734
 4085SOL     OW13153   3.475   5.487   1.217
 4085SOL    HW113154   3.445   5.488   1.313
 4085SOL    HW213155   3.483   5.581   1.184
 4086SOL     OW13156   2.010   5.653   1.645
 4086SOL    HW113157   2.009   5.563   1.687
 4086SOL    HW213158   2.069   5.650   1.563
 4087SOL     OW13159   3.067   2.117   3.257
 4087SOL    HW113160   3.119   2.100   3.173
 4087SOL    HW213161   3.016   2.035   3.282
 4088SOL     OW13162   0.673   1.950   0.796
 4088SOL    HW113163   0.574   1.954   0.782
 4088SOL    HW213164   0.703   2.029   0.848
 4089SOL     OW13165   6.043   6.503   3.987
 4089SOL    HW113166   6.120   6.528   3.927
 4089SOL    HW213167   5.959   6.543   3.951
 4090SOL     OW13168   1.046   4.125   5.884
 4090SOL    HW113169   1.009   4.169   5.965
 4090SOL    HW213170   1.133   4.167   5.860
 4091SOL     OW13171   6.786   6.310   0.237
 4091SOL    HW113172   6.687   6.295   0.241
 4091SOL    HW213173   6.833   6.225   0.259
 4092SOL     OW13174   6.786   2.499   5.092
 4092SOL    HW113175   6.877   2.477   5.127
 4092SOL    HW213176   6.744   2.569   5.149
 4093SOL     OW13177   4.333   0.472   2.717
 4093SOL    HW113178   4.245   0.516   2.734
 4093SOL    HW213179   4.403   0.515   2.773
 4094SOL     OW13180   2.480   6.034   4.322
 4094SOL    HW113181   2.559   6.093   4.343
 4094SOL    HW213182   2.511   5.957   4.265
 4095SOL     OW13183   0.406   3.565   6.943
 4095SOL    HW113184   0.485   3.586   6.885
 4095SOL    HW213185   0.342   3.642   6.942
 4096SOL     OW13186   4.787   5.991   0.177
 4096SOL    HW113187   4.817   6.010   0.271
 4096SOL    HW213188   4.752   6.075   0.137
 4097SOL     OW13189   3.535   4.657   5.873
 4097SOL    HW113190   3.517   4.574   5.821
 4097SOL    HW213191   3.536   4.736   5.812
 4098SOL     OW13192   0.899   3.123   1.693
 4098SOL    HW113193   0.948   3.075   1.766
 4098SOL    HW213194   0.892   3.220   1.716
 4099SOL     OW13195   2.844   4.745   1.148
 4099SOL    HW113196   2.890   4.688   1.079
 4099SOL    HW213197   2.763   4.786   1.108
 4100SOL     OW13198   6.789   5.498   5.046
 4100SOL    HW113199   6.805   5.541   4.957
 4100SOL    HW213200   6.872   5.452   5.076
 4101SOL     OW13201   5.893   1.108   0.363
 4101SOL    HW113202   5.826   1.180   0.342
 4101SOL    HW213203   5.861   1.055   0.441
 4102SOL     OW13204   6.589   0.799   0.655
 4102SOL    HW113205   6.578   0.804   0.556
 4102SOL    HW213206   6.686   0.805   0.678
 4103SOL     OW13207   0.458   0.944   0.792
 4103SOL    HW113208   0.510   0.920   0.710
 4103SOL    HW213209   0.429   0.861   0.839
 4104SOL     OW13210   0.742   4.757   2.538
 4104SOL    HW113211   0.675   4.694   2.497
 4104SOL    HW213212   0.805   4.789   2.467
 4105SOL     OW13213   3.925   6.027   1.628
 4105SOL    HW113214   4.001   6.034   1.562
 4105SOL    HW213215   3.952   5.968   1.704
 4106SOL     OW13216   6.908   1.941   4.273
 4106SOL    HW113217   6.850   1.922   4.194
 4106SOL    HW213218   6.963   1.860   4.293
 4107SOL     OW13219   1.601   6.181   1.160
 4107SOL    HW113220   1.632   6.106   1.102
 4107SOL    HW213221   1.650   6.179   1.247
 4108SOL     OW13222   6.840   4.232   5.500
 4108SOL    HW113223   6.877   4.175   5.573
 4108SOL    HW213224   6.768   4.182   5.452
 4109SOL     OW13225   5.033   6.402   5.147
 4109SOL    HW113226   5.036   6.483   5.088
 4109SOL    HW213227   5.095   6.415   5.224
 4110SOL     OW13228   4.053   2.587   6.834
 4110SOL    HW113229   4.119   2.609   6.906
 4110SOL    HW213230   3.961   2.614   6.863
 4111SOL     OW13231   3.641   3.412   6.711
 4111SOL    HW113232   3.703   3.406   6.789
 4111SOL    HW213233   3.668   3.488   6.652
 4112SOL     OW13234   4.630   0.313   5.234
 4112SOL    HW113235   4.719   0.274   5.256
 4112SOL    HW213236   4.633   0.352   5.142
 4113SOL     OW13237   4.991   6.514   4.503
 4113SOL    HW113238   4.916   6.475   4.557
 4113SOL    HW213239   4.983   6.482   4.409
 4114SOL     OW13240   3.247   2.140   4.358
 4114SOL    HW113241   3.177   2.092   4.412
 4114SOL    HW213242   3.203   2.186   4.281
 4115SOL     OW13243   3.833   5.598   2.416
 4115SOL    HW113244   3.852   5.585   2.318
 4115SOL    HW213245   3.862   5.689   2.444
 4116SOL     OW13246   3.798   2.184   1.655
 4116SOL    HW113247   3.849   2.256   1.608
 4116SOL    HW213248   3.762   2.219   1.742
 4117SOL     OW13249   0.855   4.915   2.290
 4117SOL    HW113250   0.941   4.963   2.272
 4117SOL    HW213251   0.781   4.960   2.241
 4118SOL     OW13252   2.897   6.834   6.794
 4118SOL    HW113253   2.826   6.803   6.857
 4118SOL    HW213254   2.892   6.933   6.784
 4119SOL     OW13255   4.247   2.336   4.033
 4119SOL    HW113256   4.315   2.320   3.960
 4119SOL    HW213257   4.293   2.370   4.115
 4120SOL     OW13258   4.270   0.371   0.400
 4120SOL    HW113259   4.343   0.420   0.352
 4120SOL    HW213260   4.184   0.379   0.349
 4121SOL     OW13261   5.991   1.014   5.121
 4121SOL    HW113262   5.977   1.083   5.051
 4121SOL    HW213263   5.902   0.983   5.156
 4122SOL     OW13264   1.027   5.465   5.444
 4122SOL    HW113265   1.023   5.440   5.347
 4122SOL    HW213266   1.055   5.385   5.498
 4123SOL     OW13267   4.374   4.807   5.918
 4123SOL    HW113268   4.394   4.888   5.864
 4123SOL    HW213269   4.460   4.763   5.945
 4124SOL     OW13270   6.109   5.016   6.277
 4124SOL    HW113271   6.202   5.033   6.308
 4124SOL    HW213272   6.104   5.031   6.178
 4125SOL     OW13273   4.576   1.521   2.268
 4125SOL    HW113274   4.665   1.528   2.222
 4125SOL    HW213275   4.531   1.610   2.269
 4126SOL     OW13276   1.610   3.791   3.343
 4126SOL    HW113277   1.667   3.751   3.415
 4126SOL    HW213278   1.514   3.771   3.362
 4127SOL     OW13279   4.833   4.658   4.573
 4127SOL    HW113280   4.765   4.593   4.540
 4127SOL    HW213281   4.852   4.725   4.501
 4128SOL     OW13282   1.343   3.548   2.119
 4128SOL    HW113283   1.375   3.453   2.113
 4128SOL    HW213284   1.362   3.583   2.211
 4129SOL     OW13285   4.827   1.567   6.919
 4129SOL    HW113286   4.819   1.478   6.964
 4129SOL    HW213287   4.746   1.584   6.864
 4130SOL     OW13288   6.803   2.364   5.530
 4130SOL    HW113289   6.876   2.313   5.576
 4130SOL    HW213290   6.744   2.300   5.480
 4131SOL     OW13291   1.635   6.244   3.875
 4131SOL    HW113292   1.582   6.227   3.958
 4131SOL    HW213293   1.656   6.342   3.868
 4132SOL     OW13294   5.171   4.100   3.459
 4132SOL    HW113295   5.175   4.029   3.388
 4132SOL    HW213296   5.189   4.189   3.418
 4133SOL     OW13297   2.861   0.107   1.830
 4133SOL    HW113298   2.924   0.156   1.769
 4133SOL    HW213299   2.907   0.090   1.918
 4134SOL     OW13300   2.165   2.608   0.170
 4134SOL    HW113301   2.091   2.542   0.162
 4134SOL    HW213302   2.141   2.692   0.123
 4135SOL     OW13303   2.320   1.454   2.495
 4135SOL    HW113304   2.361   1.521   2.558
 4135SOL    HW213305   2.221   1.471   2.490
 4136SOL     OW13306   1.680   2.271   2.854
 4136SOL    HW113307   1.774   2.264   2.820
 4136SOL    HW213308   1.617   2.237   2.785
 4137SOL     OW13309   1.524   4.407   1.098
 4137SOL    HW113310   1.526   4.328   1.159
 4137SOL    HW213311   1.582   4.390   1.019
 4138SOL     OW13312   3.789   4.859   3.160
 4138SOL    HW113313   3.779   4.760   3.153
 4138SOL    HW213314   3.711   4.897   3.211
 4139SOL     OW13315   2.376   2.688   4.406
 4139SOL    HW113316   2.436   2.627   4.353
 4139SOL    HW213317   2.388   2.669   4.503
 4140SOL     OW13318   3.072   0.736   5.353
 4140SOL    HW113319   2.995   0.672   5.351
 4140SOL    HW213320   3.045   0.819   5.402
 4141SOL     OW13321   5.317   6.705   1.720
 4141SOL    HW113322   5.323   6.619   1.669
 4141SOL    HW213323   5.253   6.767   1.675
 4142SOL     OW13324   6.410   5.380   0.691
 4142SOL    HW113325   6.443   5.348   0.779
 4142SOL    HW213326   6.415   5.306   0.624
 4143SOL     OW13327   0.311   3.107   0.146
 4143SOL    HW113328   0.235   3.122   0.083
 4143SOL    HW213329   0.290   3.151   0.234
 4144SOL     OW13330   4.918   3.530   6.362
 4144SOL    HW113331   4.841   3.586   6.333
 4144SOL    HW213332   4.897   3.489   6.451
 4145SOL     OW13333   6.705   5.862   0.973
 4145SOL    HW113334   6.679   5.772   0.939
 4145SOL    HW213335   6.624   5.908   1.010
 4146SOL     OW13336   0.243   1.070   5.485
 4146SOL    HW113337   0.265   1.137   5.555
 4146SOL    HW213338   0.306   0.992   5.493
 4147SOL     OW13339   4.436   2.735   5.685
 4147SOL    HW113340   4.371   2.737   5.762
 4147SOL    HW213341   4.522   2.775   5.715
 4148SOL     OW13342   1.192   0.258   4.312
 4148SOL    HW113343   1.206   0.226   4.405
 4148SOL    HW213344   1.268   0.227   4.255
 4149SOL     OW13345   0.477   2.563   0.626
 4149SOL    HW113346   0.380   2.553   0.647
 4149SOL    HW213347   0.491   2.647   0.572
 4150SOL     OW13348   0.370   0.790   5.182
 4150SOL    HW113349   0.402   0.812   5.090
 4150SOL    HW213350   0.281   0.832   5.197
 4151SOL     OW13351   4.038   6.331   6.218
 4151SOL    HW113352   4.131   6.368   6.213
 4151SOL    HW213353   3.985   6.382   6.286
 4152SOL     OW13354   3.126   6.233   1.081
 4152SOL    HW113355   3.105   6.143   1.120
 4152SOL    HW213356   3.152   6.223   0.985
 4153SOL     OW13357   4.594   4.998   7.003
 4153SOL    HW113358   4.519   4.990   0.048
 4153SOL    HW213359   4.584   4.926   6.934
 4154SOL     OW13360   0.639   4.440   4.771
 4154SOL    HW113361   0.564   4.491   4.813
 4154SOL    HW213362   0.616   4.422   4.675
 4155SOL     OW13363   6.706   1.949   2.886
 4155SOL    HW113364   6.674   1.915   2.975
 4155SOL    HW213365   6.632   1.943   2.819
 4156SOL     OW13366   5.145   6.714   4.619
 4156SOL    HW113367   5.088   6.647   4.573
 4156SOL    HW213368   5.109   6.806   4.601
 4157SOL     OW13369   4.105   6.646   4.002
 4157SOL    HW113370   4.088   6.667   4.099
 4157SOL    HW213371   4.140   6.727   3.956
 4158SOL     OW13372   1.974   5.025   3.717
 4158SOL    HW113373   2.071   5.009   3.701
 4158SOL    HW213374   1.941   4.960   3.786
 4159SOL     OW13375   2.115   3.132   3.833
 4159SOL    HW113376   2.154   3.153   3.743
 4159SOL    HW213377   2.031   3.080   3.821
 4160SOL     OW13378   6.884   0.234   0.833
 4160SOL    HW113379   6.860   0.179   0.913
 4160SOL    HW213380   6.801   0.255   0.781
 4161SOL     OW13381   1.073   0.315   6.412
 4161SOL    HW113382   1.121   0.283   6.494
 4161SOL    HW213383   1.099   0.409   6.392
 4162SOL     OW13384   6.078   6.337   5.716
 4162SOL    HW113385   6.134   6.288   5.782
 4162SOL    HW213386   6.135   6.362   5.637
 4163SOL     OW13387   6.263   0.084   3.330
 4163SOL    HW113388   6.284   7.013   3.363
 4163SOL    HW213389   6.232   0.079   3.235
 4164SOL     OW13390   0.778   6.630   6.347
 4164SOL    HW113391   0.832   6.567   6.291
 4164SOL    HW213392   0.741   6.581   6.426
 4165SOL     OW13393   4.415   0.536   6.992
 4165SOL    HW113394   4.466   0.460   6.951
 4165SOL    HW213395   4.332   0.500   0.014
 4166SOL     OW13396   5.686   3.881   1.160
 4166SOL    HW113397   5.770   3.903   1.209
 4166SOL    HW213398   5.685   3.783   1.138
 4167SOL     OW13399   1.709   4.359   0.890
 4167SOL    HW113400   1.734   4.272   0.934
 4167SOL    HW213401   1.790   4.417   0.884
 4168SOL     OW13402   0.182   5.095   1.104
 4168SOL    HW113403   0.233   5.160   1.160
 4168SOL    HW213404   0.225   5.005   1.108
 4169SOL     OW13405   5.813   3.644   3.706
 4169SOL    HW113406   5.906   3.638   3.669
 4169SOL    HW213407   5.750   3.673   3.634
 4170SOL     OW13408   3.015   3.461   5.060
 4170SOL    HW113409   3.012   3.383   4.997
 4170SOL    HW213410   2.936   3.458   5.121
 4171SOL     OW13411   5.117   4.710   1.416
 4171SOL    HW113412   5.174   4.715   1.335
 4171SOL    HW213413   5.079   4.618   1.424
 4172SOL     OW13414   0.499   1.884   6.519
 4172SOL    HW113415   0.469   1.972   6.484
 4172SOL    HW213416   0.452   1.864   6.605
 4173SOL     OW13417   5.339   3.494   5.406
 4173SOL    HW113418   5.405   3.536   5.469
 4173SOL    HW213419   5.364   3.517   5.312
 4174SOL     OW13420   5.055   0.512   4.114
 4174SOL    HW113421   5.062   0.412   4.105
 4174SOL    HW213422   5.142   0.549   4.146
 4175SOL     OW13423   2.340   5.622   4.542
 4175SOL    HW113424   2.300   5.703   4.584
 4175SOL    HW213425   2.275   5.546   4.548
 4176SOL     OW13426   2.655   6.516   2.063
 4176SOL    HW113427   2.697   6.434   2.103
 4176SOL    HW213428   2.655   6.589   2.131
 4177SOL     OW13429   6.806   4.435   4.777
 4177SOL    HW113430   6.727   4.389   4.737
 4177SOL    HW213431   6.775   4.500   4.847
 4178SOL     OW13432   4.557   1.063   3.843
 4178SOL    HW113433   4.538   1.156   3.813
 4178SOL    HW213434   4.493   1.000   3.800
 4179SOL     OW13435   5.560   2.771   3.566
 4179SOL    HW113436   5.569   2.681   3.609
 4179SOL    HW213437   5.474   2.813   3.595
 4180SOL     OW13438   5.438   3.440   1.718
 4180SOL    HW113439   5.494   3.358   1.708
 4180SOL    HW213440   5.497   3.519   1.734
 4181SOL     OW13441   2.135   2.115   6.206
 4181SOL    HW113442   2.169   2.069   6.288
 4181SOL    HW213443   2.041   2.146   6.222
 4182SOL     OW13444   0.093   6.134   2.612
 4182SOL    HW113445   0.126   6.052   2.660
 4182SOL    HW213446   0.134   6.215   2.654
 4183SOL     OW13447   3.995   0.873   0.743
 4183SOL    HW113448   3.994   0.924   0.657
 4183SOL    HW213449   3.902   0.842   0.764
 4184SOL     OW13450   4.757   4.868   1.250
 4184SOL    HW113451   4.689   4.909   1.189
 4184SOL    HW213452   4.732   4.773   1.270
 4185SOL     OW13453   0.923   6.044   2.749
 4185SOL    HW113454   0.989   6.069   2.819
 4185SOL    HW213455   0.852   6.114   2.743
 4186SOL     OW13456   1.328   4.629   0.650
 4186SOL    HW113457   1.289   4.539   0.664
 4186SOL    HW213458   1.420   4.620   0.611
 4187SOL     OW13459   3.823   3.912   5.925
 4187SOL    HW113460   3.837   3.873   5.834
 4187SOL    HW213461   3.737   3.964   5.926
 4188SOL     OW13462   4.952   6.687   3.934
 4188SOL    HW113463   4.866   6.653   3.973
 4188SOL    HW213464   5.005   6.610   3.898
 4189SOL     OW13465   3.204   1.282   4.773
 4189SOL    HW113466   3.279   1.264   4.837
 4189SOL    HW213467   3.135   1.210   4.782
 4190SOL     OW13468   1.672   0.135   6.866
 4190SOL    HW113469   1.638   0.057   6.814
 4190SOL    HW213470   1.674   0.216   6.808
 4191SOL     OW13471   5.812   3.669   2.882
 4191SOL    HW113472   5.837   3.717   2.797
 4191SOL    HW213473   5.762   3.586   2.859
 4192SOL     OW13474   6.584   0.831   3.653
 4192SOL    HW113475   6.495   0.862   3.618
 4192SOL    HW213476   6.634   0.910   3.688
 4193SOL     OW13477   1.918   6.810   1.527
 4193SOL    HW113478   1.952   6.868   1.601
 4193SOL    HW213479   1.917   6.714   1.557
 4194SOL     OW13480   6.752   1.665   5.537
 4194SOL    HW113481   6.739   1.579   5.488
 4194SOL    HW213482   6.849   1.691   5.532
 4195SOL     OW13483   3.151   0.574   1.402
 4195SOL    HW113484   3.078   0.531   1.348
 4195SOL    HW213485   3.111   0.635   1.470
 4196SOL     OW13486   6.198   1.819   3.619
 4196SOL    HW113487   6.281   1.763   3.611
 4196SOL    HW213488   6.223   1.912   3.644
 4197SOL     OW13489   4.576   4.838   4.572
 4197SOL    HW113490   4.650   4.822   4.507
 4197SOL    HW213491   4.612   4.887   4.651
 4198SOL     OW13492   5.859   3.391   6.676
 4198SOL    HW113493   5.781   3.347   6.631
 4198SOL    HW213494   5.937   3.392   6.614
 4199SOL     OW13495   2.100   3.556   6.056
 4199SOL    HW113496   2.015   3.608   6.066
 4199SOL    HW213497   2.126   3.552   5.959
 4200SOL     OW13498   2.941   6.618   5.150
 4200SOL    HW113499   2.909   6.598   5.242
 4200SOL    HW213500   3.017   6.683   5.156
 4201SOL     OW13501   5.643   6.373   3.959
 4201SOL    HW113502   5.669   6.277   3.971
 4201SOL    HW213503   5.548   6.385   3.985
 4202SOL     OW13504   4.348   5.609   5.578
 4202SOL    HW113505   4.291   5.624   5.497
 4202SOL    HW213506   4.417   5.681   5.584
 4203SOL     OW13507   4.237   5.961   2.240
 4203SOL    HW113508   4.224   5.864   2.258
 4203SOL    HW213509   4.296   6.000   2.311
 4204SOL     OW13510   3.346   2.788   1.926
 4204SOL    HW113511   3.250   2.810   1.943
 4204SOL    HW213512   3.400   2.813   2.006
 4205SOL     OW13513   3.789   5.352   4.609
 4205SOL    HW113514   3.733   5.425   4.646
 4205SOL    HW213515   3.801   5.364   4.511
 4206SOL     OW13516   5.891   0.923   5.474
 4206SOL    HW113517   5.943   0.922   5.389
 4206SOL    HW213518   5.819   0.992   5.469
 4207SOL     OW13519   2.475   1.764   1.506
 4207SOL    HW113520   2.427   1.822   1.440
 4207SOL    HW213521   2.573   1.779   1.498
 4208SOL     OW13522   1.161   2.169   0.292
 4208SOL    HW113523   1.229   2.165   0.219
 4208SOL    HW213524   1.179   2.249   0.349
 4209SOL     OW13525   1.055   1.783   4.571
 4209SOL    HW113526   1.084   1.688   4.564
 4209SOL    HW213527   1.127   1.837   4.616
 4210SOL     OW13528   2.949   3.303   1.728
 4210SOL    HW113529   2.920   3.211   1.703
 4210SOL    HW213530   2.873   3.350   1.773
 4211SOL     OW13531   4.682   6.180   5.925
 4211SOL    HW113532   4.630   6.172   6.010
 4211SOL    HW213533   4.697   6.089   5.886
 4212SOL     OW13534   6.167   1.822   2.202
 4212SOL    HW113535   6.181   1.773   2.116
 4212SOL    HW213536   6.152   1.919   2.183
 4213SOL     OW13537   2.529   1.302   2.387
 4213SOL    HW113538   2.453   1.344   2.436
 4213SOL    HW213539   2.614   1.351   2.408
 4214SOL     OW13540   6.799   4.133   5.936
 4214SOL    HW113541   6.721   4.112   5.876
 4214SOL    HW213542   6.777   4.103   6.029
 4215SOL     OW13543   6.829   5.613   4.797
 4215SOL    HW113544   6.777   5.555   4.734
 4215SOL    HW213545   6.902   5.660   4.746
 4216SOL     OW13546   1.456   1.713   2.949
 4216SOL    HW113547   1.541   1.756   2.918
 4216SOL    HW213548   1.384   1.783   2.956
 4217SOL     OW13549   6.213   0.445   2.892
 4217SOL    HW113550   6.254   0.523   2.844
 4217SOL    HW213551   6.272   0.419   2.969
 4218SOL     OW13552   4.837   6.988   1.463
 4218SOL    HW113553   4.751   0.009   1.437
 4218SOL    HW213554   4.911   0.001   1.405
 4219SOL     OW13555   2.802   5.231   5.073
 4219SOL    HW113556   2.773   5.230   4.977
 4219SOL    HW213557   2.825   5.138   5.102
 4220SOL     OW13558   6.276   3.045   3.131
 4220SOL    HW113559   6.271   3.006   3.223
 4220SOL    HW213560   6.361   3.015   3.088
 4221SOL     OW13561   6.280   5.636   6.544
 4221SOL    HW113562   6.239   5.549   6.570
 4221SOL    HW213563   6.344   5.665   6.615
 4222SOL     OW13564   6.111   2.131   2.114
 4222SOL    HW113565   6.166   2.213   2.121
 4222SOL    HW213566   6.116   2.095   2.020
 4223SOL     OW13567   3.333   3.159   4.548
 4223SOL    HW113568   3.366   3.146   4.455
 4223SOL    HW213569   3.334   3.072   4.597
 4224SOL     OW13570   4.985   3.075   4.033
 4224SOL    HW113571   4.976   3.021   4.117
 4224SOL    HW213572   4.966   3.171   4.053
 4225SOL     OW13573   5.047   0.639   5.250
 4225SOL    HW113574   5.143   0.632   5.274
 4225SOL    HW213575   4.997   0.687   5.322
 4226SOL     OW13576   2.009   0.310   3.268
 4226SOL    HW113577   2.100   0.282   3.236
 4226SOL    HW213578   2.017   0.397   3.317
 4227SOL     OW13579   3.249   4.472   6.521
 4227SOL    HW113580   3.312   4.475   6.443
 4227SOL    HW213581   3.176   4.407   6.503
 4228SOL     OW13582   6.238   4.817   3.504
 4228SOL    HW113583   6.234   4.866   3.591
 4228SOL    HW213584   6.166   4.748   3.501
 4229SOL     OW13585   3.864   4.758   6.392
 4229SOL    HW113586   3.960   4.747   6.366
 4229SOL    HW213587   3.851   4.849   6.431
 4230SOL     OW13588   2.594   0.575   4.622
 4230SOL    HW113589   2.618   0.500   4.560
 4230SOL    HW213590   2.501   0.561   4.657
 4231SOL     OW13591   5.527   6.315   5.013
 4231SOL    HW113592   5.445   6.267   5.046
 4231SOL    HW213593   5.589   6.249   4.970
 4232SOL     OW13594   0.540   5.204   1.693
 4232SOL    HW113595   0.583   5.295   1.691
 4232SOL    HW213596   0.486   5.195   1.777
 4233SOL     OW13597   6.405   0.085   0.201
 4233SOL    HW113598   6.360   0.147   0.136
 4233SOL    HW213599   6.338   0.018   0.235
 4234SOL     OW13600   1.526   6.509   5.364
 4234SOL    HW113601   1.599   6.578   5.363
 4234SOL    HW213602   1.490   6.501   5.457
 4235SOL     OW13603   6.055   3.891   5.193
 4235SOL    HW113604   6.081   3.913   5.099
 4235SOL    HW213605   5.999   3.808   5.194
 4236SOL     OW13606   6.850   3.093   3.205
 4236SOL    HW113607   6.818   3.119   3.296
 4236SOL    HW213608   6.797   3.142   3.136
 4237SOL     OW13609   5.871   4.554   4.102
 4237SOL    HW113610   5.964   4.562   4.067
 4237SOL    HW213611   5.873   4.506   4.190
 4238SOL     OW13612   4.194   4.763   3.937
 4238SOL    HW113613   4.231   4.673   3.915
 4238SOL    HW213614   4.257   4.834   3.903
 4239SOL     OW13615   5.564   0.056   4.232
 4239SOL    HW113616   5.521   0.095   4.313
 4239SOL    HW213617   5.539   6.982   4.223
 4240SOL     OW13618   2.288   6.129   6.217
 4240SOL    HW113619   2.270   6.034   6.243
 4240SOL    HW213620   2.230   6.190   6.271
 4241SOL     OW13621   6.015   0.285   1.101
 4241SOL    HW113622   5.929   0.317   1.142
 4241SOL    HW213623   6.031   0.332   1.015
 4242SOL     OW13624   2.183   0.117   3.141
 4242SOL    HW113625   2.185   0.020   3.161
 4242SOL    HW213626   2.180   0.131   3.042
 4243SOL     OW13627   0.817   3.822   2.808
 4243SOL    HW113628   0.898   3.767   2.827
 4243SOL    HW213629   0.808   3.835   2.710
 4244SOL     OW13630   4.644   5.904   1.075
 4244SOL    HW113631   4.678   5.966   1.147
 4244SOL    HW213632   4.715   5.836   1.054
 4245SOL     OW13633   0.070   2.437   0.205
 4245SOL    HW113634   0.122   2.352   0.191
 4245SOL    HW213635   7.014   2.419   0.266
 4246SOL     OW13636   5.305   3.393   3.267
 4246SOL    HW113637   5.283   3.367   3.173
 4246SOL    HW213638   5.323   3.311   3.321
 4247SOL     OW13639   2.349   5.301   4.699
 4247SOL    HW113640   2.355   5.288   4.798
 4247SOL    HW213641   2.266   5.257   4.664
 4248SOL     OW13642   1.617   1.078   3.354
 4248SOL    HW113643   1.581   1.129   3.432
 4248SOL    HW213644   1.546   1.017   3.319
 4249SOL     OW13645   6.654   1.804   3.761
 4249SOL    HW113646   6.661   1.760   3.671
 4249SOL    HW213647   6.730   1.773   3.819
 4250SOL     OW13648   6.970   5.731   4.110
 4250SOL    HW113649   7.015   5.642   4.097
 4250SOL    HW213650   0.000   5.785   4.176
 4251SOL     OW13651   5.837   2.447   6.600
 4251SOL    HW113652   5.780   2.478   6.676
 4251SOL    HW213653   5.889   2.367   6.627
 4252SOL     OW13654   6.165   5.886   6.552
 4252SOL    HW113655   6.235   5.943   6.509
 4252SOL    HW213656   6.188   5.790   6.540
 4253SOL     OW13657   3.404   6.320   2.511
 4253SOL    HW113658   3.339   6.337   2.437
 4253SOL    HW213659   3.421   6.404   2.562
 4254SOL     OW13660   2.365   4.701   1.951
 4254SOL    HW113661   2.280   4.659   1.918
 4254SOL    HW213662   2.443   4.649   1.916
 4255SOL     OW13663   6.964   3.255   3.832
 4255SOL    HW113664   0.034   3.294   3.837
 4255SOL    HW213665   6.896   3.328   3.840
 4256SOL     OW13666   1.084   5.724   1.954
 4256SOL    HW113667   1.101   5.821   1.936
 4256SOL    HW213668   0.991   5.701   1.929
 4257SOL     OW13669   6.516   0.953   4.900
 4257SOL    HW113670   6.570   1.001   4.968
 4257SOL    HW213671   6.521   0.854   4.916
 4258SOL     OW13672   3.495   5.765   1.177
 4258SOL    HW113673   3.549   5.741   1.096
 4258SOL    HW213674   3.553   5.809   1.245
 4259SOL     OW13675   1.565   6.640   1.287
 4259SOL    HW113676   1.656   6.621   1.248
 4259SOL    HW213677   1.525   6.718   1.239
 4260SOL     OW13678   4.961   6.957   3.993
 4260SOL    HW113679   4.961   6.863   3.959
 4260SOL    HW213680   5.056   6.987   4.008
 4261SOL     OW13681   1.877   0.450   3.698
 4261SOL    HW113682   1.779   0.432   3.697
 4261SOL    HW213683   1.894   0.546   3.720
 4262SOL     OW13684   1.811   4.738   5.598
 4262SOL    HW113685   1.880   4.808   5.614
 4262SOL    HW213686   1.855   4.654   5.566
 4263SOL     OW13687   2.998   1.620   3.066
 4263SOL    HW113688   2.972   1.682   2.992
 4263SOL    HW213689   2.982   1.525   3.036
 4264SOL     OW13690   5.834   1.315   4.671
 4264SOL    HW113691   5.763   1.244   4.671
 4264SOL    HW213692   5.909   1.287   4.610
 4265SOL     OW13693   3.271   0.621   0.760
 4265SOL    HW113694   3.273   0.565   0.843
 4265SOL    HW213695   3.210   0.699   0.774
 4266SOL     OW13696   1.742   6.971   0.060
 4266SOL    HW113697   1.696   6.883   0.059
 4266SOL    HW213698   1.679   0.020   0.027
 4267SOL     OW13699   1.958   4.032   3.942
 4267SOL    HW113700   2.039   4.027   4.000
 4267SOL    HW213701   1.931   3.940   3.914
 4268SOL     OW13702   2.090   5.376   6.593
 4268SOL    HW113703   1.991   5.364   6.594
 4268SOL    HW213704   2.134   5.291   6.621
 4269SOL     OW13705   3.148   1.688   3.705
 4269SOL    HW113706   3.214   1.704   3.633
 4269SOL    HW213707   3.195   1.685   3.794
 4270SOL     OW13708   3.741   3.166   1.411
 4270SOL    HW113709   3.693   3.133   1.492
 4270SOL    HW213710   3.707   3.257   1.387
 4271SOL     OW13711   6.519   0.818   0.380
 4271SOL    HW113712   6.589   0.872   0.334
 4271SOL    HW213713   6.433   0.826   0.331
 4272SOL     OW13714   6.866   3.299   5.376
 4272SOL    HW113715   6.799   3.337   5.312
 4272SOL    HW213716   6.940   3.255   5.325
 4273SOL     OW13717   5.279   6.200   5.085
 4273SOL    HW113718   5.290   6.120   5.144
 4273SOL    HW213719   5.198   6.252   5.114
 4274SOL     OW13720   0.664   6.818   2.084
 4274SOL    HW113721   0.763   6.803   2.083
 4274SOL    HW213722   0.617   6.730   2.072
 4275SOL     OW13723   0.359   1.839   4.660
 4275SOL    HW113724   0.446   1.877   4.628
 4275SOL    HW213725   0.331   1.887   4.743
 4276SOL     OW13726   3.053   5.213   3.531
 4276SOL    HW113727   3.025   5.179   3.442
 4276SOL    HW213728   2.974   5.215   3.593
 4277SOL     OW13729   6.897   4.602   3.714
 4277SOL    HW113730   6.920   4.534   3.784
 4277SOL    HW213731   6.901   4.560   3.624
 4278SOL     OW13732   0.006   6.453   3.584
 4278SOL    HW113733   0.013   6.463   3.485
 4278SOL    HW213734   0.048   6.367   3.612
 4279SOL     OW13735   1.949   0.560   2.172
 4279SOL    HW113736   1.925   0.500   2.248
 4279SOL    HW213737   1.929   0.655   2.197
 4280SOL     OW13738   6.108   6.614   5.877
 4280SOL    HW113739   6.118   6.549   5.801
 4280SOL    HW213740   6.011   6.636   5.890
 4281SOL     OW13741   4.702   5.081   4.304
 4281SOL    HW113742   4.612   5.086   4.262
 4281SOL    HW213743   4.773   5.084   4.233
 4282SOL     OW13744   3.395   4.463   0.767
 4282SOL    HW113745   3.381   4.369   0.798
 4282SOL    HW213746   3.463   4.464   0.693
 4283SOL     OW13747   4.819   1.343   3.367
 4283SOL    HW113748   4.833   1.348   3.268
 4283SOL    HW213749   4.895   1.390   3.413
 4284SOL     OW13750   3.814   5.579   6.803
 4284SOL    HW113751   3.894   5.609   6.854
 4284SOL    HW213752   3.742   5.648   6.811
 4285SOL     OW13753   2.921   0.890   5.965
 4285SOL    HW113754   2.966   0.970   6.004
 4285SOL    HW213755   2.981   0.810   5.975
 4286SOL     OW13756   6.948   0.624   6.249
 4286SOL    HW113757   6.913   0.713   6.219
 4286SOL    HW213758   6.974   0.629   6.346
 4287SOL     OW13759   4.549   1.428   6.487
 4287SOL    HW113760   4.515   1.479   6.408
 4287SOL    HW213761   4.488   1.352   6.508
 4288SOL     OW13762   6.716   5.857   2.435
 4288SOL    HW113763   6.802   5.858   2.485
 4288SOL    HW213764   6.722   5.793   2.359
 4289SOL     OW13765   1.314   2.285   5.765
 4289SOL    HW113766   1.322   2.186   5.774
 4289SOL    HW213767   1.388   2.329   5.815
 4290SOL     OW13768   0.342   6.291   4.103
 4290SOL    HW113769   0.343   6.377   4.052
 4290SOL    HW213770   0.411   6.295   4.176
 4291SOL     OW13771   4.654   2.777   6.749
 4291SOL    HW113772   4.619   2.868   6.727
 4291SOL    HW213773   4.690   2.735   6.666
 4292SOL     OW13774   6.062   2.945   0.007
 4292SOL    HW113775   6.125   2.975   6.957
 4292SOL    HW213776   6.072   2.847   0.022
 4293SOL     OW13777   4.360   3.816   0.024
 4293SOL    HW113778   4.437   3.866   0.066
 4293SOL    HW213779   4.394   3.733   7.002
 4294SOL     OW13780   2.399   2.133   6.051
 4294SOL    HW113781   2.475   2.196   6.032
 4294SOL    HW213782   2.313   2.183   6.047
 4295SOL     OW13783   4.062   6.339   3.059
 4295SOL    HW113784   4.114   6.421   3.036
 4295SOL    HW213785   4.045   6.336   3.157
 4296SOL     OW13786   3.171   0.094   0.978
 4296SOL    HW113787   3.159   0.191   0.961
 4296SOL    HW213788   3.250   0.061   0.927
 4297SOL     OW13789   6.380   6.512   1.690
 4297SOL    HW113790   6.382   6.515   1.590
 4297SOL    HW213791   6.302   6.456   1.720
 4298SOL     OW13792   3.722   6.436   1.447
 4298SOL    HW113793   3.749   6.532   1.441
 4298SOL    HW213794   3.625   6.428   1.425
 4299SOL     OW13795   0.552   3.540   0.168
 4299SOL    HW113796   0.648   3.531   0.139
 4299SOL    HW213797   0.493   3.528   0.088
 4300SOL     OW13798   2.674   0.230   1.189
 4300SOL    HW113799   2.642   0.320   1.157
 4300SOL    HW213800   2.597   0.179   1.227
 4301SOL     OW13801   3.083   6.957   1.606
 4301SOL    HW113802   3.057   0.031   1.621
 4301SOL    HW213803   3.175   6.941   1.641
 4302SOL     OW13804   6.317   0.169   6.960
 4302SOL    HW113805   6.338   0.101   6.889
 4302SOL    HW213806   6.376   0.249   6.948
 4303SOL     OW13807   0.195   4.579   3.540
 4303SOL    HW113808   0.285   4.619   3.521
 4303SOL    HW213809   0.134   4.597   3.463
 4304SOL     OW13810   3.753   4.109   1.849
 4304SOL    HW113811   3.817   4.048   1.805
 4304SOL    HW213812   3.711   4.063   1.928
 4305SOL     OW13813   0.638   6.571   4.706
 4305SOL    HW113814   0.699   6.646   4.682
 4305SOL    HW213815   0.665   6.531   4.793
 4306SOL     OW13816   5.016   4.380   4.625
 4306SOL    HW113817   4.953   4.303   4.617
 4306SOL    HW213818   4.965   4.466   4.631
 4307SOL     OW13819   5.598   3.049   5.719
 4307SOL    HW113820   5.533   3.023   5.790
 4307SOL    HW213821   5.657   3.123   5.752
 4308SOL     OW13822   5.615   5.121   1.800
 4308SOL    HW113823   5.562   5.046   1.761
 4308SOL    HW213824   5.713   5.105   1.784
 4309SOL     OW13825   0.939   3.387   0.179
 4309SOL    HW113826   0.910   3.437   0.261
 4309SOL    HW213827   0.881   3.413   0.102
 4310SOL     OW13828   1.415   2.800   2.125
 4310SOL    HW113829   1.430   2.795   2.224
 4310SOL    HW213830   1.476   2.737   2.078
 4311SOL     OW13831   1.165   6.687   2.028
 4311SOL    HW113832   1.227   6.724   2.097
 4311SOL    HW213833   1.205   6.604   1.989
 4312SOL     OW13834   1.091   5.527   2.777
 4312SOL    HW113835   1.045   5.615   2.784
 4312SOL    HW213836   1.096   5.484   2.868
 4313SOL     OW13837   3.453   2.493   6.844
 4313SOL    HW113838   3.488   2.414   6.794
 4313SOL    HW213839   3.391   2.463   6.917
 4314SOL     OW13840   6.588   1.857   5.656
 4314SOL    HW113841   6.634   1.777   5.615
 4314SOL    HW213842   6.500   1.870   5.612
 4315SOL     OW13843   1.985   1.794   4.008
 4315SOL    HW113844   1.959   1.801   4.105
 4315SOL    HW213845   2.084   1.779   4.002
 4316SOL     OW13846   4.946   6.821   2.726
 4316SOL    HW113847   4.855   6.783   2.744
 4316SOL    HW213848   4.969   6.886   2.798
 4317SOL     OW13849   4.026   0.695   5.390
 4317SOL    HW113850   3.970   0.773   5.416
 4317SOL    HW213851   3.991   0.657   5.304
 4318SOL     OW13852   0.617   0.572   4.398
 4318SOL    HW113853   0.574   0.494   4.444
 4318SOL    HW213854   0.604   0.654   4.453
 4319SOL     OW13855   1.720   2.291   1.308
 4319SOL    HW113856   1.675   2.309   1.220
 4319SOL    HW213857   1.723   2.192   1.324
 4320SOL     OW13858   4.072   6.157   0.536
 4320SOL    HW113859   4.016   6.215   0.595
 4320SOL    HW213860   4.155   6.131   0.585
 4321SOL     OW13861   6.880   4.935   3.443
 4321SOL    HW113862   6.888   4.841   3.409
 4321SOL    HW213863   6.965   4.984   3.426
 4322SOL     OW13864   0.004   3.135   5.816
 4322SOL    HW113865   0.064   3.198   5.767
 4322SOL    HW213866   6.930   3.155   5.793
 4323SOL     OW13867   4.153   5.437   6.649
 4323SOL    HW113868   4.201   5.352   6.627
 4323SOL    HW213869   4.071   5.416   6.702
 4324SOL     OW13870   6.756   3.132   5.677
 4324SOL    HW113871   6.799   3.079   5.604
 4324SOL    HW213872   6.657   3.128   5.668
 4325SOL     OW13873   2.492   1.876   2.371
 4325SOL    HW113874   2.441   1.926   2.301
 4325SOL    HW213875   2.520   1.787   2.334
 4326SOL     OW13876   5.815   3.256   2.559
 4326SOL    HW113877   5.907   3.286   2.586
 4326SOL    HW213878   5.810   3.247   2.460
 4327SOL     OW13879   3.643   5.577   3.173
 4327SOL    HW113880   3.545   5.569   3.194
 4327SOL    HW213881   3.675   5.493   3.129
 4328SOL     OW13882   6.089   4.290   4.654
 4328SOL    HW113883   6.122   4.378   4.618
 4328SOL    HW213884   6.112   4.217   4.590
 4329SOL     OW13885   6.127   3.469   5.409
 4329SOL    HW113886   6.059   3.470   5.336
 4329SOL    HW213887   6.103   3.536   5.478
 4330SOL     OW13888   1.840   6.606   4.483
 4330SOL    HW113889   1.799   6.691   4.515
 4330SOL    HW213890   1.776   6.558   4.423
 4331SOL     OW13891   0.288   0.295   1.466
 4331SOL    HW113892   0.211   0.255   1.516
 4331SOL    HW213893   0.287   0.394   1.478
 4332SOL     OW13894   5.903   3.807   2.654
 4332SOL    HW113895   6.001   3.820   2.671
 4332SOL    HW213896   5.890   3.774   2.561
 4333SOL     OW13897   4.696   2.200   5.111
 4333SOL    HW113898   4.715   2.109   5.073
 4333SOL    HW213899   4.771   2.227   5.171
 4334SOL     OW13900   1.673   2.941   2.371
 4334SOL    HW113901   1.713   2.988   2.450
 4334SOL    HW213902   1.597   2.995   2.335
 4335SOL     OW13903   3.300   2.852   0.946
 4335SOL    HW113904   3.302   2.754   0.963
 4335SOL    HW213905   3.219   2.892   0.991
 4336SOL     OW13906   2.128   4.757   5.249
 4336SOL    HW113907   2.146   4.856   5.248
 4336SOL    HW213908   2.171   4.715   5.170
 4337SOL     OW13909   1.517   5.965   2.244
 4337SOL    HW113910   1.616   5.952   2.258
 4337SOL    HW213911   1.484   5.894   2.182
 4338SOL     OW13912   6.307   0.193   6.219
 4338SOL    HW113913   6.234   0.158   6.278
 4338SOL    HW213914   6.355   0.267   6.267
 4339SOL     OW13915   3.417   2.542   6.384
 4339SOL    HW113916   3.353   2.489   6.440
 4339SOL    HW213917   3.508   2.502   6.390
 4340SOL     OW13918   5.922   2.691   1.321
 4340SOL    HW113919   5.895   2.596   1.333
 4340SOL    HW213920   5.859   2.736   1.258
 4341SOL     OW13921   1.225   5.278   2.189
 4341SOL    HW113922   1.317   5.240   2.198
 4341SOL    HW213923   1.232   5.376   2.170
 4342SOL     OW13924   4.886   3.529   3.139
 4342SOL    HW113925   4.850   3.452   3.086
 4342SOL    HW213926   4.887   3.611   3.082
 4343SOL     OW13927   3.707   6.625   6.151
 4343SOL    HW113928   3.735   6.718   6.176
 4343SOL    HW213929   3.720   6.564   6.229
 4344SOL     OW13930   0.438   2.876   3.450
 4344SOL    HW113931   0.475   2.784   3.460
 4344SOL    HW213932   0.440   2.902   3.353
 4345SOL     OW13933   3.054   3.401   2.959
 4345SOL    HW113934   3.097   3.351   3.034
 4345SOL    HW213935   3.070   3.499   2.970
 4346SOL     OW13936   2.004   2.638   2.365
 4346SOL    HW113937   2.048   2.677   2.284
 4346SOL    HW213938   2.003   2.705   2.438
 4347SOL     OW13939   6.272   6.073   2.192
 4347SOL    HW113940   6.316   6.047   2.279
 4347SOL    HW213941   6.300   6.165   2.167
 4348SOL     OW13942   0.068   5.461   4.092
 4348SOL    HW113943   0.026   5.428   4.177
 4348SOL    HW213944   0.003   5.449   4.016
 4349SOL     OW13945   6.799   3.202   3.455
 4349SOL    HW113946   6.856   3.237   3.529
 4349SOL    HW213947   6.714   3.164   3.493
 4350SOL     OW13948   4.903   2.228   4.647
 4350SOL    HW113949   4.946   2.299   4.591
 4350SOL    HW213950   4.905   2.141   4.597
 4351SOL     OW13951   1.343   6.008   1.535
 4351SOL    HW113952   1.393   6.091   1.512
 4351SOL    HW213953   1.247   6.031   1.555
 4352SOL     OW13954   5.348   3.731   1.380
 4352SOL    HW113955   5.268   3.713   1.436
 4352SOL    HW213956   5.414   3.785   1.433
 4353SOL     OW13957   2.947   3.561   6.652
 4353SOL    HW113958   3.011   3.638   6.655
 4353SOL    HW213959   2.980   3.487   6.711
 4354SOL     OW13960   1.170   0.755   5.578
 4354SOL    HW113961   1.129   0.840   5.611
 4354SOL    HW213962   1.252   0.775   5.526
 4355SOL     OW13963   1.498   6.656   3.326
 4355SOL    HW113964   1.556   6.723   3.279
 4355SOL    HW213965   1.414   6.700   3.356
 4356SOL     OW13966   4.365   3.237   5.877
 4356SOL    HW113967   4.326   3.157   5.831
 4356SOL    HW213968   4.378   3.310   5.811
 4357SOL     OW13969   0.267   1.479   1.927
 4357SOL    HW113970   0.340   1.545   1.906
 4357SOL    HW213971   0.277   1.447   2.021
 4358SOL     OW13972   0.295   1.084   6.750
 4358SOL    HW113973   0.212   1.090   6.694
 4358SOL    HW213974   0.271   1.085   6.847
 4359SOL     OW13975   2.071   0.550   6.632
 4359SOL    HW113976   2.050   0.487   6.706
 4359SOL    HW213977   2.085   0.500   6.547
 4360SOL     OW13978   1.221   2.108   3.942
 4360SOL    HW113979   1.263   2.198   3.929
 4360SOL    HW213980   1.293   2.039   3.953
 4361SOL     OW13981   2.058   2.783   1.454
 4361SOL    HW113982   2.071   2.854   1.523
 4361SOL    HW213983   1.966   2.790   1.415
 4362SOL     OW13984   0.845   6.196   4.306
 4362SOL    HW113985   0.916   6.134   4.272
 4362SOL    HW213986   0.872   6.231   4.396
 4363SOL     OW13987   4.060   0.440   1.993
 4363SOL    HW113988   4.013   0.417   1.908
 4363SOL    HW213989   4.128   0.370   2.014
 4364SOL     OW13990   3.126   4.059   2.823
 4364SOL    HW113991   3.219   4.025   2.839
 4364SOL    HW213992   3.061   4.003   2.873
 4365SOL     OW13993   3.035   1.692   2.022
 4365SOL    HW113994   3.103   1.661   2.088
 4365SOL    HW213995   2.944   1.694   2.065
 4366SOL     OW13996   6.634   5.789   5.913
 4366SOL    HW113997   6.635   5.876   5.964
 4366SOL    HW213998   6.573   5.798   5.834
 4367SOL     OW13999   2.800   5.452   3.008
 4367SOL    HW114000   2.782   5.492   3.098
 4367SOL    HW214001   2.803   5.352   3.017
 4368SOL     OW14002   3.856   5.614   2.939
 4368SOL    HW114003   3.817   5.525   2.963
 4368SOL    HW214004   3.801   5.687   2.979
 4369SOL     OW14005   4.992   5.388   3.098
 4369SOL    HW114006   5.008   5.340   3.185
 4369SOL    HW214007   5.078   5.427   3.066
 4370SOL     OW14008   3.533   3.791   1.657
 4370SOL    HW114009   3.514   3.809   1.753
 4370SOL    HW214010   3.451   3.806   1.602
 4371SOL     OW14011   2.526   1.037   2.077
 4371SOL    HW114012   2.525   1.068   2.172
 4371SOL    HW214013   2.448   0.977   2.060
 4372SOL     OW14014   1.832   3.462   4.312
 4372SOL    HW114015   1.743   3.416   4.310
 4372SOL    HW214016   1.898   3.404   4.358
 4373SOL     OW14017   4.264   1.095   5.932
 4373SOL    HW114018   4.257   1.086   6.031
 4373SOL    HW214019   4.300   1.185   5.910
 4374SOL     OW14020   2.861   2.188   1.699
 4374SOL    HW114021   2.773   2.142   1.711
 4374SOL    HW214022   2.880   2.244   1.779
 4375SOL     OW14023   4.052   6.678   3.191
 4375SOL    HW114024   3.986   6.608   3.164
 4375SOL    HW214025   4.014   6.768   3.175
 4376SOL     OW14026   6.229   0.360   2.318
 4376SOL    HW114027   6.278   0.409   2.246
 4376SOL    HW214028   6.267   0.384   2.407
 4377SOL     OW14029   6.478   5.477   0.289
 4377SOL    HW114030   6.560   5.438   0.333
 4377SOL    HW214031   6.471   5.574   0.313
 4378SOL     OW14032   1.652   4.674   2.016
 4378SOL    HW114033   1.626   4.747   1.953
 4378SOL    HW214034   1.571   4.632   2.055
 4379SOL     OW14035   2.506   0.771   2.260
 4379SOL    HW114036   2.485   0.789   2.164
 4379SOL    HW214037   2.483   0.852   2.314
 4380SOL     OW14038   2.129   5.730   5.089
 4380SOL    HW114039   2.122   5.768   4.997
 4380SOL    HW214040   2.136   5.630   5.083
 4381SOL     OW14041   2.631   4.735   4.545
 4381SOL    HW114042   2.730   4.735   4.558
 4381SOL    HW214043   2.598   4.829   4.535
 4382SOL     OW14044   5.413   4.372   4.945
 4382SOL    HW114045   5.342   4.356   4.876
 4382SOL    HW214046   5.406   4.301   5.015
 4383SOL     OW14047   0.908   1.492   5.141
 4383SOL    HW114048   0.863   1.557   5.201
 4383SOL    HW214049   0.913   1.529   5.049
 4384SOL     OW14050   4.836   0.524   0.079
 4384SOL    HW114051   4.918   0.561   0.124
 4384SOL    HW214052   4.858   0.504   7.005
 4385SOL     OW14053   6.822   2.138   3.819
 4385SOL    HW114054   6.724   2.134   3.801
 4385SOL    HW214055   6.873   2.112   3.737
 4386SOL     OW14056   0.951   4.264   6.089
 4386SOL    HW114057   0.976   4.345   6.141
 4386SOL    HW214058   0.961   4.183   6.147
 4387SOL     OW14059   0.246   2.178   1.980
 4387SOL    HW114060   0.170   2.157   2.042
 4387SOL    HW214061   0.303   2.250   2.020
 4388SOL     OW14062   3.992   1.206   6.140
 4388SOL    HW114063   4.008   1.143   6.065
 4388SOL    HW214064   4.067   1.198   6.207
 4389SOL     OW14065   5.832   2.320   0.993
 4389SOL    HW114066   5.774   2.248   0.954
 4389SOL    HW214067   5.775   2.393   1.029
 4390SOL     OW14068   3.975   2.300   1.450
 4390SOL    HW114069   3.962   2.308   1.351
 4390SOL    HW214070   4.063   2.256   1.469
 4391SOL     OW14071   1.578   6.187   6.419
 4391SOL    HW114072   1.508   6.241   6.373
 4391SOL    HW214073   1.627   6.130   6.353
 4392SOL     OW14074   5.346   4.170   5.123
 4392SOL    HW114075   5.319   4.211   5.210
 4392SOL    HW214076   5.401   4.088   5.141
 4393SOL     OW14077   4.949   6.789   3.079
 4393SOL    HW114078   4.858   6.823   3.056
 4393SOL    HW214079   4.941   6.708   3.137
 4394SOL     OW14080   5.739   5.470   2.409
 4394SOL    HW114081   5.837   5.449   2.406
 4394SOL    HW214082   5.688   5.390   2.438
 4395SOL     OW14083   4.107   2.415   0.597
 4395SOL    HW114084   4.177   2.344   0.591
 4395SOL    HW214085   4.017   2.374   0.586
 4396SOL     OW14086   2.055   2.231   4.147
 4396SOL    HW114087   2.072   2.133   4.155
 4396SOL    HW214088   2.023   2.253   4.055
 4397SOL     OW14089   0.089   1.365   3.598
 4397SOL    HW114090   0.107   1.420   3.679
 4397SOL    HW214091   0.012   1.304   3.615
 4398SOL     OW14092   1.377   4.236   4.394
 4398SOL    HW114093   1.474   4.212   4.397
 4398SOL    HW214094   1.364   4.329   4.427
 4399SOL     OW14095   2.444   0.570   0.785
 4399SOL    HW114096   2.359   0.621   0.774
 4399SOL    HW214097   2.486   0.595   0.873
 4400SOL     OW14098   2.319   6.543   4.888
 4400SOL    HW114099   2.323   6.487   4.970
 4400SOL    HW214100   2.380   6.504   4.819
 4401SOL     OW14101   5.926   5.533   6.235
 4401SOL    HW114102   5.893   5.529   6.330
 4401SOL    HW214103   6.020   5.566   6.234
 4402SOL     OW14104   1.303   6.368   2.734
 4402SOL    HW114105   1.375   6.315   2.687
 4402SOL    HW214106   1.335   6.393   2.825
 4403SOL     OW14107   6.728   6.893   3.566
 4403SOL    HW114108   6.742   6.866   3.661
 4403SOL    HW214109   6.798   6.851   3.508
 4404SOL     OW14110   1.219   3.787   4.813
 4404SOL    HW114111   1.242   3.863   4.873
 4404SOL    HW214112   1.285   3.783   4.738
 4405SOL     OW14113   3.108   4.619   6.235
 4405SOL    HW114114   3.190   4.671   6.211
 4405SOL    HW214115   3.121   4.578   6.326
 4406SOL     OW14116   5.102   4.383   0.548
 4406SOL    HW114117   5.010   4.347   0.562
 4406SOL    HW214118   5.097   4.475   0.511
 4407SOL     OW14119   0.290   5.630   0.913
 4407SOL    HW114120   0.191   5.633   0.920
 4407SOL    HW214121   0.328   5.590   0.997
 4408SOL     OW14122   5.083   1.288   0.817
 4408SOL    HW114123   5.008   1.293   0.751
 4408SOL    HW214124   5.053   1.239   0.899
 4409SOL     OW14125   3.499   0.913   1.557
 4409SOL    HW114126   3.442   0.879   1.482
 4409SOL    HW214127   3.442   0.960   1.624
 4410SOL     OW14128   2.121   4.486   6.847
 4410SOL    HW114129   2.067   4.412   6.887
 4410SOL    HW214130   2.077   4.519   6.763
 4411SOL     OW14131   3.705   3.113   3.223
 4411SOL    HW114132   3.779   3.073   3.277
 4411SOL    HW214133   3.622   3.116   3.279
 4412SOL     OW14134   3.961   1.671   5.020
 4412SOL    HW114135   3.903   1.640   4.944
 4412SOL    HW214136   4.026   1.739   4.986
 4413SOL     OW14137   5.040   5.896   5.092
 4413SOL    HW114138   4.983   5.830   5.043
 4413SOL    HW214139   5.010   5.902   5.187
 4414SOL     OW14140   4.722   4.813   2.261
 4414SOL    HW114141   4.675   4.823   2.173
 4414SOL    HW214142   4.804   4.757   2.249
 4415SOL     OW14143   4.537   3.774   6.619
 4415SOL    HW114144   4.446   3.764   6.580
 4415SOL    HW214145   4.574   3.684   6.641
 4416SOL     OW14146   2.695   1.356   3.894
 4416SOL    HW114147   2.766   1.384   3.959
 4416SOL    HW214148   2.735   1.349   3.802
 4417SOL     OW14149   6.762   4.380   2.542
 4417SOL    HW114150   6.862   4.381   2.545
 4417SOL    HW214151   6.730   4.392   2.448
 4418SOL     OW14152   4.495   6.460   4.110
 4418SOL    HW114153   4.424   6.449   4.040
 4418SOL    HW214154   4.506   6.374   4.159
 4419SOL     OW14155   5.316   5.469   0.566
 4419SOL    HW114156   5.266   5.540   0.616
 4419SOL    HW214157   5.369   5.511   0.492
 4420SOL     OW14158   5.140   1.593   0.556
 4420SOL    HW114159   5.134   1.564   0.652
 4420SOL    HW214160   5.130   1.513   0.496
 4421SOL     OW14161   1.645   1.521   3.508
 4421SOL    HW114162   1.737   1.500   3.474
 4421SOL    HW214163   1.584   1.538   3.432
 4422SOL     OW14164   2.544   3.514   5.777
 4422SOL    HW114165   2.570   3.460   5.857
 4422SOL    HW214166   2.624   3.528   5.719
 4423SOL     OW14167   0.760   2.850   6.075
 4423SOL    HW114168   0.783   2.913   6.001
 4423SOL    HW214169   0.827   2.776   6.079
 4424SOL     OW14170   5.202   6.940   3.397
 4424SOL    HW114171   5.279   6.977   3.346
 4424SOL    HW214172   5.127   7.007   3.396
 4425SOL     OW14173   3.312   5.686   5.797
 4425SOL    HW114174   3.216   5.687   5.823
 4425SOL    HW214175   3.369   5.677   5.879
 4426SOL     OW14176   6.582   1.212   4.601
 4426SOL    HW114177   6.499   1.158   4.607
 4426SOL    HW214178   6.659   1.162   4.640
 4427SOL     OW14179   6.791   0.269   2.555
 4427SOL    HW114180   6.731   0.270   2.636
 4427SOL    HW214181   6.843   0.355   2.552
 4428SOL     OW14182   2.993   4.865   3.151
 4428SOL    HW114183   2.961   4.944   3.099
 4428SOL    HW214184   3.091   4.874   3.168
 4429SOL     OW14185   2.780   0.146   4.028
 4429SOL    HW114186   2.723   0.224   4.002
 4429SOL    HW214187   2.873   0.176   4.046
 4430SOL     OW14188   5.098   2.640   3.477
 4430SOL    HW114189   5.101   2.707   3.403
 4430SOL    HW214190   5.093   2.548   3.439
 4431SOL     OW14191   2.038   1.569   2.020
 4431SOL    HW114192   1.967   1.596   2.086
 4431SOL    HW214193   2.117   1.532   2.069
 4432SOL     OW14194   2.990   3.539   3.955
 4432SOL    HW114195   2.934   3.564   3.876
 4432SOL    HW214196   2.976   3.443   3.976
 4433SOL     OW14197   6.518   6.821   4.590
 4433SOL    HW114198   6.579   6.817   4.511
 4433SOL    HW214199   6.494   6.916   4.609
 4434SOL     OW14200   5.024   1.148   4.059
 4434SOL    HW114201   5.050   1.081   4.128
 4434SOL    HW214202   4.935   1.124   4.020
 4435SOL     OW14203   3.988   3.715   0.808
 4435SOL    HW114204   3.891   3.731   0.829
 4435SOL    HW214205   4.043   3.731   0.889
 4436SOL     OW14206   2.774   2.244   0.519
 4436SOL    HW114207   2.675   2.239   0.531
 4436SOL    HW214208   2.797   2.220   0.425
 4437SOL     OW14209   5.139   1.108   3.796
 4437SOL    HW114210   5.110   1.110   3.892
 4437SOL    HW214211   5.106   1.191   3.750
 4438SOL     OW14212   3.795   1.785   6.597
 4438SOL    HW114213   3.706   1.773   6.641
 4438SOL    HW214214   3.852   1.845   6.652
 4439SOL     OW14215   0.671   5.359   1.471
 4439SOL    HW114216   0.723   5.321   1.548
 4439SOL    HW214217   0.583   5.391   1.504
 4440SOL     OW14218   1.431   4.786   6.574
 4440SOL    HW114219   1.364   4.769   6.502
 4440SOL    HW214220   1.475   4.874   6.558
 4441SOL     OW14221   6.937   1.865   1.922
 4441SOL    HW114222   6.876   1.808   1.866
 4441SOL    HW214223   7.016   1.894   1.867
 4442SOL     OW14224   3.016   6.051   4.111
 4442SOL    HW114225   2.967   6.128   4.071
 4442SOL    HW214226   2.989   5.967   4.065
 4443SOL     OW14227   0.911   2.553   6.662
 4443SOL    HW114228   0.918   2.575   6.759
 4443SOL    HW214229   0.906   2.637   6.609
 4444SOL     OW14230   3.446   6.198   6.600
 4444SOL    HW114231   3.457   6.173   6.696
 4444SOL    HW214232   3.500   6.279   6.580
 4445SOL     OW14233   0.718   0.375   7.002
 4445SOL    HW114234   0.797   0.367   6.942
 4445SOL    HW214235   0.671   0.286   7.009
 4446SOL     OW14236   5.800   1.367   1.268
 4446SOL    HW114237   5.737   1.351   1.192
 4446SOL    HW214238   5.754   1.344   1.354
 4447SOL     OW14239   5.199   3.346   5.211
 4447SOL    HW114240   5.233   3.383   5.297
 4447SOL    HW214241   5.138   3.413   5.168
 4448SOL     OW14242   2.754   3.974   0.601
 4448SOL    HW114243   2.794   3.912   0.668
 4448SOL    HW214244   2.658   3.950   0.585
 4449SOL     OW14245   3.878   0.249   6.238
 4449SOL    HW114246   3.795   0.303   6.248
 4449SOL    HW214247   3.885   0.215   6.144
 4450SOL     OW14248   3.488   3.072   3.745
 4450SOL    HW114249   3.486   3.146   3.678
 4450SOL    HW214250   3.451   3.104   3.832
 4451SOL     OW14251   5.898   4.429   2.598
 4451SOL    HW114252   5.933   4.344   2.559
 4451SOL    HW214253   5.803   4.442   2.569
 4452SOL     OW14254   5.777   6.139   5.137
 4452SOL    HW114255   5.700   6.172   5.192
 4452SOL    HW214256   5.754   6.148   5.040
 4453SOL     OW14257   6.540   2.680   0.096
 4453SOL    HW114258   6.639   2.665   0.095
 4453SOL    HW214259   6.511   2.709   0.005
 4454SOL     OW14260   5.104   2.636   0.666
 4454SOL    HW114261   5.097   2.600   0.572
 4454SOL    HW214262   5.108   2.559   0.730
 4455SOL     OW14263   3.133   6.701   6.752
 4455SOL    HW114264   3.101   6.607   6.768
 4455SOL    HW214265   3.059   6.765   6.772
 4456SOL     OW14266   2.395   5.040   2.576
 4456SOL    HW114267   2.409   4.950   2.533
 4456SOL    HW214268   2.416   5.112   2.509
 4457SOL     OW14269   3.944   2.662   0.162
 4457SOL    HW114270   4.018   2.597   0.182
 4457SOL    HW214271   3.983   2.749   0.132
 4458SOL     OW14272   1.790   3.867   6.591
 4458SOL    HW114273   1.799   3.888   6.493
 4458SOL    HW214274   1.765   3.771   6.602
 4459SOL     OW14275   5.517   0.320   4.092
 4459SOL    HW114276   5.439   0.319   4.029
 4459SOL    HW214277   5.540   0.226   4.118
 4460SOL     OW14278   2.707   2.769   5.882
 4460SOL    HW114279   2.646   2.843   5.910
 4460SOL    HW214280   2.780   2.805   5.825
 4461SOL     OW14281   0.952   0.711   2.806
 4461SOL    HW114282   0.900   0.788   2.843
 4461SOL    HW214283   0.897   0.627   2.811
 4462SOL     OW14284   6.888   4.039   1.128
 4462SOL    HW114285   6.881   4.111   1.196
 4462SOL    HW214286   6.954   3.969   1.159
 4463SOL     OW14287   2.397   2.625   0.005
 4463SOL    HW114288   2.474   2.641   0.066
 4463SOL    HW214289   2.314   2.612   0.059
 4464SOL     OW14290   6.136   5.217   0.594
 4464SOL    HW114291   6.053   5.269   0.576
 4464SOL    HW214292   6.151   5.213   0.693
 4465SOL     OW14293   1.901   6.259   2.905
 4465SOL    HW114294   1.912   6.164   2.933
 4465SOL    HW214295   1.989   6.296   2.876
 4466SOL     OW14296   1.396   0.705   3.041
 4466SOL    HW114297   1.323   0.743   2.984
 4466SOL    HW214298   1.366   0.702   3.136
 4467SOL     OW14299   0.986   6.398   3.708
 4467SOL    HW114300   0.995   6.497   3.699
 4467SOL    HW214301   0.932   6.362   3.632
 4468SOL     OW14302   0.705   1.847   0.525
 4468SOL    HW114303   0.748   1.760   0.546
 4468SOL    HW214304   0.665   1.886   0.608
 4469SOL     OW14305   2.992   0.162   1.235
 4469SOL    HW114306   2.937   0.140   1.315
 4469SOL    HW214307   3.041   0.080   1.205
 4470SOL     OW14308   5.937   3.484   1.897
 4470SOL    HW114309   5.947   3.574   1.940
 4470SOL    HW214310   5.970   3.413   1.960
 4471SOL     OW14311   0.470   2.797   0.251
 4471SOL    HW114312   0.392   2.740   0.225
 4471SOL    HW214313   0.510   2.837   0.168
 4472SOL     OW14314   1.397   3.536   3.107
 4472SOL    HW114315   1.370   3.631   3.095
 4472SOL    HW214316   1.371   3.484   3.026
 4473SOL     OW14317   0.263   1.069   4.637
 4473SOL    HW114318   0.204   1.118   4.573
 4473SOL    HW214319   0.337   1.025   4.587
 4474SOL     OW14320   3.454   0.979   2.231
 4474SOL    HW114321   3.438   0.935   2.142
 4474SOL    HW214322   3.423   1.073   2.227
 4475SOL     OW14323   1.980   4.251   2.177
 4475SOL    HW114324   1.975   4.221   2.082
 4475SOL    HW214325   1.966   4.173   2.238
 4476SOL     OW14326   5.411   6.423   4.092
 4476SOL    HW114327   5.413   6.514   4.133
 4476SOL    HW214328   5.316   6.393   4.081
 4477SOL     OW14329   1.900   0.195   6.721
 4477SOL    HW114330   1.872   0.125   6.787
 4477SOL    HW214331   1.980   0.163   6.670
 4478SOL     OW14332   2.619   6.236   2.538
 4478SOL    HW114333   2.708   6.268   2.508
 4478SOL    HW214334   2.615   6.136   2.533
 4479SOL     OW14335   1.048   0.958   0.010
 4479SOL    HW114336   1.061   0.922   6.940
 4479SOL    HW214337   1.108   1.038   0.023
 4480SOL     OW14338   2.079   3.789   4.948
 4480SOL    HW114339   2.083   3.809   5.046
 4480SOL    HW214340   2.151   3.840   4.901
 4481SOL     OW14341   2.517   0.020   4.202
 4481SOL    HW114342   2.502   6.948   4.236
 4481SOL    HW214343   2.602   0.023   4.149
 4482SOL     OW14344   0.367   3.633   3.953
 4482SOL    HW114345   0.405   3.665   3.866
 4482SOL    HW214346   0.440   3.594   4.009
 4483SOL     OW14347   6.249   3.281   1.519
 4483SOL    HW114348   6.185   3.355   1.498
 4483SOL    HW214349   6.323   3.282   1.453
 4484SOL     OW14350   2.838   1.387   5.216
 4484SOL    HW114351   2.847   1.466   5.155
 4484SOL    HW214352   2.761   1.331   5.186
 4485SOL     OW14353   5.787   2.856   5.997
 4485SOL    HW114354   5.830   2.842   6.086
 4485SOL    HW214355   5.795   2.952   5.971
 4486SOL     OW14356   5.755   3.570   4.212
 4486SOL    HW114357   5.763   3.650   4.153
 4486SOL    HW214358   5.674   3.579   4.270
 4487SOL     OW14359   2.106   3.431   6.819
 4487SOL    HW114360   2.151   3.497   6.759
 4487SOL    HW214361   2.076   3.352   6.765
 4488SOL     OW14362   5.621   2.433   5.594
 4488SOL    HW114363   5.613   2.425   5.693
 4488SOL    HW214364   5.567   2.511   5.562
 4489SOL     OW14365   5.030   6.177   4.482
 4489SOL    HW114366   5.004   6.082   4.468
 4489SOL    HW214367   5.018   6.201   4.578
 4490SOL     OW14368   5.500   2.026   2.100
 4490SOL    HW114369   5.405   2.008   2.127
 4490SOL    HW214370   5.531   1.956   2.036
 4491SOL     OW14371   0.748   2.849   3.314
 4491SOL    HW114372   0.663   2.901   3.321
 4491SOL    HW214373   0.786   2.858   3.222
 4492SOL     OW14374   5.607   4.130   0.875
 4492SOL    HW114375   5.698   4.088   0.879
 4492SOL    HW214376   5.563   4.107   0.789
 4493SOL     OW14377   4.778   5.453   5.274
 4493SOL    HW114378   4.698   5.398   5.252
 4493SOL    HW214379   4.861   5.400   5.253
 4494SOL     OW14380   7.013   2.216   6.269
 4494SOL    HW114381   6.960   2.205   6.353
 4494SOL    HW214382   7.012   2.313   6.242
 4495SOL     OW14383   5.607   6.985   3.525
 4495SOL    HW114384   5.576   0.007   3.609
 4495SOL    HW214385   5.530   6.979   3.461
 4496SOL     OW14386   5.243   5.734   0.648
 4496SOL    HW114387   5.202   5.711   0.560
 4496SOL    HW214388   5.215   5.826   0.675
 4497SOL     OW14389   4.151   6.889   6.677
 4497SOL    HW114390   4.088   6.964   6.657
 4497SOL    HW214391   4.166   6.883   6.776
 4498SOL     OW14392   0.217   3.150   6.316
 4498SOL    HW114393   0.155   3.192   6.250
 4498SOL    HW214394   0.312   3.167   6.289
 4499SOL     OW14395   6.951   3.177   4.128
 4499SOL    HW114396   6.948   3.201   4.031
 4499SOL    HW214397   0.002   3.109   4.142
 4500SOL     OW14398   3.476   3.413   3.662
 4500SOL    HW114399   3.436   3.413   3.571
 4500SOL    HW214400   3.417   3.463   3.725
 4501SOL     OW14401   0.356   3.123   5.758
 4501SOL    HW114402   0.417   3.045   5.767
 4501SOL    HW214403   0.292   3.107   5.683
 4502SOL     OW14404   1.980   3.102   6.302
 4502SOL    HW114405   1.910   3.147   6.246
 4502SOL    HW214406   2.016   3.167   6.369
 4503SOL     OW14407   3.064   0.217   2.519
 4503SOL    HW114408   3.032   0.306   2.486
 4503SOL    HW214409   3.120   0.173   2.449
 4504SOL     OW14410   6.487   1.594   4.870
 4504SOL    HW114411   6.484   1.694   4.870
 4504SOL    HW214412   6.506   1.562   4.777
 4505SOL     OW14413   6.305   5.548   4.340
 4505SOL    HW114414   6.315   5.555   4.241
 4505SOL    HW214415   6.222   5.596   4.369
 4506SOL     OW14416   4.521   2.571   4.795
 4506SOL    HW114417   4.438   2.616   4.829
 4506SOL    HW214418   4.538   2.488   4.849
 4507SOL     OW14419   4.830   4.025   1.544
 4507SOL    HW114420   4.742   4.034   1.591
 4507SOL    HW214421   4.880   3.948   1.584
 4508SOL     OW14422   0.802   4.843   6.265
 4508SOL    HW114423   0.781   4.801   6.354
 4508SOL    HW214424   0.770   4.783   6.192
 4509SOL     OW14425   4.829   2.444   4.157
 4509SOL    HW114426   4.893   2.505   4.205
 4509SOL    HW214427   4.811   2.364   4.215
 4510SOL     OW14428   5.601   6.729   5.360
 4510SOL    HW114429   5.591   6.659   5.431
 4510SOL    HW214430   5.679   6.787   5.381
 4511SOL     OW14431   0.059   2.910   5.968
 4511SOL    HW114432   0.140   2.856   5.947
 4511SOL    HW214433   0.058   2.993   5.911
 4512SOL     OW14434   2.320   6.540   6.289
 4512SOL    HW114435   2.254   6.526   6.216
 4512SOL    HW214436   2.271   6.550   6.376
 4513SOL     OW14437   5.321   6.613   0.490
 4513SOL    HW114438   5.323   6.654   0.398
 4513SOL    HW214439   5.394   6.546   0.498
 4514SOL     OW14440   4.493   0.628   4.762
 4514SOL    HW114441   4.551   0.706   4.738
 4514SOL    HW214442   4.415   0.624   4.699
 4515SOL     OW14443   6.680   4.022   6.158
 4515SOL    HW114444   6.740   3.976   6.224
 4515SOL    HW214445   6.613   3.956   6.122
 4516SOL     OW14446   1.501   1.810   6.010
 4516SOL    HW114447   1.411   1.822   5.968
 4516SOL    HW214448   1.508   1.717   6.046
 4517SOL     OW14449   2.529   6.918   6.634
 4517SOL    HW114450   2.611   6.878   6.675
 4517SOL    HW214451   2.535   7.018   6.638
 4518SOL     OW14452   6.609   1.833   3.390
 4518SOL    HW114453   6.613   1.847   3.291
 4518SOL    HW214454   6.701   1.815   3.425
 4519SOL     OW14455   6.144   0.687   1.723
 4519SOL    HW114456   6.100   0.701   1.635
 4519SOL    HW214457   6.212   0.759   1.739
 4520SOL     OW14458   5.435   5.305   2.693
 4520SOL    HW114459   5.338   5.301   2.670
 4520SOL    HW214460   5.446   5.301   2.792
 4521SOL     OW14461   5.100   2.061   5.455
 4521SOL    HW114462   5.138   2.103   5.372
 4521SOL    HW214463   5.174   2.045   5.521
 4522SOL     OW14464   5.311   0.331   3.928
 4522SOL    HW114465   5.247   0.256   3.907
 4522SOL    HW214466   5.271   0.418   3.898
 4523SOL     OW14467   1.205   4.427   0.014
 4523SOL    HW114468   1.281   4.373   6.998
 4523SOL    HW214469   1.166   4.484   6.963
 4524SOL     OW14470   5.537   2.182   5.860
 4524SOL    HW114471   5.488   2.155   5.942
 4524SOL    HW214472   5.627   2.138   5.858
 4525SOL     OW14473   6.404   1.682   3.526
 4525SOL    HW114474   6.373   1.616   3.459
 4525SOL    HW214475   6.481   1.734   3.489
 4526SOL     OW14476   5.030   0.887   0.741
 4526SOL    HW114477   5.100   0.819   0.720
 4526SOL    HW214478   5.018   0.949   0.663
 4527SOL     OW14479   4.173   1.855   3.861
 4527SOL    HW114480   4.233   1.888   3.935
 4527SOL    HW214481   4.228   1.829   3.782
 4528SOL     OW14482   5.018   6.395   0.079
 4528SOL    HW114483   5.098   6.346   0.112
 4528SOL    HW214484   5.034   6.426   7.007
 4529SOL     OW14485   3.097   1.266   3.741
 4529SOL    HW114486   3.120   1.188   3.682
 4529SOL    HW214487   3.178   1.324   3.752
 4530SOL     OW14488   7.002   3.535   5.377
 4530SOL    HW114489   6.954   3.448   5.388
 4530SOL    HW214490   0.050   3.526   5.305
 4531SOL     OW14491   6.944   2.847   3.416
 4531SOL    HW114492   6.947   2.861   3.317
 4531SOL    HW214493   0.008   2.880   3.458
 4532SOL     OW14494   0.706   1.486   2.237
 4532SOL    HW114495   0.626   1.493   2.296
 4532SOL    HW214496   0.677   1.476   2.141
 4533SOL     OW14497   1.754   0.279   3.370
 4533SOL    HW114498   1.846   0.302   3.338
 4533SOL    HW214499   1.687   0.322   3.310
 4534SOL     OW14500   5.953   3.375   4.141
 4534SOL    HW114501   5.885   3.442   4.171
 4534SOL    HW214502   5.999   3.336   4.221
 4535SOL     OW14503   4.448   2.129   2.339
 4535SOL    HW114504   4.533   2.092   2.377
 4535SOL    HW214505   4.376   2.059   2.343
 4536SOL     OW14506   4.526   1.635   4.616
 4536SOL    HW114507   4.455   1.643   4.686
 4536SOL    HW214508   4.495   1.679   4.532
 4537SOL     OW14509   3.706   3.571   6.280
 4537SOL    HW114510   3.744   3.653   6.237
 4537SOL    HW214511   3.702   3.584   6.379
 4538SOL     OW14512   2.924   2.054   4.006
 4538SOL    HW114513   3.008   2.001   4.003
 4538SOL    HW214514   2.845   1.992   4.004
 4539SOL     OW14515   2.450   1.919   4.138
 4539SOL    HW114516   2.540   1.919   4.095
 4539SOL    HW214517   2.405   2.007   4.122
 4540SOL     OW14518   3.724   3.258   3.597
 4540SOL    HW114519   3.694   3.191   3.665
 4540SOL    HW214520   3.824   3.256   3.589
 4541SOL     OW14521   6.010   1.223   6.865
 4541SOL    HW114522   6.100   1.259   6.892
 4541SOL    HW214523   5.999   1.131   6.902
 4542SOL     OW14524   5.740   6.491   1.965
 4542SOL    HW114525   5.644   6.516   1.955
 4542SOL    HW214526   5.779   6.472   1.875
 4543SOL     OW14527   4.101   1.905   6.961
 4543SOL    HW114528   4.135   1.813   6.981
 4543SOL    HW214529   4.061   1.945   0.022
 4544SOL     OW14530   2.376   5.789   5.961
 4544SOL    HW114531   2.467   5.828   5.949
 4544SOL    HW214532   2.370   5.744   6.051
 4545SOL     OW14533   5.317   2.376   5.252
 4545SOL    HW114534   5.404   2.326   5.252
 4545SOL    HW214535   5.273   2.366   5.341
 4546SOL     OW14536   1.523   0.380   6.567
 4546SOL    HW114537   1.531   0.338   6.477
 4546SOL    HW214538   1.427   0.396   6.589
 4547SOL     OW14539   6.412   2.241   2.254
 4547SOL    HW114540   6.367   2.196   2.331
 4547SOL    HW214541   6.491   2.292   2.287
 4548SOL     OW14542   0.924   4.442   4.543
 4548SOL    HW114543   0.952   4.513   4.607
 4548SOL    HW214544   0.933   4.476   4.449
 4549SOL     OW14545   6.081   3.321   2.602
 4549SOL    HW114546   6.110   3.324   2.506
 4549SOL    HW214547   6.137   3.384   2.656
 4550SOL     OW14548   0.253   6.177   3.297
 4550SOL    HW114549   0.346   6.180   3.333
 4550SOL    HW214550   0.254   6.138   3.205
 4551SOL     OW14551   0.034   1.884   5.416
 4551SOL    HW114552   6.958   1.902   5.404
 4551SOL    HW214553   0.086   1.966   5.394
 4552SOL     OW14554   6.779   2.559   6.542
 4552SOL    HW114555   6.830   2.642   6.519
 4552SOL    HW214556   6.803   2.487   6.478
 4553SOL     OW14557   3.364   4.221   0.850
 4553SOL    HW114558   3.278   4.177   0.876
 4553SOL    HW214559   3.438   4.154   0.856
 4554SOL     OW14560   3.971   1.052   1.742
 4554SOL    HW114561   4.063   1.022   1.765
 4554SOL    HW214562   3.907   1.019   1.811
 4555SOL     OW14563   3.813   1.616   5.443
 4555SOL    HW114564   3.894   1.645   5.391
 4555SOL    HW214565   3.741   1.685   5.435
 4556SOL     OW14566   4.658   2.211   3.763
 4556SOL    HW114567   4.757   2.221   3.769
 4556SOL    HW214568   4.614   2.293   3.801
 4557SOL     OW14569   4.884   6.569   4.849
 4557SOL    HW114570   4.868   6.665   4.871
 4557SOL    HW214571   4.980   6.555   4.826
 4558SOL     OW14572   6.430   3.484   5.680
 4558SOL    HW114573   6.446   3.450   5.588
 4558SOL    HW214574   6.517   3.518   5.718
 4559SOL     OW14575   1.199   5.601   1.737
 4559SOL    HW114576   1.278   5.539   1.737
 4559SOL    HW214577   1.187   5.639   1.829
 4560SOL     OW14578   5.522   4.116   3.291
 4560SOL    HW114579   5.457   4.190   3.305
 4560SOL    HW214580   5.614   4.148   3.312
 4561SOL     OW14581   2.672   0.765   1.502
 4561SOL    HW114582   2.682   0.672   1.465
 4561SOL    HW214583   2.575   0.786   1.514
 4562SOL     OW14584   2.945   5.672   5.254
 4562SOL    HW114585   2.929   5.573   5.256
 4562SOL    HW214586   3.028   5.693   5.304
 4563SOL     OW14587   6.111   3.995   0.005
 4563SOL    HW114588   6.187   4.006   0.069
 4563SOL    HW214589   6.045   4.068   0.018
 4564SOL     OW14590   0.772   6.021   1.057
 4564SOL    HW114591   0.722   6.086   1.115
 4564SOL    HW214592   0.870   6.034   1.070
 4565SOL     OW14593   0.793   1.229   5.265
 4565SOL    HW114594   0.740   1.191   5.189
 4565SOL    HW214595   0.848   1.305   5.231
 4566SOL     OW14596   0.306   0.793   0.484
 4566SOL    HW114597   0.355   0.880   0.484
 4566SOL    HW214598   0.245   0.788   0.563
 4567SOL     OW14599   0.557   1.069   0.168
 4567SOL    HW114600   0.504   1.127   0.229
 4567SOL    HW214601   0.510   0.982   0.155
 4568SOL     OW14602   2.036   4.337   5.063
 4568SOL    HW114603   2.134   4.327   5.077
 4568SOL    HW214604   1.990   4.341   5.152
 4569SOL     OW14605   1.885   1.694   3.760
 4569SOL    HW114606   1.789   1.719   3.746
 4569SOL    HW214607   1.911   1.710   3.855
 4570SOL     OW14608   0.253   4.899   3.666
 4570SOL    HW114609   0.265   4.807   3.628
 4570SOL    HW214610   0.155   4.919   3.673
 4571SOL     OW14611   3.682   3.764   5.321
 4571SOL    HW114612   3.751   3.720   5.264
 4571SOL    HW214613   3.591   3.734   5.294
 4572SOL     OW14614   0.171   6.264   6.900
 4572SOL    HW114615   0.092   6.320   6.926
 4572SOL    HW214616   0.223   6.312   6.829
 4573SOL     OW14617   6.178   6.025   0.711
 4573SOL    HW114618   6.278   6.037   0.714
 4573SOL    HW214619   6.156   5.937   0.669
 4574SOL     OW14620   6.897   4.488   0.902
 4574SOL    HW114621   6.902   4.452   0.995
 4574SOL    HW214622   6.980   4.541   0.881
 4575SOL     OW14623   6.481   2.308   0.414
 4575SOL    HW114624   6.415   2.292   0.341
 4575SOL    HW214625   6.528   2.395   0.398
 4576SOL     OW14626   2.228   5.868   6.294
 4576SOL    HW114627   2.308   5.848   6.351
 4576SOL    HW214628   2.149   5.885   6.352
 4577SOL     OW14629   0.226   3.026   3.045
 4577SOL    HW114630   0.278   2.944   3.026
 4577SOL    HW214631   0.190   3.063   2.959
 4578SOL     OW14632   0.246   3.595   3.213
 4578SOL    HW114633   0.325   3.598   3.151
 4578SOL    HW214634   0.261   3.660   3.288
 4579SOL     OW14635   5.231   1.630   3.157
 4579SOL    HW114636   5.214   1.591   3.248
 4579SOL    HW214637   5.322   1.671   3.154
 4580SOL     OW14638   5.478   5.359   0.212
 4580SOL    HW114639   5.445   5.422   0.141
 4580SOL    HW214640   5.570   5.385   0.240
 4581SOL     OW14641   3.188   5.120   2.643
 4581SOL    HW114642   3.255   5.161   2.581
 4581SOL    HW214643   3.097   5.158   2.624
 4582SOL     OW14644   6.051   6.417   4.796
 4582SOL    HW114645   6.016   6.509   4.813
 4582SOL    HW214646   6.108   6.388   4.872
 4583SOL     OW14647   2.790   1.818   4.515
 4583SOL    HW114648   2.711   1.851   4.463
 4583SOL    HW214649   2.863   1.886   4.511
 4584SOL     OW14650   0.440   6.186   5.685
 4584SOL    HW114651   0.470   6.091   5.675
 4584SOL    HW214652   0.423   6.226   5.595
 4585SOL     OW14653   3.117   6.102   2.987
 4585SOL    HW114654   3.115   6.005   3.012
 4585SOL    HW214655   3.037   6.123   2.930
 4586SOL     OW14656   3.957   4.539   0.636
 4586SOL    HW114657   4.005   4.615   0.681
 4586SOL    HW214658   3.883   4.575   0.579
 4587SOL     OW14659   4.147   3.359   1.736
 4587SOL    HW114660   4.117   3.350   1.831
 4587SOL    HW214661   4.239   3.320   1.726
 4588SOL     OW14662   3.961   3.951   5.107
 4588SOL    HW114663   3.945   4.031   5.164
 4588SOL    HW214664   3.941   3.973   5.012
 4589SOL     OW14665   5.993   1.476   2.128
 4589SOL    HW114666   6.079   1.432   2.151
 4589SOL    HW214667   5.924   1.452   2.196
 4590SOL     OW14668   4.140   6.006   1.472
 4590SOL    HW114669   4.198   6.086   1.476
 4590SOL    HW214670   4.189   5.926   1.507
 4591SOL     OW14671   0.462   6.157   5.199
 4591SOL    HW114672   0.422   6.149   5.107
 4591SOL    HW214673   0.488   6.066   5.232
 4592SOL     OW14674   4.041   2.927   1.695
 4592SOL    HW114675   4.023   3.024   1.681
 4592SOL    HW214676   4.136   2.915   1.725
 4593SOL     OW14677   4.123   5.342   3.867
 4593SOL    HW114678   4.137   5.316   3.772
 4593SOL    HW214679   4.025   5.357   3.883
 4594SOL     OW14680   3.592   2.254   1.295
 4594SOL    HW114681   3.627   2.162   1.316
 4594SOL    HW214682   3.669   2.318   1.293
 4595SOL     OW14683   3.421   2.760   5.887
 4595SOL    HW114684   3.426   2.857   5.867
 4595SOL    HW214685   3.479   2.739   5.966
 4596SOL     OW14686   5.851   6.613   2.190
 4596SOL    HW114687   5.860   6.712   2.176
 4596SOL    HW214688   5.812   6.571   2.108
 4597SOL     OW14689   4.962   4.478   6.968
 4597SOL    HW114690   5.034   4.527   7.016
 4597SOL    HW214691   4.873   4.511   6.998
 4598SOL     OW14692   1.289   5.173   6.975
 4598SOL    HW114693   1.304   5.271   6.985
 4598SOL    HW214694   1.206   5.157   6.921
 4599SOL     OW14695   1.323   4.333   1.412
 4599SOL    HW114696   1.385   4.410   1.411
 4599SOL    HW214697   1.228   4.366   1.412
 4600SOL     OW14698   2.368   5.672   5.733
 4600SOL    HW114699   2.458   5.629   5.728
 4600SOL    HW214700   2.362   5.728   5.816
 4601SOL     OW14701   1.586   0.834   5.223
 4601SOL    HW114702   1.558   0.906   5.160
 4601SOL    HW214703   1.662   0.783   5.183
 4602SOL     OW14704   0.973   5.866   0.550
 4602SOL    HW114705   0.938   5.860   0.644
 4602SOL    HW214706   0.978   5.961   0.522
 4603SOL     OW14707   3.743   6.730   1.489
 4603SOL    HW114708   3.741   6.824   1.455
 4603SOL    HW214709   3.662   6.713   1.545
 4604SOL     OW14710   4.835   0.854   1.513
 4604SOL    HW114711   4.910   0.810   1.562
 4604SOL    HW214712   4.792   0.788   1.451
 4605SOL     OW14713   5.020   0.891   3.382
 4605SOL    HW114714   5.011   0.862   3.287
 4605SOL    HW214715   5.116   0.892   3.407
 4606SOL     OW14716   6.942   0.055   2.325
 4606SOL    HW114717   6.843   0.039   2.322
 4606SOL    HW214718   6.986   7.001   2.374
 4607SOL     OW14719   2.743   2.934   0.700
 4607SOL    HW114720   2.672   2.990   0.656
 4607SOL    HW214721   2.711   2.902   0.789
 4608SOL     OW14722   1.732   5.558   4.232
 4608SOL    HW114723   1.674   5.494   4.283
 4608SOL    HW214724   1.678   5.638   4.205
 4609SOL     OW14725   4.326   5.343   6.010
 4609SOL    HW114726   4.344   5.245   6.000
 4609SOL    HW214727   4.309   5.383   5.920
 4610SOL     OW14728   6.852   2.282   0.333
 4610SOL    HW114729   6.784   2.209   0.340
 4610SOL    HW214730   6.806   2.370   0.320
 4611SOL     OW14731   6.303   4.849   5.582
 4611SOL    HW114732   6.389   4.818   5.623
 4611SOL    HW214733   6.245   4.770   5.563
 4612SOL     OW14734   1.883   6.472   0.431
 4612SOL    HW114735   1.852   6.383   0.464
 4612SOL    HW214736   1.871   6.541   0.502
 4613SOL     OW14737   2.605   5.655   2.462
 4613SOL    HW114738   2.557   5.742   2.458
 4613SOL    HW214739   2.642   5.633   2.372
 4614SOL     OW14740   1.317   4.889   5.471
 4614SOL    HW114741   1.332   4.969   5.529
 4614SOL    HW214742   1.219   4.874   5.459
 4615SOL     OW14743   2.273   0.858   0.043
 4615SOL    HW114744   2.211   0.832   0.117
 4615SOL    HW214745   2.365   0.870   0.079
 4616SOL     OW14746   6.763   0.220   5.586
 4616SOL    HW114747   6.733   0.125   5.571
 4616SOL    HW214748   6.699   0.266   5.648
 4617SOL     OW14749   1.404   2.225   3.083
 4617SOL    HW114750   1.464   2.179   3.149
 4617SOL    HW214751   1.398   2.169   3.000
 4618SOL     OW14752   1.701   3.195   5.081
 4618SOL    HW114753   1.750   3.161   5.001
 4618SOL    HW214754   1.602   3.186   5.066
 4619SOL     OW14755   5.050   6.447   3.815
 4619SOL    HW114756   5.124   6.422   3.752
 4619SOL    HW214757   4.962   6.415   3.777
 4620SOL     OW14758   3.255   3.993   6.681
 4620SOL    HW114759   3.223   4.004   6.587
 4620SOL    HW214760   3.335   4.052   6.696
 4621SOL     OW14761   5.947   1.980   3.561
 4621SOL    HW114762   6.002   1.900   3.536
 4621SOL    HW214763   6.008   2.056   3.583
 4622SOL     OW14764   0.469   3.159   0.781
 4622SOL    HW114765   0.563   3.169   0.749
 4622SOL    HW214766   0.406   3.173   0.704
 4623SOL     OW14767   0.027   5.619   0.920
 4623SOL    HW114768   0.016   5.560   1.000
 4623SOL    HW214769   7.002   5.577   0.842
 4624SOL     OW14770   4.459   0.066   3.011
 4624SOL    HW114771   4.437   0.095   2.918
 4624SOL    HW214772   4.376   0.039   3.058
 4625SOL     OW14773   1.362   4.211   6.955
 4625SOL    HW114774   1.301   4.143   6.996
 4625SOL    HW214775   1.340   4.221   6.858
 4626SOL     OW14776   5.883   4.937   1.317
 4626SOL    HW114777   5.905   4.840   1.326
 4626SOL    HW214778   5.803   4.959   1.373
 4627SOL     OW14779   3.303   5.913   4.807
 4627SOL    HW114780   3.229   5.936   4.869
 4627SOL    HW214781   3.310   5.814   4.798
 4628SOL     OW14782   6.155   4.708   3.172
 4628SOL    HW114783   6.087   4.664   3.230
 4628SOL    HW214784   6.114   4.730   3.083
 4629SOL     OW14785   2.113   4.897   6.083
 4629SOL    HW114786   2.138   4.832   6.011
 4629SOL    HW214787   2.196   4.932   6.126
 4630SOL     OW14788   3.545   5.960   3.424
 4630SOL    HW114789   3.566   5.987   3.329
 4630SOL    HW214790   3.561   5.862   3.435
 4631SOL     OW14791   2.645   6.617   3.505
 4631SOL    HW114792   2.744   6.611   3.491
 4631SOL    HW214793   2.606   6.678   3.436
 4632SOL     OW14794   4.505   4.727   2.886
 4632SOL    HW114795   4.461   4.817   2.898
 4632SOL    HW214796   4.552   4.725   2.798
 4633SOL     OW14797   6.028   1.747   3.821
 4633SOL    HW114798   6.084   1.774   3.742
 4633SOL    HW214799   6.047   1.810   3.897
 4634SOL     OW14800   2.237   4.301   6.626
 4634SOL    HW114801   2.178   4.345   6.694
 4634SOL    HW214802   2.331   4.333   6.639
 4635SOL     OW14803   6.144   3.724   2.238
 4635SOL    HW114804   6.197   3.805   2.212
 4635SOL    HW214805   6.204   3.660   2.287
 4636SOL     OW14806   2.249   4.891   0.065
 4636SOL    HW114807   2.222   4.796   0.051
 4636SOL    HW214808   2.323   4.914   0.002
 4637SOL     OW14809   1.900   0.620   0.390
 4637SOL    HW114810   1.998   0.602   0.399
 4637SOL    HW214811   1.879   0.642   0.294
 4638SOL     OW14812   3.324   2.942   6.299
 4638SOL    HW114813   3.382   2.929   6.219
 4638SOL    HW214814   3.233   2.905   6.281
 4639SOL     OW14815   1.939   5.125   5.422
 4639SOL    HW114816   1.986   5.207   5.390
 4639SOL    HW214817   1.841   5.139   5.417
 4640SOL     OW14818   4.475   5.109   3.450
 4640SOL    HW114819   4.432   5.109   3.360
 4640SOL    HW214820   4.427   5.046   3.511
 4641SOL     OW14821   2.858   5.536   4.081
 4641SOL    HW114822   2.918   5.613   4.103
 4641SOL    HW214823   2.913   5.454   4.068
 4642SOL     OW14824   0.916   6.457   4.827
 4642SOL    HW114825   0.957   6.380   4.778
 4642SOL    HW214826   0.985   6.528   4.841
 4643SOL     OW14827   4.971   2.687   0.961
 4643SOL    HW114828   4.892   2.744   0.938
 4643SOL    HW214829   5.048   2.745   0.984
 4644SOL     OW14830   1.370   4.786   4.502
 4644SOL    HW114831   1.384   4.757   4.407
 4644SOL    HW214832   1.287   4.842   4.508
 4645SOL     OW14833   1.780   0.205   4.431
 4645SOL    HW114834   1.819   0.251   4.351
 4645SOL    HW214835   1.683   0.228   4.439
 4646SOL     OW14836   2.397   6.488   2.801
 4646SOL    HW114837   2.394   6.509   2.703
 4646SOL    HW214838   2.492   6.477   2.830
 4647SOL     OW14839   0.485   6.585   2.859
 4647SOL    HW114840   0.504   6.670   2.809
 4647SOL    HW214841   0.387   6.569   2.862
 4648SOL     OW14842   3.953   0.151   1.008
 4648SOL    HW114843   3.943   0.140   0.909
 4648SOL    HW214844   3.999   0.238   1.027
 4649SOL     OW14845   5.393   6.819   6.026
 4649SOL    HW114846   5.450   6.806   6.107
 4649SOL    HW214847   5.300   6.843   6.055
 4650SOL     OW14848   3.862   5.932   3.497
 4650SOL    HW114849   3.901   5.952   3.407
 4650SOL    HW214850   3.763   5.942   3.493
 4651SOL     OW14851   0.164   1.934   0.835
 4651SOL    HW114852   0.258   1.934   0.799
 4651SOL    HW214853   0.151   2.015   0.892
 4652SOL     OW14854   0.552   0.178   3.820
 4652SOL    HW114855   0.480   0.195   3.887
 4652SOL    HW214856   0.583   0.083   3.827
 4653SOL     OW14857   6.883   5.487   6.912
 4653SOL    HW114858   6.952   5.420   6.938
 4653SOL    HW214859   6.908   5.577   6.948
 4654SOL     OW14860   0.588   0.098   0.171
 4654SOL    HW114861   0.562   0.147   0.254
 4654SOL    HW214862   0.518   0.031   0.148
 4655SOL     OW14863   6.828   5.252   1.691
 4655SOL    HW114864   6.794   5.204   1.771
 4655SOL    HW214865   6.849   5.347   1.714
 4656SOL     OW14866   0.958   6.857   3.265
 4656SOL    HW114867   0.899   6.888   3.191
 4656SOL    HW214868   0.999   6.769   3.240
 4657SOL     OW14869   4.891   6.952   1.731
 4657SOL    HW114870   4.879   6.982   1.636
 4657SOL    HW214871   4.973   6.895   1.737
 4658SOL     OW14872   3.421   0.365   2.502
 4658SOL    HW114873   3.430   0.450   2.450
 4658SOL    HW214874   3.347   0.375   2.569
 4659SOL     OW14875   2.384   3.902   5.617
 4659SOL    HW114876   2.479   3.917   5.588
 4659SOL    HW214877   2.322   3.927   5.544
 4660SOL     OW14878   1.083   2.609   4.965
 4660SOL    HW114879   1.002   2.596   4.908
 4660SOL    HW214880   1.058   2.654   5.050
 4661SOL     OW14881   4.394   4.393   5.770
 4661SOL    HW114882   4.432   4.475   5.727
 4661SOL    HW214883   4.296   4.407   5.787
 4662SOL     OW14884   5.044   0.420   4.764
 4662SOL    HW114885   5.096   0.391   4.683
 4662SOL    HW214886   4.951   0.384   4.758
 4663SOL     OW14887   0.449   0.981   2.593
 4663SOL    HW114888   0.426   0.928   2.674
 4663SOL    HW214889   0.542   1.017   2.602
 4664SOL     OW14890   1.941   2.399   6.838
 4664SOL    HW114891   1.872   2.360   6.776
 4664SOL    HW214892   1.999   2.462   6.787
 4665SOL     OW14893   4.569   7.012   0.106
 4665SOL    HW114894   4.564   6.962   0.019
 4665SOL    HW214895   4.476   0.011   0.137
 4666SOL     OW14896   1.910   1.606   6.968
 4666SOL    HW114897   1.843   1.675   6.939
 4666SOL    HW214898   1.960   1.640   0.026
 4667SOL     OW14899   6.748   5.153   0.540
 4667SOL    HW114900   6.679   5.105   0.594
 4667SOL    HW214901   6.830   5.097   0.532
 4668SOL     OW14902   6.714   1.950   4.042
 4668SOL    HW114903   6.658   2.019   4.089
 4668SOL    HW214904   6.789   1.995   3.994
 4669SOL     OW14905   3.835   6.872   0.599
 4669SOL    HW114906   3.762   6.929   0.561
 4669SOL    HW214907   3.825   6.868   0.699
 4670SOL     OW14908   3.118   1.568   4.806
 4670SOL    HW114909   3.194   1.630   4.827
 4670SOL    HW214910   3.154   1.479   4.780
 4671SOL     OW14911   6.124   2.672   1.928
 4671SOL    HW114912   6.035   2.705   1.896
 4671SOL    HW214913   6.141   2.582   1.887
 4672SOL     OW14914   2.544   4.584   5.912
 4672SOL    HW114915   2.633   4.547   5.884
 4672SOL    HW214916   2.508   4.642   5.839
 4673SOL     OW14917   4.841   6.913   1.044
 4673SOL    HW114918   4.938   6.912   1.021
 4673SOL    HW214919   4.805   7.006   1.033
 4674SOL     OW14920   5.150   6.028   6.044
 4674SOL    HW114921   5.234   5.996   6.088
 4674SOL    HW214922   5.085   6.057   6.115
 4675SOL     OW14923   0.264   3.569   0.248
 4675SOL    HW114924   0.304   3.654   0.213
 4675SOL    HW214925   0.265   3.570   0.348
 4676SOL     OW14926   0.836   5.853   4.168
 4676SOL    HW114927   0.913   5.917   4.160
 4676SOL    HW214928   0.870   5.766   4.204
 4677SOL     OW14929   2.228   2.076   0.766
 4677SOL    HW114930   2.142   2.124   0.744
 4677SOL    HW214931   2.301   2.143   0.776
 4678SOL     OW14932   2.746   4.742   2.545
 4678SOL    HW114933   2.706   4.819   2.595
 4678SOL    HW214934   2.674   4.693   2.497
 4679SOL     OW14935   3.836   0.082   1.859
 4679SOL    HW114936   3.821   7.016   1.813
 4679SOL    HW214937   3.748   0.128   1.872
 4680SOL     OW14938   3.778   1.774   7.016
 4680SOL    HW114939   3.732   1.745   0.079
 4680SOL    HW214940   3.872   1.741   7.016
 4681SOL     OW14941   5.067   4.810   6.962
 4681SOL    HW114942   5.150   4.821   7.017
 4681SOL    HW214943   4.987   4.805   0.001
 4682SOL     OW14944   5.161   3.939   5.954
 4682SOL    HW114945   5.245   3.949   6.007
 4682SOL    HW214946   5.118   4.029   5.944
 4683SOL     OW14947   5.685   5.526   2.148
 4683SOL    HW114948   5.772   5.534   2.099
 4683SOL    HW214949   5.702   5.523   2.246
 4684SOL     OW14950   4.231   6.391   5.709
 4684SOL    HW114951   4.162   6.375   5.780
 4684SOL    HW214952   4.321   6.396   5.752
 4685SOL     OW14953   2.210   4.740   5.883
 4685SOL    HW114954   2.158   4.655   5.868
 4685SOL    HW214955   2.276   4.752   5.809
 4686SOL     OW14956   4.333   5.623   0.440
 4686SOL    HW114957   4.282   5.677   0.373
 4686SOL    HW214958   4.431   5.646   0.434
 4687SOL     OW14959   5.135   2.902   4.540
 4687SOL    HW114960   5.053   2.858   4.576
 4687SOL    HW214961   5.173   2.963   4.609
 4688SOL     OW14962   5.498   2.644   5.514
 4688SOL    HW114963   5.568   2.704   5.475
 4688SOL    HW214964   5.415   2.696   5.532
 4689SOL     OW14965   5.584   1.103   1.214
 4689SOL    HW114966   5.549   1.112   1.307
 4689SOL    HW214967   5.528   1.158   1.152
 4690SOL     OW14968   1.715   1.421   1.028
 4690SOL    HW114969   1.680   1.401   0.937
 4690SOL    HW214970   1.810   1.391   1.034
 4691SOL     OW14971   3.623   4.090   0.216
 4691SOL    HW114972   3.589   4.000   0.187
 4691SOL    HW214973   3.555   4.160   0.196
 4692SOL     OW14974   5.922   5.246   2.666
 4692SOL    HW114975   5.872   5.161   2.682
 4692SOL    HW214976   5.860   5.324   2.677
 4693SOL     OW14977   1.153   0.979   3.502
 4693SOL    HW114978   1.055   0.965   3.512
 4693SOL    HW214979   1.169   1.048   3.431
 4694SOL     OW14980   2.019   2.814   0.674
 4694SOL    HW114981   2.065   2.799   0.587
 4694SOL    HW214982   1.949   2.743   0.687
 4695SOL     OW14983   1.637   5.706   0.323
 4695SOL    HW114984   1.693   5.659   0.392
 4695SOL    HW214985   1.696   5.743   0.252
 4696SOL     OW14986   0.236   5.407   6.334
 4696SOL    HW114987   0.251   5.382   6.239
 4696SOL    HW214988   0.266   5.501   6.350
 4697SOL     OW14989   0.938   3.768   2.294
 4697SOL    HW114990   0.935   3.868   2.299
 4697SOL    HW214991   0.949   3.739   2.199
 4698SOL     OW14992   4.304   6.581   3.327
 4698SOL    HW114993   4.228   6.584   3.261
 4698SOL    HW214994   4.387   6.615   3.283
 4699SOL     OW14995   0.271   6.333   2.690
 4699SOL    HW114996   0.356   6.338   2.637
 4699SOL    HW214997   0.294   6.326   2.787
 4700SOL     OW14998   6.487   1.508   2.233
 4700SOL    HW114999   6.469   1.604   2.257
 4700SOL    HW215000   6.554   1.504   2.159
 4701SOL     OW15001   3.612   1.947   0.706
 4701SOL    HW115002   3.573   1.885   0.774
 4701SOL    HW215003   3.542   2.012   0.676
 4702SOL     OW15004   4.538   4.703   0.554
 4702SOL    HW115005   4.618   4.644   0.565
 4702SOL    HW215006   4.565   4.799   0.568
 4703SOL     OW15007   1.026   6.321   3.042
 4703SOL    HW115008   1.102   6.330   3.106
 4703SOL    HW215009   0.966   6.401   3.049
 4704SOL     OW15010   6.892   6.027   5.789
 4704SOL    HW115011   6.818   6.062   5.847
 4704SOL    HW215012   6.874   6.051   5.694
 4705SOL     OW15013   3.269   2.440   0.765
 4705SOL    HW115014   3.368   2.441   0.755
 4705SOL    HW215015   3.228   2.399   0.684
 4706SOL     OW15016   1.350   0.966   0.700
 4706SOL    HW115017   1.349   0.925   0.609
 4706SOL    HW215018   1.442   0.999   0.721
 4707SOL     OW15019   1.077   6.019   1.607
 4707SOL    HW115020   1.023   5.966   1.672
 4707SOL    HW215021   1.035   6.016   1.517
 4708SOL     OW15022   0.945   2.001   5.942
 4708SOL    HW115023   0.858   2.050   5.932
 4708SOL    HW215024   0.990   2.029   6.026
 4709SOL     OW15025   4.701   5.169   4.576
 4709SOL    HW115026   4.700   5.134   4.482
 4709SOL    HW215027   4.642   5.113   4.633
 4710SOL     OW15028   5.934   0.083   6.177
 4710SOL    HW115029   5.950   7.009   6.151
 4710SOL    HW215030   5.938   0.141   6.096
 4711SOL     OW15031   6.908   1.550   2.401
 4711SOL    HW115032   6.897   1.459   2.441
 4711SOL    HW215033   6.865   1.618   2.461
 4712SOL     OW15034   3.623   4.790   6.618
 4712SOL    HW115035   3.707   4.752   6.659
 4712SOL    HW215036   3.605   4.880   6.656
 4713SOL     OW15037   4.848   5.720   0.583
 4713SOL    HW115038   4.800   5.802   0.612
 4713SOL    HW215039   4.847   5.653   0.658
 4714SOL     OW15040   0.413   1.168   6.212
 4714SOL    HW115041   0.443   1.263   6.223
 4714SOL    HW215042   0.382   1.132   6.300
 4715SOL     OW15043   6.309   2.841   1.637
 4715SOL    HW115044   6.288   2.756   1.590
 4715SOL    HW215045   6.314   2.824   1.736
 4716SOL     OW15046   4.841   6.413   5.555
 4716SOL    HW115047   4.828   6.355   5.475
 4716SOL    HW215048   4.795   6.372   5.634
 4717SOL     OW15049   1.526   5.063   4.931
 4717SOL    HW115050   1.429   5.075   4.913
 4717SOL    HW215051   1.579   5.092   4.851
 4718SOL     OW15052   5.322   2.418   1.391
 4718SOL    HW115053   5.263   2.355   1.340
 4718SOL    HW215054   5.292   2.423   1.486
 4719SOL     OW15055   4.948   3.915   2.775
 4719SOL    HW115056   4.967   3.900   2.678
 4719SOL    HW215057   4.895   3.999   2.786
 4720SOL     OW15058   2.040   4.571   6.535
 4720SOL    HW115059   1.996   4.622   6.461
 4720SOL    HW215060   2.024   4.474   6.522
 4721SOL     OW15061   6.110   2.382   1.816
 4721SOL    HW115062   6.028   2.339   1.853
 4721SOL    HW215063   6.190   2.351   1.867
 4722SOL     OW15064   1.143   6.291   7.019
 4722SOL    HW115065   1.190   6.223   6.963
 4722SOL    HW215066   1.209   6.338   0.056
 4723SOL     OW15067   3.472   3.873   4.974
 4723SOL    HW115068   3.457   3.842   5.068
 4723SOL    HW215069   3.501   3.969   4.975
 4724SOL     OW15070   0.184   6.925   4.216
 4724SOL    HW115071   0.210   6.854   4.282
 4724SOL    HW215072   0.215   6.898   4.124
 4725SOL     OW15073   5.893   4.955   0.331
 4725SOL    HW115074   5.977   4.986   0.287
 4725SOL    HW215075   5.841   5.034   0.365
 4726SOL     OW15076   1.244   3.398   5.902
 4726SOL    HW115077   1.252   3.346   5.987
 4726SOL    HW215078   1.334   3.405   5.859
 4727SOL     OW15079   6.981   5.884   0.960
 4727SOL    HW115080   6.881   5.883   0.966
 4727SOL    HW215081   7.014   5.793   0.933
 4728SOL     OW15082   6.989   1.061   2.952
 4728SOL    HW115083   6.901   1.050   2.998
 4728SOL    HW215084   6.981   1.132   2.882
 4729SOL     OW15085   4.822   1.049   0.430
 4729SOL    HW115086   4.807   0.950   0.437
 4729SOL    HW215087   4.912   1.072   0.466
 4730SOL     OW15088   3.238   5.886   5.613
 4730SOL    HW115089   3.222   5.983   5.631
 4730SOL    HW215090   3.273   5.843   5.696
 4731SOL     OW15091   2.950   1.022   1.031
 4731SOL    HW115092   2.954   1.030   1.131
 4731SOL    HW215093   3.036   0.983   0.998
 4732SOL     OW15094   0.291   2.981   5.268
 4732SOL    HW115095   0.368   3.011   5.211
 4732SOL    HW215096   0.318   2.899   5.319
 4733SOL     OW15097   1.171   4.248   3.042
 4733SOL    HW115098   1.265   4.249   3.007
 4733SOL    HW215099   1.122   4.169   3.006
 4734SOL     OW15100   5.003   3.294   0.383
 4734SOL    HW115101   5.050   3.240   0.313
 4734SOL    HW215102   4.904   3.290   0.367
 4735SOL     OW15103   6.190   5.241   3.954
 4735SOL    HW115104   6.176   5.238   3.855
 4735SOL    HW215105   6.287   5.233   3.975
 4736SOL     OW15106   5.668   1.558   5.043
 4736SOL    HW115107   5.758   1.514   5.046
 4736SOL    HW215108   5.639   1.581   5.135
 4737SOL     OW15109   2.509   4.458   0.534
 4737SOL    HW115110   2.482   4.362   0.534
 4737SOL    HW215111   2.542   4.483   0.625
 4738SOL     OW15112   3.004   6.389   3.571
 4738SOL    HW115113   2.915   6.386   3.615
 4738SOL    HW215114   2.998   6.440   3.485
 4739SOL     OW15115   5.730   1.851   3.520
 4739SOL    HW115116   5.810   1.896   3.560
 4739SOL    HW215117   5.749   1.753   3.509
 4740SOL     OW15118   1.334   0.749   0.910
 4740SOL    HW115119   1.343   0.833   0.857
 4740SOL    HW215120   1.426   0.713   0.931
 4741SOL     OW15121   4.688   3.601   1.206
 4741SOL    HW115122   4.638   3.533   1.260
 4741SOL    HW215123   4.623   3.661   1.159
 4742SOL     OW15124   3.509   6.147   1.918
 4742SOL    HW115125   3.458   6.200   1.850
 4742SOL    HW215126   3.557   6.209   1.980
 4743SOL     OW15127   1.649   2.084   5.818
 4743SOL    HW115128   1.592   2.113   5.895
 4743SOL    HW215129   1.745   2.101   5.840
 4744SOL     OW15130   2.901   3.258   5.723
 4744SOL    HW115131   2.847   3.219   5.798
 4744SOL    HW215132   2.841   3.310   5.663
 4745SOL     OW15133   2.589   5.135   5.570
 4745SOL    HW115134   2.636   5.063   5.520
 4745SOL    HW215135   2.626   5.140   5.663
 4746SOL     OW15136   5.887   6.221   1.740
 4746SOL    HW115137   5.902   6.155   1.814
 4746SOL    HW215138   5.789   6.228   1.721
 4747SOL     OW15139   1.506   3.641   6.233
 4747SOL    HW115140   1.582   3.690   6.277
 4747SOL    HW215141   1.525   3.631   6.136
 4748SOL     OW15142   1.636   5.252   1.287
 4748SOL    HW115143   1.657   5.341   1.246
 4748SOL    HW215144   1.549   5.257   1.336
 4749SOL     OW15145   2.850   6.174   5.962
 4749SOL    HW115146   2.855   6.142   6.057
 4749SOL    HW215147   2.891   6.264   5.955
 4750SOL     OW15148   0.193   2.286   4.153
 4750SOL    HW115149   0.109   2.262   4.104
 4750SOL    HW215150   0.264   2.312   4.088
 4751SOL     OW15151   1.901   3.723   0.466
 4751SOL    HW115152   1.893   3.626   0.445
 4751SOL    HW215153   1.883   3.777   0.384
 4752SOL     OW15154   2.963   0.104   0.597
 4752SOL    HW115155   3.047   0.151   0.570
 4752SOL    HW215156   2.890   0.171   0.611
 4753SOL     OW15157   5.047   0.241   4.127
 4753SOL    HW115158   4.958   0.199   4.114
 4753SOL    HW215159   5.118   0.171   4.133
 4754SOL     OW15160   5.914   0.510   5.488
 4754SOL    HW115161   5.927   0.595   5.538
 4754SOL    HW215162   6.004   0.470   5.467
 4755SOL     OW15163   2.826   0.947   0.291
 4755SOL    HW115164   2.858   0.856   0.316
 4755SOL    HW215165   2.892   0.991   0.230
 4756SOL     OW15166   6.034   2.190   1.145
 4756SOL    HW115167   6.015   2.222   1.238
 4756SOL    HW215168   5.987   2.249   1.080
 4757SOL     OW15169   1.776   1.928   2.358
 4757SOL    HW115170   1.844   1.897   2.292
 4757SOL    HW215171   1.712   1.991   2.314
 4758SOL     OW15172   3.264   5.596   4.763
 4758SOL    HW115173   3.260   5.609   4.664
 4758SOL    HW215174   3.242   5.501   4.785
 4759SOL     OW15175   6.046   5.363   5.095
 4759SOL    HW115176   6.094   5.314   5.023
 4759SOL    HW215177   6.067   5.321   5.184
 4760SOL     OW15178   3.308   2.095   0.879
 4760SOL    HW115179   3.243   2.142   0.938
 4760SOL    HW215180   3.396   2.087   0.925
 4761SOL     OW15181   6.949   0.383   6.730
 4761SOL    HW115182   6.864   0.362   6.682
 4761SOL    HW215183   6.934   0.376   6.829
 4762SOL     OW15184   2.878   5.033   2.892
 4762SOL    HW115185   2.805   5.055   2.956
 4762SOL    HW215186   2.857   4.948   2.844
 4763SOL     OW15187   5.996   6.454   3.568
 4763SOL    HW115188   6.060   6.406   3.509
 4763SOL    HW215189   5.933   6.508   3.511
 4764SOL     OW15190   4.960   3.983   5.676
 4764SOL    HW115191   4.872   4.028   5.690
 4764SOL    HW215192   5.022   4.045   5.627
 4765SOL     OW15193   5.273   6.932   4.314
 4765SOL    HW115194   5.319   6.904   4.399
 4765SOL    HW215195   5.225   6.853   4.275
 4766SOL     OW15196   4.288   0.197   3.480
 4766SOL    HW115197   4.318   0.115   3.430
 4766SOL    HW215198   4.188   0.201   3.480
 4767SOL     OW15199   4.350   5.632   6.066
 4767SOL    HW115200   4.309   5.542   6.081
 4767SOL    HW215201   4.279   5.702   6.067
 4768SOL     OW15202   5.076   2.210   5.195
 4768SOL    HW115203   5.152   2.266   5.161
 4768SOL    HW215204   5.069   2.126   5.143
 4769SOL     OW15205   4.639   5.063   1.062
 4769SOL    HW115206   4.730   5.058   1.021
 4769SOL    HW215207   4.617   5.158   1.083
 4770SOL     OW15208   1.666   0.089   3.855
 4770SOL    HW115209   1.753   0.080   3.806
 4770SOL    HW215210   1.650   0.007   3.910
 4771SOL     OW15211   3.534   5.437   5.762
 4771SOL    HW115212   3.607   5.411   5.827
 4771SOL    HW215213   3.452   5.384   5.783
 4772SOL     OW15214   2.258   5.738   2.391
 4772SOL    HW115215   2.161   5.723   2.413
 4772SOL    HW215216   2.294   5.814   2.445
 4773SOL     OW15217   6.664   5.158   4.823
 4773SOL    HW115218   6.740   5.173   4.886
 4773SOL    HW215219   6.699   5.138   4.732
 4774SOL     OW15220   1.062   2.282   1.687
 4774SOL    HW115221   1.031   2.368   1.648
 4774SOL    HW215222   1.156   2.292   1.720
 4775SOL     OW15223   5.049   0.146   2.689
 4775SOL    HW115224   4.983   0.098   2.746
 4775SOL    HW215225   5.141   0.134   2.727
 4776SOL     OW15226   1.067   6.784   4.113
 4776SOL    HW115227   1.143   6.786   4.048
 4776SOL    HW215228   1.046   6.878   4.142
 4777SOL     OW15229   3.125   4.781   1.368
 4777SOL    HW115230   3.105   4.689   1.333
 4777SOL    HW215231   3.222   4.787   1.390
 4778SOL     OW15232   5.244   1.988   2.159
 4778SOL    HW115233   5.217   1.971   2.064
 4778SOL    HW215234   5.193   2.066   2.195
 4779SOL     OW15235   6.761   6.319   2.204
 4779SOL    HW115236   6.796   6.277   2.287
 4779SOL    HW215237   6.746   6.249   2.134
 4780SOL     OW15238   6.985   0.337   7.012
 4780SOL    HW115239   0.062   0.321   0.003
 4780SOL    HW215240   6.941   0.252   6.984
 4781SOL     OW15241   2.647   5.898   1.132
 4781SOL    HW115242   2.556   5.879   1.094
 4781SOL    HW215243   2.643   5.976   1.193
 4782SOL     OW15244   4.578   6.641   0.288
 4782SOL    HW115245   4.673   6.613   0.273
 4782SOL    HW215246   4.547   6.608   0.377
 4783SOL     OW15247   4.766   4.094   0.152
 4783SOL    HW115248   4.832   4.061   0.220
 4783SOL    HW215249   4.814   4.117   0.068
 4784SOL     OW15250   6.462   3.711   6.952
 4784SOL    HW115251   6.365   3.711   6.978
 4784SOL    HW215252   6.510   3.638   7.001
 4785SOL     OW15253   6.422   5.897   1.441
 4785SOL    HW115254   6.506   5.941   1.409
 4785SOL    HW215255   6.441   5.845   1.524
 4786SOL     OW15256   2.406   2.189   2.300
 4786SOL    HW115257   2.442   2.182   2.393
 4786SOL    HW215258   2.481   2.180   2.234
 4787SOL     OW15259   3.734   1.975   3.528
 4787SOL    HW115260   3.823   1.930   3.541
 4787SOL    HW215261   3.708   2.021   3.613
 4788SOL     OW15262   0.928   5.544   6.314
 4788SOL    HW115263   0.941   5.572   6.409
 4788SOL    HW215264   0.960   5.450   6.302
 4789SOL     OW15265   5.360   0.863   0.271
 4789SOL    HW115266   5.400   0.774   0.292
 4789SOL    HW215267   5.421   0.935   0.304
 4790SOL     OW15268   0.014   2.911   6.251
 4790SOL    HW115269   0.042   2.934   6.158
 4790SOL    HW215270   0.067   2.965   6.317
 4791SOL     OW15271   5.745   2.071   1.813
 4791SOL    HW115272   5.778   2.057   1.720
 4791SOL    HW215273   5.709   1.985   1.850
 4792SOL     OW15274   1.853   3.757   2.620
 4792SOL    HW115275   1.828   3.801   2.533
 4792SOL    HW215276   1.780   3.773   2.686
 4793SOL     OW15277   1.158   2.576   6.204
 4793SOL    HW115278   1.200   2.485   6.206
 4793SOL    HW215279   1.176   2.622   6.291
 4794SOL     OW15280   4.442   1.048   3.177
 4794SOL    HW115281   4.522   1.032   3.236
 4794SOL    HW215282   4.377   0.972   3.188
 4795SOL     OW15283   6.343   1.300   3.153
 4795SOL    HW115284   6.314   1.315   3.059
 4795SOL    HW215285   6.368   1.204   3.166
 4796SOL     OW15286   5.457   2.374   6.230
 4796SOL    HW115287   5.364   2.374   6.267
 4796SOL    HW215288   5.462   2.310   6.153
 4797SOL     OW15289   1.584   6.268   5.166
 4797SOL    HW115290   1.579   6.303   5.072
 4797SOL    HW215291   1.532   6.328   5.227
 4798SOL     OW15292   0.059   3.056   5.375
 4798SOL    HW115293   7.003   2.999   5.402
 4798SOL    HW215294   0.135   2.997   5.346
 4799SOL     OW15295   5.054   2.147   6.498
 4799SOL    HW115296   4.988   2.104   6.435
 4799SOL    HW215297   5.120   2.079   6.528
 4800SOL     OW15298   2.776   3.533   5.637
 4800SOL    HW115299   2.784   3.512   5.540
 4800SOL    HW215300   2.859   3.577   5.669
 4801SOL     OW15301   2.617   2.710   0.159
 4801SOL    HW115302   2.689   2.650   0.127
 4801SOL    HW215303   2.577   2.673   0.243
 4802SOL     OW15304   0.907   6.425   2.293
 4802SOL    HW115305   0.849   6.435   2.212
 4802SOL    HW215306   0.894   6.334   2.332
 4803SOL     OW15307   1.030   6.532   0.558
 4803SOL    HW115308   0.947   6.541   0.612
 4803SOL    HW215309   1.101   6.488   0.614
 4804SOL     OW15310   4.516   5.436   6.465
 4804SOL    HW115311   4.528   5.535   6.474
 4804SOL    HW215312   4.504   5.413   6.368
 4805SOL     OW15313   6.145   6.697   1.303
 4805SOL    HW115314   6.203   6.776   1.284
 4805SOL    HW215315   6.172   6.620   1.245
 4806SOL     OW15316   0.236   4.621   2.963
 4806SOL    HW115317   0.262   4.608   3.059
 4806SOL    HW215318   0.145   4.663   2.959
 4807SOL     OW15319   1.299   5.133   0.649
 4807SOL    HW115320   1.295   5.053   0.710
 4807SOL    HW215321   1.304   5.216   0.705
 4808SOL     OW15322   6.397   3.630   6.690
 4808SOL    HW115323   6.401   3.660   6.786
 4808SOL    HW215324   6.468   3.561   6.674
 4809SOL     OW15325   3.475   4.142   6.696
 4809SOL    HW115326   3.566   4.101   6.693
 4809SOL    HW215327   3.459   4.194   6.612
 4810SOL     OW15328   1.261   5.128   2.414
 4810SOL    HW115329   1.224   5.178   2.492
 4810SOL    HW215330   1.227   5.167   2.329
 4811SOL     OW15331   2.141   4.504   2.194
 4811SOL    HW115332   2.240   4.490   2.196
 4811SOL    HW215333   2.094   4.416   2.202
 4812SOL     OW15334   0.340   5.177   5.446
 4812SOL    HW115335   0.266   5.241   5.427
 4812SOL    HW215336   0.426   5.213   5.409
 4813SOL     OW15337   5.614   1.878   0.970
 4813SOL    HW115338   5.652   1.845   1.057
 4813SOL    HW215339   5.514   1.877   0.975
 4814SOL     OW15340   5.874   4.377   0.597
 4814SOL    HW115341   5.845   4.419   0.683
 4814SOL    HW215342   5.866   4.278   0.603
 4815SOL     OW15343   5.464   4.459   2.762
 4815SOL    HW115344   5.392   4.396   2.734
 4815SOL    HW215345   5.462   4.469   2.862
 4816SOL     OW15346   6.593   5.400   2.644
 4816SOL    HW115347   6.526   5.375   2.714
 4816SOL    HW215348   6.683   5.411   2.687
 4817SOL     OW15349   0.858   1.859   6.393
 4817SOL    HW115350   0.850   1.956   6.417
 4817SOL    HW215351   0.769   1.823   6.366
 4818SOL     OW15352   0.686   6.952   4.438
 4818SOL    HW115353   0.632   6.982   4.359
 4818SOL    HW215354   0.775   6.997   4.436
 4819SOL     OW15355   1.088   2.500   0.369
 4819SOL    HW115356   1.044   2.484   0.281
 4819SOL    HW215357   1.032   2.561   0.425
 4820SOL     OW15358   7.006   2.713   1.688
 4820SOL    HW115359   0.064   2.670   1.644
 4820SOL    HW215360   6.973   2.788   1.631
 4821SOL     OW15361   0.715   6.216   2.699
 4821SOL    HW115362   0.662   6.133   2.686
 4821SOL    HW215363   0.670   6.292   2.653
 4822SOL     OW15364   1.191   3.477   4.888
 4822SOL    HW115365   1.171   3.443   4.797
 4822SOL    HW215366   1.287   3.504   4.893
 4823SOL     OW15367   1.636   1.755   3.647
 4823SOL    HW115368   1.642   1.665   3.605
 4823SOL    HW215369   1.612   1.823   3.578
 4824SOL     OW15370   5.321   2.355   5.530
 4824SOL    HW115371   5.415   2.388   5.523
 4824SOL    HW215372   5.258   2.433   5.532
 4825SOL     OW15373   1.244   2.267   4.559
 4825SOL    HW115374   1.289   2.189   4.516
 4825SOL    HW215375   1.151   2.276   4.523
 4826SOL     OW15376   5.825   0.460   0.459
 4826SOL    HW115377   5.735   0.417   0.458
 4826SOL    HW215378   5.863   0.453   0.552
 4827SOL     OW15379   6.441   2.055   0.909
 4827SOL    HW115380   6.497   2.030   0.988
 4827SOL    HW215381   6.476   2.140   0.869
 4828SOL     OW15382   5.271   0.913   1.170
 4828SOL    HW115383   5.196   0.904   1.104
 4828SOL    HW215384   5.282   1.009   1.196
 4829SOL     OW15385   3.701   0.600   6.298
 4829SOL    HW115386   3.757   0.572   6.376
 4829SOL    HW215387   3.693   0.525   6.233
 4830SOL     OW15388   3.660   5.784   4.132
 4830SOL    HW115389   3.626   5.854   4.070
 4830SOL    HW215390   3.681   5.825   4.221
 4831SOL     OW15391   2.160   5.017   5.199
 4831SOL    HW115392   2.068   5.025   5.161
 4831SOL    HW215393   2.166   5.072   5.282
 4832SOL     OW15394   3.100   3.858   3.778
 4832SOL    HW115395   3.153   3.942   3.780
 4832SOL    HW215396   3.060   3.841   3.868
 4833SOL     OW15397   5.558   1.862   2.738
 4833SOL    HW115398   5.569   1.782   2.680
 4833SOL    HW215399   5.637   1.923   2.726
 4834SOL     OW15400   2.314   5.918   2.598
 4834SOL    HW115401   2.278   6.002   2.639
 4834SOL    HW215402   2.279   5.839   2.648
 4835SOL     OW15403   6.330   3.234   5.877
 4835SOL    HW115404   6.325   3.149   5.825
 4835SOL    HW215405   6.372   3.305   5.820
 4836SOL     OW15406   5.476   1.220   4.969
 4836SOL    HW115407   5.408   1.277   5.015
 4836SOL    HW215408   5.438   1.185   4.884
 4837SOL     OW15409   6.986   4.137   3.267
 4837SOL    HW115410   6.896   4.137   3.311
 4837SOL    HW215411   0.006   4.228   3.274
 4838SOL     OW15412   2.250   5.891   7.018
 4838SOL    HW115413   2.307   5.972   7.006
 4838SOL    HW215414   2.173   5.913   0.057
 4839SOL     OW15415   1.508   3.180   0.081
 4839SOL    HW115416   1.582   3.241   0.111
 4839SOL    HW215417   1.508   3.097   0.137
 4840SOL     OW15418   6.529   3.829   6.026
 4840SOL    HW115419   6.430   3.837   6.038
 4840SOL    HW215420   6.548   3.785   5.938
 4841SOL     OW15421   2.765   5.160   3.151
 4841SOL    HW115422   2.700   5.166   3.227
 4841SOL    HW215423   2.851   5.203   3.177
 4842SOL     OW15424   2.695   5.097   3.508
 4842SOL    HW115425   2.618   5.098   3.444
 4842SOL    HW215426   2.745   5.010   3.498
 4843SOL     OW15427   6.744   2.394   1.937
 4843SOL    HW115428   6.729   2.348   2.025
 4843SOL    HW215429   6.742   2.493   1.949
 4844SOL     OW15430   0.303   3.967   5.200
 4844SOL    HW115431   0.260   3.992   5.113
 4844SOL    HW215432   0.233   3.949   5.269
 4845SOL     OW15433   4.373   4.951   5.676
 4845SOL    HW115434   4.376   5.042   5.635
 4845SOL    HW215435   4.355   4.883   5.605
 4846SOL     OW15436   0.245   2.129   3.383
 4846SOL    HW115437   0.157   2.158   3.420
 4846SOL    HW215438   0.250   2.155   3.286
 4847SOL     OW15439   2.116   1.725   5.479
 4847SOL    HW115440   2.078   1.633   5.485
 4847SOL    HW215441   2.114   1.768   5.570
 4848SOL     OW15442   2.782   1.246   4.654
 4848SOL    HW115443   2.688   1.278   4.665
 4848SOL    HW215444   2.818   1.219   4.743
 4849SOL     OW15445   2.117   6.265   0.559
 4849SOL    HW115446   2.187   6.246   0.627
 4849SOL    HW215447   2.027   6.238   0.596
 4850SOL     OW15448   4.928   0.667   1.194
 4850SOL    HW115449   4.944   0.573   1.163
 4850SOL    HW215450   4.843   0.672   1.245
 4851SOL     OW15451   4.023   5.306   6.000
 4851SOL    HW115452   4.123   5.304   6.011
 4851SOL    HW215453   3.989   5.213   5.989
 4852SOL     OW15454   2.656   5.220   4.805
 4852SOL    HW115455   2.670   5.314   4.773
 4852SOL    HW215456   2.569   5.214   4.853
 4853SOL     OW15457   3.831   1.656   3.808
 4853SOL    HW115458   3.896   1.582   3.788
 4853SOL    HW215459   3.881   1.742   3.817
 4854SOL     OW15460   4.665   6.841   1.875
 4854SOL    HW115461   4.610   6.898   1.815
 4854SOL    HW215462   4.760   6.874   1.874
 4855SOL     OW15463   6.119   3.596   5.073
 4855SOL    HW115464   6.168   3.683   5.080
 4855SOL    HW215465   6.043   3.604   5.009
 4856SOL     OW15466   0.646   2.946   2.938
 4856SOL    HW115467   0.650   2.847   2.924
 4856SOL    HW215468   0.572   2.984   2.882
 4857SOL     OW15469   3.352   1.521   3.223
 4857SOL    HW115470   3.303   1.603   3.254
 4857SOL    HW215471   3.289   1.457   3.182
 4858SOL     OW15472   0.643   0.167   4.938
 4858SOL    HW115473   0.620   0.075   4.906
 4858SOL    HW215474   0.736   0.191   4.907
 4859SOL     OW15475   0.940   5.313   2.099
 4859SOL    HW115476   1.037   5.312   2.123
 4859SOL    HW215477   0.894   5.386   2.148
 4860SOL     OW15478   4.116   4.519   0.203
 4860SOL    HW115479   4.093   4.479   0.114
 4860SOL    HW215480   4.138   4.446   0.268
 4861SOL     OW15481   6.095   5.390   6.554
 4861SOL    HW115482   6.019   5.445   6.521
 4861SOL    HW215483   6.066   5.296   6.567
 4862SOL     OW15484   2.497   4.573   4.366
 4862SOL    HW115485   2.544   4.627   4.436
 4862SOL    HW215486   2.418   4.527   4.407
 4863SOL     OW15487   4.887   3.324   2.874
 4863SOL    HW115488   4.951   3.269   2.821
 4863SOL    HW215489   4.862   3.406   2.822
 4864SOL     OW15490   3.438   1.638   1.761
 4864SOL    HW115491   3.397   1.617   1.849
 4864SOL    HW215492   3.377   1.697   1.708
 4865SOL     OW15493   2.610   5.195   5.246
 4865SOL    HW115494   2.608   5.266   5.317
 4865SOL    HW215495   2.685   5.214   5.182
 4866SOL     OW15496   6.438   5.080   1.574
 4866SOL    HW115497   6.493   5.052   1.495
 4866SOL    HW215498   6.423   5.001   1.634
 4867SOL     OW15499   4.390   5.415   3.832
 4867SOL    HW115500   4.389   5.453   3.739
 4867SOL    HW215501   4.298   5.419   3.870
 4868SOL     OW15502   0.710   6.067   1.631
 4868SOL    HW115503   0.692   5.982   1.583
 4868SOL    HW215504   0.672   6.062   1.723
 4869SOL     OW15505   6.591   2.654   0.889
 4869SOL    HW115506   6.541   2.629   0.972
 4869SOL    HW215507   6.526   2.676   0.816
 4870SOL     OW15508   4.603   4.896   1.727
 4870SOL    HW115509   4.527   4.878   1.664
 4870SOL    HW215510   4.591   4.840   1.809
 4871SOL     OW15511   1.072   0.498   4.036
 4871SOL    HW115512   1.152   0.559   4.033
 4871SOL    HW215513   1.087   0.420   3.976
 4872SOL     OW15514   1.207   0.041   3.321
 4872SOL    HW115515   1.250   0.118   3.274
 4872SOL    HW215516   1.115   0.027   3.284
 4873SOL     OW15517   6.976   4.689   4.000
 4873SOL    HW115518   0.050   4.712   4.021
 4873SOL    HW215519   6.970   4.592   3.976
 4874SOL     OW15520   5.877   3.715   2.363
 4874SOL    HW115521   5.855   3.812   2.372
 4874SOL    HW215522   5.975   3.704   2.349
 4875SOL     OW15523   5.805   2.767   0.941
 4875SOL    HW115524   5.722   2.721   0.908
 4875SOL    HW215525   5.790   2.800   1.034
 4876SOL     OW15526   5.430   0.504   5.498
 4876SOL    HW115527   5.429   0.551   5.586
 4876SOL    HW215528   5.524   0.499   5.464
 4877SOL     OW15529   6.840   1.385   0.991
 4877SOL    HW115530   6.928   1.343   1.014
 4877SOL    HW215531   6.856   1.471   0.941
 4878SOL     OW15532   0.260   1.195   2.525
 4878SOL    HW115533   0.286   1.112   2.575
 4878SOL    HW215534   0.309   1.273   2.563
 4879SOL     OW15535   4.222   4.942   2.692
 4879SOL    HW115536   4.208   4.850   2.656
 4879SOL    HW215537   4.136   4.993   2.689
 4880SOL     OW15538   5.367   2.196   6.604
 4880SOL    HW115539   5.311   2.113   6.605
 4880SOL    HW215540   5.345   2.251   6.524
 4881SOL     OW15541   2.333   5.963   6.709
 4881SOL    HW115542   2.271   5.899   6.662
 4881SOL    HW215543   2.413   5.913   6.742
 4882SOL     OW15544   6.215   1.494   5.213
 4882SOL    HW115545   6.132   1.438   5.214
 4882SOL    HW215546   6.293   1.440   5.245
 4883SOL     OW15547   5.130   4.995   2.343
 4883SOL    HW115548   5.139   4.899   2.315
 4883SOL    HW215549   5.218   5.028   2.377
 4884SOL     OW15550   4.577   0.095   1.440
 4884SOL    HW115551   4.495   0.105   1.384
 4884SOL    HW215552   4.590   0.177   1.496
 4885SOL     OW15553   2.371   6.340   2.479
 4885SOL    HW115554   2.313   6.297   2.410
 4885SOL    HW215555   2.465   6.306   2.470
 4886SOL     OW15556   0.181   6.803   6.107
 4886SOL    HW115557   0.202   6.712   6.141
 4886SOL    HW215558   0.179   6.801   6.007
 4887SOL     OW15559   6.978   1.830   3.295
 4887SOL    HW115560   0.040   1.783   3.267
 4887SOL    HW215561   6.955   1.805   3.389
 4888SOL     OW15562   1.737   6.538   3.799
 4888SOL    HW115563   1.741   6.593   3.716
 4888SOL    HW215564   1.825   6.494   3.814
 4889SOL     OW15565   0.794   1.793   0.269
 4889SOL    HW115566   0.754   1.836   0.350
 4889SOL    HW215567   0.735   1.719   0.238
 4890SOL     OW15568   0.368   1.581   4.214
 4890SOL    HW115569   0.448   1.521   4.207
 4890SOL    HW215570   0.394   1.674   4.192
 4891SOL     OW15571   0.865   5.774   6.923
 4891SOL    HW115572   0.846   5.871   6.905
 4891SOL    HW215573   0.820   5.746   7.007
 4892SOL     OW15574   1.857   5.833   2.691
 4892SOL    HW115575   1.777   5.894   2.692
 4892SOL    HW215576   1.936   5.882   2.729
 4893SOL     OW15577   6.698   4.411   6.576
 4893SOL    HW115578   6.774   4.347   6.585
 4893SOL    HW215579   6.615   4.360   6.550
 4894SOL     OW15580   2.547   0.031   2.783
 4894SOL    HW115581   2.532   6.954   2.785
 4894SOL    HW215582   2.495   0.071   2.708
 4895SOL     OW15583   0.646   4.390   1.276
 4895SOL    HW115584   0.610   4.301   1.304
 4895SOL    HW215585   0.702   4.379   1.194
 4896SOL     OW15586   2.766   5.242   2.742
 4896SOL    HW115587   2.845   5.304   2.742
 4896SOL    HW215588   2.798   5.148   2.750
 4897SOL     OW15589   3.103   5.271   5.979
 4897SOL    HW115590   3.043   5.193   5.958
 4897SOL    HW215591   3.184   5.268   5.920
 4898SOL     OW15592   5.731   2.435   5.125
 4898SOL    HW115593   5.818   2.442   5.173
 4898SOL    HW215594   5.677   2.360   5.163
 4899SOL     OW15595   6.578   4.949   3.072
 4899SOL    HW115596   6.539   4.977   2.984
 4899SOL    HW215597   6.512   4.892   3.121
 4900SOL     OW15598   1.241   6.186   5.752
 4900SOL    HW115599   1.224   6.090   5.729
 4900SOL    HW215600   1.205   6.245   5.680
 4901SOL     OW15601   2.327   6.683   4.562
 4901SOL    HW115602   2.315   6.741   4.642
 4901SOL    HW215603   2.239   6.671   4.515
 4902SOL     OW15604   1.901   2.953   3.727
 4902SOL    HW115605   1.873   2.994   3.640
 4902SOL    HW215606   1.931   2.859   3.712
 4903SOL     OW15607   3.677   6.289   0.239
 4903SOL    HW115608   3.597   6.344   0.265
 4903SOL    HW215609   3.648   6.213   0.182
 4904SOL     OW15610   2.020   6.815   4.201
 4904SOL    HW115611   1.963   6.857   4.271
 4904SOL    HW215612   2.037   6.882   4.128
 4905SOL     OW15613   4.079   2.224   2.149
 4905SOL    HW115614   4.135   2.284   2.206
 4905SOL    HW215615   4.070   2.264   2.058
 4906SOL     OW15616   3.700   0.041   0.236
 4906SOL    HW115617   3.696   0.012   0.140
 4906SOL    HW215618   3.794   0.067   0.258
 4907SOL     OW15619   4.201   6.359   2.649
 4907SOL    HW115620   4.130   6.296   2.682
 4907SOL    HW215621   4.159   6.429   2.592
 4908SOL     OW15622   4.082   5.645   6.837
 4908SOL    HW115623   4.166   5.605   6.872
 4908SOL    HW215624   4.079   5.634   6.737
 4909SOL     OW15625   6.026   0.965   6.612
 4909SOL    HW115626   5.931   0.936   6.624
 4909SOL    HW215627   6.086   0.897   6.655
 4910SOL     OW15628   5.227   0.157   5.373
 4910SOL    HW115629   5.258   0.174   5.279
 4910SOL    HW215630   5.168   0.232   5.403
 4911SOL     OW15631   6.821   2.044   5.455
 4911SOL    HW115632   6.754   2.059   5.528
 4911SOL    HW215633   6.774   2.039   5.367
 4912SOL     OW15634   5.352   1.652   1.514
 4912SOL    HW115635   5.366   1.603   1.600
 4912SOL    HW215636   5.406   1.608   1.442
 4913SOL     OW15637   3.794   3.666   3.876
 4913SOL    HW115638   3.795   3.726   3.796
 4913SOL    HW215639   3.873   3.686   3.933
 4914SOL     OW15640   3.123   0.810   4.892
 4914SOL    HW115641   3.144   0.898   4.848
 4914SOL    HW215642   3.159   0.735   4.836
 4915SOL     OW15643   4.498   6.975   4.373
 4915SOL    HW115644   4.477   0.051   4.375
 4915SOL    HW215645   4.595   6.961   4.356
 4916SOL     OW15646   2.462   1.557   2.995
 4916SOL    HW115647   2.421   1.589   3.081
 4916SOL    HW215648   2.556   1.592   2.988
 4917SOL     OW15649   1.625   4.002   0.726
 4917SOL    HW115650   1.624   3.991   0.825
 4917SOL    HW215651   1.631   3.912   0.683
 4918SOL     OW15652   3.272   0.160   2.857
 4918SOL    HW115653   3.321   0.132   2.940
 4918SOL    HW215654   3.201   0.227   2.881
 4919SOL     OW15655   1.998   2.182   3.051
 4919SOL    HW115656   2.044   2.111   3.103
 4919SOL    HW215657   1.959   2.143   2.968
 4920SOL     OW15658   4.386   0.438   6.647
 4920SOL    HW115659   4.333   0.365   6.691
 4920SOL    HW215660   4.331   0.482   6.577
 4921SOL     OW15661   2.249   4.274   1.662
 4921SOL    HW115662   2.321   4.224   1.710
 4921SOL    HW215663   2.200   4.333   1.726
 4922SOL     OW15664   1.058   3.659   5.080
 4922SOL    HW115665   1.105   3.742   5.049
 4922SOL    HW215666   1.087   3.581   5.025
 4923SOL     OW15667   4.884   0.519   1.578
 4923SOL    HW115668   4.894   0.509   1.677
 4923SOL    HW215669   4.936   0.447   1.532
 4924SOL     OW15670   2.105   3.193   5.058
 4924SOL    HW115671   2.195   3.158   5.034
 4924SOL    HW215672   2.035   3.125   5.034
 4925SOL     OW15673   5.939   6.109   0.821
 4925SOL    HW115674   5.878   6.030   0.809
 4925SOL    HW215675   6.024   6.093   0.772
 4926SOL     OW15676   4.680   2.638   1.588
 4926SOL    HW115677   4.713   2.544   1.602
 4926SOL    HW215678   4.676   2.685   1.676
 4927SOL     OW15679   3.815   3.392   3.304
 4927SOL    HW115680   3.785   3.433   3.390
 4927SOL    HW215681   3.761   3.309   3.286
 4928SOL     OW15682   0.072   0.253   6.410
 4928SOL    HW115683   0.135   0.180   6.385
 4928SOL    HW215684   0.122   0.327   6.455
 4929SOL     OW15685   0.941   3.994   5.257
 4929SOL    HW115686   0.987   4.061   5.316
 4929SOL    HW215687   0.860   3.958   5.304
 4930SOL     OW15688   0.637   0.875   0.571
 4930SOL    HW115689   0.622   0.833   0.482
 4930SOL    HW215690   0.728   0.850   0.605
 4931SOL     OW15691   0.862   7.010   0.146
 4931SOL    HW115692   0.779   0.042   0.166
 4931SOL    HW215693   0.841   6.941   0.077
 4932SOL     OW15694   1.992   3.333   1.896
 4932SOL    HW115695   2.069   3.350   1.957
 4932SOL    HW215696   1.910   3.313   1.950
 4933SOL     OW15697   1.911   0.736   4.040
 4933SOL    HW115698   1.919   0.706   3.944
 4933SOL    HW215699   2.002   0.736   4.082
 4934SOL     OW15700   1.336   5.024   4.036
 4934SOL    HW115701   1.351   5.065   4.126
 4934SOL    HW215702   1.319   5.096   3.969
 4935SOL     OW15703   2.156   1.039   6.882
 4935SOL    HW115704   2.177   0.979   6.959
 4935SOL    HW215705   2.059   1.030   6.858
 4936SOL     OW15706   2.340   6.137   1.982
 4936SOL    HW115707   2.433   6.108   1.959
 4936SOL    HW215708   2.344   6.212   2.048
 4937SOL     OW15709   0.669   4.026   6.052
 4937SOL    HW115710   0.692   4.096   6.119
 4937SOL    HW215711   0.745   3.961   6.044
 4938SOL     OW15712   3.437   4.861   1.746
 4938SOL    HW115713   3.513   4.827   1.800
 4938SOL    HW215714   3.364   4.892   1.806
 4939SOL     OW15715   1.114   2.448   2.300
 4939SOL    HW115716   1.018   2.421   2.307
 4939SOL    HW215717   1.120   2.537   2.254
 4940SOL     OW15718   0.198   1.704   5.293
 4940SOL    HW115719   0.141   1.773   5.338
 4940SOL    HW215720   0.287   1.699   5.340
 4941SOL     OW15721   4.105   2.798   5.346
 4941SOL    HW115722   4.034   2.846   5.294
 4941SOL    HW215723   4.129   2.713   5.299
 4942SOL     OW15724   5.302   3.204   3.450
 4942SOL    HW115725   5.258   3.134   3.506
 4942SOL    HW215726   5.375   3.247   3.504
 4943SOL     OW15727   5.383   3.799   6.328
 4943SOL    HW115728   5.422   3.800   6.420
 4943SOL    HW215729   5.294   3.752   6.331
 4944SOL     OW15730   2.417   4.657   1.016
 4944SOL    HW115731   2.426   4.753   1.042
 4944SOL    HW215732   2.424   4.599   1.097
 4945SOL     OW15733   1.685   0.827   4.611
 4945SOL    HW115734   1.690   0.822   4.511
 4945SOL    HW215735   1.630   0.905   4.638
 4946SOL     OW15736   1.033   5.214   6.912
 4946SOL    HW115737   1.020   5.299   6.964
 4946SOL    HW215738   0.947   5.163   6.910
 4947SOL     OW15739   2.810   1.008   2.176
 4947SOL    HW115740   2.824   1.098   2.135
 4947SOL    HW215741   2.742   0.958   2.124
 4948SOL     OW15742   1.451   2.491   2.951
 4948SOL    HW115743   1.358   2.529   2.955
 4948SOL    HW215744   1.450   2.398   2.988
 4949SOL     OW15745   6.650   3.573   5.886
 4949SOL    HW115746   6.725   3.616   5.834
 4949SOL    HW215747   6.660   3.474   5.884
 4950SOL     OW15748   1.941   4.079   5.336
 4950SOL    HW115749   2.000   4.129   5.399
 4950SOL    HW215750   1.875   4.142   5.295
 4951SOL     OW15751   6.215   6.382   4.586
 4951SOL    HW115752   6.124   6.382   4.628
 4951SOL    HW215753   6.237   6.290   4.554
 4952SOL     OW15754   0.072   0.415   6.146
 4952SOL    HW115755   0.024   0.498   6.174
 4952SOL    HW215756   0.106   0.368   6.227
 4953SOL     OW15757   2.286   1.016   4.037
 4953SOL    HW115758   2.233   1.085   4.086
 4953SOL    HW215759   2.371   1.056   4.002
 4954SOL     OW15760   2.119   3.892   6.370
 4954SOL    HW115761   2.168   3.903   6.283
 4954SOL    HW215762   2.154   3.959   6.436
 4955SOL     OW15763   3.581   5.774   6.782
 4955SOL    HW115764   3.550   5.759   6.688
 4955SOL    HW215765   3.509   5.821   6.834
 4956SOL     OW15766   2.851   0.349   5.748
 4956SOL    HW115767   2.886   0.388   5.663
 4956SOL    HW215768   2.779   0.283   5.727
 4957SOL     OW15769   5.877   3.437   0.498
 4957SOL    HW115770   5.936   3.411   0.575
 4957SOL    HW215771   5.906   3.389   0.415
 4958SOL     OW15772   1.990   6.267   5.691
 4958SOL    HW115773   1.922   6.229   5.629
 4958SOL    HW215774   2.030   6.193   5.745
 4959SOL     OW15775   6.360   1.607   1.370
 4959SOL    HW115776   6.334   1.511   1.369
 4959SOL    HW215777   6.323   1.652   1.288
 4960SOL     OW15778   4.211   4.681   3.544
 4960SOL    HW115779   4.214   4.693   3.444
 4960SOL    HW215780   4.287   4.623   3.573
 4961SOL     OW15781   3.224   0.696   6.379
 4961SOL    HW115782   3.164   0.710   6.457
 4961SOL    HW215783   3.171   0.663   6.301
 4962SOL     OW15784   5.667   2.810   1.201
 4962SOL    HW115785   5.636   2.901   1.175
 4962SOL    HW215786   5.624   2.784   1.287
 4963SOL     OW15787   1.814   5.068   1.400
 4963SOL    HW115788   1.747   5.132   1.365
 4963SOL    HW215789   1.840   5.003   1.328
 4964SOL     OW15790   2.167   6.756   4.828
 4964SOL    HW115791   2.070   6.747   4.848
 4964SOL    HW215792   2.218   6.685   4.876
 4965SOL     OW15793   0.919   6.664   2.692
 4965SOL    HW115794   0.848   6.617   2.743
 4965SOL    HW215795   0.972   6.722   2.754
 4966SOL     OW15796   2.092   6.599   4.403
 4966SOL    HW115797   2.077   6.668   4.332
 4966SOL    HW215798   2.004   6.569   4.440
 4967SOL     OW15799   2.952   5.350   6.190
 4967SOL    HW115800   2.995   5.364   6.279
 4967SOL    HW215801   3.022   5.343   6.120
 4968SOL     OW15802   6.924   1.239   3.365
 4968SOL    HW115803   6.835   1.273   3.396
 4968SOL    HW215804   6.993   1.309   3.382
 4969SOL     OW15805   0.527   5.985   2.693
 4969SOL    HW115806   0.507   5.891   2.667
 4969SOL    HW215807   0.452   6.021   2.748
 4970SOL     OW15808   2.397   0.944   1.187
 4970SOL    HW115809   2.490   0.951   1.152
 4970SOL    HW215810   2.345   1.025   1.161
 4971SOL     OW15811   6.349   5.943   3.310
 4971SOL    HW115812   6.286   6.004   3.261
 4971SOL    HW215813   6.386   5.991   3.389
 4972SOL     OW15814   1.025   4.207   0.741
 4972SOL    HW115815   1.109   4.252   0.771
 4972SOL    HW215816   0.986   4.257   0.664
 4973SOL     OW15817   0.467   0.455   1.834
 4973SOL    HW115818   0.420   0.484   1.750
 4973SOL    HW215819   0.413   0.483   1.913
 4974SOL     OW15820   6.081   4.900   1.146
 4974SOL    HW115821   6.003   4.927   1.201
 4974SOL    HW215822   6.054   4.829   1.082
 4975SOL     OW15823   5.597   4.004   0.292
 4975SOL    HW115824   5.603   4.085   0.233
 4975SOL    HW215825   5.541   3.934   0.246
 4976SOL     OW15826   1.490   0.485   4.801
 4976SOL    HW115827   1.425   0.456   4.872
 4976SOL    HW215828   1.460   0.448   4.713
 4977SOL     OW15829   3.406   4.646   0.002
 4977SOL    HW115830   3.321   4.644   6.971
 4977SOL    HW215831   3.453   4.733   7.008
 4978SOL     OW15832   5.686   4.847   4.379
 4978SOL    HW115833   5.732   4.932   4.354
 4978SOL    HW215834   5.714   4.820   4.472
 4979SOL     OW15835   6.838   6.704   6.488
 4979SOL    HW115836   6.863   6.609   6.470
 4979SOL    HW215837   6.903   6.765   6.442
 4980SOL     OW15838   5.593   5.252   2.445
 4980SOL    HW115839   5.514   5.224   2.391
 4980SOL    HW215840   5.565   5.271   2.539
 4981SOL     OW15841   3.712   5.865   1.909
 4981SOL    HW115842   3.648   5.861   1.832
 4981SOL    HW215843   3.806   5.866   1.874
 4982SOL     OW15844   3.159   1.950   5.704
 4982SOL    HW115845   3.231   2.005   5.747
 4982SOL    HW215846   3.069   1.986   5.731
 4983SOL     OW15847   5.982   4.597   4.611
 4983SOL    HW115848   6.008   4.564   4.701
 4983SOL    HW215849   5.897   4.649   4.617
 4984SOL     OW15850   4.760   4.110   2.809
 4984SOL    HW115851   4.722   4.179   2.870
 4984SOL    HW215852   4.755   4.143   2.715
 4985SOL     OW15853   5.405   6.077   3.209
 4985SOL    HW115854   5.368   6.135   3.136
 4985SOL    HW215855   5.421   5.985   3.174
 4986SOL     OW15856   6.144   4.918   0.202
 4986SOL    HW115857   6.203   4.981   0.153
 4986SOL    HW215858   6.137   4.832   0.151
 4987SOL     OW15859   1.373   6.483   2.373
 4987SOL    HW115860   1.435   6.547   2.326
 4987SOL    HW215861   1.393   6.390   2.344
 4988SOL     OW15862   6.065   0.752   3.385
 4988SOL    HW115863   6.086   0.680   3.319
 4988SOL    HW215864   6.095   0.723   3.476
 4989SOL     OW15865   4.993   0.160   1.874
 4989SOL    HW115866   4.971   0.082   1.816
 4989SOL    HW215867   5.092   0.174   1.876
 4990SOL     OW15868   3.220   2.360   6.552
 4990SOL    HW115869   3.214   2.323   6.460
 4990SOL    HW215870   3.273   2.297   6.610
 4991SOL     OW15871   6.819   4.922   3.957
 4991SOL    HW115872   6.797   4.934   3.860
 4991SOL    HW215873   6.869   4.837   3.970
 4992SOL     OW15874   5.505   0.763   2.604
 4992SOL    HW115875   5.539   0.845   2.557
 4992SOL    HW215876   5.549   0.756   2.694
 4993SOL     OW15877   4.009   5.954   5.122
 4993SOL    HW115878   3.933   5.962   5.187
 4993SOL    HW215879   3.990   5.880   5.058
 4994SOL     OW15880   2.691   5.693   4.955
 4994SOL    HW115881   2.642   5.619   4.910
 4994SOL    HW215882   2.789   5.673   4.957
 4995SOL     OW15883   1.387   0.900   5.418
 4995SOL    HW115884   1.414   0.983   5.466
 4995SOL    HW215885   1.458   0.877   5.351
 4996SOL     OW15886   6.919   0.887   3.236
 4996SOL    HW115887   6.908   0.795   3.199
 4996SOL    HW215888   6.997   0.931   3.192
 4997SOL     OW15889   4.045   2.390   1.207
 4997SOL    HW115890   4.064   2.379   1.110
 4997SOL    HW215891   4.131   2.388   1.258
 4998SOL     OW15892   2.064   3.587   4.264
 4998SOL    HW115893   1.975   3.545   4.283
 4998SOL    HW215894   2.125   3.572   4.342
 4999SOL     OW15895   6.811   3.102   4.378
 4999SOL    HW115896   6.759   3.168   4.432
 4999SOL    HW215897   6.878   3.150   4.321
 5000SOL     OW15898   3.403   6.755   3.074
 5000SOL    HW115899   3.498   6.780   3.059
 5000SOL    HW215900   3.349   6.782   2.994
 5001SOL     OW15901   1.005   6.018   2.202
 5001SOL    HW115902   0.976   6.071   2.282
 5001SOL    HW215903   1.099   6.043   2.178
 5002SOL     OW15904   0.416   5.129   1.927
 5002SOL    HW115905   0.435   5.032   1.942
 5002SOL    HW215906   0.378   5.168   2.011
 5003SOL     OW15907   4.474   6.382   3.124
 5003SOL    HW115908   4.564   6.395   3.166
 5003SOL    HW215909   4.444   6.288   3.141
 5004SOL     OW15910   2.337   4.402   5.618
 5004SOL    HW115911   2.369   4.474   5.680
 5004SOL    HW215912   2.308   4.443   5.532
 5005SOL     OW15913   2.951   2.634   6.499
 5005SOL    HW115914   2.986   2.670   6.586
 5005SOL    HW215915   2.859   2.671   6.482
 5006SOL     OW15916   5.712   0.706   1.648
 5006SOL    HW115917   5.685   0.802   1.656
 5006SOL    HW215918   5.700   0.660   1.736
 5007SOL     OW15919   7.000   0.160   1.191
 5007SOL    HW115920   0.048   0.113   1.245
 5007SOL    HW215921   6.973   0.244   1.238
 5008SOL     OW15922   5.765   5.846   1.680
 5008SOL    HW115923   5.817   5.833   1.765
 5008SOL    HW215924   5.705   5.767   1.665
 5009SOL     OW15925   0.270   2.247   0.179
 5009SOL    HW115926   0.270   2.231   0.277
 5009SOL    HW215927   0.327   2.178   0.133
 5010SOL     OW15928   4.515   2.702   0.901
 5010SOL    HW115929   4.585   2.662   0.841
 5010SOL    HW215930   4.437   2.731   0.845
 5011SOL     OW15931   1.584   4.474   1.451
 5011SOL    HW115932   1.597   4.573   1.441
 5011SOL    HW215933   1.632   4.443   1.534
 5012SOL     OW15934   6.158   2.409   5.044
 5012SOL    HW115935   6.117   2.491   5.004
 5012SOL    HW215936   6.236   2.435   5.100
 5013SOL     OW15937   5.384   1.442   6.702
 5013SOL    HW115938   5.332   1.471   6.621
 5013SOL    HW215939   5.321   1.417   6.775
 5014SOL     OW15940   6.332   4.142   0.415
 5014SOL    HW115941   6.323   4.092   0.501
 5014SOL    HW215942   6.289   4.232   0.425
 5015SOL     OW15943   4.709   0.850   4.700
 5015SOL    HW115944   4.618   0.885   4.677
 5015SOL    HW215945   4.774   0.874   4.628
 5016SOL     OW15946   1.312   2.901   5.165
 5016SOL    HW115947   1.376   2.965   5.121
 5016SOL    HW215948   1.309   2.816   5.113
 5017SOL     OW15949   1.353   2.475   1.149
 5017SOL    HW115950   1.340   2.476   1.248
 5017SOL    HW215951   1.394   2.561   1.119
 5018SOL     OW15952   1.348   5.225   2.832
 5018SOL    HW115953   1.306   5.165   2.900
 5018SOL    HW215954   1.415   5.174   2.779
 5019SOL     OW15955   2.190   6.396   6.070
 5019SOL    HW115956   2.274   6.446   6.092
 5019SOL    HW215957   2.168   6.409   5.973
 5020SOL     OW15958   6.707   0.255   6.267
 5020SOL    HW115959   6.784   0.265   6.203
 5020SOL    HW215960   6.629   0.307   6.234
 5021SOL     OW15961   1.282   1.237   1.354
 5021SOL    HW115962   1.315   1.283   1.436
 5021SOL    HW215963   1.184   1.254   1.343
 5022SOL     OW15964   1.371   2.630   1.836
 5022SOL    HW115965   1.394   2.728   1.836
 5022SOL    HW215966   1.434   2.581   1.896
 5023SOL     OW15967   0.453   3.876   1.766
 5023SOL    HW115968   0.479   3.913   1.677
 5023SOL    HW215969   0.415   3.949   1.823
 5024SOL     OW15970   5.846   5.376   1.303
 5024SOL    HW115971   5.781   5.436   1.256
 5024SOL    HW215972   5.937   5.417   1.301
 5025SOL     OW15973   4.553   2.344   4.022
 5025SOL    HW115974   4.556   2.247   3.997
 5025SOL    HW215975   4.549   2.353   4.122
 5026SOL     OW15976   6.743   5.438   5.568
 5026SOL    HW115977   6.794   5.446   5.482
 5026SOL    HW215978   6.752   5.523   5.620
 5027SOL     OW15979   6.086   0.192   1.406
 5027SOL    HW115980   6.063   0.111   1.351
 5027SOL    HW215981   6.002   0.231   1.443
 5028SOL     OW15982   6.874   1.460   2.927
 5028SOL    HW115983   6.852   1.558   2.918
 5028SOL    HW215984   6.854   1.431   3.021
 5029SOL     OW15985   5.957   1.871   2.562
 5029SOL    HW115986   5.966   1.845   2.466
 5029SOL    HW215987   5.964   1.971   2.570
 5030SOL     OW15988   7.005   6.376   0.066
 5030SOL    HW115989   0.023   6.345   0.153
 5030SOL    HW215990   6.906   6.383   0.075
 5031SOL     OW15991   0.004   1.246   5.991
 5031SOL    HW115992   6.980   1.333   5.972
 5031SOL    HW215993   6.967   1.190   6.049
 5032SOL     OW15994   2.721   1.572   6.083
 5032SOL    HW115995   2.733   1.567   5.984
 5032SOL    HW215996   2.710   1.667   6.111
 5033SOL     OW15997   2.135   0.143   6.585
 5033SOL    HW115998   2.209   0.208   6.603
 5033SOL    HW215999   2.173   0.051   6.573
 5034SOL     OW16000   6.160   0.228   3.740
 5034SOL    HW116001   6.112   0.263   3.821
 5034SOL    HW216002   6.224   0.156   3.767
 5035SOL     OW16003   7.002   3.771   5.559
 5035SOL    HW116004   0.030   3.734   5.637
 5035SOL    HW216005   7.008   3.708   5.482
 5036SOL     OW16006   7.015   4.913   6.828
 5036SOL    HW116007   6.981   4.832   6.780
 5036SOL    HW216008   0.002   4.894   6.926
 5037SOL     OW16009   5.464   4.431   1.929
 5037SOL    HW116010   5.426   4.407   1.840
 5037SOL    HW216011   5.503   4.523   1.925
 5038SOL     OW16012   3.466   3.328   5.358
 5038SOL    HW116013   3.395   3.350   5.290
 5038SOL    HW216014   3.545   3.287   5.312
 5039SOL     OW16015   2.240   3.180   5.603
 5039SOL    HW116016   2.259   3.149   5.510
 5039SOL    HW216017   2.267   3.276   5.612
 5040SOL     OW16018   0.934   6.470   6.180
 5040SOL    HW116019   0.906   6.379   6.148
 5040SOL    HW216020   1.012   6.502   6.127
 5041SOL     OW16021   1.621   1.739   2.056
 5041SOL    HW116022   1.702   1.715   2.110
 5041SOL    HW216023   1.612   1.676   1.979
 5042SOL     OW16024   6.449   3.381   0.535
 5042SOL    HW116025   6.464   3.338   0.447
 5042SOL    HW216026   6.397   3.319   0.594
 5043SOL     OW16027   3.964   0.321   6.914
 5043SOL    HW116028   3.888   0.385   6.927
 5043SOL    HW216029   4.027   0.357   6.846
 5044SOL     OW16030   0.380   6.361   0.982
 5044SOL    HW116031   0.378   6.460   0.970
 5044SOL    HW216032   0.319   6.318   0.916
 5045SOL     OW16033   5.758   6.257   6.655
 5045SOL    HW116034   5.672   6.206   6.656
 5045SOL    HW216035   5.825   6.207   6.600
 5046SOL     OW16036   3.630   4.110   3.012
 5046SOL    HW116037   3.581   4.080   2.930
 5046SOL    HW216038   3.717   4.060   3.019
 5047SOL     OW16039   1.400   4.064   2.686
 5047SOL    HW116040   1.420   3.996   2.614
 5047SOL    HW216041   1.337   4.024   2.752
 5048SOL     OW16042   0.978   1.115   2.860
 5048SOL    HW116043   0.911   1.042   2.874
 5048SOL    HW216044   1.063   1.076   2.826
 5049SOL     OW16045   4.969   2.004   6.970
 5049SOL    HW116046   5.034   2.079   6.955
 5049SOL    HW216047   4.956   1.991   0.046
 5050SOL     OW16048   1.434   0.518   0.752
 5050SOL    HW116049   1.363   0.567   0.701
 5050SOL    HW216050   1.421   0.420   0.741
 5051SOL     OW16051   4.519   4.054   1.551
 5051SOL    HW116052   4.520   4.130   1.486
 5051SOL    HW216053   4.540   4.087   1.643
 5052SOL     OW16054   2.424   1.307   5.598
 5052SOL    HW116055   2.374   1.380   5.551
 5052SOL    HW216056   2.414   1.222   5.547
 5053SOL     OW16057   1.427   4.164   3.562
 5053SOL    HW116058   1.411   4.082   3.615
 5053SOL    HW216059   1.416   4.144   3.464
 5054SOL     OW16060   2.884   5.137   4.406
 5054SOL    HW116061   2.806   5.196   4.387
 5054SOL    HW216062   2.968   5.191   4.406
 5055SOL     OW16063   0.921   2.305   6.119
 5055SOL    HW116064   0.983   2.258   6.181
 5055SOL    HW216065   0.838   2.250   6.107
 5056SOL     OW16066   5.714   4.135   6.444
 5056SOL    HW116067   5.668   4.216   6.408
 5056SOL    HW216068   5.712   4.138   6.544
 5057SOL     OW16069   0.635   6.998   3.461
 5057SOL    HW116070   0.632   0.076   3.468
 5057SOL    HW216071   0.566   6.958   3.522
 5058SOL     OW16072   3.389   4.130   5.447
 5058SOL    HW116073   3.460   4.086   5.391
 5058SOL    HW216074   3.423   4.142   5.540
 5059SOL     OW16075   6.261   0.734   3.101
 5059SOL    HW116076   6.208   0.816   3.122
 5059SOL    HW216077   6.226   0.656   3.154
 5060SOL     OW16078   0.460   2.100   6.271
 5060SOL    HW116079   0.380   2.082   6.327
 5060SOL    HW216080   0.496   2.192   6.291
 5061SOL     OW16081   4.966   3.264   0.949
 5061SOL    HW116082   4.935   3.311   1.032
 5061SOL    HW216083   4.943   3.166   0.956
 5062SOL     OW16084   6.318   6.785   3.045
 5062SOL    HW116085   6.286   6.879   3.059
 5062SOL    HW216086   6.417   6.781   3.056
 5063SOL     OW16087   0.773   0.107   2.854
 5063SOL    HW116088   0.862   0.106   2.900
 5063SOL    HW216089   0.768   0.185   2.792
 5064SOL     OW16090   5.069   3.743   0.794
 5064SOL    HW116091   5.143   3.774   0.734
 5064SOL    HW216092   4.993   3.709   0.738
 5065SOL     OW16093   2.915   0.468   5.513
 5065SOL    HW116094   2.883   0.496   5.422
 5065SOL    HW216095   3.014   0.480   5.519
 5066SOL     OW16096   5.505   4.646   2.438
 5066SOL    HW116097   5.515   4.614   2.344
 5066SOL    HW216098   5.526   4.571   2.501
 5067SOL     OW16099   4.869   1.148   1.800
 5067SOL    HW116100   4.806   1.201   1.743
 5067SOL    HW216101   4.824   1.128   1.888
 5068SOL     OW16102   2.768   4.424   0.790
 5068SOL    HW116103   2.818   4.506   0.815
 5068SOL    HW216104   2.733   4.380   0.873
 5069SOL     OW16105   1.452   3.826   4.369
 5069SOL    HW116106   1.438   3.894   4.297
 5069SOL    HW216107   1.424   3.864   4.457
 5070SOL     OW16108   5.197   3.932   4.065
 5070SOL    HW116109   5.235   3.878   3.990
 5070SOL    HW216110   5.181   3.873   4.144
 5071SOL     OW16111   4.683   1.962   4.930
 5071SOL    HW116112   4.738   1.967   4.847
 5071SOL    HW216113   4.599   1.911   4.913
 5072SOL     OW16114   0.821   6.422   0.251
 5072SOL    HW116115   0.724   6.433   0.229
 5072SOL    HW216116   0.865   6.365   0.181
 5073SOL     OW16117   0.185   6.661   2.771
 5073SOL    HW116118   0.197   6.755   2.803
 5073SOL    HW216119   0.251   6.642   2.698
 5074SOL     OW16120   3.244   3.495   0.005
 5074SOL    HW116121   3.279   3.532   6.941
 5074SOL    HW216122   3.257   3.395   0.006
 5075SOL     OW16123   1.052   1.680   6.489
 5075SOL    HW116124   1.018   1.664   6.582
 5075SOL    HW216125   0.977   1.714   6.432
 5076SOL     OW16126   3.535   0.550   1.145
 5076SOL    HW116127   3.587   0.609   1.081
 5076SOL    HW216128   3.589   0.468   1.164
 5077SOL     OW16129   0.447   2.806   5.108
 5077SOL    HW116130   0.420   2.873   5.039
 5077SOL    HW216131   0.366   2.777   5.159
 5078SOL     OW16132   0.994   1.878   3.344
 5078SOL    HW116133   0.966   1.970   3.373
 5078SOL    HW216134   0.929   1.844   3.276
 5079SOL     OW16135   2.500   4.729   5.701
 5079SOL    HW116136   2.545   4.677   5.628
 5079SOL    HW216137   2.413   4.766   5.667
 5080SOL     OW16138   6.274   6.224   5.875
 5080SOL    HW116139   6.297   6.158   5.946
 5080SOL    HW216140   6.359   6.259   5.833
 5081SOL     OW16141   3.769   2.981   4.631
 5081SOL    HW116142   3.867   2.988   4.645
 5081SOL    HW216143   3.746   3.006   4.537
 5082SOL     OW16144   6.079   5.484   5.709
 5082SOL    HW116145   5.984   5.477   5.742
 5082SOL    HW216146   6.124   5.395   5.718
 5083SOL     OW16147   2.332   6.697   2.961
 5083SOL    HW116148   2.380   6.679   3.047
 5083SOL    HW216149   2.360   6.631   2.892
 5084SOL     OW16150   0.966   4.996   4.338
 5084SOL    HW116151   0.944   5.090   4.314
 5084SOL    HW216152   1.019   4.954   4.264
 5085SOL     OW16153   5.290   2.948   6.719
 5085SOL    HW116154   5.337   2.866   6.688
 5085SOL    HW216155   5.191   2.933   6.715
 5086SOL     OW16156   6.608   5.788   3.556
 5086SOL    HW116157   6.644   5.861   3.498
 5086SOL    HW216158   6.514   5.810   3.583
 5087SOL     OW16159   6.673   5.783   3.834
 5087SOL    HW116160   6.603   5.773   3.904
 5087SOL    HW216161   6.630   5.782   3.743
 5088SOL     OW16162   5.424   1.542   4.924
 5088SOL    HW116163   5.399   1.489   4.843
 5088SOL    HW216164   5.522   1.531   4.942
 5089SOL     OW16165   5.822   2.642   3.128
 5089SOL    HW116166   5.760   2.669   3.202
 5089SOL    HW216167   5.913   2.679   3.146
 5090SOL     OW16168   1.768   3.678   3.111
 5090SOL    HW116169   1.833   3.751   3.129
 5090SOL    HW216170   1.688   3.689   3.171
 5091SOL     OW16171   1.758   6.548   2.499
 5091SOL    HW116172   1.722   6.493   2.423
 5091SOL    HW216173   1.703   6.531   2.581
 5092SOL     OW16174   2.912   3.137   1.277
 5092SOL    HW116175   2.830   3.137   1.335
 5092SOL    HW216176   2.979   3.201   1.314
 5093SOL     OW16177   3.227   1.281   1.433
 5093SOL    HW116178   3.287   1.201   1.431
 5093SOL    HW216179   3.179   1.289   1.346
 5094SOL     OW16180   0.995   6.414   4.542
 5094SOL    HW116181   0.904   6.375   4.561
 5094SOL    HW216182   1.061   6.378   4.609
 5095SOL     OW16183   0.443   1.841   4.352
 5095SOL    HW116184   0.481   1.907   4.417
 5095SOL    HW216185   0.399   1.891   4.277
 5096SOL     OW16186   4.246   3.745   0.451
 5096SOL    HW116187   4.283   3.681   0.383
 5096SOL    HW216188   4.165   3.705   0.494
 5097SOL     OW16189   1.857   0.290   0.003
 5097SOL    HW116190   1.954   0.291   7.000
 5097SOL    HW216191   1.820   0.198   7.010
 5098SOL     OW16192   0.818   0.829   1.260
 5098SOL    HW116193   0.847   0.852   1.353
 5098SOL    HW216194   0.860   0.743   1.233
 5099SOL     OW16195   0.533   6.996   6.301
 5099SOL    HW116196   0.490   0.048   6.249
 5099SOL    HW216197   0.599   6.948   6.243
 5100SOL     OW16198   4.487   6.767   5.239
 5100SOL    HW116199   4.417   6.734   5.176
 5100SOL    HW216200   4.508   6.862   5.218
 5101SOL     OW16201   4.790   6.926   0.255
 5101SOL    HW116202   4.751   6.899   0.343
 5101SOL    HW216203   4.719   6.964   0.197
 5102SOL     OW16204   5.716   0.500   5.985
 5102SOL    HW116205   5.726   0.447   6.069
 5102SOL    HW216206   5.646   0.458   5.927
 5103SOL     OW16207   0.666   0.880   4.045
 5103SOL    HW116208   0.682   0.968   4.000
 5103SOL    HW216209   0.601   0.892   4.120
 5104SOL     OW16210   2.272   6.178   2.292
 5104SOL    HW116211   2.287   6.080   2.287
 5104SOL    HW216212   2.188   6.202   2.243
 5105SOL     OW16213   4.161   3.595   0.050
 5105SOL    HW116214   4.180   3.692   0.031
 5105SOL    HW216215   4.067   3.586   0.084
 5106SOL     OW16216   3.709   0.339   1.487
 5106SOL    HW116217   3.624   0.288   1.472
 5106SOL    HW216218   3.690   0.419   1.544
 5107SOL     OW16219   3.861   1.233   0.600
 5107SOL    HW116220   3.761   1.236   0.597
 5107SOL    HW216221   3.891   1.224   0.695
 5108SOL     OW16222   2.957   3.491   3.572
 5108SOL    HW116223   2.936   3.446   3.485
 5108SOL    HW216224   2.901   3.573   3.581
 5109SOL     OW16225   0.933   1.187   1.041
 5109SOL    HW116226   0.883   1.256   0.989
 5109SOL    HW216227   0.995   1.138   0.980
 5110SOL     OW16228   0.608   0.157   6.508
 5110SOL    HW116229   0.596   0.119   6.416
 5110SOL    HW216230   0.664   0.240   6.502
 5111SOL     OW16231   1.080   0.963   5.773
 5111SOL    HW116232   1.006   0.910   5.815
 5111SOL    HW216233   1.052   1.058   5.763
 5112SOL     OW16234   0.484   0.470   2.701
 5112SOL    HW116235   0.443   0.390   2.657
 5112SOL    HW216236   0.505   0.540   2.632
 5113SOL     OW16237   1.831   6.603   1.188
 5113SOL    HW116238   1.874   6.677   1.239
 5113SOL    HW216239   1.808   6.634   1.096
 5114SOL     OW16240   3.628   2.942   0.641
 5114SOL    HW116241   3.654   2.925   0.736
 5114SOL    HW216242   3.528   2.951   0.636
 5115SOL     OW16243   2.249   4.560   5.410
 5115SOL    HW116244   2.189   4.613   5.349
 5115SOL    HW216245   2.333   4.536   5.362
 5116SOL     OW16246   5.869   6.455   6.152
 5116SOL    HW116247   5.803   6.463   6.078
 5116SOL    HW216248   5.938   6.387   6.128
 5117SOL     OW16249   1.987   5.008   4.091
 5117SOL    HW116250   2.024   5.073   4.024
 5117SOL    HW216251   1.894   5.037   4.116
 5118SOL     OW16252   4.811   6.223   0.932
 5118SOL    HW116253   4.750   6.230   0.853
 5118SOL    HW216254   4.829   6.127   0.952
 5119SOL     OW16255   5.427   0.283   1.599
 5119SOL    HW116256   5.384   0.295   1.510
 5119SOL    HW216257   5.369   0.326   1.669
 5120SOL     OW16258   5.491   1.588   3.457
 5120SOL    HW116259   5.541   1.542   3.529
 5120SOL    HW216260   5.546   1.589   3.373
 5121SOL     OW16261   2.289   2.355   7.020
 5121SOL    HW116262   2.229   2.316   0.069
 5121SOL    HW216263   2.242   2.431   6.975
 5122SOL     OW16264   3.064   0.611   4.305
 5122SOL    HW116265   3.085   0.648   4.215
 5122SOL    HW216266   2.964   0.602   4.315
 5123SOL     OW16267   6.160   3.268   4.799
 5123SOL    HW116268   6.073   3.302   4.766
 5123SOL    HW216269   6.221   3.251   4.721
 5124SOL     OW16270   2.558   5.243   5.923
 5124SOL    HW116271   2.560   5.185   6.005
 5124SOL    HW216272   2.617   5.322   5.938
 5125SOL     OW16273   6.406   3.177   4.627
 5125SOL    HW116274   6.414   3.099   4.566
 5125SOL    HW216275   6.462   3.162   4.708
 5126SOL     OW16276   6.094   4.591   5.949
 5126SOL    HW116277   6.164   4.526   5.978
 5126SOL    HW216278   6.026   4.545   5.892
 5127SOL     OW16279   6.051   3.732   0.159
 5127SOL    HW116280   6.008   3.815   0.193
 5127SOL    HW216281   6.095   3.750   0.072
 5128SOL     OW16282   0.971   0.394   0.633
 5128SOL    HW116283   0.888   0.442   0.661
 5128SOL    HW216284   1.027   0.454   0.576
 5129SOL     OW16285   4.955   0.802   2.450
 5129SOL    HW116286   4.953   0.715   2.400
 5129SOL    HW216287   5.035   0.854   2.422
 5130SOL     OW16288   1.579   6.033   4.380
 5130SOL    HW116289   1.546   6.126   4.400
 5130SOL    HW216290   1.593   5.984   4.467
 5131SOL     OW16291   2.818   4.872   3.458
 5131SOL    HW116292   2.750   4.816   3.411
 5131SOL    HW216293   2.904   4.871   3.406
 5132SOL     OW16294   3.068   1.099   6.102
 5132SOL    HW116295   3.158   1.113   6.143
 5132SOL    HW216296   3.028   1.187   6.079
 5133SOL     OW16297   2.816   5.883   6.356
 5133SOL    HW116298   2.870   5.839   6.284
 5133SOL    HW216299   2.835   5.839   6.443
 5134SOL     OW16300   6.925   6.877   2.690
 5134SOL    HW116301   6.874   6.962   2.675
 5134SOL    HW216302   7.009   6.897   2.740
 5135SOL     OW16303   6.421   4.088   3.051
 5135SOL    HW116304   6.344   4.098   3.115
 5135SOL    HW216305   6.397   4.127   2.962
 5136SOL     OW16306   6.481   1.341   5.805
 5136SOL    HW116307   6.565   1.368   5.756
 5136SOL    HW216308   6.405   1.397   5.772
 5137SOL     OW16309   4.996   3.218   5.613
 5137SOL    HW116310   4.980   3.315   5.631
 5137SOL    HW216311   4.913   3.176   5.577
 5138SOL     OW16312   3.857   3.965   3.836
 5138SOL    HW116313   3.815   3.989   3.923
 5138SOL    HW216314   3.952   3.937   3.850
 5139SOL     OW16315   1.226   0.020   4.680
 5139SOL    HW116316   1.211   7.021   4.777
 5139SOL    HW216317   1.220   6.957   4.627
 5140SOL     OW16318   3.681   1.900   5.782
 5140SOL    HW116319   3.761   1.862   5.829
 5140SOL    HW216320   3.711   1.975   5.723
 5141SOL     OW16321   6.590   2.937   1.539
 5141SOL    HW116322   6.607   3.027   1.581
 5141SOL    HW216323   6.511   2.894   1.583
 5142SOL     OW16324   5.674   0.022   5.586
 5142SOL    HW116325   5.591   7.009   5.543
 5142SOL    HW216326   5.728   0.073   5.518
 5143SOL     OW16327   1.142   4.207   5.336
 5143SOL    HW116328   1.173   4.119   5.371
 5143SOL    HW216329   1.177   4.220   5.244
 5144SOL     OW16330   1.895   3.691   6.152
 5144SOL    HW116331   1.809   3.682   6.103
 5144SOL    HW216332   1.916   3.788   6.165
 5145SOL     OW16333   3.866   6.277   6.491
 5145SOL    HW116334   3.838   6.310   6.581
 5145SOL    HW216335   3.826   6.186   6.475
 5146SOL     OW16336   3.572   4.144   5.048
 5146SOL    HW116337   3.604   4.194   5.129
 5146SOL    HW216338   3.630   4.168   4.970
 5147SOL     OW16339   5.878   5.072   3.567
 5147SOL    HW116340   5.799   5.123   3.534
 5147SOL    HW216341   5.924   5.029   3.489
 5148SOL     OW16342   0.880   0.618   2.357
 5148SOL    HW116343   0.892   0.540   2.296
 5148SOL    HW216344   0.831   0.691   2.309
 5149SOL     OW16345   5.834   5.071   4.383
 5149SOL    HW116346   5.927   5.039   4.400
 5149SOL    HW216347   5.838   5.153   4.326
 5150SOL     OW16348   2.525   4.467   3.879
 5150SOL    HW116349   2.500   4.404   3.806
 5150SOL    HW216350   2.590   4.535   3.845
 5151SOL     OW16351   5.901   3.963   1.787
 5151SOL    HW116352   5.977   3.898   1.796
 5151SOL    HW216353   5.833   3.946   1.859
 5152SOL     OW16354   1.316   6.177   6.562
 5152SOL    HW116355   1.402   6.201   6.516
 5152SOL    HW216356   1.297   6.080   6.547
 5153SOL     OW16357   1.291   1.477   1.217
 5153SOL    HW116358   1.284   1.380   1.241
 5153SOL    HW216359   1.212   1.526   1.252
 5154SOL     OW16360   1.561   3.119   6.730
 5154SOL    HW116361   1.477   3.162   6.762
 5154SOL    HW216362   1.561   3.119   6.630
 5155SOL     OW16363   3.574   1.374   0.820
 5155SOL    HW116364   3.576   1.278   0.793
 5155SOL    HW216365   3.633   1.388   0.900
 5156SOL     OW16366   5.495   4.573   4.623
 5156SOL    HW116367   5.398   4.551   4.621
 5156SOL    HW216368   5.529   4.568   4.717
 5157SOL     OW16369   3.245   2.026   2.140
 5157SOL    HW116370   3.217   2.021   2.044
 5157SOL    HW216371   3.197   2.102   2.184
 5158SOL     OW16372   3.119   2.206   1.104
 5158SOL    HW116373   3.132   2.112   1.137
 5158SOL    HW216374   3.199   2.261   1.128
 5159SOL     OW16375   5.990   3.980   6.596
 5159SOL    HW116376   6.028   4.010   6.508
 5159SOL    HW216377   5.962   3.884   6.589
 5160SOL     OW16378   6.359   5.817   3.638
 5160SOL    HW116379   6.283   5.831   3.702
 5160SOL    HW216380   6.390   5.906   3.604
 5161SOL     OW16381   1.140   3.234   0.295
 5161SOL    HW116382   1.068   3.299   0.268
 5161SOL    HW216383   1.112   3.141   0.271
 5162SOL     OW16384   0.800   5.902   2.517
 5162SOL    HW116385   0.737   5.916   2.593
 5162SOL    HW216386   0.891   5.937   2.541
 5163SOL     OW16387   3.578   6.976   0.750
 5163SOL    HW116388   3.610   0.000   0.667
 5163SOL    HW216389   3.541   0.023   0.813
 5164SOL     OW16390   2.698   3.132   6.962
 5164SOL    HW116391   2.680   3.050   6.906
 5164SOL    HW216392   2.796   3.148   6.965
 5165SOL     OW16393   1.057   4.121   6.512
 5165SOL    HW116394   0.985   4.102   6.445
 5165SOL    HW216395   1.134   4.165   6.468
 5166SOL     OW16396   1.730   4.660   2.509
 5166SOL    HW116397   1.677   4.620   2.583
 5166SOL    HW216398   1.743   4.593   2.437
 5167SOL     OW16399   6.483   4.208   4.955
 5167SOL    HW116400   6.415   4.260   5.007
 5167SOL    HW216401   6.569   4.207   5.005
 5168SOL     OW16402   4.784   2.139   2.520
 5168SOL    HW116403   4.702   2.147   2.578
 5168SOL    HW216404   4.764   2.175   2.429
 5169SOL     OW16405   4.929   2.176   3.830
 5169SOL    HW116406   4.962   2.174   3.735
 5169SOL    HW216407   4.934   2.270   3.864
 5170SOL     OW16408   1.190   3.630   5.542
 5170SOL    HW116409   1.194   3.531   5.530
 5170SOL    HW216410   1.216   3.675   5.457
 5171SOL     OW16411   0.360   4.936   5.236
 5171SOL    HW116412   0.428   4.884   5.288
 5171SOL    HW216413   0.309   4.995   5.299
 5172SOL     OW16414   1.498   4.923   3.299
 5172SOL    HW116415   1.534   4.939   3.391
 5172SOL    HW216416   1.572   4.929   3.232
 5173SOL     OW16417   4.205   3.968   6.577
 5173SOL    HW116418   4.195   4.027   6.497
 5173SOL    HW216419   4.245   3.881   6.549
 5174SOL     OW16420   2.221   6.370   3.814
 5174SOL    HW116421   2.300   6.318   3.848
 5174SOL    HW216422   2.201   6.446   3.876
 5175SOL     OW16423   2.227   3.897   6.731
 5175SOL    HW116424   2.254   3.864   6.821
 5175SOL    HW216425   2.300   3.954   6.692
 5176SOL     OW16426   5.058   5.108   6.460
 5176SOL    HW116427   5.005   5.131   6.378
 5176SOL    HW216428   5.006   5.043   6.516
 5177SOL     OW16429   4.927   6.529   1.242
 5177SOL    HW116430   4.857   6.595   1.268
 5177SOL    HW216431   4.936   6.460   1.314
 5178SOL     OW16432   0.856   4.629   1.717
 5178SOL    HW116433   0.837   4.554   1.653
 5178SOL    HW216434   0.877   4.590   1.807
 5179SOL     OW16435   4.955   4.301   3.299
 5179SOL    HW116436   4.970   4.360   3.378
 5179SOL    HW216437   5.020   4.326   3.226
 5180SOL     OW16438   3.682   0.349   1.198
 5180SOL    HW116439   3.705   0.370   1.293
 5180SOL    HW216440   3.670   0.251   1.187
 5181SOL     OW16441   0.372   0.484   0.174
 5181SOL    HW116442   0.340   0.396   0.139
 5181SOL    HW216443   0.294   0.541   0.197
 5182SOL     OW16444   4.323   4.485   1.815
 5182SOL    HW116445   4.389   4.537   1.870
 5182SOL    HW216446   4.343   4.387   1.823
 5183SOL     OW16447   3.867   1.545   2.786
 5183SOL    HW116448   3.875   1.514   2.880
 5183SOL    HW216449   3.774   1.532   2.753
 5184SOL     OW16450   2.199   2.028   3.253
 5184SOL    HW116451   2.240   2.103   3.305
 5184SOL    HW216452   2.216   1.941   3.300
 5185SOL     OW16453   4.797   0.500   2.735
 5185SOL    HW116454   4.809   0.415   2.786
 5185SOL    HW216455   4.787   0.479   2.637
 5186SOL     OW16456   6.002   2.899   5.394
 5186SOL    HW116457   6.040   2.823   5.340
 5186SOL    HW216458   5.955   2.963   5.333
 5187SOL     OW16459   1.759   5.365   4.758
 5187SOL    HW116460   1.762   5.403   4.851
 5187SOL    HW216461   1.843   5.388   4.710
 5188SOL     OW16462   6.515   6.034   1.776
 5188SOL    HW116463   6.515   6.133   1.756
 5188SOL    HW216464   6.423   6.006   1.803
 5189SOL     OW16465   5.218   5.986   6.747
 5189SOL    HW116466   5.273   5.931   6.684
 5189SOL    HW216467   5.217   6.081   6.715
 5190SOL     OW16468   1.808   3.465   2.605
 5190SOL    HW116469   1.866   3.547   2.604
 5190SOL    HW216470   1.800   3.431   2.699
 5191SOL     OW16471   2.989   5.599   3.216
 5191SOL    HW116472   3.002   5.640   3.306
 5191SOL    HW216473   2.968   5.670   3.150
 5192SOL     OW16474   1.929   5.987   1.588
 5192SOL    HW116475   1.904   5.890   1.597
 5192SOL    HW216476   2.011   6.005   1.643
 5193SOL     OW16477   4.401   6.393   6.041
 5193SOL    HW116478   4.360   6.417   6.129
 5193SOL    HW216479   4.476   6.457   6.021
 5194SOL     OW16480   2.715   1.998   6.754
 5194SOL    HW116481   2.656   1.921   6.777
 5194SOL    HW216482   2.709   2.017   6.656
 5195SOL     OW16483   0.275   0.223   4.014
 5195SOL    HW116484   0.270   0.295   4.083
 5195SOL    HW216485   0.250   0.261   3.925
 5196SOL     OW16486   4.189   6.529   2.076
 5196SOL    HW116487   4.256   6.456   2.092
 5196SOL    HW216488   4.238   6.614   2.054
 5197SOL     OW16489   1.398   3.848   6.658
 5197SOL    HW116490   1.434   3.779   6.594
 5197SOL    HW216491   1.392   3.808   6.750
 5198SOL     OW16492   4.259   5.400   3.222
 5198SOL    HW116493   4.293   5.402   3.316
 5198SOL    HW216494   4.337   5.395   3.159
 5199SOL     OW16495   0.224   5.548   0.616
 5199SOL    HW116496   0.125   5.538   0.631
 5199SOL    HW216497   0.269   5.571   0.703
 5200SOL     OW16498   6.797   3.014   5.395
 5200SOL    HW116499   6.830   2.966   5.313
 5200SOL    HW216500   6.793   3.112   5.377
 5201SOL     OW16501   0.774   6.858   2.981
 5201SOL    HW116502   0.693   6.803   2.963
 5201SOL    HW216503   0.746   6.952   3.004
 5202SOL     OW16504   6.255   2.800   6.314
 5202SOL    HW116505   6.166   2.823   6.354
 5202SOL    HW216506   6.304   2.738   6.375
 5203SOL     OW16507   2.084   2.560   6.641
 5203SOL    HW116508   2.179   2.564   6.673
 5203SOL    HW216509   2.083   2.525   6.547
 5204SOL     OW16510   3.811   5.238   0.418
 5204SOL    HW116511   3.843   5.318   0.467
 5204SOL    HW216512   3.849   5.237   0.326
 5205SOL     OW16513   1.678   6.897   0.731
 5205SOL    HW116514   1.604   6.964   0.735
 5205SOL    HW216515   1.743   6.914   0.805
 5206SOL     OW16516   0.525   3.580   6.334
 5206SOL    HW116517   0.531   3.550   6.238
 5206SOL    HW216518   0.478   3.668   6.338
 5207SOL     OW16519   1.268   5.259   3.892
 5207SOL    HW116520   1.303   5.352   3.907
 5207SOL    HW216521   1.243   5.248   3.795
 5208SOL     OW16522   3.428   1.303   0.332
 5208SOL    HW116523   3.448   1.304   0.234
 5208SOL    HW216524   3.501   1.348   0.382
 5209SOL     OW16525   5.655   5.932   3.899
 5209SOL    HW116526   5.705   5.856   3.857
 5209SOL    HW216527   5.715   5.979   3.963
 5210SOL     OW16528   5.806   2.849   5.637
 5210SOL    HW116529   5.904   2.864   5.639
 5210SOL    HW216530   5.760   2.920   5.691
 5211SOL     OW16531   4.078   3.226   4.652
 5211SOL    HW116532   4.046   3.289   4.723
 5211SOL    HW216533   4.178   3.222   4.654
 5212SOL     OW16534   6.791   2.229   1.122
 5212SOL    HW116535   6.854   2.178   1.181
 5212SOL    HW216536   6.759   2.310   1.170
 5213SOL     OW16537   5.030   2.884   6.694
 5213SOL    HW116538   5.008   2.969   6.742
 5213SOL    HW216539   5.011   2.894   6.597
 5214SOL     OW16540   5.657   1.322   6.657
 5214SOL    HW116541   5.572   1.374   6.673
 5214SOL    HW216542   5.729   1.386   6.631
 5215SOL     OW16543   5.051   5.259   3.327
 5215SOL    HW116544   5.128   5.293   3.382
 5215SOL    HW216545   5.041   5.161   3.340
 5216SOL     OW16546   4.535   6.150   1.569
 5216SOL    HW116547   4.560   6.204   1.650
 5216SOL    HW216548   4.534   6.210   1.489
 5217SOL     OW16549   3.212   5.186   4.177
 5217SOL    HW116550   3.275   5.115   4.206
 5217SOL    HW216551   3.186   5.242   4.255
 5218SOL     OW16552   1.654   0.468   3.223
 5218SOL    HW116553   1.651   0.507   3.131
 5218SOL    HW216554   1.706   0.529   3.283
 5219SOL     OW16555   3.783   0.739   6.832
 5219SOL    HW116556   3.809   0.715   6.738
 5219SOL    HW216557   3.789   0.658   6.890
 5220SOL     OW16558   1.551   5.335   2.993
 5220SOL    HW116559   1.484   5.335   2.919
 5220SOL    HW216560   1.616   5.410   2.980
 5221SOL     OW16561   5.726   2.469   4.403
 5221SOL    HW116562   5.658   2.541   4.389
 5221SOL    HW216563   5.696   2.408   4.476
 5222SOL     OW16564   2.230   0.624   3.891
 5222SOL    HW116565   2.280   0.686   3.830
 5222SOL    HW216566   2.212   0.670   3.978
 5223SOL     OW16567   5.238   0.424   1.409
 5223SOL    HW116568   5.241   0.451   1.505
 5223SOL    HW216569   5.215   0.504   1.353
 5224SOL     OW16570   0.732   1.517   3.345
 5224SOL    HW116571   0.644   1.558   3.319
 5224SOL    HW216572   0.721   1.418   3.353
 5225SOL     OW16573   6.550   0.633   3.069
 5225SOL    HW116574   6.470   0.689   3.047
 5225SOL    HW216575   6.596   0.605   2.985
 5226SOL     OW16576   0.359   5.914   5.363
 5226SOL    HW116577   0.303   5.836   5.334
 5226SOL    HW216578   0.300   5.994   5.376
 5227SOL     OW16579   1.698   4.513   3.892
 5227SOL    HW116580   1.743   4.424   3.892
 5227SOL    HW216581   1.633   4.517   3.815
 5228SOL     OW16582   6.563   3.393   1.501
 5228SOL    HW116583   6.628   3.427   1.432
 5228SOL    HW216584   6.594   3.304   1.535
 5229SOL     OW16585   1.345   4.280   6.700
 5229SOL    HW116586   1.393   4.212   6.645
 5229SOL    HW216587   1.395   4.367   6.697
 5230SOL     OW16588   0.243   0.083   1.053
 5230SOL    HW116589   0.181   0.055   0.979
 5230SOL    HW216590   0.325   0.027   1.050
 5231SOL     OW16591   2.995   3.907   4.279
 5231SOL    HW116592   3.036   3.954   4.357
 5231SOL    HW216593   2.948   3.824   4.310
 5232SOL     OW16594   2.840   2.198   6.183
 5232SOL    HW116595   2.853   2.247   6.097
 5232SOL    HW216596   2.848   2.263   6.260
 5233SOL     OW16597   6.297   0.243   1.566
 5233SOL    HW116598   6.367   0.182   1.528
 5233SOL    HW216599   6.208   0.220   1.526
 5234SOL     OW16600   2.894   0.470   6.511
 5234SOL    HW116601   2.808   0.419   6.510
 5234SOL    HW216602   2.899   0.530   6.431
 5235SOL     OW16603   1.462   2.807   1.356
 5235SOL    HW116604   1.493   2.901   1.343
 5235SOL    HW216605   1.541   2.746   1.358
 5236SOL     OW16606   5.848   3.246   2.288
 5236SOL    HW116607   5.784   3.168   2.287
 5236SOL    HW216608   5.922   3.228   2.224
 5237SOL     OW16609   2.859   1.094   5.393
 5237SOL    HW116610   2.937   1.127   5.341
 5237SOL    HW216611   2.782   1.076   5.331
 5238SOL     OW16612   1.826   5.238   0.496
 5238SOL    HW116613   1.852   5.262   0.589
 5238SOL    HW216614   1.886   5.166   0.462
 5239SOL     OW16615   4.106   3.802   3.809
 5239SOL    HW116616   4.103   3.849   3.721
 5239SOL    HW216617   4.114   3.703   3.794
 5240SOL     OW16618   2.787   1.771   5.619
 5240SOL    HW116619   2.867   1.718   5.643
 5240SOL    HW216620   2.781   1.852   5.677
 5241SOL     OW16621   1.062   5.973   6.413
 5241SOL    HW116622   0.982   5.957   6.356
 5241SOL    HW216623   1.145   5.944   6.365
 5242SOL     OW16624   6.668   6.286   5.559
 5242SOL    HW116625   6.669   6.327   5.469
 5242SOL    HW216626   6.615   6.201   5.556
 5243SOL     OW16627   1.483   6.233   1.504
 5243SOL    HW116628   1.493   6.296   1.580
 5243SOL    HW216629   1.573   6.213   1.465
 5244SOL     OW16630   3.950   3.867   6.612
 5244SOL    HW116631   3.996   3.782   6.636
 5244SOL    HW216632   4.019   3.936   6.587
 5245SOL     OW16633   4.374   4.527   6.904
 5245SOL    HW116634   4.315   4.498   6.828
 5245SOL    HW216635   4.430   4.604   6.875
 5246SOL     OW16636   5.771   4.519   2.889
 5246SOL    HW116637   5.812   4.500   2.800
 5246SOL    HW216638   5.713   4.600   2.882
 5247SOL     OW16639   1.293   5.795   0.304
 5247SOL    HW116640   1.366   5.802   0.372
 5247SOL    HW216641   1.260   5.701   0.300
 5248SOL     OW16642   5.992   0.729   5.627
 5248SOL    HW116643   5.983   0.740   5.726
 5248SOL    HW216644   5.961   0.812   5.582
 5249SOL     OW16645   0.549   5.276   5.309
 5249SOL    HW116646   0.608   5.356   5.322
 5249SOL    HW216647   0.606   5.194   5.301
 5250SOL     OW16648   0.358   1.259   5.655
 5250SOL    HW116649   0.338   1.199   5.732
 5250SOL    HW216650   0.441   1.312   5.675
 5251SOL     OW16651   0.445   2.969   1.676
 5251SOL    HW116652   0.465   2.886   1.727
 5251SOL    HW216653   0.357   2.960   1.629
 5252SOL     OW16654   1.803   5.707   0.787
 5252SOL    HW116655   1.841   5.668   0.871
 5252SOL    HW216656   1.709   5.674   0.775
 5253SOL     OW16657   5.349   3.845   5.772
 5253SOL    HW116658   5.255   3.879   5.775
 5253SOL    HW216659   5.369   3.795   5.856
 5254SOL     OW16660   6.003   1.306   3.685
 5254SOL    HW116661   5.997   1.397   3.725
 5254SOL    HW216662   5.978   1.238   3.754
 5255SOL     OW16663   4.416   0.302   5.397
 5255SOL    HW116664   4.479   0.326   5.322
 5255SOL    HW216665   4.347   0.374   5.406
 5256SOL     OW16666   4.552   1.262   2.914
 5256SOL    HW116667   4.515   1.185   2.965
 5256SOL    HW216668   4.534   1.347   2.963
 5257SOL     OW16669   4.281   0.609   1.999
 5257SOL    HW116670   4.346   0.545   2.040
 5257SOL    HW216671   4.193   0.563   1.986
 5258SOL     OW16672   5.202   4.092   1.777
 5258SOL    HW116673   5.198   4.055   1.684
 5258SOL    HW216674   5.255   4.031   1.835
 5259SOL     OW16675   4.239   6.182   0.978
 5259SOL    HW116676   4.247   6.141   1.069
 5259SOL    HW216677   4.315   6.245   0.963
 5260SOL     OW16678   5.705   3.282   0.984
 5260SOL    HW116679   5.761   3.208   1.021
 5260SOL    HW216680   5.636   3.308   1.051
 5261SOL     OW16681   1.152   2.881   6.151
 5261SOL    HW116682   1.183   2.795   6.192
 5261SOL    HW216683   1.134   2.948   6.222
 5262SOL     OW16684   3.243   6.971   2.381
 5262SOL    HW116685   3.331   6.924   2.382
 5262SOL    HW216686   3.257   0.047   2.364
 5263SOL     OW16687   1.123   0.552   5.768
 5263SOL    HW116688   1.026   0.541   5.745
 5263SOL    HW216689   1.169   0.601   5.694
 5264SOL     OW16690   5.639   0.187   1.738
 5264SOL    HW116691   5.581   0.261   1.704
 5264SOL    HW216692   5.629   0.107   1.679
 5265SOL     OW16693   5.042   4.240   2.602
 5265SOL    HW116694   4.949   4.213   2.578
 5265SOL    HW216695   5.040   4.324   2.656
 5266SOL     OW16696   2.479   0.131   1.590
 5266SOL    HW116697   2.556   0.068   1.590
 5266SOL    HW216698   2.472   0.175   1.680
 5267SOL     OW16699   4.634   4.700   6.032
 5267SOL    HW116700   4.670   4.610   6.007
 5267SOL    HW216701   4.587   4.694   6.120
 5268SOL     OW16702   6.568   5.796   6.344
 5268SOL    HW116703   6.495   5.728   6.335
 5268SOL    HW216704   6.548   5.858   6.420
 5269SOL     OW16705   2.961   6.356   4.064
 5269SOL    HW116706   2.900   6.338   3.987
 5269SOL    HW216707   2.906   6.371   4.146
 5270SOL     OW16708   4.390   2.027   1.673
 5270SOL    HW116709   4.321   1.987   1.612
 5270SOL    HW216710   4.370   2.004   1.768
 5271SOL     OW16711   4.404   5.278   4.738
 5271SOL    HW116712   4.334   5.346   4.762
 5271SOL    HW216713   4.402   5.262   4.640
 5272SOL     OW16714   1.921   5.487   3.313
 5272SOL    HW116715   1.941   5.565   3.253
 5272SOL    HW216716   1.876   5.520   3.396
 5273SOL     OW16717   0.485   3.558   3.016
 5273SOL    HW116718   0.525   3.645   3.047
 5273SOL    HW216719   0.513   3.541   2.921
 5274SOL     OW16720   6.121   4.946   2.474
 5274SOL    HW116721   6.179   4.867   2.457
 5274SOL    HW216722   6.102   4.993   2.387
 5275SOL     OW16723   3.430   1.621   6.307
 5275SOL    HW116724   3.489   1.664   6.238
 5275SOL    HW216725   3.483   1.553   6.358
 5276SOL     OW16726   0.916   5.975   0.807
 5276SOL    HW116727   0.977   6.052   0.828
 5276SOL    HW216728   0.860   5.955   0.887
 5277SOL     OW16729   1.164   2.191   3.170
 5277SOL    HW116730   1.257   2.218   3.144
 5277SOL    HW216731   1.164   2.164   3.267
 5278SOL     OW16732   5.174   6.471   4.861
 5278SOL    HW116733   5.197   6.374   4.857
 5278SOL    HW216734   5.258   6.526   4.852
 5279SOL     OW16735   1.532   6.290   0.141
 5279SOL    HW116736   1.560   6.203   0.181
 5279SOL    HW216737   1.598   6.361   0.165
 5280SOL     OW16738   3.130   5.354   5.431
 5280SOL    HW116739   3.046   5.373   5.379
 5280SOL    HW216740   3.209   5.367   5.371
 5281SOL     OW16741   1.543   1.247   3.559
 5281SOL    HW116742   1.604   1.318   3.524
 5281SOL    HW216743   1.574   1.218   3.650
 5282SOL     OW16744   1.864   0.481   1.932
 5282SOL    HW116745   1.768   0.455   1.926
 5282SOL    HW216746   1.884   0.512   2.025
 5283SOL     OW16747   2.542   0.317   2.845
 5283SOL    HW116748   2.480   0.382   2.801
 5283SOL    HW216749   2.502   0.226   2.842
 5284SOL     OW16750   4.984   3.019   3.299
 5284SOL    HW116751   4.952   2.934   3.258
 5284SOL    HW216752   4.949   3.097   3.246
 5285SOL     OW16753   0.736   3.579   4.331
 5285SOL    HW116754   0.785   3.527   4.399
 5285SOL    HW216755   0.684   3.653   4.375
 5286SOL     OW16756   6.603   3.852   1.293
 5286SOL    HW116757   6.513   3.809   1.287
 5286SOL    HW216758   6.662   3.814   1.222
 5287SOL     OW16759   2.806   5.724   1.512
 5287SOL    HW116760   2.873   5.791   1.480
 5287SOL    HW216761   2.741   5.768   1.573
 5288SOL     OW16762   3.804   0.882   2.641
 5288SOL    HW116763   3.899   0.903   2.664
 5288SOL    HW216764   3.789   0.898   2.543
 5289SOL     OW16765   1.746   6.129   5.549
 5289SOL    HW116766   1.704   6.133   5.640
 5289SOL    HW216767   1.783   6.037   5.533
 5290SOL     OW16768   1.337   4.009   5.926
 5290SOL    HW116769   1.286   3.972   5.849
 5290SOL    HW216770   1.364   4.104   5.907
 5291SOL     OW16771   2.929   4.818   6.485
 5291SOL    HW116772   2.952   4.911   6.511
 5291SOL    HW216773   2.889   4.818   6.393
 5292SOL     OW16774   5.811   4.739   6.331
 5292SOL    HW116775   5.794   4.701   6.240
 5292SOL    HW216776   5.830   4.837   6.323
 5293SOL     OW16777   1.858   6.734   4.865
 5293SOL    HW116778   1.881   6.799   4.794
 5293SOL    HW216779   1.764   6.750   4.895
 5294SOL     OW16780   5.922   2.597   5.588
 5294SOL    HW116781   5.851   2.667   5.599
 5294SOL    HW216782   5.879   2.507   5.580
 5295SOL     OW16783   4.155   1.395   2.774
 5295SOL    HW116784   4.186   1.343   2.853
 5295SOL    HW216785   4.215   1.475   2.761
 5296SOL     OW16786   2.981   5.073   6.552
 5296SOL    HW116787   3.031   5.102   6.633
 5296SOL    HW216788   2.941   5.153   6.507
 5297SOL     OW16789   1.527   3.500   0.706
 5297SOL    HW116790   1.601   3.457   0.653
 5297SOL    HW216791   1.531   3.469   0.801
 5298SOL     OW16792   0.975   6.075   0.042
 5298SOL    HW116793   0.987   6.003   0.111
 5298SOL    HW216794   1.040   6.148   0.060
 5299SOL     OW16795   2.392   3.223   0.707
 5299SOL    HW116796   2.359   3.232   0.801
 5299SOL    HW216797   2.324   3.260   0.644
 5300SOL     OW16798   0.756   5.746   1.113
 5300SOL    HW116799   0.781   5.761   1.209
 5300SOL    HW216800   0.737   5.835   1.070
 5301SOL     OW16801   3.576   1.765   6.121
 5301SOL    HW116802   3.548   1.791   6.028
 5301SOL    HW216803   3.627   1.840   6.163
 5302SOL     OW16804   6.027   5.573   3.630
 5302SOL    HW116805   6.063   5.493   3.582
 5302SOL    HW216806   6.045   5.655   3.576
 5303SOL     OW16807   6.937   4.972   4.533
 5303SOL    HW116808   6.999   4.996   4.458
 5303SOL    HW216809   6.935   4.873   4.544
 5304SOL     OW16810   5.631   0.938   0.791
 5304SOL    HW116811   5.605   1.024   0.836
 5304SOL    HW216812   5.608   0.861   0.850
 5305SOL     OW16813   0.649   4.367   3.399
 5305SOL    HW116814   0.701   4.371   3.484
 5305SOL    HW216815   0.578   4.297   3.406
 5306SOL     OW16816   0.997   4.713   4.659
 5306SOL    HW116817   0.931   4.721   4.734
 5306SOL    HW216818   1.088   4.736   4.693
 5307SOL     OW16819   4.155   1.813   0.313
 5307SOL    HW116820   4.109   1.889   0.267
 5307SOL    HW216821   4.159   1.832   0.411
 5308SOL     OW16822   1.089   4.531   3.366
 5308SOL    HW116823   1.186   4.550   3.377
 5308SOL    HW216824   1.075   4.433   3.355
 5309SOL     OW16825   4.011   4.681   1.779
 5309SOL    HW116826   3.931   4.685   1.719
 5309SOL    HW216827   4.094   4.680   1.723
 5310SOL     OW16828   6.065   3.294   2.060
 5310SOL    HW116829   6.139   3.343   2.107
 5310SOL    HW216830   6.102   3.212   2.016
 5311SOL     OW16831   6.430   6.434   6.755
 5311SOL    HW116832   6.396   6.471   6.841
 5311SOL    HW216833   6.404   6.338   6.748
 5312SOL     OW16834   0.584   5.802   1.568
 5312SOL    HW116835   0.530   5.873   1.522
 5312SOL    HW216836   0.522   5.742   1.620
 5313SOL     OW16837   1.429   3.074   5.745
 5313SOL    HW116838   1.418   3.001   5.813
 5313SOL    HW216839   1.339   3.114   5.725
 5314SOL     OW16840   3.395   6.715   0.242
 5314SOL    HW116841   3.333   6.714   0.164
 5314SOL    HW216842   3.357   6.774   0.314
 5315SOL     OW16843   4.724   3.495   1.661
 5315SOL    HW116844   4.745   3.583   1.618
 5315SOL    HW216845   4.627   3.474   1.646
 5316SOL     OW16846   0.878   3.527   5.223
 5316SOL    HW116847   0.934   3.597   5.181
 5316SOL    HW216848   0.818   3.568   5.291
 5317SOL     OW16849   5.764   0.467   5.091
 5317SOL    HW116850   5.736   0.515   5.008
 5317SOL    HW216851   5.826   0.392   5.067
 5318SOL     OW16852   0.672   3.088   6.828
 5318SOL    HW116853   0.719   3.123   6.909
 5318SOL    HW216854   0.587   3.140   6.814
 5319SOL     OW16855   3.265   6.269   0.214
 5319SOL    HW116856   3.302   6.335   0.280
 5319SOL    HW216857   3.287   6.176   0.244
 5320SOL     OW16858   4.838   5.062   0.297
 5320SOL    HW116859   4.851   4.998   0.222
 5320SOL    HW216860   4.921   5.065   0.353
 5321SOL     OW16861   2.039   5.156   4.356
 5321SOL    HW116862   2.076   5.145   4.264
 5321SOL    HW216863   1.955   5.210   4.352
 5322SOL     OW16864   5.636   6.413   6.323
 5322SOL    HW116865   5.602   6.321   6.307
 5322SOL    HW216866   5.728   6.422   6.284
 5323SOL     OW16867   3.962   2.294   6.938
 5323SOL    HW116868   3.863   2.294   6.950
 5323SOL    HW216869   4.005   2.339   7.017
 5324SOL     OW16870   3.376   2.091   0.607
 5324SOL    HW116871   3.332   2.110   0.694
 5324SOL    HW216872   3.320   2.027   0.554
 5325SOL     OW16873   4.420   0.741   4.238
 5325SOL    HW116874   4.357   0.665   4.218
 5325SOL    HW216875   4.368   0.826   4.244
 5326SOL     OW16876   6.447   4.989   2.747
 5326SOL    HW116877   6.347   4.977   2.744
 5326SOL    HW216878   6.478   5.028   2.661
 5327SOL     OW16879   5.684   2.817   5.393
 5327SOL    HW116880   5.735   2.762   5.327
 5327SOL    HW216881   5.743   2.840   5.471
 5328SOL     OW16882   3.928   2.985   5.278
 5328SOL    HW116883   3.970   3.035   5.201
 5328SOL    HW216884   3.941   3.037   5.362
 5329SOL     OW16885   0.304   4.667   0.267
 5329SOL    HW116886   0.260   4.578   0.253
 5329SOL    HW216887   0.394   4.667   0.222
 5330SOL     OW16888   3.742   4.255   5.759
 5330SOL    HW116889   3.829   4.233   5.714
 5330SOL    HW216890   3.741   4.351   5.784
 5331SOL     OW16891   5.603   1.325   0.619
 5331SOL    HW116892   5.583   1.380   0.538
 5331SOL    HW216893   5.518   1.289   0.658
 5332SOL     OW16894   0.676   3.200   1.013
 5332SOL    HW116895   0.650   3.226   1.105
 5332SOL    HW216896   0.595   3.195   0.955
 5333SOL     OW16897   0.532   0.480   3.449
 5333SOL    HW116898   0.471   0.555   3.423
 5333SOL    HW216899   0.610   0.517   3.500
 5334SOL     OW16900   3.454   0.364   4.382
 5334SOL    HW116901   3.356   0.378   4.395
 5334SOL    HW216902   3.505   0.436   4.429
 5335SOL     OW16903   6.644   6.067   2.022
 5335SOL    HW116904   6.636   6.061   1.923
 5335SOL    HW216905   6.669   5.978   2.059
 5336SOL     OW16906   1.894   2.366   3.249
 5336SOL    HW116907   1.951   2.305   3.194
 5336SOL    HW216908   1.929   2.369   3.342
 5337SOL     OW16909   4.987   4.280   1.565
 5337SOL    HW116910   4.900   4.246   1.529
 5337SOL    HW216911   5.034   4.333   1.495
 5338SOL     OW16912   6.124   2.035   6.591
 5338SOL    HW116913   6.066   2.105   6.549
 5338SOL    HW216914   6.070   1.980   6.655
 5339SOL     OW16915   6.744   2.375   4.279
 5339SOL    HW116916   6.828   2.331   4.249
 5339SOL    HW216917   6.730   2.459   4.227
 5340SOL     OW16918   5.120   3.583   1.001
 5340SOL    HW116919   5.043   3.582   1.064
 5340SOL    HW216920   5.099   3.643   0.924
 5341SOL     OW16921   3.392   3.177   6.452
 5341SOL    HW116922   3.299   3.208   6.468
 5341SOL    HW216923   3.392   3.106   6.381
 5342SOL     OW16924   3.062   0.215   3.932
 5342SOL    HW116925   3.134   0.162   3.887
 5342SOL    HW216926   3.074   0.209   4.031
 5343SOL     OW16927   3.574   3.569   4.297
 5343SOL    HW116928   3.559   3.598   4.202
 5343SOL    HW216929   3.511   3.495   4.319
 5344SOL     OW16930   2.228   2.746   2.521
 5344SOL    HW116931   2.213   2.691   2.603
 5344SOL    HW216932   2.218   2.843   2.544
 5345SOL     OW16933   3.358   6.705   1.321
 5345SOL    HW116934   3.389   6.660   1.404
 5345SOL    HW216935   3.317   6.638   1.260
 5346SOL     OW16936   3.469   6.146   4.482
 5346SOL    HW116937   3.386   6.112   4.526
 5346SOL    HW216938   3.545   6.085   4.502
 5347SOL     OW16939   0.691   2.466   2.146
 5347SOL    HW116940   0.694   2.542   2.082
 5347SOL    HW216941   0.693   2.379   2.096
 5348SOL     OW16942   6.955   2.149   0.930
 5348SOL    HW116943   6.879   2.166   0.992
 5348SOL    HW216944   6.930   2.177   0.837
 5349SOL     OW16945   1.996   2.984   0.380
 5349SOL    HW116946   2.012   3.013   0.286
 5349SOL    HW216947   2.028   3.055   0.443
 5350SOL     OW16948   2.266   0.038   5.480
 5350SOL    HW116949   2.239   0.040   5.577
 5350SOL    HW216950   2.185   0.027   5.423
 5351SOL     OW16951   6.461   5.526   2.369
 5351SOL    HW116952   6.474   5.526   2.468
 5351SOL    HW216953   6.547   5.504   2.324
 5352SOL     OW16954   2.606   4.728   3.320
 5352SOL    HW116955   2.544   4.783   3.264
 5352SOL    HW216956   2.576   4.633   3.321
 5353SOL     OW16957   4.200   4.759   3.256
 5353SOL    HW116958   4.266   4.830   3.283
 5353SOL    HW216959   4.241   4.699   3.188
 5354SOL     OW16960   2.676   5.513   2.247
 5354SOL    HW116961   2.727   5.428   2.231
 5354SOL    HW216962   2.608   5.526   2.174
 5355SOL     OW16963   6.436   3.851   3.700
 5355SOL    HW116964   6.457   3.879   3.794
 5355SOL    HW216965   6.509   3.791   3.667
 5356SOL     OW16966   5.848   4.382   1.980
 5356SOL    HW116967   5.856   4.370   2.079
 5356SOL    HW216968   5.801   4.467   1.960
 5357SOL     OW16969   4.333   6.711   1.040
 5357SOL    HW116970   4.387   6.712   1.124
 5357SOL    HW216971   4.377   6.767   0.970
 5358SOL     OW16972   4.530   1.670   0.163
 5358SOL    HW116973   4.511   1.742   0.096
 5358SOL    HW216974   4.629   1.661   0.175
 5359SOL     OW16975   1.228   1.457   6.038
 5359SOL    HW116976   1.157   1.526   6.024
 5359SOL    HW216977   1.199   1.371   5.996
 5360SOL     OW16978   4.105   6.350   5.324
 5360SOL    HW116979   4.018   6.302   5.331
 5360SOL    HW216980   4.173   6.304   5.381
 5361SOL     OW16981   2.666   1.023   5.188
 5361SOL    HW116982   2.585   1.049   5.241
 5361SOL    HW216983   2.644   1.028   5.091
 5362SOL     OW16984   6.710   5.228   3.091
 5362SOL    HW116985   6.619   5.225   3.133
 5362SOL    HW216986   6.729   5.141   3.047
 5363SOL     OW16987   0.426   0.418   6.864
 5363SOL    HW116988   0.522   0.395   6.844
 5363SOL    HW216989   0.417   0.517   6.876
 5364SOL     OW16990   6.221   6.764   1.987
 5364SOL    HW116991   6.235   6.853   2.031
 5364SOL    HW216992   6.204   6.695   2.056
 5365SOL     OW16993   3.509   3.696   6.845
 5365SOL    HW116994   3.486   3.664   6.937
 5365SOL    HW216995   3.469   3.634   6.777
 5366SOL     OW16996   5.131   6.166   2.222
 5366SOL    HW116997   5.167   6.248   2.267
 5366SOL    HW216998   5.057   6.192   2.160
 5367SOL     OW16999   0.777   6.543   0.669
 5367SOL    HW117000   0.755   6.452   0.635
 5367SOL    HW217001   0.726   6.611   0.616
 5368SOL     OW17002   5.108   0.429   2.944
 5368SOL    HW117003   5.189   0.473   2.906
 5368SOL    HW217004   5.136   0.353   3.003
 5369SOL     OW17005   2.966   6.555   2.224
 5369SOL    HW117006   2.922   6.644   2.222
 5369SOL    HW217007   2.972   6.518   2.131
 5370SOL     OW17008   4.378   3.214   1.725
 5370SOL    HW117009   4.335   3.152   1.660
 5370SOL    HW217010   4.430   3.162   1.793
 5371SOL     OW17011   1.141   3.925   5.072
 5371SOL    HW117012   1.072   3.937   5.144
 5371SOL    HW217013   1.182   4.013   5.051
 5372SOL     OW17014   2.656   6.084   4.020
 5372SOL    HW117015   2.721   6.108   3.948
 5372SOL    HW217016   2.636   6.165   4.075
 5373SOL     OW17017   3.770   7.002   4.310
 5373SOL    HW117018   3.818   6.989   4.397
 5373SOL    HW217019   3.713   6.922   4.292
 5374SOL     OW17020   1.303   3.970   0.101
 5374SOL    HW117021   1.306   3.998   0.197
 5374SOL    HW217022   1.214   3.928   0.082
 5375SOL     OW17023   1.753   4.961   4.451
 5375SOL    HW117024   1.694   4.885   4.477
 5375SOL    HW217025   1.848   4.929   4.446
 5376SOL     OW17026   1.194   2.949   1.029
 5376SOL    HW117027   1.136   2.927   0.951
 5376SOL    HW217028   1.192   2.874   1.095
 5377SOL     OW17029   0.456   0.252   2.519
 5377SOL    HW117030   0.379   0.249   2.455
 5377SOL    HW217031   0.538   0.217   2.473
 5378SOL     OW17032   6.903   0.675   1.687
 5378SOL    HW117033   6.804   0.674   1.671
 5378SOL    HW217034   6.950   0.711   1.606
 5379SOL     OW17035   1.275   4.598   4.941
 5379SOL    HW117036   1.179   4.570   4.942
 5379SOL    HW217037   1.315   4.585   5.032
 5380SOL     OW17038   2.220   1.957   2.995
 5380SOL    HW117039   2.314   1.954   2.963
 5380SOL    HW217040   2.218   1.983   3.092
 5381SOL     OW17041   6.568   4.436   1.767
 5381SOL    HW117042   6.532   4.355   1.814
 5381SOL    HW217043   6.660   4.417   1.733
 5382SOL     OW17044   3.100   0.879   2.001
 5382SOL    HW117045   3.040   0.919   1.931
 5382SOL    HW217046   3.130   0.951   2.064
 5383SOL     OW17047   2.364   2.442   5.523
 5383SOL    HW117048   2.377   2.440   5.423
 5383SOL    HW217049   2.343   2.350   5.555
 5384SOL     OW17050   6.264   6.921   5.132
 5384SOL    HW117051   6.168   6.894   5.118
 5384SOL    HW217052   6.287   6.912   5.229
 5385SOL     OW17053   2.994   3.334   4.207
 5385SOL    HW117054   2.995   3.292   4.117
 5385SOL    HW217055   3.068   3.401   4.214
 5386SOL     OW17056   4.695   0.189   4.188
 5386SOL    HW117057   4.691   0.098   4.147
 5386SOL    HW217058   4.608   0.208   4.233
 5387SOL     OW17059   2.281   6.786   3.381
 5387SOL    HW117060   2.376   6.769   3.404
 5387SOL    HW217061   2.226   6.788   3.464
 5388SOL     OW17062   6.921   0.688   4.216
 5388SOL    HW117063   6.877   0.762   4.266
 5388SOL    HW217064   6.952   0.618   4.280
 5389SOL     OW17065   4.541   1.109   2.588
 5389SOL    HW117066   4.469   1.179   2.590
 5389SOL    HW217067   4.504   1.024   2.552
 5390SOL     OW17068   4.666   4.288   2.999
 5390SOL    HW117069   4.626   4.238   3.076
 5390SOL    HW217070   4.651   4.386   3.012
 5391SOL     OW17071   1.950   2.383   1.006
 5391SOL    HW117072   1.907   2.409   0.919
 5391SOL    HW217073   2.041   2.423   1.010
 5392SOL     OW17074   5.513   3.068   1.474
 5392SOL    HW117075   5.575   2.991   1.488
 5392SOL    HW217076   5.501   3.083   1.376
 5393SOL     OW17077   5.038   6.703   6.231
 5393SOL    HW117078   4.939   6.688   6.237
 5393SOL    HW217079   5.086   6.628   6.277
 5394SOL     OW17080   6.725   4.957   6.527
 5394SOL    HW117081   6.730   4.903   6.611
 5394SOL    HW217082   6.700   4.898   6.451
 5395SOL     OW17083   5.391   0.930   1.725
 5395SOL    HW117084   5.459   0.989   1.680
 5395SOL    HW217085   5.303   0.977   1.726
 5396SOL     OW17086   4.407   4.647   2.039
 5396SOL    HW117087   4.442   4.741   2.039
 5396SOL    HW217088   4.312   4.647   2.070
 5397SOL     OW17089   0.264   2.284   1.320
 5397SOL    HW117090   0.359   2.310   1.335
 5397SOL    HW217091   0.245   2.196   1.365
 5398SOL     OW17092   3.446   2.033   3.465
 5398SOL    HW117093   3.454   1.944   3.511
 5398SOL    HW217094   3.494   2.103   3.518
 5399SOL     OW17095   2.612   5.719   0.473
 5399SOL    HW117096   2.591   5.632   0.430
 5399SOL    HW217097   2.711   5.730   0.482
 5400SOL     OW17098   2.465   4.053   0.786
 5400SOL    HW117099   2.400   3.978   0.773
 5400SOL    HW217100   2.449   4.095   0.875
 5401SOL     OW17101   5.743   3.608   1.083
 5401SOL    HW117102   5.719   3.525   1.032
 5401SOL    HW217103   5.753   3.587   1.180
 5402SOL     OW17104   2.671   5.210   1.667
 5402SOL    HW117105   2.629   5.119   1.674
 5402SOL    HW217106   2.764   5.206   1.703
 5403SOL     OW17107   5.940   2.782   6.210
 5403SOL    HW117108   6.003   2.764   6.134
 5403SOL    HW217109   5.924   2.697   6.261
 5404SOL     OW17110   0.635   0.949   2.077
 5404SOL    HW117111   0.593   1.034   2.043
 5404SOL    HW217112   0.599   0.871   2.025
 5405SOL     OW17113   5.877   6.280   0.433
 5405SOL    HW117114   5.957   6.340   0.440
 5405SOL    HW217115   5.907   6.188   0.408
 5406SOL     OW17116   2.593   0.166   6.658
 5406SOL    HW117117   2.686   0.154   6.693
 5406SOL    HW217118   2.577   0.263   6.637
 5407SOL     OW17119   4.707   2.768   1.351
 5407SOL    HW117120   4.666   2.764   1.442
 5407SOL    HW217121   4.792   2.715   1.351
 5408SOL     OW17122   3.460   1.279   5.891
 5408SOL    HW117123   3.408   1.201   5.856
 5408SOL    HW217124   3.404   1.331   5.956
 5409SOL     OW17125   5.971   1.570   4.352
 5409SOL    HW117126   5.889   1.560   4.407
 5409SOL    HW217127   6.049   1.528   4.399
 5410SOL     OW17128   1.543   3.059   1.242
 5410SOL    HW117129   1.634   3.100   1.248
 5410SOL    HW217130   1.500   3.085   1.155
 5411SOL     OW17131   6.731   4.437   5.903
 5411SOL    HW117132   6.644   4.473   5.937
 5411SOL    HW217133   6.741   4.341   5.931
 5412SOL     OW17134   4.216   0.762   6.671
 5412SOL    HW117135   4.201   0.805   6.760
 5412SOL    HW217136   4.260   0.828   6.610
 5413SOL     OW17137   1.488   0.029   0.851
 5413SOL    HW117138   1.406   7.001   0.880
 5413SOL    HW217139   1.531   0.071   0.930
 5414SOL     OW17140   6.182   2.860   4.648
 5414SOL    HW117141   6.138   2.902   4.728
 5414SOL    HW217142   6.112   2.836   4.581
 5415SOL     OW17143   1.137   6.242   1.308
 5415SOL    HW117144   1.111   6.338   1.306
 5415SOL    HW217145   1.212   6.226   1.245
 5416SOL     OW17146   3.588   4.778   6.265
 5416SOL    HW117147   3.663   4.760   6.328
 5416SOL    HW217148   3.620   4.833   6.188
 5417SOL     OW17149   3.760   6.488   5.281
 5417SOL    HW117150   3.721   6.573   5.247
 5417SOL    HW217151   3.734   6.412   5.220
 5418SOL     OW17152   4.101   6.724   4.538
 5418SOL    HW117153   4.067   6.634   4.512
 5418SOL    HW217154   4.201   6.724   4.533
 5419SOL     OW17155   3.348   5.532   0.355
 5419SOL    HW117156   3.423   5.497   0.411
 5419SOL    HW217157   3.302   5.606   0.404
 5420SOL     OW17158   1.586   2.549   2.001
 5420SOL    HW117159   1.615   2.454   2.007
 5420SOL    HW217160   1.650   2.607   2.052
 5421SOL     OW17161   2.145   4.018   2.557
 5421SOL    HW117162   2.080   4.015   2.633
 5421SOL    HW217163   2.157   3.925   2.520
 5422SOL     OW17164   0.687   6.207   5.810
 5422SOL    HW117165   0.606   6.206   5.751
 5422SOL    HW217166   0.664   6.167   5.899
 5423SOL     OW17167   5.403   3.053   6.944
 5423SOL    HW117168   5.386   3.022   6.850
 5423SOL    HW217169   5.382   3.150   6.952
 5424SOL     OW17170   5.191   2.830   4.278
 5424SOL    HW117171   5.220   2.920   4.245
 5424SOL    HW217172   5.170   2.836   4.376
 5425SOL     OW17173   4.533   2.014   4.259
 5425SOL    HW117174   4.469   1.964   4.318
 5425SOL    HW217175   4.590   1.950   4.208
 5426SOL     OW17176   6.661   5.422   3.939
 5426SOL    HW117177   6.641   5.491   4.009
 5426SOL    HW217178   6.753   5.385   3.954
 5427SOL     OW17179   5.201   5.223   0.785
 5427SOL    HW117180   5.146   5.153   0.740
 5427SOL    HW217181   5.290   5.229   0.740
 5428SOL     OW17182   0.040   0.475   1.806
 5428SOL    HW117183   0.031   0.484   1.905
 5428SOL    HW217184   6.993   0.531   1.761
 5429SOL     OW17185   1.074   1.679   5.951
 5429SOL    HW117186   1.121   1.767   5.951
 5429SOL    HW217187   0.979   1.691   5.979
 5430SOL     OW17188   0.822   3.217   5.328
 5430SOL    HW117189   0.854   3.312   5.319
 5430SOL    HW217190   0.896   3.155   5.306
 5431SOL     OW17191   3.507   5.744   6.545
 5431SOL    HW117192   3.442   5.817   6.525
 5431SOL    HW217193   3.597   5.768   6.507
 5432SOL     OW17194   4.083   6.539   6.436
 5432SOL    HW117195   4.087   6.639   6.433
 5432SOL    HW217196   4.014   6.509   6.501
 5433SOL     OW17197   0.325   1.241   3.544
 5433SOL    HW117198   0.393   1.311   3.565
 5433SOL    HW217199   0.233   1.277   3.564
 5434SOL     OW17200   3.865   1.326   4.454
 5434SOL    HW117201   3.805   1.405   4.446
 5434SOL    HW217202   3.925   1.337   4.533
 5435SOL     OW17203   5.785   1.638   1.519
 5435SOL    HW117204   5.884   1.638   1.537
 5435SOL    HW217205   5.749   1.546   1.533
 5436SOL     OW17206   5.191   4.296   4.387
 5436SOL    HW117207   5.226   4.340   4.470
 5436SOL    HW217208   5.169   4.200   4.407
 5437SOL     OW17209   2.659   4.970   5.793
 5437SOL    HW117210   2.595   5.030   5.841
 5437SOL    HW217211   2.620   4.878   5.787
 5438SOL     OW17212   5.597   3.688   2.648
 5438SOL    HW117213   5.662   3.613   2.661
 5438SOL    HW217214   5.579   3.732   2.736
 5439SOL     OW17215   0.713   2.394   0.871
 5439SOL    HW117216   0.692   2.484   0.910
 5439SOL    HW217217   0.778   2.404   0.796
 5440SOL     OW17218   0.887   0.284   1.936
 5440SOL    HW117219   0.829   0.286   1.855
 5440SOL    HW217220   0.851   0.346   2.005
 5441SOL     OW17221   5.184   2.668   3.111
 5441SOL    HW117222   5.200   2.760   3.074
 5441SOL    HW217223   5.270   2.631   3.145
 5442SOL     OW17224   3.607   6.148   3.669
 5442SOL    HW117225   3.564   6.116   3.584
 5442SOL    HW217226   3.536   6.184   3.730
 5443SOL     OW17227   2.460   0.688   3.455
 5443SOL    HW117228   2.467   0.603   3.403
 5443SOL    HW217229   2.455   0.766   3.392
 5444SOL     OW17230   1.489   0.869   3.808
 5444SOL    HW117231   1.408   0.833   3.761
 5444SOL    HW217232   1.464   0.950   3.861
 5445SOL     OW17233   5.827   4.185   4.230
 5445SOL    HW117234   5.805   4.115   4.297
 5445SOL    HW217235   5.891   4.251   4.270
 5446SOL     OW17236   6.244   5.191   5.167
 5446SOL    HW117237   6.212   5.187   5.262
 5446SOL    HW217238   6.227   5.104   5.122
 5447SOL     OW17239   1.458   2.005   0.024
 5447SOL    HW117240   1.535   1.977   0.082
 5447SOL    HW217241   1.427   2.096   0.052
 5448SOL     OW17242   5.546   3.267   4.641
 5448SOL    HW117243   5.604   3.204   4.589
 5448SOL    HW217244   5.497   3.216   4.711
 5449SOL     OW17245   1.698   2.254   6.694
 5449SOL    HW117246   1.742   2.172   6.732
 5449SOL    HW217247   1.695   2.247   6.594
 5450SOL     OW17248   2.152   0.316   2.228
 5450SOL    HW117249   2.067   0.267   2.248
 5450SOL    HW217250   2.223   0.289   2.293
 5451SOL     OW17251   1.185   5.678   3.757
 5451SOL    HW117252   1.141   5.647   3.842
 5451SOL    HW217253   1.260   5.617   3.734
 5452SOL     OW17254   1.801   4.736   0.218
 5452SOL    HW117255   1.824   4.723   0.314
 5452SOL    HW217256   1.765   4.651   0.180
 5453SOL     OW17257   5.191   4.044   1.488
 5453SOL    HW117258   5.172   4.006   1.397
 5453SOL    HW217259   5.117   4.107   1.513
 5454SOL     OW17260   6.605   4.023   5.788
 5454SOL    HW117261   6.507   4.009   5.774
 5454SOL    HW217262   6.656   3.951   5.743
 5455SOL     OW17263   6.003   2.981   1.785
 5455SOL    HW117264   6.044   3.017   1.701
 5455SOL    HW217265   5.938   3.048   1.821
 5456SOL     OW17266   2.694   0.558   6.927
 5456SOL    HW117267   2.750   0.639   6.908
 5456SOL    HW217268   2.750   0.489   6.973
 5457SOL     OW17269   6.743   2.628   0.562
 5457SOL    HW117270   6.648   2.641   0.590
 5457SOL    HW217271   6.802   2.632   0.643
 5458SOL     OW17272   0.415   4.072   0.660
 5458SOL    HW117273   0.473   4.142   0.702
 5458SOL    HW217274   0.321   4.084   0.691
 5459SOL     OW17275   1.855   4.274   6.787
 5459SOL    HW117276   1.771   4.309   6.745
 5459SOL    HW217277   1.871   4.181   6.755
 5460SOL     OW17278   4.050   0.359   3.165
 5460SOL    HW117279   4.128   0.309   3.127
 5460SOL    HW217280   4.067   0.457   3.159
 5461SOL     OW17281   6.090   0.273   5.567
 5461SOL    HW117282   6.126   0.211   5.497
 5461SOL    HW217283   5.997   0.245   5.592
 5462SOL     OW17284   0.255   0.092   0.712
 5462SOL    HW117285   0.191   0.159   0.676
 5462SOL    HW217286   0.335   0.087   0.652
 5463SOL     OW17287   6.837   1.749   0.583
 5463SOL    HW117288   6.905   1.713   0.647
 5463SOL    HW217289   6.795   1.830   0.623
 5464SOL     OW17290   0.826   1.052   4.567
 5464SOL    HW117291   0.790   1.084   4.655
 5464SOL    HW217292   0.884   0.971   4.581
 5465SOL     OW17293   4.214   6.880   3.852
 5465SOL    HW117294   4.132   6.937   3.858
 5465SOL    HW217295   4.271   6.895   3.932
 5466SOL     OW17296   5.210   2.830   4.876
 5466SOL    HW117297   5.283   2.832   4.944
 5466SOL    HW217298   5.192   2.735   4.849
 5467SOL     OW17299   5.233   3.541   3.460
 5467SOL    HW117300   5.234   3.481   3.379
 5467SOL    HW217301   5.139   3.549   3.493
 5468SOL     OW17302   5.817   2.774   3.847
 5468SOL    HW117303   5.827   2.842   3.775
 5468SOL    HW217304   5.828   2.682   3.808
 5469SOL     OW17305   2.921   6.117   6.274
 5469SOL    HW117306   2.860   6.040   6.289
 5469SOL    HW217307   2.875   6.202   6.299
 5470SOL     OW17308   3.288   5.537   3.249
 5470SOL    HW117309   3.335   5.451   3.271
 5470SOL    HW217310   3.195   5.534   3.285
 5471SOL     OW17311   5.189   0.205   3.085
 5471SOL    HW117312   5.238   0.208   3.173
 5471SOL    HW217313   5.255   0.202   3.010
 5472SOL     OW17314   4.105   3.814   6.078
 5472SOL    HW117315   4.110   3.914   6.082
 5472SOL    HW217316   4.012   3.785   6.100
 5473SOL     OW17317   0.261   2.998   2.256
 5473SOL    HW117318   0.333   2.988   2.324
 5473SOL    HW217319   0.298   2.984   2.164
 5474SOL     OW17320   0.883   4.855   4.012
 5474SOL    HW117321   0.887   4.928   3.944
 5474SOL    HW217322   0.967   4.855   4.066
 5475SOL     OW17323   2.096   3.033   1.606
 5475SOL    HW117324   2.157   3.106   1.638
 5475SOL    HW217325   2.016   3.074   1.562
 5476SOL     OW17326   2.266   4.837   5.561
 5476SOL    HW117327   2.277   4.776   5.483
 5476SOL    HW217328   2.169   4.854   5.577
 5477SOL     OW17329   2.618   4.683   2.878
 5477SOL    HW117330   2.687   4.689   2.951
 5477SOL    HW217331   2.605   4.774   2.837
 5478SOL     OW17332   3.540   5.206   5.122
 5478SOL    HW117333   3.568   5.254   5.038
 5478SOL    HW217334   3.536   5.108   5.104
 5479SOL     OW17335   5.366   1.566   6.275
 5479SOL    HW117336   5.346   1.492   6.211
 5479SOL    HW217337   5.465   1.582   6.277
 5480SOL     OW17338   6.247   4.482   2.648
 5480SOL    HW117339   6.188   4.431   2.711
 5480SOL    HW217340   6.277   4.566   2.692
 5481SOL     OW17341   4.471   1.765   4.390
 5481SOL    HW117342   4.381   1.725   4.375
 5481SOL    HW217343   4.529   1.747   4.310
 5482SOL     OW17344   3.418   4.491   1.595
 5482SOL    HW117345   3.497   4.506   1.654
 5482SOL    HW217346   3.347   4.442   1.645
 5483SOL     OW17347   0.721   1.695   5.679
 5483SOL    HW117348   0.697   1.667   5.585
 5483SOL    HW217349   0.815   1.729   5.680
 5484SOL     OW17350   4.055   1.676   4.277
 5484SOL    HW117351   4.083   1.766   4.242
 5484SOL    HW217352   4.130   1.637   4.331
 5485SOL     OW17353   3.634   6.971   5.407
 5485SOL    HW117354   3.590   6.881   5.405
 5485SOL    HW217355   3.565   0.019   5.426
 5486SOL     OW17356   2.585   5.747   5.378
 5486SOL    HW117357   2.627   5.809   5.311
 5486SOL    HW217358   2.486   5.755   5.373
 5487SOL     OW17359   4.176   2.890   6.909
 5487SOL    HW117360   4.245   2.959   6.929
 5487SOL    HW217361   4.100   2.899   6.973
 5488SOL     OW17362   6.551   0.146   0.910
 5488SOL    HW117363   6.491   0.076   0.949
 5488SOL    HW217364   6.646   0.126   0.934
 5489SOL     OW17365   0.695   4.848   1.757
 5489SOL    HW117366   0.738   4.769   1.714
 5489SOL    HW217367   0.759   4.892   1.820
 5490SOL     OW17368   3.239   0.455   2.720
 5490SOL    HW117369   3.267   0.521   2.790
 5490SOL    HW217370   3.177   0.388   2.760
 5491SOL     OW17371   0.805   3.171   0.054
 5491SOL    HW117372   0.828   3.225   0.135
 5491SOL    HW217373   0.760   3.086   0.083
 5492SOL     OW17374   0.639   4.141   6.631
 5492SOL    HW117375   0.615   4.046   6.612
 5492SOL    HW217376   0.610   4.199   6.555
 5493SOL     OW17377   2.918   3.291   3.925
 5493SOL    HW117378   2.946   3.260   3.834
 5493SOL    HW217379   2.830   3.250   3.948
 5494SOL     OW17380   0.175   3.367   5.698
 5494SOL    HW117381   0.207   3.318   5.617
 5494SOL    HW217382   0.251   3.415   5.741
 5495SOL     OW17383   6.077   1.142   0.788
 5495SOL    HW117384   6.000   1.179   0.735
 5495SOL    HW217385   6.080   1.043   0.776
 5496SOL     OW17386   3.890   0.309   3.389
 5496SOL    HW117387   3.961   0.311   3.318
 5496SOL    HW217388   3.923   0.255   3.467
 5497SOL     OW17389   1.142   0.826   4.887
 5497SOL    HW117390   1.097   0.905   4.930
 5497SOL    HW217391   1.128   0.830   4.788
 5498SOL     OW17392   6.964   5.521   2.071
 5498SOL    HW117393   6.965   5.614   2.107
 5498SOL    HW217394   7.007   5.520   1.981
 5499SOL     OW17395   1.346   0.735   4.694
 5499SOL    HW117396   1.383   0.649   4.727
 5499SOL    HW217397   1.285   0.774   4.764
 5500SOL     OW17398   1.125   0.654   0.159
 5500SOL    HW117399   1.118   0.735   0.100
 5500SOL    HW217400   1.144   0.573   0.104
 5501SOL     OW17401   3.691   2.331   7.005
 5501SOL    HW117402   3.697   2.290   0.075
 5501SOL    HW217403   3.688   2.430   7.013
 5502SOL     OW17404   5.406   3.991   6.758
 5502SOL    HW117405   5.320   4.024   6.719
 5502SOL    HW217406   5.398   3.988   6.858
 5503SOL     OW17407   6.748   4.870   0.902
 5503SOL    HW117408   6.812   4.835   0.970
 5503SOL    HW217409   6.796   4.887   0.816
 5504SOL     OW17410   4.547   1.036   5.089
 5504SOL    HW117411   4.548   0.954   5.032
 5504SOL    HW217412   4.567   1.011   5.184
 5505SOL     OW17413   2.243   4.582   3.921
 5505SOL    HW117414   2.334   4.540   3.921
 5505SOL    HW217415   2.225   4.621   4.011
 5506SOL     OW17416   0.120   3.615   1.232
 5506SOL    HW117417   0.204   3.579   1.274
 5506SOL    HW217418   0.129   3.612   1.132
 5507SOL     OW17419   4.133   1.004   4.673
 5507SOL    HW117420   4.105   0.970   4.763
 5507SOL    HW217421   4.100   0.942   4.602
 5508SOL     OW17422   1.231   1.658   0.361
 5508SOL    HW117423   1.174   1.734   0.332
 5508SOL    HW217424   1.187   1.609   0.436
 5509SOL     OW17425   0.772   6.023   6.846
 5509SOL    HW117426   0.805   6.104   6.893
 5509SOL    HW217427   0.759   6.043   6.749
 5510SOL     OW17428   4.036   5.424   6.321
 5510SOL    HW117429   4.070   5.336   6.354
 5510SOL    HW217430   4.087   5.498   6.364
 5511SOL     OW17431   1.467   1.004   4.452
 5511SOL    HW117432   1.543   1.066   4.471
 5511SOL    HW217433   1.502   0.920   4.411
 5512SOL     OW17434   4.620   2.249   0.822
 5512SOL    HW117435   4.586   2.264   0.914
 5512SOL    HW217436   4.551   2.201   0.768
 5513SOL     OW17437   3.820   5.220   5.760
 5513SOL    HW117438   3.895   5.276   5.724
 5513SOL    HW217439   3.786   5.262   5.844
 5514SOL     OW17440   3.454   0.720   4.657
 5514SOL    HW117441   3.449   0.784   4.734
 5514SOL    HW217442   3.362   0.706   4.620
 5515SOL     OW17443   0.741   5.781   1.863
 5515SOL    HW117444   0.702   5.873   1.874
 5515SOL    HW217445   0.829   5.788   1.816
 5516SOL     OW17446   1.519   2.599   4.640
 5516SOL    HW117447   1.562   2.650   4.565
 5516SOL    HW217448   1.586   2.586   4.714
 5517SOL     OW17449   2.115   3.561   2.292
 5517SOL    HW117450   2.108   3.467   2.326
 5517SOL    HW217451   2.167   3.563   2.207
 5518SOL     OW17452   5.740   5.362   6.743
 5518SOL    HW117453   5.677   5.299   6.698
 5518SOL    HW217454   5.690   5.414   6.813
 5519SOL     OW17455   5.510   2.914   2.906
 5519SOL    HW117456   5.531   2.912   3.004
 5519SOL    HW217457   5.581   2.966   2.859
 5520SOL     OW17458   5.468   6.974   2.446
 5520SOL    HW117459   5.516   6.978   2.359
 5520SOL    HW217460   5.376   7.012   2.435
 5521SOL     OW17461   4.917   6.319   2.141
 5521SOL    HW117462   4.817   6.317   2.146
 5521SOL    HW217463   4.950   6.412   2.157
 5522SOL     OW17464   6.623   5.418   1.142
 5522SOL    HW117465   6.651   5.335   1.191
 5522SOL    HW217466   6.588   5.485   1.207
 5523SOL     OW17467   4.403   0.781   1.809
 5523SOL    HW117468   4.322   0.802   1.754
 5523SOL    HW217469   4.386   0.699   1.864
 5524SOL     OW17470   3.500   7.018   4.681
 5524SOL    HW117471   3.454   6.958   4.615
 5524SOL    HW217472   3.589   0.025   4.644
 5525SOL     OW17473   1.338   2.494   0.262
 5525SOL    HW117474   1.245   2.487   0.225
 5525SOL    HW217475   1.336   2.482   0.361
 5526SOL     OW17476   4.998   4.515   2.742
 5526SOL    HW117477   5.062   4.589   2.767
 5526SOL    HW217478   4.949   4.541   2.659
 5527SOL     OW17479   4.953   3.674   3.813
 5527SOL    HW117480   5.016   3.624   3.873
 5527SOL    HW217481   4.903   3.742   3.866
 5528SOL     OW17482   1.694   0.859   1.066
 5528SOL    HW117483   1.654   0.779   1.021
 5528SOL    HW217484   1.680   0.852   1.165
 5529SOL     OW17485   3.215   6.925   4.515
 5529SOL    HW117486   3.309   6.891   4.517
 5529SOL    HW217487   3.161   6.879   4.585
 5530SOL     OW17488   6.554   1.937   1.333
 5530SOL    HW117489   6.612   1.861   1.360
 5530SOL    HW217490   6.561   1.952   1.235
 5531SOL     OW17491   3.458   3.321   1.359
 5531SOL    HW117492   3.418   3.354   1.444
 5531SOL    HW217493   3.493   3.228   1.373
 5532SOL     OW17494   1.116   3.202   1.069
 5532SOL    HW117495   1.153   3.118   1.030
 5532SOL    HW217496   1.094   3.266   0.996
 5533SOL     OW17497   4.488   1.522   3.570
 5533SOL    HW117498   4.402   1.560   3.534
 5533SOL    HW217499   4.524   1.455   3.505
 5534SOL     OW17500   1.140   1.538   0.123
 5534SOL    HW117501   1.182   1.549   0.213
 5534SOL    HW217502   1.062   1.600   0.114
 5535SOL     OW17503   1.313   1.406   2.864
 5535SOL    HW117504   1.364   1.491   2.879
 5535SOL    HW217505   1.365   1.329   2.900
 5536SOL     OW17506   3.771   0.509   3.910
 5536SOL    HW117507   3.740   0.423   3.951
 5536SOL    HW217508   3.693   0.555   3.867
 5537SOL     OW17509   3.353   1.510   1.984
 5537SOL    HW117510   3.303   1.528   2.068
 5537SOL    HW217511   3.419   1.437   2.000
 5538SOL     OW17512   4.146   5.634   5.367
 5538SOL    HW117513   4.054   5.672   5.378
 5538SOL    HW217514   4.170   5.634   5.270
 5539SOL     OW17515   1.163   3.973   1.842
 5539SOL    HW117516   1.171   3.919   1.758
 5539SOL    HW217517   1.070   3.966   1.877
 5540SOL     OW17518   4.643   4.768   3.863
 5540SOL    HW117519   4.706   4.691   3.859
 5540SOL    HW217520   4.673   4.839   3.799
 5541SOL     OW17521   5.013   0.016   6.521
 5541SOL    HW117522   5.088   0.049   6.578
 5541SOL    HW217523   4.931   0.069   6.539
 5542SOL     OW17524   4.017   3.558   6.281
 5542SOL    HW117525   4.001   3.468   6.323
 5542SOL    HW217526   3.929   3.603   6.265
 5543SOL     OW17527   4.717   3.922   6.768
 5543SOL    HW117528   4.669   3.859   6.707
 5543SOL    HW217529   4.809   3.939   6.731
 5544SOL     OW17530   4.774   5.810   6.379
 5544SOL    HW117531   4.685   5.781   6.343
 5544SOL    HW217532   4.797   5.756   6.460
 5545SOL     OW17533   5.051   1.042   2.891
 5545SOL    HW117534   4.963   1.025   2.934
 5545SOL    HW217535   5.055   0.992   2.804
 5546SOL     OW17536   0.752   4.982   4.903
 5546SOL    HW117537   0.666   5.032   4.909
 5546SOL    HW217538   0.745   4.913   4.831
 5547SOL     OW17539   2.710   6.442   5.495
 5547SOL    HW117540   2.650   6.417   5.419
 5547SOL    HW217541   2.799   6.398   5.482
 5548SOL     OW17542   6.188   3.668   5.750
 5548SOL    HW117543   6.161   3.707   5.662
 5548SOL    HW217544   6.279   3.628   5.743
 5549SOL     OW17545   4.103   4.968   0.145
 5549SOL    HW117546   4.064   4.878   0.162
 5549SOL    HW217547   4.043   5.019   0.082
 5550SOL     OW17548   2.893   5.674   1.813
 5550SOL    HW117549   2.871   5.691   1.909
 5550SOL    HW217550   2.987   5.703   1.795
 5551SOL     OW17551   1.728   0.829   2.895
 5551SOL    HW117552   1.680   0.903   2.943
 5551SOL    HW217553   1.820   0.820   2.935
 5552SOL     OW17554   0.047   1.453   0.108
 5552SOL    HW117555   6.973   1.460   0.134
 5552SOL    HW217556   0.103   1.510   0.169
 5553SOL     OW17557   3.489   6.475   0.304
 5553SOL    HW117558   3.498   6.472   0.404
 5553SOL    HW217559   3.464   6.568   0.276
 5554SOL     OW17560   2.530   1.693   5.769
 5554SOL    HW117561   2.494   1.755   5.839
 5554SOL    HW217562   2.503   1.725   5.679
 5555SOL     OW17563   0.736   5.898   3.627
 5555SOL    HW117564   0.705   5.804   3.611
 5555SOL    HW217565   0.664   5.948   3.676
 5556SOL     OW17566   0.399   2.254   4.606
 5556SOL    HW117567   0.353   2.235   4.693
 5556SOL    HW217568   0.330   2.278   4.537
 5557SOL     OW17569   2.987   5.704   4.382
 5557SOL    HW117570   2.906   5.757   4.405
 5557SOL    HW217571   3.024   5.735   4.294
 5558SOL     OW17572   4.822   3.390   5.260
 5558SOL    HW117573   4.795   3.476   5.217
 5558SOL    HW217574   4.881   3.410   5.339
 5559SOL     OW17575   2.309   6.737   1.917
 5559SOL    HW117576   2.328   6.639   1.927
 5559SOL    HW217577   2.383   6.789   1.959
 5560SOL     OW17578   6.894   6.763   3.379
 5560SOL    HW117579   6.815   6.706   3.354
 5560SOL    HW217580   6.898   6.842   3.319
 5561SOL     OW17581   1.400   2.502   4.307
 5561SOL    HW117582   1.395   2.406   4.281
 5561SOL    HW217583   1.334   2.555   4.254
 5562SOL     OW17584   1.879   2.206   6.254
 5562SOL    HW117585   1.842   2.227   6.163
 5562SOL    HW217586   1.804   2.175   6.313
 5563SOL     OW17587   4.603   6.416   2.155
 5563SOL    HW117588   4.634   6.475   2.230
 5563SOL    HW217589   4.588   6.323   2.189
 5564SOL     OW17590   4.827   2.942   1.639
 5564SOL    HW117591   4.838   2.926   1.737
 5564SOL    HW217592   4.736   2.981   1.622
 5565SOL     OW17593   4.326   2.657   5.957
 5565SOL    HW117594   4.385   2.579   5.937
 5565SOL    HW217595   4.244   2.625   6.005
 5566SOL     OW17596   1.533   5.774   1.194
 5566SOL    HW117597   1.579   5.751   1.280
 5566SOL    HW217598   1.571   5.719   1.120
 5567SOL     OW17599   1.139   5.100   0.989
 5567SOL    HW117600   1.040   5.084   0.998
 5567SOL    HW217601   1.182   5.019   0.949
 5568SOL     OW17602   4.503   2.796   1.158
 5568SOL    HW117603   4.575   2.754   1.213
 5568SOL    HW217604   4.512   2.768   1.063
 5569SOL     OW17605   4.277   1.710   1.792
 5569SOL    HW117606   4.207   1.781   1.800
 5569SOL    HW217607   4.233   1.621   1.777
 5570SOL     OW17608   6.355   4.477   5.021
 5570SOL    HW117609   6.257   4.474   5.001
 5570SOL    HW217610   6.369   4.488   5.119
 5571SOL     OW17611   0.230   6.196   0.792
 5571SOL    HW117612   0.219   6.279   0.737
 5571SOL    HW217613   0.149   6.137   0.779
 5572SOL     OW17614   3.793   2.175   6.625
 5572SOL    HW117615   3.783   2.262   6.673
 5572SOL    HW217616   3.872   2.126   6.662
 5573SOL     OW17617   1.445   3.289   0.369
 5573SOL    HW117618   1.507   3.213   0.386
 5573SOL    HW217619   1.352   3.254   0.356
 5574SOL     OW17620   0.280   6.987   4.577
 5574SOL    HW117621   0.338   6.996   4.495
 5574SOL    HW217622   0.185   6.974   4.549
 5575SOL     OW17623   1.602   0.701   1.432
 5575SOL    HW117624   1.698   0.711   1.406
 5575SOL    HW217625   1.543   0.722   1.354
 5576SOL     OW17626   6.224   5.216   1.489
 5576SOL    HW117627   6.291   5.148   1.519
 5576SOL    HW217628   6.260   5.267   1.411
 5577SOL     OW17629   2.200   3.484   5.311
 5577SOL    HW117630   2.254   3.402   5.332
 5577SOL    HW217631   2.248   3.565   5.342
 5578SOL     OW17632   3.035   2.707   0.224
 5578SOL    HW117633   3.058   2.686   0.129
 5578SOL    HW217634   3.017   2.623   0.274
 5579SOL     OW17635   5.017   3.924   6.277
 5579SOL    HW117636   4.988   3.898   6.185
 5579SOL    HW217637   5.050   3.844   6.326
 5580SOL     OW17638   4.907   2.353   0.450
 5580SOL    HW117639   4.955   2.431   0.410
 5580SOL    HW217640   4.906   2.278   0.384
 5581SOL     OW17641   2.502   0.536   6.739
 5581SOL    HW117642   2.566   0.514   6.812
 5581SOL    HW217643   2.436   0.604   6.771
 5582SOL     OW17644   3.236   3.804   4.165
 5582SOL    HW117645   3.141   3.826   4.143
 5582SOL    HW217646   3.263   3.851   4.249
 5583SOL     OW17647   3.657   6.225   2.457
 5583SOL    HW117648   3.667   6.135   2.499
 5583SOL    HW217649   3.565   6.260   2.473
 5584SOL     OW17650   5.571   4.077   3.033
 5584SOL    HW117651   5.488   4.083   2.977
 5584SOL    HW217652   5.548   4.097   3.128
 5585SOL     OW17653   5.829   0.970   3.715
 5585SOL    HW117654   5.777   1.050   3.685
 5585SOL    HW217655   5.767   0.892   3.728
 5586SOL     OW17656   1.693   1.545   6.218
 5586SOL    HW117657   1.784   1.585   6.214
 5586SOL    HW217658   1.677   1.507   6.309
 5587SOL     OW17659   3.310   0.547   3.441
 5587SOL    HW117660   3.392   0.590   3.478
 5587SOL    HW217661   3.233   0.563   3.503
 5588SOL     OW17662   2.545   6.766   5.277
 5588SOL    HW117663   2.525   6.759   5.179
 5588SOL    HW217664   2.460   6.776   5.328
 5589SOL     OW17665   5.108   2.813   5.879
 5589SOL    HW117666   5.089   2.911   5.868
 5589SOL    HW217667   5.026   2.767   5.912
 5590SOL     OW17668   6.273   5.586   4.095
 5590SOL    HW117669   6.287   5.548   4.003
 5590SOL    HW217670   6.176   5.607   4.108
 5591SOL     OW17671   5.768   0.717   0.400
 5591SOL    HW117672   5.824   0.755   0.327
 5591SOL    HW217673   5.804   0.627   0.426
 5592SOL     OW17674   1.899   3.753   3.900
 5592SOL    HW117675   1.838   3.688   3.854
 5592SOL    HW217676   1.899   3.736   3.998
 5593SOL     OW17677   0.504   2.415   6.056
 5593SOL    HW117678   0.535   2.357   6.131
 5593SOL    HW217679   0.515   2.511   6.080
 5594SOL     OW17680   2.151   0.793   0.286
 5594SOL    HW117681   2.109   0.868   0.336
 5594SOL    HW217682   2.222   0.750   0.343
 5595SOL     OW17683   6.353   0.984   5.852
 5595SOL    HW117684   6.268   1.024   5.817
 5595SOL    HW217685   6.354   0.886   5.832
 5596SOL     OW17686   5.812   0.368   2.622
 5596SOL    HW117687   5.885   0.387   2.688
 5596SOL    HW217688   5.851   0.324   2.541
 5597SOL     OW17689   5.710   1.962   6.496
 5597SOL    HW117690   5.778   1.920   6.437
 5597SOL    HW217691   5.713   1.920   6.586
 5598SOL     OW17692   5.190   1.621   4.076
 5598SOL    HW117693   5.280   1.620   4.120
 5598SOL    HW217694   5.190   1.688   4.001
 5599SOL     OW17695   5.762   3.929   1.493
 5599SOL    HW117696   5.741   3.832   1.480
 5599SOL    HW217697   5.828   3.940   1.567
 5600SOL     OW17698   2.287   0.444   2.991
 5600SOL    HW117699   2.239   0.515   3.044
 5600SOL    HW217700   2.343   0.389   3.052
 5601SOL     OW17701   5.168   3.545   5.680
 5601SOL    HW117702   5.226   3.559   5.600
 5601SOL    HW217703   5.209   3.590   5.759
 5602SOL     OW17704   0.487   2.178   2.892
 5602SOL    HW117705   0.575   2.224   2.907
 5602SOL    HW217706   0.502   2.081   2.877
 5603SOL     OW17707   4.615   2.943   5.270
 5603SOL    HW117708   4.636   2.909   5.178
 5603SOL    HW217709   4.530   2.901   5.303
 5604SOL     OW17710   1.450   0.067   4.557
 5604SOL    HW117711   1.482   7.016   4.496
 5604SOL    HW217712   1.364   0.040   4.599
 5605SOL     OW17713   1.576   6.917   4.361
 5605SOL    HW117714   1.521   6.953   4.286
 5605SOL    HW217715   1.588   6.818   4.348
 5606SOL     OW17716   5.256   1.614   0.297
 5606SOL    HW117717   5.253   1.606   0.396
 5606SOL    HW217718   5.214   1.533   0.256
 5607SOL     OW17719   6.047   2.238   3.536
 5607SOL    HW117720   6.100   2.294   3.472
 5607SOL    HW217721   5.982   2.296   3.585
 5608SOL     OW17722   5.539   0.588   3.782
 5608SOL    HW117723   5.580   0.512   3.732
 5608SOL    HW217724   5.555   0.673   3.731
 5609SOL     OW17725   5.399   6.557   0.223
 5609SOL    HW117726   5.453   6.564   0.140
 5609SOL    HW217727   5.338   6.478   0.217
 5610SOL     OW17728   5.356   3.714   6.835
 5610SOL    HW117729   5.377   3.800   6.789
 5610SOL    HW217730   5.416   3.642   6.800
 5611SOL     OW17731   0.871   4.971   1.262
 5611SOL    HW117732   0.900   5.047   1.320
 5611SOL    HW217733   0.778   4.944   1.288
 5612SOL     OW17734   2.525   2.219   0.257
 5612SOL    HW117735   2.452   2.164   0.217
 5612SOL    HW217736   2.513   2.224   0.356
 5613SOL     OW17737   6.968   5.143   4.753
 5613SOL    HW117738   0.012   5.211   4.719
 5613SOL    HW217739   6.969   5.063   4.693
 5614SOL     OW17740   5.837   2.131   5.005
 5614SOL    HW117741   5.804   2.222   4.980
 5614SOL    HW217742   5.935   2.125   4.989
 5615SOL     OW17743   0.449   2.594   2.524
 5615SOL    HW117744   0.415   2.571   2.432
 5615SOL    HW217745   0.385   2.657   2.568
 5616SOL     OW17746   1.554   2.773   4.197
 5616SOL    HW117747   1.549   2.674   4.182
 5616SOL    HW217748   1.541   2.820   4.110
 5617SOL     OW17749   1.688   4.950   5.942
 5617SOL    HW117750   1.704   4.929   5.846
 5617SOL    HW217751   1.589   4.950   5.959
 5618SOL     OW17752   6.738   5.011   4.208
 5618SOL    HW117753   6.758   4.982   4.114
 5618SOL    HW217754   6.782   5.099   4.226
 5619SOL     OW17755   3.216   3.043   3.573
 5619SOL    HW117756   3.274   2.986   3.516
 5619SOL    HW217757   3.267   3.073   3.654
 5620SOL     OW17758   4.244   4.108   6.338
 5620SOL    HW117759   4.238   4.189   6.278
 5620SOL    HW217760   4.299   4.038   6.293
 5621SOL     OW17761   1.875   2.875   5.737
 5621SOL    HW117762   1.904   2.784   5.706
 5621SOL    HW217763   1.839   2.870   5.830
 5622SOL     OW17764   4.738   5.392   4.756
 5622SOL    HW117765   4.723   5.315   4.693
 5622SOL    HW217766   4.677   5.467   4.733
 5623SOL     OW17767   4.956   6.313   4.248
 5623SOL    HW117768   4.918   6.246   4.184
 5623SOL    HW217769   4.997   6.266   4.325
 5624SOL     OW17770   6.968   5.539   3.844
 5624SOL    HW117771   6.907   5.593   3.786
 5624SOL    HW217772   6.963   5.443   3.818
 5625SOL     OW17773   1.580   5.161   4.379
 5625SOL    HW117774   1.601   5.240   4.436
 5625SOL    HW217775   1.627   5.081   4.414
 5626SOL     OW17776   2.008   4.265   4.200
 5626SOL    HW117777   1.965   4.355   4.188
 5626SOL    HW217778   2.090   4.260   4.143
 5627SOL     OW17779   1.089   5.957   6.800
 5627SOL    HW117780   1.154   6.008   6.856
 5627SOL    HW217781   1.021   5.914   6.860
 5628SOL     OW17782   2.918   3.189   0.632
 5628SOL    HW117783   2.930   3.286   0.652
 5628SOL    HW217784   2.835   3.176   0.577
 5629SOL     OW17785   4.136   3.911   1.148
 5629SOL    HW117786   4.179   3.917   1.238
 5629SOL    HW217787   4.109   3.817   1.130
 5630SOL     OW17788   1.456   4.084   6.525
 5630SOL    HW117789   1.428   4.006   6.580
 5630SOL    HW217790   1.555   4.098   6.534
 5631SOL     OW17791   5.122   0.827   1.637
 5631SOL    HW117792   5.119   0.919   1.597
 5631SOL    HW217793   5.097   0.833   1.734
 5632SOL     OW17794   5.289   1.029   5.970
 5632SOL    HW117795   5.224   0.957   5.944
 5632SOL    HW217796   5.303   1.091   5.893
 5633SOL     OW17797   0.234   4.752   5.050
 5633SOL    HW117798   0.275   4.826   5.104
 5633SOL    HW217799   0.154   4.717   5.099
 5634SOL     OW17800   2.990   5.513   5.805
 5634SOL    HW117801   3.036   5.432   5.840
 5634SOL    HW217802   3.002   5.589   5.870
 5635SOL     OW17803   2.840   0.125   6.850
 5635SOL    HW117804   2.902   0.203   6.860
 5635SOL    HW217805   2.777   0.122   6.927
 5636SOL     OW17806   6.216   1.010   5.522
 5636SOL    HW117807   6.180   1.059   5.601
 5636SOL    HW217808   6.226   1.074   5.445
 5637SOL     OW17809   5.695   5.857   4.888
 5637SOL    HW117810   5.740   5.854   4.799
 5637SOL    HW217811   5.600   5.830   4.879
 5638SOL     OW17812   5.249   5.692   1.341
 5638SOL    HW117813   5.273   5.597   1.320
 5638SOL    HW217814   5.322   5.752   1.309
 5639SOL     OW17815   1.779   0.273   1.631
 5639SOL    HW117816   1.717   0.198   1.653
 5639SOL    HW217817   1.870   0.252   1.665
 5640SOL     OW17818   2.594   6.571   3.079
 5640SOL    HW117819   2.618   6.475   3.064
 5640SOL    HW217820   2.626   6.626   3.001
 5641SOL     OW17821   1.352   4.404   5.372
 5641SOL    HW117822   1.410   4.391   5.291
 5641SOL    HW217823   1.272   4.344   5.366
 5642SOL     OW17824   0.788   4.969   5.858
 5642SOL    HW117825   0.748   4.902   5.921
 5642SOL    HW217826   0.865   5.014   5.902
 5643SOL     OW17827   3.518   2.110   4.828
 5643SOL    HW117828   3.590   2.064   4.776
 5643SOL    HW217829   3.516   2.207   4.804
 5644SOL     OW17830   5.024   1.585   4.619
 5644SOL    HW117831   5.003   1.494   4.652
 5644SOL    HW217832   5.020   1.587   4.519
 5645SOL     OW17833   5.148   4.654   2.523
 5645SOL    HW117834   5.192   4.649   2.613
 5645SOL    HW217835   5.187   4.730   2.471
 5646SOL     OW17836   0.703   5.560   3.677
 5646SOL    HW117837   0.775   5.503   3.637
 5646SOL    HW217838   0.654   5.508   3.747
 5647SOL     OW17839   0.107   6.016   6.769
 5647SOL    HW117840   0.120   5.925   6.809
 5647SOL    HW217841   0.133   6.086   6.836
 5648SOL     OW17842   1.894   1.428   3.414
 5648SOL    HW117843   1.956   1.356   3.381
 5648SOL    HW217844   1.865   1.485   3.337
 5649SOL     OW17845   1.943   0.409   5.002
 5649SOL    HW117846   1.847   0.396   5.025
 5649SOL    HW217847   1.953   0.491   4.946
 5650SOL     OW17848   0.083   4.910   0.922
 5650SOL    HW117849   0.104   4.997   0.969
 5650SOL    HW217850   0.017   4.927   0.849
 5651SOL     OW17851   0.746   2.317   1.561
 5651SOL    HW117852   0.802   2.260   1.501
 5651SOL    HW217853   0.712   2.262   1.637
 5652SOL     OW17854   4.866   6.019   2.080
 5652SOL    HW117855   4.817   6.105   2.068
 5652SOL    HW217856   4.884   5.978   1.991
 5653SOL     OW17857   0.058   6.347   5.980
 5653SOL    HW117858   0.085   6.285   5.906
 5653SOL    HW217859   0.125   6.421   5.988
 5654SOL     OW17860   0.426   0.210   6.145
 5654SOL    HW117861   0.328   0.198   6.129
 5654SOL    HW217862   0.470   0.246   6.062
 5655SOL     OW17863   0.946   2.918   4.321
 5655SOL    HW117864   0.951   2.911   4.222
 5655SOL    HW217865   1.037   2.910   4.360
 5656SOL     OW17866   2.860   4.151   0.879
 5656SOL    HW117867   2.860   4.136   0.780
 5656SOL    HW217868   2.802   4.230   0.901
 5657SOL     OW17869   4.946   6.357   1.465
 5657SOL    HW117870   4.961   6.261   1.444
 5657SOL    HW217871   4.892   6.365   1.549
 5658SOL     OW17872   3.147   6.861   6.131
 5658SOL    HW117873   3.048   6.870   6.139
 5658SOL    HW217874   3.191   6.943   6.166
 5659SOL     OW17875   3.077   3.139   2.862
 5659SOL    HW117876   3.069   3.141   2.762
 5659SOL    HW217877   3.118   3.223   2.894
 5660SOL     OW17878   5.241   0.398   0.153
 5660SOL    HW117879   5.329   0.380   0.198
 5660SOL    HW217880   5.256   0.409   0.055
 5661SOL     OW17881   0.168   5.697   5.255
 5661SOL    HW117882   0.148   5.665   5.163
 5661SOL    HW217883   0.225   5.630   5.303
 5662SOL     OW17884   2.719   5.316   4.273
 5662SOL    HW117885   2.717   5.354   4.180
 5662SOL    HW217886   2.650   5.361   4.329
 5663SOL     OW17887   1.018   4.067   0.354
 5663SOL    HW117888   0.950   3.996   0.333
 5663SOL    HW217889   1.052   4.107   0.269
 5664SOL     OW17890   0.480   4.121   3.461
 5664SOL    HW117891   0.386   4.113   3.493
 5664SOL    HW217892   0.492   4.065   3.379
 5665SOL     OW17893   1.501   1.770   6.466
 5665SOL    HW117894   1.473   1.864   6.484
 5665SOL    HW217895   1.483   1.714   6.547
 5666SOL     OW17896   4.900   5.770   1.001
 5666SOL    HW117897   4.845   5.728   0.929
 5666SOL    HW217898   4.968   5.705   1.034
 5667SOL     OW17899   0.911   4.696   3.251
 5667SOL    HW117900   0.826   4.655   3.217
 5667SOL    HW217901   0.964   4.627   3.301
 5668SOL     OW17902   5.878   1.620   6.790
 5668SOL    HW117903   5.892   1.545   6.726
 5668SOL    HW217904   5.912   1.594   6.880
 5669SOL     OW17905   0.241   4.489   5.950
 5669SOL    HW117906   0.257   4.546   5.869
 5669SOL    HW217907   0.160   4.521   5.997
 5670SOL     OW17908   6.703   3.062   3.774
 5670SOL    HW117909   6.797   3.033   3.756
 5670SOL    HW217910   6.658   2.994   3.832
 5671SOL     OW17911   1.156   6.902   6.406
 5671SOL    HW117912   1.077   6.930   6.460
 5671SOL    HW217913   1.235   6.890   6.467
 5672SOL     OW17914   4.458   3.966   6.268
 5672SOL    HW117915   4.418   3.878   6.241
 5672SOL    HW217916   4.481   4.019   6.186
 5673SOL     OW17917   0.292   6.883   2.046
 5673SOL    HW117918   0.232   6.812   2.010
 5673SOL    HW217919   0.379   6.883   1.995
 5674SOL     OW17920   7.011   4.208   2.124
 5674SOL    HW117921   6.944   4.223   2.196
 5674SOL    HW217922   6.998   4.117   2.085
 5675SOL     OW17923   4.267   2.525   5.546
 5675SOL    HW117924   4.335   2.596   5.566
 5675SOL    HW217925   4.200   2.521   5.619
 5676SOL     OW17926   2.240   1.145   1.040
 5676SOL    HW117927   2.207   1.236   1.061
 5676SOL    HW217928   2.164   1.086   1.013
 5677SOL     OW17929   0.507   1.629   3.260
 5677SOL    HW117930   0.508   1.725   3.233
 5677SOL    HW217931   0.465   1.574   3.187
 5678SOL     OW17932   3.313   5.798   3.138
 5678SOL    HW117933   3.268   5.856   3.206
 5678SOL    HW217934   3.295   5.702   3.159
 5679SOL     OW17935   1.828   6.459   4.729
 5679SOL    HW117936   1.820   6.533   4.797
 5679SOL    HW217937   1.855   6.498   4.641
 5680SOL     OW17938   1.404   5.790   0.052
 5680SOL    HW117939   1.358   5.823   0.135
 5680SOL    HW217940   1.460   5.710   0.075
 5681SOL     OW17941   1.194   3.291   6.503
 5681SOL    HW117942   1.216   3.351   6.579
 5681SOL    HW217943   1.106   3.317   6.464
 5682SOL     OW17944   2.364   3.416   5.585
 5682SOL    HW117945   2.356   3.486   5.513
 5682SOL    HW217946   2.423   3.451   5.658
 5683SOL     OW17947   4.104   2.569   6.091
 5683SOL    HW117948   4.054   2.593   6.173
 5683SOL    HW217949   4.113   2.469   6.085
 5684SOL     OW17950   4.087   3.542   4.822
 5684SOL    HW117951   4.004   3.494   4.794
 5684SOL    HW217952   4.086   3.635   4.786
 5685SOL     OW17953   0.962   4.877   1.837
 5685SOL    HW117954   0.990   4.841   1.926
 5685SOL    HW217955   0.965   4.804   1.769
 5686SOL     OW17956   3.336   0.653   0.301
 5686SOL    HW117957   3.279   0.586   0.349
 5686SOL    HW217958   3.385   0.709   0.368
 5687SOL     OW17959   6.407   4.168   4.496
 5687SOL    HW117960   6.307   4.170   4.485
 5687SOL    HW217961   6.443   4.084   4.457
 5688SOL     OW17962   6.679   1.959   0.694
 5688SOL    HW117963   6.666   2.058   0.689
 5688SOL    HW217964   6.590   1.914   0.697
 5689SOL     OW17965   4.061   1.456   0.815
 5689SOL    HW117966   4.028   1.515   0.741
 5689SOL    HW217967   4.117   1.509   0.877
 5690SOL     OW17968   3.181   5.960   0.817
 5690SOL    HW117969   3.131   5.956   0.731
 5690SOL    HW217970   3.209   6.054   0.835
 5691SOL     OW17971   2.956   6.129   2.189
 5691SOL    HW117972   2.991   6.041   2.156
 5691SOL    HW217973   2.992   6.147   2.280
 5692SOL     OW17974   6.665   2.161   6.362
 5692SOL    HW117975   6.733   2.208   6.418
 5692SOL    HW217976   6.637   2.077   6.408
 5693SOL     OW17977   4.997   2.626   2.115
 5693SOL    HW117978   4.921   2.691   2.109
 5693SOL    HW217979   4.991   2.560   2.040
 5694SOL     OW17980   0.758   1.482   3.655
 5694SOL    HW117981   0.837   1.532   3.690
 5694SOL    HW217982   0.753   1.492   3.555
 5695SOL     OW17983   1.230   2.130   3.414
 5695SOL    HW117984   1.315   2.162   3.457
 5695SOL    HW217985   1.153   2.148   3.475
 5696SOL     OW17986   2.824   0.708   4.207
 5696SOL    HW117987   2.839   0.632   4.144
 5696SOL    HW217988   2.731   0.744   4.196
 5697SOL     OW17989   6.585   2.075   1.568
 5697SOL    HW117990   6.526   2.025   1.505
 5697SOL    HW217991   6.546   2.070   1.660
 5698SOL     OW17992   0.392   2.347   2.154
 5698SOL    HW117993   0.353   2.304   2.236
 5698SOL    HW217994   0.401   2.446   2.169
 5699SOL     OW17995   6.082   1.484   3.878
 5699SOL    HW117996   6.066   1.578   3.849
 5699SOL    HW217997   6.060   1.475   3.975
 5700SOL     OW17998   0.028   5.725   4.693
 5700SOL    HW117999   0.100   5.709   4.760
 5700SOL    HW218000   0.009   5.823   4.689
 5701SOL     OW18001   0.876   5.528   3.297
 5701SOL    HW118002   0.869   5.578   3.211
 5701SOL    HW218003   0.919   5.439   3.281
 5702SOL     OW18004   1.941   0.036   5.838
 5702SOL    HW118005   1.859   7.001   5.833
 5702SOL    HW218006   1.933   0.098   5.916
 5703SOL     OW18007   4.791   4.688   0.360
 5703SOL    HW118008   4.718   4.751   0.387
 5703SOL    HW218009   4.754   4.622   0.294
 5704SOL     OW18010   4.232   5.772   2.527
 5704SOL    HW118011   4.144   5.799   2.564
 5704SOL    HW218012   4.305   5.812   2.582
 5705SOL     OW18013   6.079   1.294   0.465
 5705SOL    HW118014   6.027   1.215   0.432
 5705SOL    HW218015   6.015   1.361   0.504
 5706SOL     OW18016   1.710   1.868   0.387
 5706SOL    HW118017   1.754   1.909   0.467
 5706SOL    HW218018   1.612   1.859   0.404
 5707SOL     OW18019   1.198   6.863   6.974
 5707SOL    HW118020   1.166   6.780   6.928
 5707SOL    HW218021   1.156   6.943   6.931
 5708SOL     OW18022   5.389   0.003   1.979
 5708SOL    HW118023   5.450   6.951   2.008
 5708SOL    HW218024   5.307   0.004   2.036
 5709SOL     OW18025   0.818   6.013   3.408
 5709SOL    HW118026   0.784   5.973   3.323
 5709SOL    HW218027   0.777   5.966   3.486
 5710SOL     OW18028   2.590   3.524   5.358
 5710SOL    HW118029   2.682   3.561   5.351
 5710SOL    HW218030   2.523   3.599   5.355
 5711SOL     OW18031   4.905   0.497   3.122
 5711SOL    HW118032   4.992   0.496   3.072
 5711SOL    HW218033   4.839   0.436   3.077
 5712SOL     OW18034   0.986   6.881   5.239
 5712SOL    HW118035   0.906   6.863   5.296
 5712SOL    HW218036   0.956   6.901   5.145
 5713SOL     OW18037   0.862   2.350   1.250
 5713SOL    HW118038   0.780   2.400   1.223
 5713SOL    HW218039   0.839   2.254   1.268
 5714SOL     OW18040   1.565   6.697   6.837
 5714SOL    HW118041   1.510   6.621   6.804
 5714SOL    HW218042   1.562   6.701   6.937
 5715SOL     OW18043   0.845   5.673   3.083
 5715SOL    HW118044   0.808   5.756   3.124
 5715SOL    HW218045   0.875   5.692   2.990
 5716SOL     OW18046   0.571   3.997   5.407
 5716SOL    HW118047   0.579   3.964   5.313
 5716SOL    HW218048   0.474   4.013   5.428
 5717SOL     OW18049   1.872   5.285   0.001
 5717SOL    HW118050   1.878   5.212   6.955
 5717SOL    HW218051   1.780   5.289   0.039
 5718SOL     OW18052   1.580   4.469   6.389
 5718SOL    HW118053   1.586   4.561   6.350
 5718SOL    HW218054   1.652   4.412   6.350
 5719SOL     OW18055   2.751   0.901   5.708
 5719SOL    HW118056   2.742   0.802   5.699
 5719SOL    HW218057   2.828   0.922   5.769
 5720SOL     OW18058   0.266   5.144   4.594
 5720SOL    HW118059   0.225   5.234   4.606
 5720SOL    HW218060   0.360   5.154   4.563
 5721SOL     OW18061   0.626   3.779   0.367
 5721SOL    HW118062   0.560   3.729   0.310
 5721SOL    HW218063   0.618   3.749   0.462
 5722SOL     OW18064   5.278   1.371   5.115
 5722SOL    HW118065   5.308   1.453   5.066
 5722SOL    HW218066   5.178   1.366   5.113
 5723SOL     OW18067   4.411   4.231   0.470
 5723SOL    HW118068   4.444   4.145   0.431
 5723SOL    HW218069   4.311   4.232   0.468
 5724SOL     OW18070   3.925   2.469   5.352
 5724SOL    HW118071   3.997   2.513   5.299
 5724SOL    HW218072   3.838   2.517   5.339
 5725SOL     OW18073   5.046   5.646   3.510
 5725SOL    HW118074   4.979   5.574   3.529
 5725SOL    HW218075   5.002   5.720   3.458
 5726SOL     OW18076   6.295   3.063   3.864
 5726SOL    HW118077   6.263   3.042   3.772
 5726SOL    HW218078   6.394   3.047   3.869
 5727SOL     OW18079   6.159   3.452   3.069
 5727SOL    HW118080   6.094   3.410   3.132
 5727SOL    HW218081   6.138   3.549   3.058
 5728SOL     OW18082   4.984   1.709   6.505
 5728SOL    HW118083   5.014   1.756   6.589
 5728SOL    HW218084   5.048   1.636   6.484
 5729SOL     OW18085   1.086   1.546   1.393
 5729SOL    HW118086   1.109   1.509   1.483
 5729SOL    HW218087   1.007   1.498   1.355
 5730SOL     OW18088   4.667   5.691   5.348
 5730SOL    HW118089   4.704   5.601   5.326
 5730SOL    HW218090   4.613   5.685   5.431
 5731SOL     OW18091   1.890   6.667   3.573
 5731SOL    HW118092   1.903   6.571   3.595
 5731SOL    HW218093   1.979   6.713   3.573
 5732SOL     OW18094   5.866   5.110   5.137
 5732SOL    HW118095   5.909   5.145   5.221
 5732SOL    HW218096   5.898   5.017   5.119
 5733SOL     OW18097   3.653   1.141   5.650
 5733SOL    HW118098   3.696   1.058   5.684
 5733SOL    HW218099   3.644   1.137   5.551
 5734SOL     OW18100   0.809   6.693   5.770
 5734SOL    HW118101   0.865   6.698   5.852
 5734SOL    HW218102   0.715   6.669   5.795
 5735SOL     OW18103   3.961   1.005   2.190
 5735SOL    HW118104   4.045   0.960   2.159
 5735SOL    HW218105   3.924   0.955   2.268
 5736SOL     OW18106   5.365   4.341   6.937
 5736SOL    HW118107   5.347   4.438   6.953
 5736SOL    HW218108   5.340   4.289   7.018
 5737SOL     OW18109   5.379   6.207   1.086
 5737SOL    HW118110   5.395   6.265   1.165
 5737SOL    HW218111   5.464   6.195   1.035
 5738SOL     OW18112   3.633   1.472   6.448
 5738SOL    HW118113   3.600   1.391   6.497
 5738SOL    HW218114   3.644   1.548   6.513
 5739SOL     OW18115   1.565   6.953   5.661
 5739SOL    HW118116   1.643   6.960   5.598
 5739SOL    HW218117   1.503   6.882   5.629
 5740SOL     OW18118   4.132   3.401   1.019
 5740SOL    HW118119   4.186   3.372   1.097
 5740SOL    HW218120   4.059   3.334   1.002
 5741SOL     OW18121   6.799   3.471   3.846
 5741SOL    HW118122   6.700   3.484   3.840
 5741SOL    HW218123   6.843   3.558   3.870
 5742SOL     OW18124   4.303   6.816   3.125
 5742SOL    HW118125   4.310   6.825   3.026
 5742SOL    HW218126   4.215   6.773   3.148
 5743SOL     OW18127   3.446   5.493   5.482
 5743SOL    HW118128   3.370   5.468   5.543
 5743SOL    HW218129   3.531   5.497   5.534
 5744SOL     OW18130   5.433   1.120   2.815
 5744SOL    HW118131   5.378   1.101   2.733
 5744SOL    HW218132   5.374   1.122   2.895
 5745SOL     OW18133   2.378   1.371   4.105
 5745SOL    HW118134   2.298   1.366   4.045
 5745SOL    HW218135   2.418   1.280   4.113
 5746SOL     OW18136   4.678   0.157   2.729
 5746SOL    HW118137   4.744   0.185   2.799
 5746SOL    HW218138   4.725   0.105   2.658
 5747SOL     OW18139   0.163   6.305   1.574
 5747SOL    HW118140   0.232   6.338   1.638
 5747SOL    HW218141   0.087   6.371   1.569
 5748SOL     OW18142   1.090   0.182   1.319
 5748SOL    HW118143   1.084   0.161   1.222
 5748SOL    HW218144   1.016   0.137   1.369
 5749SOL     OW18145   1.435   6.035   4.686
 5749SOL    HW118146   1.459   5.950   4.638
 5749SOL    HW218147   1.517   6.073   4.729
 5750SOL     OW18148   6.167   5.214   5.687
 5750SOL    HW118149   6.214   5.174   5.766
 5750SOL    HW218150   6.106   5.146   5.647
 5751SOL     OW18151   1.468   3.715   4.672
 5751SOL    HW118152   1.562   3.744   4.653
 5751SOL    HW218153   1.436   3.657   4.597
 5752SOL     OW18154   5.631   0.013   0.971
 5752SOL    HW118155   5.653   0.025   1.068
 5752SOL    HW218156   5.611   6.938   0.953
 5753SOL     OW18157   3.207   3.376   4.702
 5753SOL    HW118158   3.141   3.311   4.663
 5753SOL    HW218159   3.293   3.329   4.719
 5754SOL     OW18160   0.940   5.742   1.683
 5754SOL    HW118161   1.036   5.715   1.677
 5754SOL    HW218162   0.888   5.699   1.609
 5755SOL     OW18163   1.716   2.174   5.478
 5755SOL    HW118164   1.630   2.131   5.451
 5755SOL    HW218165   1.749   2.131   5.562
 5756SOL     OW18166   6.966   0.169   3.442
 5756SOL    HW118167   6.873   0.160   3.477
 5756SOL    HW218168   6.971   0.243   3.376
 5757SOL     OW18169   0.534   5.419   3.878
 5757SOL    HW118170   0.491   5.355   3.813
 5757SOL    HW218171   0.463   5.470   3.927
 5758SOL     OW18172   2.329   0.849   3.014
 5758SOL    HW118173   2.407   0.826   2.955
 5758SOL    HW218174   2.280   0.927   2.976
 5759SOL     OW18175   4.704   0.658   0.692
 5759SOL    HW118176   4.672   0.699   0.606
 5759SOL    HW218177   4.759   0.578   0.672
 5760SOL     OW18178   6.418   2.582   1.835
 5760SOL    HW118179   6.446   2.591   1.739
 5760SOL    HW218180   6.475   2.643   1.891
 5761SOL     OW18181   5.647   5.282   5.443
 5761SOL    HW118182   5.714   5.351   5.415
 5761SOL    HW218183   5.603   5.243   5.362
 5762SOL     OW18184   4.590   4.164   0.691
 5762SOL    HW118185   4.527   4.208   0.628
 5762SOL    HW218186   4.594   4.215   0.777
 5763SOL     OW18187   5.910   6.403   0.752
 5763SOL    HW118188   5.835   6.452   0.708
 5763SOL    HW218189   5.883   6.307   0.766
 5764SOL     OW18190   4.258   5.464   4.267
 5764SOL    HW118191   4.256   5.377   4.218
 5764SOL    HW218192   4.353   5.487   4.290
 5765SOL     OW18193   6.452   3.660   0.639
 5765SOL    HW118194   6.393   3.655   0.719
 5765SOL    HW218195   6.458   3.570   0.595
 5766SOL     OW18196   1.935   1.594   4.952
 5766SOL    HW118197   1.868   1.524   4.930
 5766SOL    HW218198   1.926   1.670   4.888
 5767SOL     OW18199   2.731   0.301   0.329
 5767SOL    HW118200   2.811   0.241   0.336
 5767SOL    HW218201   2.649   0.252   0.359
 5768SOL     OW18202   0.888   6.914   3.521
 5768SOL    HW118203   0.793   6.928   3.496
 5768SOL    HW218204   0.943   6.899   3.439
 5769SOL     OW18205   2.856   5.950   4.860
 5769SOL    HW118206   2.796   5.972   4.937
 5769SOL    HW218207   2.865   5.851   4.852
 5770SOL     OW18208   6.812   6.609   6.768
 5770SOL    HW118209   6.836   6.623   6.672
 5770SOL    HW218210   6.822   6.695   6.818
 5771SOL     OW18211   2.236   0.094   3.932
 5771SOL    HW118212   2.187   0.009   3.912
 5771SOL    HW218213   2.230   0.156   3.854
 5772SOL     OW18214   5.170   1.116   1.566
 5772SOL    HW118215   5.123   1.135   1.652
 5772SOL    HW218216   5.164   1.195   1.506
 5773SOL     OW18217   3.861   0.943   2.961
 5773SOL    HW118218   3.794   0.985   2.900
 5773SOL    HW218219   3.929   1.011   2.988
 5774SOL     OW18220   2.350   0.168   4.575
 5774SOL    HW118221   2.449   0.158   4.568
 5774SOL    HW218222   2.323   0.172   4.671
 5775SOL     OW18223   1.315   6.679   2.735
 5775SOL    HW118224   1.272   6.709   2.650
 5775SOL    HW218225   1.316   6.579   2.739
 5776SOL     OW18226   1.551   0.244   3.541
 5776SOL    HW118227   1.524   0.147   3.546
 5776SOL    HW218228   1.629   0.253   3.479
 5777SOL     OW18229   1.115   6.984   3.748
 5777SOL    HW118230   1.150   0.027   3.680
 5777SOL    HW218231   1.015   6.981   3.744
 5778SOL     OW18232   1.361   0.365   0.446
 5778SOL    HW118233   1.442   0.351   0.503
 5778SOL    HW218234   1.351   0.289   0.382
 5779SOL     OW18235   4.230   2.579   0.207
 5779SOL    HW118236   4.329   2.585   0.221
 5779SOL    HW218237   4.184   2.610   0.290
 5780SOL     OW18238   6.146   6.192   4.351
 5780SOL    HW118239   6.130   6.165   4.446
 5780SOL    HW218240   6.065   6.239   4.316
 5781SOL     OW18241   6.451   4.547   4.522
 5781SOL    HW118242   6.532   4.578   4.572
 5781SOL    HW218243   6.407   4.625   4.478
 5782SOL     OW18244   1.912   1.972   0.590
 5782SOL    HW118245   1.875   2.028   0.664
 5782SOL    HW218246   1.931   1.880   0.624
 5783SOL     OW18247   0.949   1.030   1.939
 5783SOL    HW118248   0.915   1.113   1.983
 5783SOL    HW218249   1.003   0.977   2.005
 5784SOL     OW18250   0.723   6.770   5.328
 5784SOL    HW118251   0.650   6.832   5.355
 5784SOL    HW218252   0.705   6.736   5.236
 5785SOL     OW18253   1.798   2.767   0.446
 5785SOL    HW118254   1.792   2.719   0.534
 5785SOL    HW218255   1.888   2.810   0.438
 5786SOL     OW18256   6.895   3.855   0.521
 5786SOL    HW118257   6.821   3.839   0.587
 5786SOL    HW218258   6.866   3.925   0.456
 5787SOL     OW18259   2.198   2.381   4.819
 5787SOL    HW118260   2.184   2.282   4.819
 5787SOL    HW218261   2.267   2.405   4.887
 5788SOL     OW18262   2.883   1.283   2.103
 5788SOL    HW118263   2.876   1.303   2.200
 5788SOL    HW218264   2.946   1.348   2.060
 5789SOL     OW18265   3.680   4.771   0.279
 5789SOL    HW118266   3.641   4.819   0.201
 5789SOL    HW218267   3.647   4.676   0.280
 5790SOL     OW18268   1.684   4.470   4.425
 5790SOL    HW118269   1.683   4.374   4.451
 5790SOL    HW218270   1.644   4.481   4.335
 5791SOL     OW18271   4.205   0.873   2.114
 5791SOL    HW118272   4.231   0.792   2.061
 5791SOL    HW218273   4.230   0.858   2.210
 5792SOL     OW18274   6.886   2.658   2.754
 5792SOL    HW118275   6.840   2.740   2.719
 5792SOL    HW218276   6.946   2.621   2.683
 5793SOL     OW18277   4.980   0.543   3.853
 5793SOL    HW118278   5.061   0.550   3.795
 5793SOL    HW218279   5.006   0.541   3.949
 5794SOL     OW18280   3.531   1.864   0.326
 5794SOL    HW118281   3.472   1.828   0.253
 5794SOL    HW218282   3.512   1.815   0.411
 5795SOL     OW18283   6.452   6.398   0.130
 5795SOL    HW118284   6.444   6.467   0.202
 5795SOL    HW218285   6.478   6.311   0.170
 5796SOL     OW18286   3.883   1.170   0.109
 5796SOL    HW118287   3.835   1.082   0.106
 5796SOL    HW218288   3.928   1.180   0.198
 5797SOL     OW18289   4.759   2.184   5.540
 5797SOL    HW118290   4.790   2.228   5.457
 5797SOL    HW218291   4.776   2.085   5.534
 5798SOL     OW18292   0.636   4.515   5.380
 5798SOL    HW118293   0.611   4.425   5.416
 5798SOL    HW218294   0.736   4.523   5.377
 5799SOL     OW18295   5.895   1.046   3.103
 5799SOL    HW118296   5.977   1.039   3.159
 5799SOL    HW218297   5.821   0.994   3.146
 5800SOL     OW18298   5.745   6.401   1.155
 5800SOL    HW118299   5.771   6.305   1.144
 5800SOL    HW218300   5.773   6.433   1.245
 5801SOL     OW18301   1.971   2.155   3.911
 5801SOL    HW118302   1.972   2.065   3.867
 5801SOL    HW218303   1.887   2.203   3.888
 5802SOL     OW18304   1.280   4.375   0.985
 5802SOL    HW118305   1.209   4.382   1.054
 5802SOL    HW218306   1.369   4.393   1.027
 5803SOL     OW18307   1.821   4.870   2.265
 5803SOL    HW118308   1.766   4.793   2.234
 5803SOL    HW218309   1.900   4.836   2.316
 5804SOL     OW18310   0.335   5.152   3.895
 5804SOL    HW118311   0.361   5.213   3.821
 5804SOL    HW218312   0.398   5.164   3.972
 5805SOL     OW18313   2.452   3.748   6.077
 5805SOL    HW118314   2.455   3.650   6.097
 5805SOL    HW218315   2.437   3.762   5.979
 5806SOL     OW18316   0.177   6.091   5.460
 5806SOL    HW118317   0.171   6.022   5.532
 5806SOL    HW218318   0.114   6.167   5.481
 5807SOL     OW18319   0.566   3.640   1.799
 5807SOL    HW118320   0.528   3.733   1.796
 5807SOL    HW218321   0.663   3.643   1.774
 5808SOL     OW18322   5.604   5.008   4.781
 5808SOL    HW118323   5.669   5.082   4.795
 5808SOL    HW218324   5.576   4.971   4.870
 5809SOL     OW18325   6.161   1.882   4.523
 5809SOL    HW118326   6.258   1.857   4.523
 5809SOL    HW218327   6.123   1.868   4.431
 5810SOL     OW18328   3.682   1.769   4.066
 5810SOL    HW118329   3.709   1.725   4.151
 5810SOL    HW218330   3.728   1.725   3.989
 5811SOL     OW18331   2.952   0.226   5.954
 5811SOL    HW118332   3.018   0.165   5.910
 5811SOL    HW218333   2.929   0.300   5.891
 5812SOL     OW18334   6.187   1.896   4.018
 5812SOL    HW118335   6.158   1.968   4.080
 5812SOL    HW218336   6.277   1.863   4.045
 5813SOL     OW18337   1.846   1.883   0.953
 5813SOL    HW118338   1.840   1.983   0.943
 5813SOL    HW218339   1.753   1.845   0.958
 5814SOL     OW18340   6.264   4.585   1.142
 5814SOL    HW118341   6.176   4.579   1.095
 5814SOL    HW218342   6.335   4.541   1.086
 5815SOL     OW18343   3.986   2.257   4.154
 5815SOL    HW118344   4.060   2.267   4.087
 5815SOL    HW218345   3.942   2.168   4.141
 5816SOL     OW18346   4.440   6.047   0.028
 5816SOL    HW118347   4.364   6.107   0.003
 5816SOL    HW218348   4.406   5.955   0.046
 5817SOL     OW18349   5.681   3.788   6.064
 5817SOL    HW118350   5.727   3.773   6.152
 5817SOL    HW218351   5.718   3.725   5.996
 5818SOL     OW18352   6.699   5.451   4.628
 5818SOL    HW118353   6.650   5.512   4.567
 5818SOL    HW218354   6.636   5.416   4.698
 5819SOL     OW18355   3.942   6.424   0.220
 5819SOL    HW118356   3.852   6.383   0.236
 5819SOL    HW218357   4.002   6.403   0.297
 5820SOL     OW18358   4.062   5.562   4.105
 5820SOL    HW118359   4.089   5.645   4.056
 5820SOL    HW218360   4.142   5.522   4.150
 5821SOL     OW18361   0.141   0.058   2.180
 5821SOL    HW118362   0.053   0.060   2.226
 5821SOL    HW218363   0.131   0.011   2.092
 5822SOL     OW18364   0.843   2.719   2.388
 5822SOL    HW118365   0.934   2.743   2.354
 5822SOL    HW218366   0.830   2.620   2.382
 5823SOL     OW18367   1.338   1.219   5.438
 5823SOL    HW118368   1.429   1.226   5.480
 5823SOL    HW218369   1.316   1.304   5.391
 5824SOL     OW18370   6.178   5.074   2.697
 5824SOL    HW118371   6.154   5.018   2.618
 5824SOL    HW218372   6.185   5.170   2.669
 5825SOL     OW18373   2.448   2.137   5.077
 5825SOL    HW118374   2.442   2.179   5.167
 5825SOL    HW218375   2.539   2.154   5.039
 5826SOL     OW18376   0.100   5.361   5.670
 5826SOL    HW118377   0.018   5.345   5.726
 5826SOL    HW218378   0.086   5.325   5.578
 5827SOL     OW18379   2.082   4.294   4.685
 5827SOL    HW118380   2.119   4.208   4.719
 5827SOL    HW218381   2.098   4.302   4.587
 5828SOL     OW18382   6.975   2.918   1.981
 5828SOL    HW118383   6.885   2.909   2.023
 5828SOL    HW218384   7.000   2.832   1.937
 5829SOL     OW18385   2.038   1.334   3.197
 5829SOL    HW118386   2.083   1.362   3.113
 5829SOL    HW218387   1.950   1.292   3.176
 5830SOL     OW18388   4.773   6.926   5.251
 5830SOL    HW118389   4.762   6.832   5.284
 5830SOL    HW218390   4.866   6.957   5.270
 5831SOL     OW18391   0.204   0.506   4.597
 5831SOL    HW118392   0.186   0.408   4.595
 5831SOL    HW218393   0.193   0.544   4.505
 5832SOL     OW18394   3.981   4.551   5.979
 5832SOL    HW118395   3.887   4.517   5.983
 5832SOL    HW218396   3.984   4.633   5.922
 5833SOL     OW18397   4.310   3.499   5.214
 5833SOL    HW118398   4.406   3.527   5.223
 5833SOL    HW218399   4.292   3.423   5.277
 5834SOL     OW18400   6.108   3.228   0.085
 5834SOL    HW118401   6.145   3.279   0.008
 5834SOL    HW218402   6.104   3.131   0.062
 5835SOL     OW18403   4.974   3.356   4.069
 5835SOL    HW118404   4.897   3.374   4.130
 5835SOL    HW218405   5.003   3.441   4.026
 5836SOL     OW18406   3.214   6.278   2.724
 5836SOL    HW118407   3.296   6.285   2.781
 5836SOL    HW218408   3.240   6.270   2.628
 5837SOL     OW18409   4.066   4.837   6.184
 5837SOL    HW118410   4.063   4.740   6.208
 5837SOL    HW218411   4.077   4.847   6.085
 5838SOL     OW18412   2.832   1.864   6.467
 5838SOL    HW118413   2.754   1.802   6.478
 5838SOL    HW218414   2.799   1.957   6.454
 5839SOL     OW18415   0.145   2.242   2.567
 5839SOL    HW118416   0.142   2.258   2.665
 5839SOL    HW218417   0.190   2.154   2.549
 5840SOL     OW18418   0.909   5.702   6.528
 5840SOL    HW118419   0.810   5.689   6.524
 5840SOL    HW218420   0.936   5.777   6.468
 5841SOL     OW18421   4.815   1.766   2.431
 5841SOL    HW118422   4.847   1.691   2.489
 5841SOL    HW218423   4.758   1.829   2.485
 5842SOL     OW18424   4.551   3.220   1.167
 5842SOL    HW118425   4.501   3.165   1.100
 5842SOL    HW218426   4.486   3.270   1.224
 5843SOL     OW18427   2.092   3.755   2.764
 5843SOL    HW118428   2.000   3.741   2.729
 5843SOL    HW218429   2.152   3.785   2.690
 5844SOL     OW18430   0.949   6.732   6.002
 5844SOL    HW118431   0.869   6.764   6.054
 5844SOL    HW218432   1.029   6.729   6.062
 5845SOL     OW18433   0.934   0.505   2.610
 5845SOL    HW118434   0.898   0.545   2.526
 5845SOL    HW218435   1.020   0.550   2.634
 5846SOL     OW18436   0.259   2.622   3.499
 5846SOL    HW118437   0.279   2.552   3.567
 5846SOL    HW218438   0.181   2.676   3.528
 5847SOL     OW18439   2.456   2.250   1.787
 5847SOL    HW118440   2.509   2.300   1.719
 5847SOL    HW218441   2.435   2.311   1.864
 5848SOL     OW18442   2.394   5.176   2.838
 5848SOL    HW118443   2.313   5.210   2.886
 5848SOL    HW218444   2.370   5.152   2.744
 5849SOL     OW18445   0.121   6.850   6.629
 5849SOL    HW118446   0.101   6.947   6.645
 5849SOL    HW218447   0.146   6.836   6.533
 5850SOL     OW18448   0.060   4.120   2.434
 5850SOL    HW118449   0.072   4.024   2.407
 5850SOL    HW218450   0.114   4.179   2.374
 5851SOL     OW18451   6.043   3.726   3.022
 5851SOL    HW118452   6.056   3.792   3.096
 5851SOL    HW218453   5.947   3.728   2.992
 5852SOL     OW18454   5.924   6.450   3.164
 5852SOL    HW118455   5.884   6.429   3.075
 5852SOL    HW218456   5.938   6.365   3.215
 5853SOL     OW18457   3.554   5.522   4.213
 5853SOL    HW118458   3.586   5.604   4.167
 5853SOL    HW218459   3.621   5.496   4.283
 5854SOL     OW18460   6.178   4.556   5.587
 5854SOL    HW118461   6.100   4.581   5.529
 5854SOL    HW218462   6.228   4.481   5.544
 5855SOL     OW18463   0.705   0.863   4.791
 5855SOL    HW118464   0.748   0.949   4.819
 5855SOL    HW218465   0.698   0.802   4.871
 5856SOL     OW18466   2.279   5.836   4.045
 5856SOL    HW118467   2.213   5.802   3.978
 5856SOL    HW218468   2.231   5.868   4.126
 5857SOL     OW18469   6.486   2.475   5.703
 5857SOL    HW118470   6.557   2.480   5.633
 5857SOL    HW218471   6.494   2.389   5.752
 5858SOL     OW18472   2.166   2.443   1.864
 5858SOL    HW118473   2.197   2.504   1.791
 5858SOL    HW218474   2.178   2.487   1.952
 5859SOL     OW18475   5.642   6.524   1.659
 5859SOL    HW118476   5.627   6.602   1.719
 5859SOL    HW218477   5.585   6.447   1.689
 5860SOL     OW18478   1.636   3.818   2.112
 5860SOL    HW118479   1.726   3.774   2.110
 5860SOL    HW218480   1.572   3.767   2.054
 5861SOL     OW18481   4.711   1.256   4.463
 5861SOL    HW118482   4.796   1.206   4.450
 5861SOL    HW218483   4.732   1.353   4.481
 5862SOL     OW18484   4.685   5.033   2.716
 5862SOL    HW118485   4.664   5.097   2.789
 5862SOL    HW218486   4.605   5.023   2.656
 5863SOL     OW18487   2.852   0.497   4.735
 5863SOL    HW118488   2.900   0.555   4.801
 5863SOL    HW218489   2.766   0.542   4.709
 5864SOL     OW18490   3.526   3.484   1.598
 5864SOL    HW118491   3.555   3.573   1.633
 5864SOL    HW218492   3.602   3.419   1.604
 5865SOL     OW18493   5.833   0.254   5.659
 5865SOL    HW118494   5.793   0.339   5.625
 5865SOL    HW218495   5.763   0.203   5.710
 5866SOL     OW18496   4.370   5.167   0.651
 5866SOL    HW118497   4.274   5.175   0.623
 5866SOL    HW218498   4.428   5.171   0.569
 5867SOL     OW18499   0.428   4.020   1.215
 5867SOL    HW118500   0.409   4.037   1.118
 5867SOL    HW218501   0.419   3.923   1.234
 5868SOL     OW18502   0.113   0.911   5.209
 5868SOL    HW118503   0.100   1.000   5.165
 5868SOL    HW218504   0.077   0.915   5.302
 5869SOL     OW18505   3.248   6.233   3.564
 5869SOL    HW118506   3.153   6.263   3.577
 5869SOL    HW218507   3.309   6.294   3.615
 5870SOL     OW18508   5.300   6.162   4.807
 5870SOL    HW118509   5.308   6.142   4.905
 5870SOL    HW218510   5.388   6.147   4.763
 5871SOL     OW18511   4.303   3.056   0.563
 5871SOL    HW118512   4.256   3.004   0.493
 5871SOL    HW218513   4.252   3.051   0.649
 5872SOL     OW18514   4.268   5.223   0.962
 5872SOL    HW118515   4.360   5.224   0.924
 5872SOL    HW218516   4.246   5.314   0.997
 5873SOL     OW18517   2.343   2.508   1.284
 5873SOL    HW118518   2.267   2.446   1.267
 5873SOL    HW218519   2.339   2.584   1.219
 5874SOL     OW18520   2.829   3.663   0.451
 5874SOL    HW118521   2.907   3.662   0.390
 5874SOL    HW218522   2.837   3.739   0.515
 5875SOL     OW18523   3.916   1.470   0.384
 5875SOL    HW118524   3.949   1.376   0.376
 5875SOL    HW218525   3.948   1.509   0.470
 5876SOL     OW18526   3.016   3.149   6.951
 5876SOL    HW118527   3.001   3.051   6.941
 5876SOL    HW218528   3.025   3.191   6.860
 5877SOL     OW18529   0.449   6.954   0.928
 5877SOL    HW118530   0.496   0.018   0.905
 5877SOL    HW218531   0.451   6.892   0.849
 5878SOL     OW18532   5.278   4.953   3.198
 5878SOL    HW118533   5.262   4.955   3.296
 5878SOL    HW218534   5.338   4.876   3.175
 5879SOL     OW18535   1.983   3.128   5.986
 5879SOL    HW118536   1.904   3.168   6.034
 5879SOL    HW218537   2.002   3.182   5.904
 5880SOL     OW18538   4.704   4.506   6.711
 5880SOL    HW118539   4.657   4.418   6.704
 5880SOL    HW218540   4.803   4.491   6.704
 5881SOL     OW18541   1.045   0.010   1.745
 5881SOL    HW118542   1.081   0.092   1.700
 5881SOL    HW218543   1.048   0.023   1.845
 5882SOL     OW18544   1.283   0.031   6.218
 5882SOL    HW118545   1.238   6.997   6.289
 5882SOL    HW218546   1.222   0.106   6.192
 5883SOL     OW18547   0.917   1.406   0.516
 5883SOL    HW118548   0.914   1.341   0.441
 5883SOL    HW218549   0.884   1.363   0.600
 5884SOL     OW18550   5.398   0.750   5.019
 5884SOL    HW118551   5.346   0.691   4.956
 5884SOL    HW218552   5.343   0.830   5.043
 5885SOL     OW18553   0.237   5.776   2.014
 5885SOL    HW118554   0.304   5.779   2.088
 5885SOL    HW218555   0.254   5.697   1.957
 5886SOL     OW18556   1.239   2.384   3.904
 5886SOL    HW118557   1.215   2.452   3.974
 5886SOL    HW218558   1.215   2.418   3.814
 5887SOL     OW18559   2.608   2.252   2.094
 5887SOL    HW118560   2.625   2.156   2.073
 5887SOL    HW218561   2.693   2.304   2.082
 5888SOL     OW18562   1.879   6.529   1.590
 5888SOL    HW118563   1.795   6.520   1.644
 5888SOL    HW218564   1.860   6.503   1.495
 5889SOL     OW18565   6.352   1.589   6.825
 5889SOL    HW118566   6.363   1.638   6.912
 5889SOL    HW218567   6.412   1.509   6.824
 5890SOL     OW18568   2.060   0.060   2.780
 5890SOL    HW118569   2.005   0.096   2.855
 5890SOL    HW218570   2.081   6.985   2.796
 5891SOL     OW18571   2.256   4.540   0.454
 5891SOL    HW118572   2.351   4.513   0.465
 5891SOL    HW218573   2.250   4.639   0.446
 5892SOL     OW18574   6.668   5.231   2.116
 5892SOL    HW118575   6.578   5.215   2.077
 5892SOL    HW218576   6.666   5.313   2.174
 5893SOL     OW18577   2.586   4.923   1.711
 5893SOL    HW118578   2.595   4.864   1.631
 5893SOL    HW218579   2.668   4.915   1.768
 5894SOL     OW18580   1.278   5.596   5.429
 5894SOL    HW118581   1.343   5.550   5.488
 5894SOL    HW218582   1.187   5.558   5.442
 5895SOL     OW18583   5.890   3.787   3.401
 5895SOL    HW118584   5.824   3.732   3.351
 5895SOL    HW218585   5.969   3.732   3.426
 5896SOL     OW18586   5.265   1.826   0.550
 5896SOL    HW118587   5.196   1.754   0.562
 5896SOL    HW218588   5.333   1.797   0.483
 5897SOL     OW18589   4.005   1.289   1.586
 5897SOL    HW118590   3.968   1.229   1.657
 5897SOL    HW218591   4.104   1.294   1.595
 5898SOL     OW18592   1.991   1.469   5.574
 5898SOL    HW118593   1.908   1.438   5.526
 5898SOL    HW218594   1.971   1.476   5.672
 5899SOL     OW18595   6.510   5.982   6.595
 5899SOL    HW118596   6.598   6.029   6.591
 5899SOL    HW218597   6.439   6.046   6.622
 5900SOL     OW18598   0.020   5.204   2.637
 5900SOL    HW118599   0.028   5.277   2.705
 5900SOL    HW218600   0.110   5.183   2.600
 5901SOL     OW18601   2.445   1.549   0.532
 5901SOL    HW118602   2.379   1.620   0.508
 5901SOL    HW218603   2.536   1.590   0.541
 5902SOL     OW18604   5.417   3.555   5.166
 5902SOL    HW118605   5.457   3.483   5.108
 5902SOL    HW218606   5.471   3.639   5.156
 5903SOL     OW18607   4.871   3.357   6.611
 5903SOL    HW118608   4.886   3.429   6.679
 5903SOL    HW218609   4.873   3.268   6.656
 5904SOL     OW18610   0.867   4.630   1.154
 5904SOL    HW118611   0.801   4.662   1.223
 5904SOL    HW218612   0.935   4.701   1.137
 5905SOL     OW18613   5.928   1.158   4.300
 5905SOL    HW118614   5.834   1.189   4.292
 5905SOL    HW218615   5.982   1.196   4.225
 5906SOL     OW18616   4.866   1.903   5.138
 5906SOL    HW118617   4.816   1.936   5.058
 5906SOL    HW218618   4.964   1.921   5.126
 5907SOL     OW18619   1.579   6.792   0.434
 5907SOL    HW118620   1.657   6.840   0.393
 5907SOL    HW218621   1.585   6.695   0.411
 5908SOL     OW18622   6.388   4.310   6.826
 5908SOL    HW118623   6.345   4.280   6.911
 5908SOL    HW218624   6.417   4.230   6.773
 5909SOL     OW18625   0.046   5.478   6.573
 5909SOL    HW118626   0.112   5.476   6.498
 5909SOL    HW218627   6.975   5.467   6.536
 5910SOL     OW18628   0.641   4.821   0.599
 5910SOL    HW118629   0.690   4.748   0.553
 5910SOL    HW218630   0.543   4.814   0.579
 5911SOL     OW18631   6.831   5.392   6.036
 5911SOL    HW118632   6.851   5.489   6.024
 5911SOL    HW218633   6.889   5.354   6.108
 5912SOL     OW18634   5.792   3.313   6.952
 5912SOL    HW118635   5.798   3.213   6.959
 5912SOL    HW218636   5.822   3.342   6.862
 5913SOL     OW18637   2.826   2.763   6.131
 5913SOL    HW118638   2.805   2.767   6.033
 5913SOL    HW218639   2.770   2.829   6.180
 5914SOL     OW18640   2.448   5.661   6.561
 5914SOL    HW118641   2.475   5.753   6.535
 5914SOL    HW218642   2.349   5.658   6.576
 5915SOL     OW18643   6.438   3.900   1.826
 5915SOL    HW118644   6.434   3.831   1.752
 5915SOL    HW218645   6.527   3.945   1.823
 5916SOL     OW18646   4.540   6.761   5.759
 5916SOL    HW118647   4.526   6.712   5.673
 5916SOL    HW218648   4.480   6.841   5.762
 5917SOL     OW18649   3.984   3.235   4.379
 5917SOL    HW118650   3.904   3.283   4.343
 5917SOL    HW218651   3.987   3.244   4.478
 5918SOL     OW18652   2.359   3.705   5.354
 5918SOL    HW118653   2.283   3.753   5.397
 5918SOL    HW218654   2.393   3.759   5.277
 5919SOL     OW18655   2.859   2.506   0.337
 5919SOL    HW118656   2.866   2.517   0.238
 5919SOL    HW218657   2.763   2.504   0.364
 5920SOL     OW18658   3.418   0.170   6.981
 5920SOL    HW118659   3.451   0.086   6.938
 5920SOL    HW218660   3.337   0.150   0.014
 5921SOL     OW18661   3.879   5.436   5.346
 5921SOL    HW118662   3.915   5.442   5.253
 5921SOL    HW218663   3.892   5.523   5.392
 5922SOL     OW18664   6.075   4.831   4.223
 5922SOL    HW118665   6.068   4.892   4.302
 5922SOL    HW218666   6.164   4.787   4.223
 5923SOL     OW18667   5.612   0.875   2.160
 5923SOL    HW118668   5.686   0.897   2.224
 5923SOL    HW218669   5.524   0.896   2.203
 5924SOL     OW18670   6.254   2.233   5.373
 5924SOL    HW118671   6.194   2.297   5.325
 5924SOL    HW218672   6.241   2.243   5.471
 5925SOL     OW18673   3.953   5.980   3.221
 5925SOL    HW118674   4.045   5.951   3.194
 5925SOL    HW218675   3.952   6.079   3.233
 5926SOL     OW18676   3.805   5.406   2.074
 5926SOL    HW118677   3.885   5.445   2.119
 5926SOL    HW218678   3.781   5.319   2.117
 5927SOL     OW18679   1.685   4.256   3.352
 5927SOL    HW118680   1.695   4.269   3.450
 5927SOL    HW218681   1.667   4.344   3.308
 5928SOL     OW18682   3.286   0.178   1.857
 5928SOL    HW118683   3.288   0.089   1.901
 5928SOL    HW218684   3.380   0.212   1.845
 5929SOL     OW18685   0.659   7.006   5.642
 5929SOL    HW118686   0.751   6.967   5.649
 5929SOL    HW218687   0.621   6.986   5.552
 5930SOL     OW18688   6.655   1.033   3.238
 5930SOL    HW118689   6.737   0.974   3.237
 5930SOL    HW218690   6.626   1.049   3.332
 5931SOL     OW18691   5.581   5.100   2.915
 5931SOL    HW118692   5.662   5.085   2.857
 5931SOL    HW218693   5.538   5.012   2.935
 5932SOL     OW18694   2.571   6.172   0.726
 5932SOL    HW118695   2.471   6.176   0.721
 5932SOL    HW218696   2.611   6.206   0.641
 5933SOL     OW18697   0.057   5.080   3.271
 5933SOL    HW118698   0.056   5.099   3.173
 5933SOL    HW218699   0.072   5.165   3.321
 5934SOL     OW18700   4.005   3.741   4.056
 5934SOL    HW118701   4.072   3.768   3.987
 5934SOL    HW218702   4.046   3.672   4.117
 5935SOL     OW18703   4.027   3.802   4.770
 5935SOL    HW118704   3.947   3.862   4.782
 5935SOL    HW218705   4.092   3.819   4.844
 5936SOL     OW18706   3.909   3.498   0.120
 5936SOL    HW118707   3.922   3.443   0.203
 5936SOL    HW218708   3.842   3.570   0.139
 5937SOL     OW18709   0.797   4.566   2.207
 5937SOL    HW118710   0.803   4.564   2.306
 5937SOL    HW218711   0.704   4.541   2.178
 5938SOL     OW18712   1.525   5.708   4.135
 5938SOL    HW118713   1.541   5.792   4.082
 5938SOL    HW218714   1.451   5.724   4.201
 5939SOL     OW18715   3.121   0.638   3.644
 5939SOL    HW118716   3.094   0.599   3.732
 5939SOL    HW218717   3.039   0.662   3.593
 5940SOL     OW18718   4.307   6.186   2.424
 5940SOL    HW118719   4.353   6.249   2.487
 5940SOL    HW218720   4.210   6.180   2.448
 5941SOL     OW18721   6.627   3.903   2.110
 5941SOL    HW118722   6.624   3.844   2.191
 5941SOL    HW218723   6.606   3.849   2.029
 5942SOL     OW18724   4.740   2.749   6.998
 5942SOL    HW118725   4.694   2.819   0.031
 5942SOL    HW218726   4.719   2.763   6.901
 5943SOL     OW18727   3.989   5.089   0.947
 5943SOL    HW118728   3.971   5.038   1.031
 5943SOL    HW218729   4.070   5.146   0.960
 5944SOL     OW18730   5.509   1.889   1.275
 5944SOL    HW118731   5.416   1.893   1.241
 5944SOL    HW218732   5.529   1.972   1.328
 5945SOL     OW18733   6.825   5.452   5.320
 5945SOL    HW118734   6.785   5.368   5.284
 5945SOL    HW218735   6.822   5.523   5.250
 5946SOL     OW18736   3.464   3.071   5.810
 5946SOL    HW118737   3.488   3.006   5.738
 5946SOL    HW218738   3.544   3.127   5.832
 5947SOL     OW18739   3.941   3.192   1.709
 5947SOL    HW118740   3.910   3.186   1.804
 5947SOL    HW218741   4.020   3.254   1.704
 5948SOL     OW18742   3.654   5.102   3.652
 5948SOL    HW118743   3.647   5.117   3.751
 5948SOL    HW218744   3.698   5.014   3.635
 5949SOL     OW18745   3.534   3.562   1.265
 5949SOL    HW118746   3.629   3.532   1.273
 5949SOL    HW218747   3.472   3.486   1.285
 5950SOL     OW18748   5.492   2.973   5.279
 5950SOL    HW118749   5.399   2.982   5.316
 5950SOL    HW218750   5.554   2.942   5.351
 5951SOL     OW18751   0.907   5.701   4.821
 5951SOL    HW118752   0.943   5.769   4.884
 5951SOL    HW218753   0.884   5.618   4.872
 5952SOL     OW18754   5.363   5.545   3.932
 5952SOL    HW118755   5.397   5.607   3.861
 5952SOL    HW218756   5.263   5.552   3.936
 5953SOL     OW18757   0.119   2.745   5.448
 5953SOL    HW118758   0.084   2.755   5.541
 5953SOL    HW218759   0.218   2.737   5.450
 5954SOL     OW18760   0.056   4.732   5.894
 5954SOL    HW118761   0.115   4.803   5.932
 5954SOL    HW218762   7.019   4.694   5.967
 5955SOL     OW18763   5.363   5.912   2.373
 5955SOL    HW118764   5.460   5.934   2.381
 5955SOL    HW218765   5.337   5.849   2.446
 5956SOL     OW18766   3.699   2.047   0.471
 5956SOL    HW118767   3.701   2.015   0.566
 5956SOL    HW218768   3.635   1.992   0.419
 5957SOL     OW18769   4.736   0.587   5.171
 5957SOL    HW118770   4.831   0.557   5.181
 5957SOL    HW218771   4.723   0.627   5.080
 5958SOL     OW18772   6.331   6.666   2.801
 5958SOL    HW118773   6.238   6.631   2.797
 5958SOL    HW218774   6.339   6.732   2.876
 5959SOL     OW18775   3.731   1.408   5.299
 5959SOL    HW118776   3.643   1.431   5.256
 5959SOL    HW218777   3.744   1.464   5.380
 5960SOL     OW18778   4.121   6.338   4.762
 5960SOL    HW118779   4.212   6.312   4.794
 5960SOL    HW218780   4.052   6.313   4.830
 5961SOL     OW18781   4.864   0.769   4.092
 5961SOL    HW118782   4.901   0.680   4.119
 5961SOL    HW218783   4.767   0.759   4.070
 5962SOL     OW18784   4.859   5.749   2.180
 5962SOL    HW118785   4.881   5.684   2.253
 5962SOL    HW218786   4.844   5.700   2.095
 5963SOL     OW18787   3.283   2.928   5.235
 5963SOL    HW118788   3.355   2.925   5.304
 5963SOL    HW218789   3.229   2.845   5.240
 5964SOL     OW18790   0.536   5.167   5.990
 5964SOL    HW118791   0.552   5.088   5.930
 5964SOL    HW218792   0.552   5.140   6.085
 5965SOL     OW18793   1.801   1.858   6.011
 5965SOL    HW118794   1.704   1.835   6.014
 5965SOL    HW218795   1.823   1.919   6.087
 5966SOL     OW18796   3.183   5.625   5.108
 5966SOL    HW118797   3.157   5.721   5.119
 5966SOL    HW218798   3.254   5.602   5.175
 5967SOL     OW18799   4.125   6.378   1.238
 5967SOL    HW118800   4.192   6.334   1.297
 5967SOL    HW218801   4.034   6.373   1.280
 5968SOL     OW18802   4.958   1.367   2.859
 5968SOL    HW118803   4.895   1.306   2.811
 5968SOL    HW218804   5.046   1.368   2.812
 5969SOL     OW18805   6.935   1.233   5.717
 5969SOL    HW118806   6.875   1.178   5.658
 5969SOL    HW218807   6.981   1.174   5.783
 5970SOL     OW18808   0.431   4.868   2.555
 5970SOL    HW118809   0.442   4.803   2.631
 5970SOL    HW218810   0.518   4.879   2.508
 5971SOL     OW18811   2.225   0.671   3.194
 5971SOL    HW118812   2.269   0.745   3.142
 5971SOL    HW218813   2.290   0.635   3.260
 5972SOL     OW18814   4.914   6.388   0.421
 5972SOL    HW118815   4.843   6.414   0.355
 5972SOL    HW218816   4.984   6.333   0.375
 5973SOL     OW18817   2.056   5.072   2.402
 5973SOL    HW118818   2.103   5.156   2.373
 5973SOL    HW218819   1.986   5.048   2.335
 5974SOL     OW18820   5.546   4.735   6.584
 5974SOL    HW118821   5.561   4.640   6.610
 5974SOL    HW218822   5.610   4.794   6.634
 5975SOL     OW18823   3.097   2.200   0.387
 5975SOL    HW118824   3.146   2.113   0.394
 5975SOL    HW218825   3.037   2.210   0.467
 5976SOL     OW18826   2.963   3.776   4.592
 5976SOL    HW118827   2.875   3.779   4.543
 5976SOL    HW218828   2.947   3.780   4.690
 5977SOL     OW18829   1.884   5.015   1.680
 5977SOL    HW118830   1.891   4.922   1.717
 5977SOL    HW218831   1.887   5.012   1.580
 5978SOL     OW18832   4.845   4.999   3.244
 5978SOL    HW118833   4.857   4.992   3.145
 5978SOL    HW218834   4.871   4.913   3.287
 5979SOL     OW18835   6.413   0.391   3.084
 5979SOL    HW118836   6.383   0.414   3.176
 5979SOL    HW218837   6.509   0.364   3.086
 5980SOL     OW18838   3.734   3.690   0.128
 5980SOL    HW118839   3.741   3.759   0.055
 5980SOL    HW218840   3.787   3.721   0.207
 5981SOL     OW18841   6.164   0.757   2.227
 5981SOL    HW118842   6.113   0.672   2.237
 5981SOL    HW218843   6.138   0.802   2.141
 5982SOL     OW18844   6.718   2.512   0.326
 5982SOL    HW118845   6.703   2.585   0.260
 5982SOL    HW218846   6.738   2.552   0.416
 5983SOL     OW18847   2.137   1.431   4.820
 5983SOL    HW118848   2.104   1.454   4.729
 5983SOL    HW218849   2.104   1.498   4.886
 5984SOL     OW18850   6.737   6.709   5.061
 5984SOL    HW118851   6.803   6.715   4.987
 5984SOL    HW218852   6.650   6.751   5.032
 5985SOL     OW18853   5.542   3.209   3.935
 5985SOL    HW118854   5.513   3.134   3.993
 5985SOL    HW218855   5.642   3.220   3.941
 5986SOL     OW18856   2.915   3.385   3.237
 5986SOL    HW118857   2.946   3.297   3.274
 5986SOL    HW218858   2.889   3.372   3.141
 5987SOL     OW18859   3.999   1.370   4.699
 5987SOL    HW118860   4.021   1.467   4.700
 5987SOL    HW218861   4.083   1.317   4.714
 5988SOL     OW18862   4.475   6.165   5.229
 5988SOL    HW118863   4.543   6.134   5.162
 5988SOL    HW218864   4.518   6.229   5.292
 5989SOL     OW18865   2.746   5.789   6.641
 5989SOL    HW118866   2.769   5.880   6.675
 5989SOL    HW218867   2.706   5.735   6.715
 5990SOL     OW18868   3.649   4.232   0.614
 5990SOL    HW118869   3.642   4.328   0.590
 5990SOL    HW218870   3.695   4.182   0.540
 5991SOL     OW18871   4.407   5.080   5.305
 5991SOL    HW118872   4.324   5.102   5.254
 5991SOL    HW218873   4.396   5.110   5.400
 5992SOL     OW18874   3.672   0.784   3.704
 5992SOL    HW118875   3.689   0.833   3.790
 5992SOL    HW218876   3.606   0.710   3.721
 5993SOL     OW18877   3.452   6.750   6.260
 5993SOL    HW118878   3.474   6.682   6.190
 5993SOL    HW218879   3.477   6.841   6.228
 5994SOL     OW18880   6.435   1.608   1.825
 5994SOL    HW118881   6.506   1.617   1.894
 5994SOL    HW218882   6.362   1.549   1.860
 5995SOL     OW18883   6.411   4.034   2.444
 5995SOL    HW118884   6.497   4.061   2.487
 5995SOL    HW218885   6.352   3.990   2.511
 5996SOL     OW18886   0.859   5.645   0.448
 5996SOL    HW118887   0.804   5.599   0.518
 5996SOL    HW218888   0.884   5.736   0.480
 5997SOL     OW18889   0.637   6.679   2.535
 5997SOL    HW118890   0.726   6.687   2.578
 5997SOL    HW218891   0.625   6.751   2.467
 5998SOL     OW18892   5.594   2.775   1.851
 5998SOL    HW118893   5.645   2.828   1.783
 5998SOL    HW218894   5.614   2.810   1.942
 5999SOL     OW18895   1.124   2.157   2.274
 5999SOL    HW118896   1.135   2.257   2.276
 5999SOL    HW218897   1.115   2.127   2.179
 6000SOL     OW18898   3.968   6.451   1.703
 6000SOL    HW118899   3.890   6.398   1.736
 6000SOL    HW218900   3.959   6.467   1.605
 6001SOL     OW18901   0.444   3.857   6.040
 6001SOL    HW118902   0.380   3.861   5.964
 6001SOL    HW218903   0.527   3.907   6.016
 6002SOL     OW18904   0.136   6.951   1.263
 6002SOL    HW118905   0.142   6.986   1.170
 6002SOL    HW218906   0.055   6.892   1.271
 6003SOL     OW18907   6.702   2.038   4.657
 6003SOL    HW118908   6.771   2.030   4.585
 6003SOL    HW218909   6.685   2.135   4.677
 6004SOL     OW18910   7.010   4.747   2.870
 6004SOL    HW118911   6.927   4.692   2.854
 6004SOL    HW218912   7.009   4.826   2.810
 6005SOL     OW18913   4.628   5.018   4.790
 6005SOL    HW118914   4.557   5.030   4.859
 6005SOL    HW218915   4.701   4.960   4.828
 6006SOL     OW18916   3.195   6.980   6.982
 6006SOL    HW118917   3.194   6.882   7.001
 6006SOL    HW218918   3.157   6.997   6.891
 6007SOL     OW18919   4.925   3.471   4.318
 6007SOL    HW118920   4.947   3.378   4.348
 6007SOL    HW218921   4.923   3.531   4.398
 6008SOL     OW18922   1.890   5.667   6.313
 6008SOL    HW118923   1.947   5.611   6.253
 6008SOL    HW218924   1.919   5.763   6.305
 6009SOL     OW18925   3.130   1.025   4.728
 6009SOL    HW118926   3.179   1.069   4.653
 6009SOL    HW218927   3.042   0.992   4.695
 6010SOL     OW18928   1.483   4.054   2.128
 6010SOL    HW118929   1.549   4.102   2.186
 6010SOL    HW218930   1.521   3.966   2.099
 6011SOL     OW18931   4.478   2.434   2.776
 6011SOL    HW118932   4.463   2.412   2.679
 6011SOL    HW218933   4.528   2.521   2.783
 6012SOL     OW18934   6.496   1.853   0.414
 6012SOL    HW118935   6.495   1.827   0.511
 6012SOL    HW218936   6.415   1.908   0.394
 6013SOL     OW18937   4.844   2.068   2.918
 6013SOL    HW118938   4.776   2.019   2.973
 6013SOL    HW218939   4.934   2.058   2.960
 6014SOL     OW18940   4.257   1.803   0.593
 6014SOL    HW118941   4.356   1.812   0.594
 6014SOL    HW218942   4.217   1.866   0.660
 6015SOL     OW18943   5.773   2.073   5.944
 6015SOL    HW118944   5.769   2.138   6.020
 6015SOL    HW218945   5.838   2.105   5.875
 6016SOL     OW18946   0.182   1.292   6.981
 6016SOL    HW118947   0.120   1.261   6.909
 6016SOL    HW218948   0.137   1.365   0.012
 6017SOL     OW18949   6.550   4.598   2.562
 6017SOL    HW118950   6.532   4.507   2.524
 6017SOL    HW218951   6.559   4.591   2.661
 6018SOL     OW18952   3.565   1.937   6.906
 6018SOL    HW118953   3.660   1.909   6.919
 6018SOL    HW218954   3.516   1.928   6.992
 6019SOL     OW18955   5.361   1.503   4.317
 6019SOL    HW118956   5.379   1.588   4.367
 6019SOL    HW218957   5.378   1.425   4.377
 6020SOL     OW18958   1.746   6.317   2.035
 6020SOL    HW118959   1.820   6.253   2.014
 6020SOL    HW218960   1.661   6.284   1.994
 6021SOL     OW18961   3.801   0.274   2.281
 6021SOL    HW118962   3.848   0.198   2.237
 6021SOL    HW218963   3.838   0.361   2.247
 6022SOL     OW18964   4.430   0.943   4.660
 6022SOL    HW118965   4.471   1.034   4.666
 6022SOL    HW218966   4.331   0.950   4.672
 6023SOL     OW18967   6.316   1.396   2.544
 6023SOL    HW118968   6.297   1.488   2.510
 6023SOL    HW218969   6.233   1.341   2.540
 6024SOL     OW18970   0.541   4.045   3.034
 6024SOL    HW118971   0.541   4.053   3.134
 6024SOL    HW218972   0.483   3.969   3.007
 6025SOL     OW18973   3.619   0.717   2.225
 6025SOL    HW118974   3.547   0.750   2.287
 6025SOL    HW218975   3.580   0.652   2.160
 6026SOL     OW18976   6.909   3.706   3.967
 6026SOL    HW118977   6.933   3.793   3.925
 6026SOL    HW218978   6.960   3.696   4.053
 6027SOL     OW18979   2.074   4.234   5.543
 6027SOL    HW118980   2.050   4.209   5.637
 6027SOL    HW218981   2.167   4.270   5.541
 6028SOL     OW18982   1.020   3.646   0.312
 6028SOL    HW118983   0.968   3.645   0.398
 6028SOL    HW218984   1.118   3.640   0.332
 6029SOL     OW18985   2.377   6.101   5.963
 6029SOL    HW118986   2.359   6.134   6.056
 6029SOL    HW218987   2.453   6.036   5.965
 6030SOL     OW18988   3.459   6.787   2.715
 6030SOL    HW118989   3.481   6.792   2.813
 6030SOL    HW218990   3.507   6.860   2.667
 6031SOL     OW18991   3.984   4.855   4.124
 6031SOL    HW118992   3.903   4.867   4.066
 6031SOL    HW218993   4.061   4.825   4.067
 6032SOL     OW18994   1.954   3.475   2.982
 6032SOL    HW118995   1.931   3.561   3.028
 6032SOL    HW218996   1.961   3.402   3.050
 6033SOL     OW18997   2.600   2.434   2.596
 6033SOL    HW118998   2.660   2.410   2.519
 6033SOL    HW218999   2.521   2.484   2.561
 6034SOL     OW19000   1.751   5.941   4.894
 6034SOL    HW119001   1.788   5.955   4.985
 6034SOL    HW219002   1.739   6.029   4.848
 6035SOL     OW19003   6.095   1.199   3.462
 6035SOL    HW119004   6.190   1.230   3.468
 6035SOL    HW219005   6.045   1.232   3.542
 6036SOL     OW19006   0.099   5.957   4.233
 6036SOL    HW119007   0.197   5.962   4.248
 6036SOL    HW219008   0.067   6.043   4.192
 6037SOL     OW19009   4.236   4.916   6.414
 6037SOL    HW119010   4.266   4.833   6.461
 6037SOL    HW219011   4.161   4.893   6.352
 6038SOL     OW19012   1.053   3.567   6.101
 6038SOL    HW119013   1.138   3.618   6.119
 6038SOL    HW219014   0.975   3.620   6.135
 6039SOL     OW19015   3.354   3.139   2.999
 6039SOL    HW119016   3.292   3.088   2.940
 6039SOL    HW219017   3.302   3.187   3.070
 6040SOL     OW19018   0.564   1.869   6.867
 6040SOL    HW119019   0.466   1.882   6.856
 6040SOL    HW219020   0.611   1.958   6.860
 6041SOL     OW19021   2.315   1.606   5.308
 6041SOL    HW119022   2.270   1.518   5.318
 6041SOL    HW219023   2.296   1.662   5.389
 6042SOL     OW19024   5.035   5.153   1.732
 6042SOL    HW119025   5.085   5.217   1.790
 6042SOL    HW219026   5.098   5.086   1.692
 6043SOL     OW19027   1.097   4.874   5.209
 6043SOL    HW119028   1.116   4.776   5.213
 6043SOL    HW219029   1.057   4.896   5.120
 6044SOL     OW19030   1.055   2.245   1.050
 6044SOL    HW119031   1.109   2.285   0.976
 6044SOL    HW219032   1.003   2.317   1.096
 6045SOL     OW19033   5.792   6.128   1.187
 6045SOL    HW119034   5.724   6.141   1.259
 6045SOL    HW219035   5.832   6.036   1.195
 6046SOL     OW19036   2.944   1.945   0.899
 6046SOL    HW119037   2.874   1.880   0.929
 6046SOL    HW219038   3.002   1.970   0.976
 6047SOL     OW19039   6.567   1.347   2.476
 6047SOL    HW119040   6.476   1.345   2.518
 6047SOL    HW219041   6.560   1.382   2.383
 6048SOL     OW19042   4.798   6.355   3.737
 6048SOL    HW119043   4.744   6.285   3.785
 6048SOL    HW219044   4.737   6.411   3.681
 6049SOL     OW19045   5.338   4.140   5.558
 6049SOL    HW119046   5.375   4.171   5.646
 6049SOL    HW219047   5.246   4.177   5.547
 6050SOL     OW19048   3.464   4.422   5.709
 6050SOL    HW119049   3.465   4.323   5.695
 6050SOL    HW219050   3.433   4.467   5.625
 6051SOL     OW19051   2.598   1.843   3.747
 6051SOL    HW119052   2.575   1.938   3.727
 6051SOL    HW219053   2.692   1.825   3.719
 6052SOL     OW19054   6.349   6.586   6.998
 6052SOL    HW119055   6.381   6.525   0.050
 6052SOL    HW219056   6.261   6.625   0.003
 6053SOL     OW19057   3.769   0.900   0.094
 6053SOL    HW119058   3.809   0.826   0.148
 6053SOL    HW219059   3.769   0.874   7.019
 6054SOL     OW19060   2.518   4.174   0.538
 6054SOL    HW119061   2.455   4.145   0.466
 6054SOL    HW219062   2.508   4.114   0.617
 6055SOL     OW19063   5.584   1.332   5.936
 6055SOL    HW119064   5.630   1.302   5.852
 6055SOL    HW219065   5.651   1.336   6.010
 6056SOL     OW19066   5.357   3.245   4.883
 6056SOL    HW119067   5.326   3.337   4.860
 6056SOL    HW219068   5.301   3.208   4.957
 6057SOL     OW19069   5.433   2.833   4.547
 6057SOL    HW119070   5.340   2.799   4.549
 6057SOL    HW219071   5.436   2.918   4.494
 6058SOL     OW19072   5.275   2.715   2.517
 6058SOL    HW119073   5.241   2.769   2.440
 6058SOL    HW219074   5.272   2.618   2.494
 6059SOL     OW19075   4.606   6.137   5.591
 6059SOL    HW119076   4.579   6.219   5.643
 6059SOL    HW219077   4.656   6.165   5.509
 6060SOL     OW19078   2.625   4.293   5.971
 6060SOL    HW119079   2.580   4.364   6.025
 6060SOL    HW219080   2.613   4.205   6.016
 6061SOL     OW19081   4.413   2.441   6.886
 6061SOL    HW119082   4.443   2.529   6.849
 6061SOL    HW219083   4.332   2.410   6.836
 6062SOL     OW19084   2.082   0.550   4.320
 6062SOL    HW119085   2.178   0.526   4.300
 6062SOL    HW219086   2.069   0.648   4.308
 6063SOL     OW19087   3.916   1.355   6.683
 6063SOL    HW119088   3.845   1.330   6.617
 6063SOL    HW219089   3.905   1.299   6.766
 6064SOL     OW19090   2.532   6.031   2.204
 6064SOL    HW119091   2.591   6.111   2.192
 6064SOL    HW219092   2.535   5.975   2.121
 6065SOL     OW19093   5.557   0.336   2.690
 6065SOL    HW119094   5.654   0.360   2.696
 6065SOL    HW219095   5.548   0.238   2.674
 6066SOL     OW19096   4.485   1.713   0.423
 6066SOL    HW119097   4.514   1.696   0.329
 6066SOL    HW219098   4.394   1.675   0.437
 6067SOL     OW19099   5.508   2.338   6.772
 6067SOL    HW119100   5.464   2.294   6.694
 6067SOL    HW219101   5.562   2.270   6.823
 6068SOL     OW19102   5.908   2.658   4.646
 6068SOL    HW119103   5.938   2.700   4.731
 6068SOL    HW219104   5.922   2.722   4.570
 6069SOL     OW19105   0.464   3.611   5.556
 6069SOL    HW119106   0.372   3.597   5.593
 6069SOL    HW219107   0.532   3.601   5.628
 6070SOL     OW19108   2.203   1.596   6.022
 6070SOL    HW119109   2.259   1.630   6.098
 6070SOL    HW219110   2.263   1.564   5.949
 6071SOL     OW19111   4.843   5.732   4.932
 6071SOL    HW119112   4.760   5.736   4.987
 6071SOL    HW219113   4.883   5.640   4.938
 6072SOL     OW19114   0.415   0.828   1.858
 6072SOL    HW119115   0.315   0.819   1.855
 6072SOL    HW219116   0.441   0.922   1.835
 6073SOL     OW19117   6.602   4.091   0.511
 6073SOL    HW119118   6.670   4.113   0.581
 6073SOL    HW219119   6.517   4.063   0.554
 6074SOL     OW19120   0.964   6.673   4.454
 6074SOL    HW119121   0.888   6.688   4.391
 6074SOL    HW219122   0.966   6.577   4.482
 6075SOL     OW19123   0.201   2.299   6.522
 6075SOL    HW119124   0.129   2.334   6.582
 6075SOL    HW219125   0.269   2.372   6.506
 6076SOL     OW19126   2.791   5.904   5.285
 6076SOL    HW119127   2.851   5.825   5.285
 6076SOL    HW219128   2.801   5.954   5.199
 6077SOL     OW19129   4.827   5.651   1.931
 6077SOL    HW119130   4.916   5.696   1.920
 6077SOL    HW219131   4.842   5.556   1.959
 6078SOL     OW19132   3.849   4.854   1.930
 6078SOL    HW119133   3.765   4.808   1.958
 6078SOL    HW219134   3.898   4.797   1.865
 6079SOL     OW19135   3.289   3.528   6.053
 6079SOL    HW119136   3.372   3.583   6.048
 6079SOL    HW219137   3.296   3.452   5.988
 6080SOL     OW19138   0.251   1.357   2.181
 6080SOL    HW119139   0.201   1.279   2.217
 6080SOL    HW219140   0.247   1.433   2.247
 6081SOL     OW19141   6.126   3.567   4.556
 6081SOL    HW119142   6.176   3.640   4.602
 6081SOL    HW219143   6.190   3.495   4.527
 6082SOL     OW19144   3.562   1.545   3.789
 6082SOL    HW119145   3.652   1.578   3.817
 6082SOL    HW219146   3.510   1.620   3.749
 6083SOL     OW19147   0.769   5.939   6.322
 6083SOL    HW119148   0.713   6.020   6.305
 6083SOL    HW219149   0.711   5.864   6.354
 6084SOL     OW19150   0.328   5.542   4.004
 6084SOL    HW119151   0.347   5.607   4.078
 6084SOL    HW219152   0.245   5.490   4.025
 6085SOL     OW19153   0.031   4.249   0.225
 6085SOL    HW119154   6.961   4.222   0.194
 6085SOL    HW219155   0.063   4.183   0.293
 6086SOL     OW19156   2.931   1.487   5.527
 6086SOL    HW119157   2.897   1.500   5.434
 6086SOL    HW219158   2.860   1.441   5.582
 6087SOL     OW19159   5.109   6.461   6.563
 6087SOL    HW119160   5.098   6.541   6.621
 6087SOL    HW219161   5.028   6.403   6.569
 6088SOL     OW19162   6.337   5.814   4.554
 6088SOL    HW119163   6.401   5.826   4.478
 6088SOL    HW219164   6.344   5.721   4.590
 6089SOL     OW19165   0.593   3.466   1.222
 6089SOL    HW119166   0.631   3.384   1.264
 6089SOL    HW219167   0.667   3.520   1.183
 6090SOL     OW19168   1.598   6.386   5.858
 6090SOL    HW119169   1.651   6.471   5.866
 6090SOL    HW219170   1.521   6.390   5.922
 6091SOL     OW19171   1.383   1.910   2.542
 6091SOL    HW119172   1.475   1.892   2.576
 6091SOL    HW219173   1.388   1.974   2.465
 6092SOL     OW19174   2.973   0.080   3.060
 6092SOL    HW119175   2.878   0.054   3.043
 6092SOL    HW219176   3.033   0.019   3.009
 6093SOL     OW19177   1.228   2.595   2.889
 6093SOL    HW119178   1.210   2.514   2.833
 6093SOL    HW219179   1.165   2.668   2.863
 6094SOL     OW19180   3.605   1.107   0.710
 6094SOL    HW119181   3.655   1.046   0.772
 6094SOL    HW219182   3.513   1.071   0.694
 6095SOL     OW19183   5.144   2.617   6.610
 6095SOL    HW119184   5.082   2.668   6.671
 6095SOL    HW219185   5.163   2.528   6.650
 6096SOL     OW19186   5.837   0.406   4.275
 6096SOL    HW119187   5.764   0.343   4.303
 6096SOL    HW219188   5.834   0.418   4.176
 6097SOL     OW19189   1.606   0.388   2.111
 6097SOL    HW119190   1.693   0.342   2.129
 6097SOL    HW219191   1.543   0.324   2.067
 6098SOL     OW19192   1.471   2.453   5.928
 6098SOL    HW119193   1.506   2.489   6.014
 6098SOL    HW219194   1.404   2.517   5.890
 6099SOL     OW19195   6.321   5.809   0.054
 6099SOL    HW119196   6.310   5.737   7.008
 6099SOL    HW219197   6.278   5.893   0.021
 6100SOL     OW19198   5.806   2.786   6.778
 6100SOL    HW119199   5.800   2.687   6.770
 6100SOL    HW219200   5.851   2.810   6.863
 6101SOL     OW19201   6.403   1.708   5.223
 6101SOL    HW119202   6.364   1.794   5.190
 6101SOL    HW219203   6.331   1.641   5.238
 6102SOL     OW19204   4.328   0.914   3.754
 6102SOL    HW119205   4.326   0.985   3.683
 6102SOL    HW219206   4.239   0.870   3.760
 6103SOL     OW19207   0.071   0.973   3.476
 6103SOL    HW119208   0.052   1.021   3.562
 6103SOL    HW219209   0.020   1.017   3.402
 6104SOL     OW19210   6.755   2.623   6.044
 6104SOL    HW119211   6.793   2.623   5.951
 6104SOL    HW219212   6.717   2.532   6.064
 6105SOL     OW19213   2.874   6.864   6.195
 6105SOL    HW119214   2.779   6.841   6.174
 6105SOL    HW219215   2.881   6.896   6.289
 6106SOL     OW19216   1.397   4.733   5.725
 6106SOL    HW119217   1.385   4.689   5.814
 6106SOL    HW219218   1.408   4.832   5.739
 6107SOL     OW19219   2.471   5.212   4.459
 6107SOL    HW119220   2.400   5.206   4.528
 6107SOL    HW219221   2.504   5.307   4.453
 6108SOL     OW19222   0.594   2.394   3.284
 6108SOL    HW119223   0.555   2.307   3.314
 6108SOL    HW219224   0.684   2.378   3.242
 6109SOL     OW19225   5.451   3.019   6.501
 6109SOL    HW119226   5.529   2.992   6.558
 6109SOL    HW219227   5.367   3.015   6.556
 6110SOL     OW19228   3.434   3.261   0.010
 6110SOL    HW119229   3.440   3.232   6.936
 6110SOL    HW219230   3.481   3.348   0.021
 6111SOL     OW19231   1.966   4.779   2.502
 6111SOL    HW119232   2.030   4.725   2.448
 6111SOL    HW219233   1.873   4.742   2.491
 6112SOL     OW19234   3.297   1.252   3.181
 6112SOL    HW119235   3.326   1.282   3.272
 6112SOL    HW219236   3.236   1.173   3.190
 6113SOL     OW19237   0.143   0.705   5.727
 6113SOL    HW119238   0.123   0.629   5.789
 6113SOL    HW219239   0.240   0.727   5.732
 6114SOL     OW19240   5.173   4.482   1.106
 6114SOL    HW119241   5.099   4.417   1.089
 6114SOL    HW219242   5.222   4.500   1.021
 6115SOL     OW19243   5.509   5.995   2.748
 6115SOL    HW119244   5.414   6.021   2.764
 6115SOL    HW219245   5.559   6.073   2.711
 6116SOL     OW19246   2.834   1.342   1.412
 6116SOL    HW119247   2.771   1.334   1.334
 6116SOL    HW219248   2.788   1.391   1.486
 6117SOL     OW19249   0.332   0.451   5.680
 6117SOL    HW119250   0.298   0.452   5.586
 6117SOL    HW219251   0.257   0.469   5.743
 6118SOL     OW19252   6.821   1.329   1.767
 6118SOL    HW119253   6.739   1.271   1.773
 6118SOL    HW219254   6.901   1.277   1.797
 6119SOL     OW19255   0.612   3.583   4.069
 6119SOL    HW119256   0.698   3.541   4.039
 6119SOL    HW219257   0.630   3.674   4.106
 6120SOL     OW19258   3.663   6.942   3.428
 6120SOL    HW119259   3.575   6.989   3.433
 6120SOL    HW219260   3.652   6.857   3.376
 6121SOL     OW19261   0.118   2.863   4.277
 6121SOL    HW119262   0.169   2.893   4.358
 6121SOL    HW219263   0.154   2.775   4.246
 6122SOL     OW19264   3.297   6.546   1.608
 6122SOL    HW119265   3.228   6.512   1.544
 6122SOL    HW219266   3.251   6.582   1.689
 6123SOL     OW19267   6.506   0.401   0.287
 6123SOL    HW119268   6.580   0.447   0.335
 6123SOL    HW219269   6.534   0.308   0.263
 6124SOL     OW19270   3.404   0.566   5.629
 6124SOL    HW119271   3.413   0.574   5.728
 6124SOL    HW219272   3.325   0.508   5.608
 6125SOL     OW19273   2.412   5.842   1.017
 6125SOL    HW119274   2.315   5.821   1.000
 6125SOL    HW219275   2.463   5.836   0.931
 6126SOL     OW19276   5.902   6.477   4.422
 6126SOL    HW119277   5.939   6.416   4.493
 6126SOL    HW219278   5.917   6.437   4.332
 6127SOL     OW19279   2.069   6.942   2.192
 6127SOL    HW119280   2.151   6.988   2.227
 6127SOL    HW219281   1.988   6.993   2.220
 6128SOL     OW19282   6.764   3.361   0.501
 6128SOL    HW119283   6.684   3.308   0.527
 6128SOL    HW219284   6.736   3.438   0.444
 6129SOL     OW19285   5.959   4.596   3.319
 6129SOL    HW119286   5.951   4.616   3.417
 6129SOL    HW219287   5.945   4.498   3.304
 6130SOL     OW19288   5.784   2.035   3.869
 6130SOL    HW119289   5.831   2.023   3.956
 6130SOL    HW219290   5.789   1.950   3.816
 6131SOL     OW19291   0.022   1.671   5.578
 6131SOL    HW119292   0.049   1.742   5.513
 6131SOL    HW219293   0.090   1.598   5.578
 6132SOL     OW19294   4.716   1.117   0.729
 6132SOL    HW119295   4.660   1.077   0.656
 6132SOL    HW219296   4.733   1.048   0.799
 6133SOL     OW19297   1.050   3.124   2.586
 6133SOL    HW119298   1.020   3.196   2.648
 6133SOL    HW219299   1.067   3.040   2.637
 6134SOL     OW19300   3.486   4.241   7.012
 6134SOL    HW119301   3.475   4.148   6.976
 6134SOL    HW219302   3.436   4.250   0.076
 6135SOL     OW19303   6.968   6.676   2.214
 6135SOL    HW119304   6.878   6.663   2.255
 6135SOL    HW219305   0.001   6.737   2.271
 6136SOL     OW19306   0.612   2.229   2.046
 6136SOL    HW119307   0.522   2.259   2.076
 6136SOL    HW219308   0.636   2.275   1.960
 6137SOL     OW19309   4.251   1.450   5.093
 6137SOL    HW119310   4.174   1.443   5.156
 6137SOL    HW219311   4.326   1.500   5.137
 6138SOL     OW19312   3.871   6.501   2.789
 6138SOL    HW119313   3.817   6.425   2.827
 6138SOL    HW219314   3.847   6.512   2.692
 6139SOL     OW19315   2.146   3.257   4.652
 6139SOL    HW119316   2.133   3.327   4.722
 6139SOL    HW219317   2.241   3.255   4.623
 6140SOL     OW19318   0.577   6.528   1.506
 6140SOL    HW119319   0.508   6.527   1.434
 6140SOL    HW219320   0.627   6.442   1.506
 6141SOL     OW19321   6.047   6.389   5.249
 6141SOL    HW119322   5.999   6.404   5.163
 6141SOL    HW219323   6.024   6.299   5.284
 6142SOL     OW19324   6.901   5.288   1.009
 6142SOL    HW119325   6.825   5.252   1.063
 6142SOL    HW219326   6.959   5.345   1.067
 6143SOL     OW19327   6.259   5.058   6.661
 6143SOL    HW119328   6.187   5.114   6.620
 6143SOL    HW219329   6.271   4.975   6.606
 6144SOL     OW19330   6.333   4.780   2.416
 6144SOL    HW119331   6.401   4.851   2.401
 6144SOL    HW219332   6.366   4.715   2.483
 6145SOL     OW19333   4.870   6.140   4.032
 6145SOL    HW119334   4.956   6.140   3.980
 6145SOL    HW219335   4.793   6.146   3.968
 6146SOL     OW19336   3.917   1.190   3.324
 6146SOL    HW119337   3.967   1.171   3.409
 6146SOL    HW219338   3.860   1.112   3.300
 6147SOL     OW19339   1.811   4.284   3.919
 6147SOL    HW119340   1.732   4.270   3.978
 6147SOL    HW219341   1.873   4.205   3.926
 6148SOL     OW19342   6.886   0.217   4.944
 6148SOL    HW119343   6.897   0.316   4.950
 6148SOL    HW219344   6.967   0.177   4.900
 6149SOL     OW19345   3.496   4.897   3.078
 6149SOL    HW119346   3.487   4.879   2.979
 6149SOL    HW219347   3.413   4.865   3.125
 6150SOL     OW19348   4.036   5.260   6.795
 6150SOL    HW119349   4.071   5.261   6.889
 6150SOL    HW219350   4.088   5.195   6.741
 6151SOL     OW19351   6.121   4.104   4.464
 6151SOL    HW119352   6.037   4.057   4.490
 6151SOL    HW219353   6.117   4.131   4.368
 6152SOL     OW19354   5.770   4.854   5.333
 6152SOL    HW119355   5.741   4.907   5.412
 6152SOL    HW219356   5.699   4.788   5.309
 6153SOL     OW19357   4.482   3.782   1.585
 6153SOL    HW119358   4.570   3.759   1.627
 6153SOL    HW219359   4.483   3.879   1.558
 6154SOL     OW19360   5.056   1.497   2.336
 6154SOL    HW119361   5.102   1.581   2.307
 6154SOL    HW219362   4.989   1.471   2.266
 6155SOL     OW19363   1.606   2.347   4.492
 6155SOL    HW119364   1.540   2.418   4.465
 6155SOL    HW219365   1.665   2.382   4.564
 6156SOL     OW19366   4.449   5.020   2.563
 6156SOL    HW119367   4.460   4.944   2.499
 6156SOL    HW219368   4.371   5.002   2.623
 6157SOL     OW19369   0.858   1.445   3.950
 6157SOL    HW119370   0.882   1.417   4.043
 6157SOL    HW219371   0.759   1.439   3.938
 6158SOL     OW19372   4.310   0.572   6.391
 6158SOL    HW119373   4.224   0.623   6.394
 6158SOL    HW219374   4.386   0.635   6.376
 6159SOL     OW19375   4.628   2.424   0.364
 6159SOL    HW119376   4.706   2.386   0.414
 6159SOL    HW219377   4.617   2.376   0.277
 6160SOL     OW19378   5.594   5.978   0.771
 6160SOL    HW119379   5.553   5.976   0.680
 6160SOL    HW219380   5.670   5.913   0.774
 6161SOL     OW19381   6.170   1.814   5.913
 6161SOL    HW119382   6.155   1.894   5.970
 6161SOL    HW219383   6.212   1.741   5.968
 6162SOL     OW19384   0.898   5.248   4.226
 6162SOL    HW119385   0.801   5.255   4.202
 6162SOL    HW219386   0.939   5.339   4.229
 6163SOL     OW19387   5.132   5.955   1.715
 6163SOL    HW119388   5.130   5.902   1.630
 6163SOL    HW219389   5.047   6.008   1.723
 6164SOL     OW19390   1.817   3.418   1.707
 6164SOL    HW119391   1.883   3.379   1.772
 6164SOL    HW219392   1.740   3.458   1.758
 6165SOL     OW19393   3.672   6.979   6.539
 6165SOL    HW119394   3.593   0.020   6.537
 6165SOL    HW219395   3.716   6.984   6.629
 6166SOL     OW19396   3.896   0.880   5.136
 6166SOL    HW119397   3.988   0.915   5.155
 6166SOL    HW219398   3.904   0.794   5.084
 6167SOL     OW19399   6.901   4.520   2.197
 6167SOL    HW119400   6.875   4.427   2.223
 6167SOL    HW219401   6.877   4.584   2.270
 6168SOL     OW19402   0.334   3.978   0.954
 6168SOL    HW119403   0.321   4.074   0.931
 6168SOL    HW219404   0.246   3.935   0.975
 6169SOL     OW19405   0.754   3.545   2.610
 6169SOL    HW119406   0.775   3.511   2.518
 6169SOL    HW219407   0.776   3.642   2.617
 6170SOL     OW19408   0.584   3.460   4.978
 6170SOL    HW119409   0.662   3.482   4.919
 6170SOL    HW219410   0.618   3.443   5.071
 6171SOL     OW19411   0.624   1.584   0.221
 6171SOL    HW119412   0.570   1.561   0.141
 6171SOL    HW219413   0.703   1.523   0.227
 6172SOL     OW19414   1.447   2.833   2.550
 6172SOL    HW119415   1.415   2.739   2.562
 6172SOL    HW219416   1.522   2.851   2.614
 6173SOL     OW19417   6.392   5.538   3.544
 6173SOL    HW119418   6.335   5.501   3.470
 6173SOL    HW219419   6.399   5.638   3.535
 6174SOL     OW19420   4.573   5.182   3.963
 6174SOL    HW119421   4.514   5.246   3.914
 6174SOL    HW219422   4.651   5.158   3.905
 6175SOL     OW19423   3.545   0.913   4.281
 6175SOL    HW119424   3.626   0.948   4.327
 6175SOL    HW219425   3.463   0.940   4.332
 6176SOL     OW19426   4.525   4.049   5.407
 6176SOL    HW119427   4.569   3.968   5.445
 6176SOL    HW219428   4.434   4.025   5.373
 6177SOL     OW19429   4.958   2.296   1.590
 6177SOL    HW119430   5.032   2.363   1.606
 6177SOL    HW219431   4.998   2.208   1.564
 6178SOL     OW19432   4.875   3.641   1.833
 6178SOL    HW119433   4.879   3.627   1.932
 6178SOL    HW219434   4.830   3.563   1.790
 6179SOL     OW19435   6.585   4.880   1.917
 6179SOL    HW119436   6.581   4.859   1.819
 6179SOL    HW219437   6.635   4.808   1.965
 6180SOL     OW19438   3.549   4.950   0.750
 6180SOL    HW119439   3.465   4.965   0.697
 6180SOL    HW219440   3.628   4.981   0.696
 6181SOL     OW19441   4.553   6.361   5.779
 6181SOL    HW119442   4.609   6.296   5.831
 6181SOL    HW219443   4.536   6.442   5.836
 6182SOL     OW19444   4.437   2.606   6.642
 6182SOL    HW119445   4.532   2.612   6.612
 6182SOL    HW219446   4.376   2.610   6.563
 6183SOL     OW19447   2.353   1.991   1.760
 6183SOL    HW119448   2.298   1.939   1.826
 6183SOL    HW219449   2.373   2.081   1.798
 6184SOL     OW19450   3.040   0.277   6.225
 6184SOL    HW119451   2.993   0.254   6.140
 6184SOL    HW219452   2.978   0.266   6.302
 6185SOL     OW19453   2.072   4.529   5.834
 6185SOL    HW119454   2.032   4.520   5.743
 6185SOL    HW219455   2.104   4.439   5.864
 6186SOL     OW19456   6.680   1.048   1.836
 6186SOL    HW119457   6.628   1.064   1.920
 6186SOL    HW219458   6.774   1.021   1.859
 6187SOL     OW19459   4.866   3.225   5.049
 6187SOL    HW119460   4.843   3.295   5.117
 6187SOL    HW219461   4.878   3.268   4.959
 6188SOL     OW19462   1.604   1.752   5.472
 6188SOL    HW119463   1.672   1.777   5.541
 6188SOL    HW219464   1.648   1.748   5.382
 6189SOL     OW19465   3.396   5.483   2.548
 6189SOL    HW119466   3.401   5.453   2.643
 6189SOL    HW219467   3.419   5.407   2.487
 6190SOL     OW19468   6.134   2.686   5.263
 6190SOL    HW119469   6.169   2.714   5.173
 6190SOL    HW219470   6.192   2.614   5.301
 6191SOL     OW19471   2.434   3.115   5.793
 6191SOL    HW119472   2.359   3.135   5.730
 6191SOL    HW219473   2.521   3.140   5.750
 6192SOL     OW19474   2.625   2.063   6.214
 6192SOL    HW119475   2.712   2.109   6.197
 6192SOL    HW219476   2.563   2.079   6.137
 6193SOL     OW19477   4.950   6.001   0.886
 6193SOL    HW119478   5.024   6.065   0.908
 6193SOL    HW219479   4.960   5.918   0.940
 6194SOL     OW19480   6.401   0.435   6.329
 6194SOL    HW119481   6.478   0.490   6.297
 6194SOL    HW219482   6.356   0.481   6.406
 6195SOL     OW19483   5.862   6.444   5.058
 6195SOL    HW119484   5.781   6.408   5.104
 6195SOL    HW219485   5.834   6.506   4.985
 6196SOL     OW19486   4.657   4.422   2.378
 6196SOL    HW119487   4.677   4.410   2.281
 6196SOL    HW219488   4.566   4.462   2.388
 6197SOL     OW19489   2.544   5.396   2.685
 6197SOL    HW119490   2.625   5.341   2.706
 6197SOL    HW219491   2.503   5.429   2.770
 6198SOL     OW19492   5.259   6.321   0.173
 6198SOL    HW119493   5.273   6.346   0.078
 6198SOL    HW219494   5.344   6.282   0.210
 6199SOL     OW19495   0.369   1.334   0.290
 6199SOL    HW119496   0.451   1.332   0.348
 6199SOL    HW219497   0.386   1.392   0.210
 6200SOL     OW19498   0.953   1.657   3.503
 6200SOL    HW119499   0.995   1.709   3.428
 6200SOL    HW219500   0.944   1.561   3.477
 6201SOL     OW19501   0.799   3.819   3.859
 6201SOL    HW119502   0.867   3.849   3.925
 6201SOL    HW219503   0.709   3.818   3.902
 6202SOL     OW19504   5.876   1.346   2.604
 6202SOL    HW119505   5.866   1.329   2.702
 6202SOL    HW219506   5.869   1.444   2.586
 6203SOL     OW19507   5.929   5.548   2.032
 6203SOL    HW119508   5.945   5.455   2.000
 6203SOL    HW219509   5.986   5.566   2.113
 6204SOL     OW19510   1.052   6.238   5.273
 6204SOL    HW119511   0.987   6.303   5.313
 6204SOL    HW219512   1.129   6.226   5.336
 6205SOL     OW19513   5.221   4.355   1.735
 6205SOL    HW119514   5.219   4.258   1.759
 6205SOL    HW219515   5.201   4.366   1.638
 6206SOL     OW19516   5.722   1.845   3.226
 6206SOL    HW119517   5.819   1.832   3.206
 6206SOL    HW219518   5.708   1.849   3.325
 6207SOL     OW19519   1.908   5.964   5.126
 6207SOL    HW119520   1.876   5.877   5.163
 6207SOL    HW219521   1.921   6.030   5.200
 6208SOL     OW19522   3.310   2.184   5.705
 6208SOL    HW119523   3.291   2.210   5.610
 6208SOL    HW219524   3.401   2.216   5.730
 6209SOL     OW19525   3.325   5.238   0.657
 6209SOL    HW119526   3.254   5.308   0.662
 6209SOL    HW219527   3.292   5.161   0.602
 6210SOL     OW19528   5.353   3.814   2.845
 6210SOL    HW119529   5.353   3.714   2.844
 6210SOL    HW219530   5.445   3.848   2.864
 6211SOL     OW19531   4.294   6.130   6.048
 6211SOL    HW119532   4.377   6.082   6.075
 6211SOL    HW219533   4.316   6.225   6.023
 6212SOL     OW19534   2.537   4.972   4.632
 6212SOL    HW119535   2.573   5.063   4.608
 6212SOL    HW219536   2.518   4.968   4.730
 6213SOL     OW19537   4.911   6.716   6.995
 6213SOL    HW119538   4.905   6.704   0.073
 6213SOL    HW219539   4.851   6.791   6.967
 6214SOL     OW19540   5.669   5.616   5.771
 6214SOL    HW119541   5.603   5.680   5.733
 6214SOL    HW219542   5.669   5.622   5.871
 6215SOL     OW19543   4.223   3.139   6.404
 6215SOL    HW119544   4.268   3.095   6.327
 6215SOL    HW219545   4.284   3.206   6.445
 6216SOL     OW19546   6.078   2.445   3.208
 6216SOL    HW119547   6.171   2.430   3.241
 6216SOL    HW219548   6.034   2.516   3.263
 6217SOL     OW19549   1.096   5.010   2.170
 6217SOL    HW119550   1.110   5.103   2.137
 6217SOL    HW219551   1.146   4.946   2.111
 6218SOL     OW19552   4.118   6.446   0.432
 6218SOL    HW119553   4.216   6.433   0.444
 6218SOL    HW219554   4.079   6.485   0.516
 6219SOL     OW19555   1.968   0.657   5.494
 6219SOL    HW119556   1.941   0.724   5.563
 6219SOL    HW219557   1.955   0.697   5.403
 6220SOL     OW19558   3.399   1.187   6.839
 6220SOL    HW119559   3.415   1.121   6.766
 6220SOL    HW219560   3.301   1.206   6.846
 6221SOL     OW19561   6.106   6.660   0.056
 6221SOL    HW119562   6.065   6.638   6.989
 6221SOL    HW219563   6.053   6.731   0.102
 6222SOL     OW19564   5.912   0.557   2.341
 6222SOL    HW119565   5.845   0.510   2.283
 6222SOL    HW219566   5.967   0.488   2.389
 6223SOL     OW19567   0.962   5.444   3.688
 6223SOL    HW119568   1.029   5.374   3.661
 6223SOL    HW219569   1.011   5.526   3.717
 6224SOL     OW19570   4.300   1.331   5.734
 6224SOL    HW119571   4.369   1.318   5.662
 6224SOL    HW219572   4.295   1.429   5.757
 6225SOL     OW19573   4.007   1.970   6.368
 6225SOL    HW119574   4.026   1.965   6.466
 6225SOL    HW219575   3.970   1.882   6.336
 6226SOL     OW19576   1.336   1.720   3.889
 6226SOL    HW119577   1.263   1.694   3.952
 6226SOL    HW219578   1.305   1.795   3.831
 6227SOL     OW19579   3.201   4.713   5.259
 6227SOL    HW119580   3.127   4.679   5.200
 6227SOL    HW219581   3.263   4.768   5.204
 6228SOL     OW19582   0.561   2.304   4.317
 6228SOL    HW119583   0.565   2.357   4.233
 6228SOL    HW219584   0.466   2.291   4.344
 6229SOL     OW19585   0.074   2.700   5.194
 6229SOL    HW119586   0.087   2.602   5.182
 6229SOL    HW219587   0.060   2.721   5.291
 6230SOL     OW19588   1.014   2.149   3.596
 6230SOL    HW119589   0.968   2.093   3.527
 6230SOL    HW219590   0.952   2.164   3.673
 6231SOL     OW19591   5.317   5.253   0.397
 6231SOL    HW119592   5.364   5.301   0.323
 6231SOL    HW219593   5.287   5.319   0.466
 6232SOL     OW19594   5.819   1.184   0.743
 6232SOL    HW119595   5.744   1.233   0.700
 6232SOL    HW219596   5.793   1.088   0.756
 6233SOL     OW19597   0.215   3.440   2.120
 6233SOL    HW119598   0.180   3.462   2.029
 6233SOL    HW219599   0.314   3.429   2.115
 6234SOL     OW19600   0.379   0.158   5.392
 6234SOL    HW119601   0.433   0.157   5.477
 6234SOL    HW219602   0.433   0.200   5.319
 6235SOL     OW19603   6.992   0.788   1.943
 6235SOL    HW119604   0.002   0.760   1.853
 6235SOL    HW219605   6.983   0.887   1.946
 6236SOL     OW19606   6.840   4.454   0.594
 6236SOL    HW119607   6.766   4.391   0.570
 6236SOL    HW219608   6.818   4.500   0.680
 6237SOL     OW19609   3.189   0.046   0.251
 6237SOL    HW119610   3.206   6.987   0.308
 6237SOL    HW219611   3.248   0.043   0.170
 6238SOL     OW19612   3.669   6.686   3.325
 6238SOL    HW119613   3.718   6.651   3.245
 6238SOL    HW219614   3.703   6.640   3.407
 6239SOL     OW19615   3.511   0.137   1.539
 6239SOL    HW119616   3.533   0.194   1.619
 6239SOL    HW219617   3.456   0.059   1.569
 6240SOL     OW19618   3.196   4.109   4.759
 6240SOL    HW119619   3.182   4.192   4.813
 6240SOL    HW219620   3.169   4.029   4.813
 6241SOL     OW19621   4.008   0.175   3.618
 6241SOL    HW119622   4.003   0.147   3.714
 6241SOL    HW219623   3.992   0.096   3.559
 6242SOL     OW19624   2.228   1.548   3.616
 6242SOL    HW119625   2.158   1.502   3.671
 6242SOL    HW219626   2.310   1.561   3.671
 6243SOL     OW19627   6.753   0.778   5.557
 6243SOL    HW119628   6.659   0.746   5.563
 6243SOL    HW219629   6.774   0.802   5.463
 6244SOL     OW19630   5.131   3.951   3.000
 6244SOL    HW119631   5.182   3.868   2.977
 6244SOL    HW219632   5.076   3.979   2.921
 6245SOL     OW19633   0.831   5.124   1.897
 6245SOL    HW119634   0.893   5.050   1.873
 6245SOL    HW219635   0.876   5.186   1.961
 6246SOL     OW19636   0.926   0.032   4.505
 6246SOL    HW119637   0.973   7.020   4.587
 6246SOL    HW219638   0.972   7.018   4.424
 6247SOL     OW19639   1.299   5.593   3.098
 6247SOL    HW119640   1.342   5.598   3.188
 6247SOL    HW219641   1.367   5.612   3.028
 6248SOL     OW19642   3.544   3.505   0.051
 6248SOL    HW119643   3.507   3.543   0.136
 6248SOL    HW219644   3.618   3.564   0.017
 6249SOL     OW19645   0.173   2.571   1.550
 6249SOL    HW119646   0.114   2.531   1.480
 6249SOL    HW219647   0.254   2.610   1.508
 6250SOL     OW19648   0.274   6.605   0.895
 6250SOL    HW119649   0.279   6.705   0.889
 6250SOL    HW219650   0.238   6.568   0.809
 6251SOL     OW19651   3.782   5.917   4.385
 6251SOL    HW119652   3.845   5.968   4.327
 6251SOL    HW219653   3.779   5.959   4.476
 6252SOL     OW19654   2.854   5.079   0.062
 6252SOL    HW119655   2.800   5.015   0.117
 6252SOL    HW219656   2.798   5.158   0.038
 6253SOL     OW19657   2.582   4.879   4.904
 6253SOL    HW119658   2.563   4.953   4.969
 6253SOL    HW219659   2.533   4.797   4.933
 6254SOL     OW19660   0.967   6.026   1.349
 6254SOL    HW119661   0.984   5.993   1.256
 6254SOL    HW219662   1.013   6.114   1.362
 6255SOL     OW19663   1.505   2.828   0.735
 6255SOL    HW119664   1.454   2.913   0.727
 6255SOL    HW219665   1.560   2.829   0.819
 6256SOL     OW19666   4.715   5.558   2.506
 6256SOL    HW119667   4.618   5.570   2.529
 6256SOL    HW219668   4.772   5.583   2.584
 6257SOL     OW19669   3.996   3.355   0.346
 6257SOL    HW119670   3.911   3.305   0.361
 6257SOL    HW219671   4.050   3.356   0.431
 6258SOL     OW19672   3.438   0.081   5.515
 6258SOL    HW119673   3.477   0.134   5.590
 6258SOL    HW219674   3.381   0.141   5.458
 6259SOL     OW19675   1.674   1.620   5.815
 6259SOL    HW119676   1.655   1.712   5.779
 6259SOL    HW219677   1.609   1.598   5.887
 6260SOL     OW19678   1.934   0.432   0.932
 6260SOL    HW119679   1.879   0.394   1.006
 6260SOL    HW219680   1.919   0.380   0.848
 6261SOL     OW19681   5.110   6.970   1.305
 6261SOL    HW119682   5.088   6.943   1.211
 6261SOL    HW219683   5.142   0.043   1.306
 6262SOL     OW19684   0.325   6.505   3.182
 6262SOL    HW119685   0.331   6.459   3.270
 6262SOL    HW219686   0.375   6.591   3.186
 6263SOL     OW19687   6.958   6.482   4.603
 6263SOL    HW119688   6.904   6.408   4.562
 6263SOL    HW219689   7.007   6.447   4.683
 6264SOL     OW19690   0.961   6.916   1.516
 6264SOL    HW119691   0.981   6.961   1.603
 6264SOL    HW219692   0.899   6.839   1.532
 6265SOL     OW19693   4.137   2.661   0.480
 6265SOL    HW119694   4.105   2.578   0.526
 6265SOL    HW219695   4.075   2.737   0.502
 6266SOL     OW19696   3.778   6.570   3.104
 6266SOL    HW119697   3.776   6.587   3.006
 6266SOL    HW219698   3.737   6.481   3.123
 6267SOL     OW19699   1.287   6.459   4.935
 6267SOL    HW119700   1.193   6.489   4.920
 6267SOL    HW219701   1.322   6.499   5.020
 6268SOL     OW19702   3.496   0.083   2.093
 6268SOL    HW119703   3.578   0.028   2.107
 6268SOL    HW219704   3.490   0.154   2.163
 6269SOL     OW19705   5.568   6.138   1.397
 6269SOL    HW119706   5.527   6.223   1.364
 6269SOL    HW219707   5.585   6.144   1.495
 6270SOL     OW19708   0.522   6.454   0.140
 6270SOL    HW119709   0.498   6.358   0.127
 6270SOL    HW219710   0.441   6.511   0.125
 6271SOL     OW19711   5.705   2.628   6.404
 6271SOL    HW119712   5.752   2.550   6.444
 6271SOL    HW219713   5.687   2.610   6.307
 6272SOL     OW19714   0.104   0.124   6.720
 6272SOL    HW119715   0.033   0.191   6.698
 6272SOL    HW219716   0.193   0.159   6.691
 6273SOL     OW19717   0.696   6.240   3.061
 6273SOL    HW119718   0.790   6.228   3.031
 6273SOL    HW219719   0.692   6.234   3.161
 6274SOL     OW19720   2.723   6.582   4.534
 6274SOL    HW119721   2.789   6.606   4.464
 6274SOL    HW219722   2.637   6.554   4.491
 6275SOL     OW19723   2.680   6.265   0.507
 6275SOL    HW119724   2.629   6.344   0.473
 6275SOL    HW219725   2.690   6.198   0.434
 6276SOL     OW19726   3.603   5.719   3.739
 6276SOL    HW119727   3.608   5.624   3.770
 6276SOL    HW219728   3.641   5.726   3.647
 6277SOL     OW19729   5.202   2.000   1.459
 6277SOL    HW119730   5.187   1.901   1.453
 6277SOL    HW219731   5.257   2.021   1.540
 6278SOL     OW19732   3.586   0.195   5.737
 6278SOL    HW119733   3.528   0.175   5.815
 6278SOL    HW219734   3.633   0.282   5.752
 6279SOL     OW19735   3.713   5.894   0.290
 6279SOL    HW119736   3.694   5.912   0.193
 6279SOL    HW219737   3.652   5.949   0.347
 6280SOL     OW19738   6.990   1.244   6.784
 6280SOL    HW119739   6.968   1.337   6.757
 6280SOL    HW219740   6.995   1.185   6.704
 6281SOL     OW19741   5.455   4.549   3.693
 6281SOL    HW119742   5.515   4.520   3.767
 6281SOL    HW219743   5.509   4.572   3.612
 6282SOL     OW19744   5.830   3.369   4.941
 6282SOL    HW119745   5.856   3.370   4.844
 6282SOL    HW219746   5.848   3.459   4.981
 6283SOL     OW19747   0.907   5.343   4.564
 6283SOL    HW119748   0.825   5.364   4.511
 6283SOL    HW219749   0.882   5.323   4.659
 6284SOL     OW19750   1.180   5.372   6.722
 6284SOL    HW119751   1.252   5.319   6.676
 6284SOL    HW219752   1.127   5.310   6.781
 6285SOL     OW19753   1.760   3.609   3.701
 6285SOL    HW119754   1.788   3.612   3.605
 6285SOL    HW219755   1.777   3.518   3.738
 6286SOL     OW19756   6.788   3.573   4.687
 6286SOL    HW119757   6.711   3.629   4.658
 6286SOL    HW219758   6.849   3.628   4.744
 6287SOL     OW19759   4.388   4.810   5.414
 6287SOL    HW119760   4.356   4.733   5.359
 6287SOL    HW219761   4.389   4.893   5.357
 6288SOL     OW19762   4.019   3.605   0.546
 6288SOL    HW119763   4.008   3.634   0.641
 6288SOL    HW219764   4.061   3.515   0.543
 6289SOL     OW19765   2.309   4.120   6.938
 6289SOL    HW119766   2.359   4.073   6.865
 6289SOL    HW219767   2.373   4.152   7.008
 6290SOL     OW19768   6.539   5.155   6.495
 6290SOL    HW119769   6.595   5.074   6.514
 6290SOL    HW219770   6.535   5.213   6.575
 6291SOL     OW19771   3.706   2.908   3.021
 6291SOL    HW119772   3.775   2.932   2.953
 6291SOL    HW219773   3.731   2.949   3.109
 6292SOL     OW19774   1.930   2.652   5.121
 6292SOL    HW119775   1.937   2.636   5.023
 6292SOL    HW219776   1.903   2.747   5.137
 6293SOL     OW19777   4.694   1.953   0.454
 6293SOL    HW119778   4.784   1.912   0.472
 6293SOL    HW219779   4.622   1.890   0.484
 6294SOL     OW19780   3.660   0.265   3.281
 6294SOL    HW119781   3.743   0.246   3.333
 6294SOL    HW219782   3.682   0.321   3.201
 6295SOL     OW19783   5.318   4.958   4.700
 6295SOL    HW119784   5.403   4.967   4.752
 6295SOL    HW219785   5.326   5.008   4.614
 6296SOL     OW19786   0.617   4.201   5.837
 6296SOL    HW119787   0.660   4.155   5.914
 6296SOL    HW219788   0.687   4.234   5.774
 6297SOL     OW19789   6.030   0.138   5.301
 6297SOL    HW119790   5.932   0.155   5.305
 6297SOL    HW219791   6.060   0.137   5.206
 6298SOL     OW19792   6.386   4.590   6.807
 6298SOL    HW119793   6.375   4.496   6.840
 6298SOL    HW219794   6.483   4.612   6.800
 6299SOL     OW19795   5.428   2.422   2.566
 6299SOL    HW119796   5.328   2.414   2.569
 6299SOL    HW219797   5.469   2.337   2.602
 6300SOL     OW19798   4.257   1.429   6.382
 6300SOL    HW119799   4.284   1.482   6.462
 6300SOL    HW219800   4.183   1.477   6.333
 6301SOL     OW19801   3.257   6.659   6.409
 6301SOL    HW119802   3.338   6.684   6.356
 6301SOL    HW219803   3.271   6.569   6.450
 6302SOL     OW19804   2.345   1.924   4.903
 6302SOL    HW119805   2.379   1.848   4.958
 6302SOL    HW219806   2.359   2.010   4.953
 6303SOL     OW19807   1.278   6.678   5.562
 6303SOL    HW119808   1.254   6.714   5.472
 6303SOL    HW219809   1.198   6.633   5.602
 6304SOL     OW19810   4.101   1.985   3.495
 6304SOL    HW119811   4.132   2.042   3.419
 6304SOL    HW219812   4.045   1.910   3.460
 6305SOL     OW19813   6.180   5.982   6.924
 6305SOL    HW119814   6.152   6.052   6.858
 6305SOL    HW219815   6.142   5.894   6.896
 6306SOL     OW19816   0.408   3.276   3.759
 6306SOL    HW119817   0.316   3.301   3.786
 6306SOL    HW219818   0.405   3.217   3.678
 6307SOL     OW19819   3.660   3.284   4.107
 6307SOL    HW119820   3.575   3.290   4.158
 6307SOL    HW219821   3.656   3.345   4.027
 6308SOL     OW19822   0.540   1.819   5.959
 6308SOL    HW119823   0.484   1.843   5.880
 6308SOL    HW219824   0.587   1.901   5.993
 6309SOL     OW19825   0.626   6.667   4.115
 6309SOL    HW119826   0.628   6.633   4.210
 6309SOL    HW219827   0.720   6.674   4.081
 6310SOL     OW19828   1.859   6.828   3.186
 6310SOL    HW119829   1.872   6.832   3.087
 6310SOL    HW219830   1.948   6.821   3.231
 6311SOL     OW19831   4.983   1.160   6.791
 6311SOL    HW119832   5.061   1.222   6.793
 6311SOL    HW219833   5.014   1.066   6.806
 6312SOL     OW19834   1.850   6.593   6.407
 6312SOL    HW119835   1.833   6.499   6.377
 6312SOL    HW219836   1.937   6.596   6.457
 6313SOL     OW19837   5.565   0.078   3.779
 6313SOL    HW119838   5.565   0.010   3.853
 6313SOL    HW219839   5.658   0.111   3.764
 6314SOL     OW19840   3.501   6.902   1.207
 6314SOL    HW119841   3.460   6.823   1.254
 6314SOL    HW219842   3.558   6.953   1.272
 6315SOL     OW19843   1.972   2.578   4.843
 6315SOL    HW119844   2.054   2.524   4.824
 6315SOL    HW219845   1.983   2.670   4.806
 6316SOL     OW19846   4.951   2.282   5.997
 6316SOL    HW119847   5.012   2.223   6.050
 6316SOL    HW219848   4.959   2.260   5.900
 6317SOL     OW19849   5.353   4.094   2.882
 6317SOL    HW119850   5.293   4.013   2.880
 6317SOL    HW219851   5.359   4.133   2.790
 6318SOL     OW19852   6.163   0.460   6.927
 6318SOL    HW119853   6.085   0.503   6.882
 6318SOL    HW219854   6.179   0.369   6.888
 6319SOL     OW19855   5.175   2.272   4.857
 6319SOL    HW119856   5.211   2.278   4.764
 6319SOL    HW219857   5.189   2.360   4.904
 6320SOL     OW19858   6.984   0.480   3.801
 6320SOL    HW119859   6.906   0.418   3.809
 6320SOL    HW219860   6.967   0.545   3.728
 6321SOL     OW19861   5.266   3.896   0.651
 6321SOL    HW119862   5.197   3.959   0.615
 6321SOL    HW219863   5.357   3.934   0.635
 6322SOL     OW19864   2.599   1.598   0.857
 6322SOL    HW119865   2.633   1.506   0.875
 6322SOL    HW219866   2.654   1.665   0.908
 6323SOL     OW19867   1.890   3.393   1.454
 6323SOL    HW119868   1.988   3.396   1.437
 6323SOL    HW219869   1.869   3.438   1.541
 6324SOL     OW19870   4.532   1.806   0.732
 6324SOL    HW119871   4.536   1.710   0.706
 6324SOL    HW219872   4.605   1.825   0.798
 6325SOL     OW19873   1.558   2.629   2.762
 6325SOL    HW119874   1.552   2.724   2.795
 6325SOL    HW219875   1.515   2.568   2.828
 6326SOL     OW19876   4.765   5.273   5.527
 6326SOL    HW119877   4.757   5.370   5.504
 6326SOL    HW219878   4.747   5.217   5.446
 6327SOL     OW19879   0.272   1.855   3.340
 6327SOL    HW119880   0.264   1.955   3.351
 6327SOL    HW219881   0.368   1.828   3.354
 6328SOL     OW19882   5.096   3.778   6.886
 6328SOL    HW119883   5.080   3.787   6.984
 6328SOL    HW219884   5.194   3.763   6.870
 6329SOL     OW19885   1.175   2.790   4.764
 6329SOL    HW119886   1.082   2.800   4.729
 6329SOL    HW219887   1.178   2.716   4.831
 6330SOL     OW19888   5.642   0.365   3.302
 6330SOL    HW119889   5.696   0.391   3.223
 6330SOL    HW219890   5.545   0.369   3.279
 6331SOL     OW19891   6.651   2.927   4.752
 6331SOL    HW119892   6.645   2.856   4.822
 6331SOL    HW219893   6.582   2.910   4.682
 6332SOL     OW19894   1.421   2.151   1.689
 6332SOL    HW119895   1.381   2.235   1.652
 6332SOL    HW219896   1.439   2.087   1.614
 6333SOL     OW19897   4.562   0.356   6.839
 6333SOL    HW119898   4.499   0.378   6.765
 6333SOL    HW219899   4.569   0.257   6.849
 6334SOL     OW19900   2.400   1.587   1.955
 6334SOL    HW119901   2.416   1.585   1.856
 6334SOL    HW219902   2.400   1.493   1.991
 6335SOL     OW19903   4.844   1.492   0.996
 6335SOL    HW119904   4.900   1.430   0.942
 6335SOL    HW219905   4.869   1.587   0.974
 6336SOL     OW19906   0.052   4.353   6.331
 6336SOL    HW119907   0.110   4.373   6.410
 6336SOL    HW219908   6.979   4.341   6.361
 6337SOL     OW19909   4.249   5.613   5.114
 6337SOL    HW119910   4.332   5.582   5.068
 6337SOL    HW219911   4.191   5.663   5.049
 6338SOL     OW19912   2.980   1.373   4.463
 6338SOL    HW119913   2.941   1.315   4.535
 6338SOL    HW219914   2.971   1.469   4.490
 6339SOL     OW19915   1.053   3.498   3.044
 6339SOL    HW119916   1.041   3.466   3.137
 6339SOL    HW219917   1.119   3.440   2.996
 6340SOL     OW19918   2.200   3.779   1.571
 6340SOL    HW119919   2.124   3.747   1.515
 6340SOL    HW219920   2.202   3.879   1.570
 6341SOL     OW19921   0.769   3.257   3.220
 6341SOL    HW119922   0.844   3.192   3.203
 6341SOL    HW219923   0.733   3.242   3.312
 6342SOL     OW19924   3.479   1.430   1.533
 6342SOL    HW119925   3.505   1.444   1.628
 6342SOL    HW219926   3.395   1.376   1.529
 6343SOL     OW19927   3.841   6.481   6.717
 6343SOL    HW119928   3.791   6.512   6.799
 6343SOL    HW219929   3.842   6.554   6.649
 6344SOL     OW19930   6.253   2.616   3.655
 6344SOL    HW119931   6.170   2.644   3.606
 6344SOL    HW219932   6.256   2.661   3.744
 6345SOL     OW19933   4.718   3.222   1.474
 6345SOL    HW119934   4.813   3.194   1.466
 6345SOL    HW219935   4.662   3.144   1.503
 6346SOL     OW19936   6.986   4.155   5.153
 6346SOL    HW119937   0.058   4.171   5.121
 6346SOL    HW219938   6.939   4.095   5.089
 6347SOL     OW19939   2.692   2.070   2.380
 6347SOL    HW119940   2.699   2.102   2.474
 6347SOL    HW219941   2.645   1.982   2.378
 6348SOL     OW19942   0.791   1.649   6.076
 6348SOL    HW119943   0.750   1.724   6.127
 6348SOL    HW219944   0.806   1.571   6.137
 6349SOL     OW19945   1.349   0.145   0.275
 6349SOL    HW119946   1.377   0.141   0.180
 6349SOL    HW219947   1.349   0.053   0.315
 6350SOL     OW19948   0.726   5.287   2.630
 6350SOL    HW119949   0.704   5.209   2.571
 6350SOL    HW219950   0.773   5.255   2.712
 6351SOL     OW19951   6.246   4.494   3.574
 6351SOL    HW119952   6.268   4.567   3.639
 6351SOL    HW219953   6.168   4.441   3.609
 6352SOL     OW19954   2.989   1.021   4.031
 6352SOL    HW119955   2.894   1.001   4.009
 6352SOL    HW219956   3.000   1.120   4.041
 6353SOL     OW19957   2.593   5.037   0.163
 6353SOL    HW119958   2.600   4.938   0.171
 6353SOL    HW219959   2.541   5.061   0.080
 6354SOL     OW19960   4.466   5.520   2.631
 6354SOL    HW119961   4.432   5.609   2.660
 6354SOL    HW219962   4.395   5.473   2.579
 6355SOL     OW19963   3.292   5.704   0.573
 6355SOL    HW119964   3.364   5.756   0.620
 6355SOL    HW219965   3.230   5.665   0.641
 6356SOL     OW19966   5.501   4.944   0.118
 6356SOL    HW119967   5.503   4.846   0.139
 6356SOL    HW219968   5.407   4.972   0.098
 6357SOL     OW19969   5.714   2.830   1.610
 6357SOL    HW119970   5.748   2.908   1.556
 6357SOL    HW219971   5.788   2.765   1.623
 6358SOL     OW19972   0.939   2.013   0.077
 6358SOL    HW119973   0.976   1.922   0.060
 6358SOL    HW219974   1.014   2.078   0.090
 6359SOL     OW19975   5.560   0.024   0.596
 6359SOL    HW119976   5.624   7.015   0.666
 6359SOL    HW219977   5.469   0.034   0.637
 6360SOL     OW19978   0.087   2.957   3.833
 6360SOL    HW119979   0.121   2.982   3.924
 6360SOL    HW219980   0.099   3.034   3.771
 6361SOL     OW19981   0.663   1.082   0.903
 6361SOL    HW119982   0.629   1.175   0.891
 6361SOL    HW219983   0.590   1.017   0.884
 6362SOL     OW19984   1.445   6.460   6.759
 6362SOL    HW119985   1.484   6.393   6.823
 6362SOL    HW219986   1.488   6.449   6.670
 6363SOL     OW19987   2.547   4.833   3.747
 6363SOL    HW119988   2.624   4.808   3.806
 6363SOL    HW219989   2.470   4.862   3.803
 6364SOL     OW19990   2.032   2.128   4.818
 6364SOL    HW119991   1.965   2.152   4.748
 6364SOL    HW219992   2.109   2.080   4.776
 6365SOL     OW19993   6.312   5.499   5.180
 6365SOL    HW119994   6.376   5.453   5.243
 6365SOL    HW219995   6.233   5.440   5.165
 6366SOL     OW19996   6.427   6.508   4.674
 6366SOL    HW119997   6.436   6.597   4.629
 6366SOL    HW219998   6.360   6.452   4.625
 6367SOL     OW19999   3.127   1.796   2.691
 6367SOL    HW120000   3.157   1.887   2.719
 6367SOL    HW220001   3.206   1.742   2.662
 6368SOL     OW20002   4.679   4.495   4.426
 6368SOL    HW120003   4.602   4.559   4.416
 6368SOL    HW220004   4.652   4.420   4.486
 6369SOL     OW20005   2.311   6.286   5.534
 6369SOL    HW120006   2.235   6.251   5.480
 6369SOL    HW220007   2.350   6.213   5.590
 6370SOL     OW20008   4.789   3.921   3.472
 6370SOL    HW120009   4.745   3.987   3.411
 6370SOL    HW220010   4.827   3.846   3.418
 6371SOL     OW20011   5.553   3.737   1.857
 6371SOL    HW120012   5.579   3.834   1.851
 6371SOL    HW220013   5.602   3.695   1.933
 6372SOL     OW20014   0.496   0.869   2.355
 6372SOL    HW120015   0.477   0.918   2.440
 6372SOL    HW220016   0.552   0.926   2.296
 6373SOL     OW20017   5.965   4.041   2.127
 6373SOL    HW120018   6.003   4.034   2.035
 6373SOL    HW220019   6.039   4.031   2.194
 6374SOL     OW20020   4.347   3.209   0.230
 6374SOL    HW120021   4.428   3.218   0.288
 6374SOL    HW220022   4.352   3.276   0.156
 6375SOL     OW20023   1.130   2.784   2.300
 6375SOL    HW120024   1.134   2.766   2.202
 6375SOL    HW220025   1.180   2.867   2.321
 6376SOL     OW20026   4.477   1.658   5.946
 6376SOL    HW120027   4.428   1.632   5.862
 6376SOL    HW220028   4.466   1.756   5.961
 6377SOL     OW20029   0.043   0.915   5.871
 6377SOL    HW120030   0.095   0.837   5.836
 6377SOL    HW220031   6.967   0.901   5.850
 6378SOL     OW20032   4.654   5.757   3.275
 6378SOL    HW120033   4.672   5.855   3.279
 6378SOL    HW220034   4.720   5.713   3.214
 6379SOL     OW20035   1.292   4.649   5.217
 6379SOL    HW120036   1.333   4.559   5.235
 6379SOL    HW220037   1.361   4.720   5.225
 6380SOL     OW20038   0.936   2.795   4.642
 6380SOL    HW120039   0.853   2.843   4.670
 6380SOL    HW220040   0.912   2.718   4.583
 6381SOL     OW20041   3.951   2.811   0.641
 6381SOL    HW120042   3.884   2.847   0.576
 6381SOL    HW220043   3.905   2.784   0.725
 6382SOL     OW20044   2.458   1.541   1.670
 6382SOL    HW120045   2.423   1.454   1.636
 6382SOL    HW220046   2.463   1.607   1.595
 6383SOL     OW20047   1.334   2.592   2.583
 6383SOL    HW120048   1.326   2.514   2.520
 6383SOL    HW220049   1.404   2.572   2.651
 6384SOL     OW20050   5.935   2.003   2.268
 6384SOL    HW120051   5.986   2.066   2.209
 6384SOL    HW220052   5.898   2.053   2.346
 6385SOL     OW20053   6.676   4.159   1.290
 6385SOL    HW120054   6.679   4.075   1.236
 6385SOL    HW220055   6.663   4.237   1.230
 6386SOL     OW20056   1.557   4.250   0.443
 6386SOL    HW120057   1.565   4.214   0.536
 6386SOL    HW220058   1.648   4.267   0.405
 6387SOL     OW20059   6.325   1.427   0.603
 6387SOL    HW120060   6.369   1.487   0.536
 6387SOL    HW220061   6.235   1.401   0.570
 6388SOL     OW20062   6.733   4.922   2.641
 6388SOL    HW120063   6.645   4.913   2.688
 6388SOL    HW220064   6.722   4.983   2.562
 6389SOL     OW20065   1.821   6.688   0.617
 6389SOL    HW120066   1.900   6.749   0.616
 6389SOL    HW220067   1.738   6.742   0.636
 6390SOL     OW20068   6.408   0.558   6.852
 6390SOL    HW120069   6.468   0.539   6.929
 6390SOL    HW220070   6.313   0.557   6.884
 6391SOL     OW20071   1.506   1.535   6.015
 6391SOL    HW120072   1.571   1.523   6.090
 6391SOL    HW220073   1.416   1.504   6.043
 6392SOL     OW20074   3.278   5.920   3.990
 6392SOL    HW120075   3.198   5.971   4.022
 6392SOL    HW220076   3.356   5.940   4.049
 6393SOL     OW20077   5.473   6.540   1.904
 6393SOL    HW120078   5.406   6.598   1.858
 6393SOL    HW220079   5.426   6.479   1.968
 6394SOL     OW20080   1.302   4.695   1.200
 6394SOL    HW120081   1.237   4.684   1.124
 6394SOL    HW220082   1.264   4.654   1.283
 6395SOL     OW20083   0.078   3.702   2.531
 6395SOL    HW120084   0.164   3.652   2.541
 6395SOL    HW220085   0.063   3.757   2.613
 6396SOL     OW20086   6.601   3.370   6.347
 6396SOL    HW120087   6.669   3.298   6.362
 6396SOL    HW220088   6.524   3.333   6.295
 6397SOL     OW20089   6.164   1.097   2.287
 6397SOL    HW120090   6.204   1.015   2.329
 6397SOL    HW220091   6.118   1.072   2.202
 6398SOL     OW20092   1.346   6.526   1.448
 6398SOL    HW120093   1.413   6.563   1.383
 6398SOL    HW220094   1.352   6.426   1.448
 6399SOL     OW20095   1.638   0.468   0.032
 6399SOL    HW120096   1.645   0.495   0.128
 6399SOL    HW220097   1.708   0.400   0.012
 6400SOL     OW20098   1.895   5.586   2.847
 6400SOL    HW120099   1.989   5.552   2.853
 6400SOL    HW220100   1.891   5.657   2.776
 6401SOL     OW20101   4.626   4.587   3.077
 6401SOL    HW120102   4.562   4.623   3.008
 6401SOL    HW220103   4.713   4.565   3.033
 6402SOL     OW20104   1.424   2.912   3.447
 6402SOL    HW120105   1.407   2.847   3.520
 6402SOL    HW220106   1.430   3.004   3.485
 6403SOL     OW20107   5.652   6.129   4.888
 6403SOL    HW120108   5.634   6.160   4.795
 6403SOL    HW220109   5.656   6.029   4.889
 6404SOL     OW20110   3.650   1.425   2.346
 6404SOL    HW120111   3.729   1.364   2.335
 6404SOL    HW220112   3.599   1.397   2.427
 6405SOL     OW20113   4.794   1.635   3.800
 6405SOL    HW120114   4.829   1.706   3.861
 6405SOL    HW220115   4.702   1.660   3.769
 6406SOL     OW20116   1.281   3.010   2.415
 6406SOL    HW120117   1.211   3.060   2.464
 6406SOL    HW220118   1.332   2.952   2.478
 6407SOL     OW20119   2.108   6.278   3.416
 6407SOL    HW120120   2.147   6.365   3.384
 6407SOL    HW220121   2.127   6.207   3.348
 6408SOL     OW20122   6.728   0.512   1.370
 6408SOL    HW120123   6.721   0.569   1.451
 6408SOL    HW220124   6.636   0.490   1.336
 6409SOL     OW20125   6.577   4.959   3.657
 6409SOL    HW120126   6.604   4.960   3.560
 6409SOL    HW220127   6.549   4.866   3.682
 6410SOL     OW20128   2.255   1.350   6.114
 6410SOL    HW120129   2.211   1.425   6.064
 6410SOL    HW220130   2.268   1.272   6.053
 6411SOL     OW20131   0.278   3.166   1.836
 6411SOL    HW120132   0.180   3.147   1.841
 6411SOL    HW220133   0.322   3.097   1.779
 6412SOL     OW20134   3.183   1.033   6.505
 6412SOL    HW120135   3.195   0.984   6.418
 6412SOL    HW220136   3.086   1.054   6.518
 6413SOL     OW20137   4.023   4.856   4.384
 6413SOL    HW120138   3.930   4.863   4.419
 6413SOL    HW220139   4.021   4.857   4.284
 6414SOL     OW20140   0.368   6.746   6.899
 6414SOL    HW120141   0.275   6.713   6.881
 6414SOL    HW220142   0.434   6.679   6.867
 6415SOL     OW20143   1.253   3.256   3.252
 6415SOL    HW120144   1.214   3.205   3.329
 6415SOL    HW220145   1.342   3.292   3.278
 6416SOL     OW20146   3.141   6.910   6.491
 6416SOL    HW120147   3.181   6.984   6.438
 6416SOL    HW220148   3.188   6.824   6.469
 6417SOL     OW20149   5.500   2.365   1.014
 6417SOL    HW120150   5.568   2.420   1.062
 6417SOL    HW220151   5.476   2.286   1.071
 6418SOL     OW20152   5.173   4.391   2.413
 6418SOL    HW120153   5.108   4.368   2.486
 6418SOL    HW220154   5.186   4.490   2.411
 6419SOL     OW20155   0.713   6.196   5.362
 6419SOL    HW120156   0.726   6.097   5.368
 6419SOL    HW220157   0.632   6.215   5.308
 6420SOL     OW20158   1.472   2.266   4.123
 6420SOL    HW120159   1.503   2.286   4.030
 6420SOL    HW220160   1.477   2.167   4.140
 6421SOL     OW20161   5.192   0.540   0.852
 6421SOL    HW120162   5.229   0.610   0.790
 6421SOL    HW220163   5.102   0.511   0.819
 6422SOL     OW20164   7.004   1.667   5.851
 6422SOL    HW120165   7.021   1.625   5.762
 6422SOL    HW220166   6.966   1.758   5.838
 6423SOL     OW20167   3.923   6.292   4.552
 6423SOL    HW120168   3.950   6.314   4.459
 6423SOL    HW220169   3.997   6.317   4.615
 6424SOL     OW20170   0.740   3.203   4.834
 6424SOL    HW120171   0.699   3.290   4.806
 6424SOL    HW220172   0.809   3.220   4.905
 6425SOL     OW20173   0.308   5.235   2.741
 6425SOL    HW120174   0.402   5.267   2.727
 6425SOL    HW220175   0.283   5.171   2.669
 6426SOL     OW20176   5.525   5.446   4.153
 6426SOL    HW120177   5.509   5.544   4.146
 6426SOL    HW220178   5.466   5.398   4.087
 6427SOL     OW20179   3.184   4.065   3.119
 6427SOL    HW120180   3.261   4.117   3.155
 6427SOL    HW220181   3.158   4.101   3.030
 6428SOL     OW20182   5.288   2.801   0.058
 6428SOL    HW120183   5.344   2.874   0.020
 6428SOL    HW220184   5.273   2.818   0.156
 6429SOL     OW20185   1.634   0.652   5.431
 6429SOL    HW120186   1.548   0.617   5.467
 6429SOL    HW220187   1.617   0.703   5.346
 6430SOL     OW20188   6.860   0.578   5.276
 6430SOL    HW120189   6.932   0.604   5.340
 6430SOL    HW220190   6.807   0.658   5.249
 6431SOL     OW20191   4.207   5.420   2.904
 6431SOL    HW120192   4.232   5.388   2.812
 6431SOL    HW220193   4.182   5.341   2.961
 6432SOL     OW20194   3.520   3.990   6.364
 6432SOL    HW120195   3.607   3.954   6.331
 6432SOL    HW220196   3.445   3.942   6.318
 6433SOL     OW20197   3.033   5.386   0.082
 6433SOL    HW120198   3.095   5.441   0.026
 6433SOL    HW220199   2.940   5.423   0.076
 6434SOL     OW20200   2.542   6.570   6.508
 6434SOL    HW120201   2.503   6.654   6.471
 6434SOL    HW220202   2.627   6.591   6.557
 6435SOL     OW20203   6.276   0.094   0.678
 6435SOL    HW120204   6.351   0.066   0.619
 6435SOL    HW220205   6.281   0.044   0.764
 6436SOL     OW20206   0.741   3.217   3.491
 6436SOL    HW120207   0.802   3.156   3.541
 6436SOL    HW220208   0.647   3.201   3.521
 6437SOL     OW20209   0.783   1.647   5.336
 6437SOL    HW120210   0.799   1.570   5.398
 6437SOL    HW220211   0.823   1.730   5.374
 6438SOL     OW20212   1.116   5.297   6.246
 6438SOL    HW120213   1.074   5.206   6.257
 6438SOL    HW220214   1.201   5.301   6.298
 6439SOL     OW20215   6.426   1.050   3.081
 6439SOL    HW120216   6.438   1.039   2.982
 6439SOL    HW220217   6.512   1.028   3.127
 6440SOL     OW20218   2.431   1.009   6.807
 6440SOL    HW120219   2.343   1.007   6.854
 6440SOL    HW220220   2.416   1.023   6.709
 6441SOL     OW20221   0.139   0.845   2.835
 6441SOL    HW120222   0.069   0.913   2.856
 6441SOL    HW220223   0.220   0.862   2.891
 6442SOL     OW20224   2.644   2.294   4.538
 6442SOL    HW120225   2.737   2.259   4.549
 6442SOL    HW220226   2.608   2.324   4.627
 6443SOL     OW20227   3.718   2.022   6.135
 6443SOL    HW120228   3.695   2.040   6.230
 6443SOL    HW220229   3.649   2.062   6.075
 6444SOL     OW20230   0.434   2.499   4.978
 6444SOL    HW120231   0.501   2.426   4.995
 6444SOL    HW220232   0.446   2.533   4.884
 6445SOL     OW20233   3.530   3.333   2.904
 6445SOL    HW120234   3.460   3.262   2.913
 6445SOL    HW220235   3.621   3.290   2.909
 6446SOL     OW20236   1.207   1.882   6.907
 6446SOL    HW120237   1.187   1.803   6.849
 6446SOL    HW220238   1.275   1.856   6.976
 6447SOL     OW20239   6.972   4.369   1.911
 6447SOL    HW120240   6.985   4.296   1.978
 6447SOL    HW220241   0.002   4.450   1.940
 6448SOL     OW20242   4.780   5.153   1.584
 6448SOL    HW120243   4.712   5.193   1.523
 6448SOL    HW220244   4.867   5.200   1.571
 6449SOL     OW20245   2.143   5.518   1.353
 6449SOL    HW120246   2.210   5.504   1.281
 6449SOL    HW220247   2.094   5.433   1.370
 6450SOL     OW20248   0.943   4.295   0.495
 6450SOL    HW120249   0.872   4.336   0.437
 6450SOL    HW220250   0.969   4.206   0.458
 6451SOL     OW20251   3.228   1.779   6.378
 6451SOL    HW120252   3.293   1.710   6.346
 6451SOL    HW220253   3.157   1.793   6.308
 6452SOL     OW20254   5.140   3.713   2.609
 6452SOL    HW120255   5.122   3.800   2.564
 6452SOL    HW220256   5.239   3.694   2.606
 6453SOL     OW20257   3.379   6.677   0.908
 6453SOL    HW120258   3.307   6.730   0.952
 6453SOL    HW220259   3.419   6.730   0.834
 6454SOL     OW20260   0.161   1.569   2.357
 6454SOL    HW120261   0.158   1.638   2.285
 6454SOL    HW220262   0.068   1.544   2.382
 6455SOL     OW20263   6.095   3.907   3.231
 6455SOL    HW120264   6.028   3.903   3.305
 6455SOL    HW220265   6.121   4.002   3.214
 6456SOL     OW20266   0.884   0.330   3.049
 6456SOL    HW120267   0.859   0.357   2.957
 6456SOL    HW220268   0.808   0.348   3.112
 6457SOL     OW20269   4.568   0.114   2.034
 6457SOL    HW120270   4.641   0.089   1.970
 6457SOL    HW220271   4.595   0.089   2.127
 6458SOL     OW20272   1.307   5.089   4.289
 6458SOL    HW120273   1.246   5.044   4.354
 6458SOL    HW220274   1.389   5.121   4.337
 6459SOL     OW20275   5.899   2.191   2.776
 6459SOL    HW120276   5.823   2.200   2.840
 6459SOL    HW220277   5.974   2.252   2.805
 6460SOL     OW20278   6.211   5.660   5.851
 6460SOL    HW120279   6.147   5.609   5.793
 6460SOL    HW220280   6.255   5.597   5.915
 6461SOL     OW20281   3.355   4.563   0.441
 6461SOL    HW120282   3.410   4.569   0.357
 6461SOL    HW220283   3.268   4.518   0.422
 6462SOL     OW20284   1.257   3.337   4.390
 6462SOL    HW120285   1.163   3.304   4.384
 6462SOL    HW220286   1.320   3.260   4.378
 6463SOL     OW20287   5.210   0.286   0.452
 6463SOL    HW120288   5.239   0.240   0.368
 6463SOL    HW220289   5.110   0.291   0.455
 6464SOL     OW20290   0.914   5.903   5.026
 6464SOL    HW120291   0.985   5.910   5.097
 6464SOL    HW220292   0.854   5.983   5.032
 6465SOL     OW20293   5.929   2.366   2.227
 6465SOL    HW120294   5.921   2.307   2.147
 6465SOL    HW220295   5.997   2.438   2.208
 6466SOL     OW20296   6.717   2.809   6.759
 6466SOL    HW120297   6.801   2.755   6.770
 6466SOL    HW220298   6.679   2.794   6.668
 6467SOL     OW20299   4.269   1.269   0.731
 6467SOL    HW120300   4.215   1.337   0.781
 6467SOL    HW220301   4.297   1.307   0.643
 6468SOL     OW20302   4.004   6.326   0.974
 6468SOL    HW120303   3.975   6.333   1.070
 6468SOL    HW220304   4.094   6.282   0.970
 6469SOL     OW20305   2.822   2.292   3.913
 6469SOL    HW120306   2.872   2.329   3.835
 6469SOL    HW220307   2.869   2.211   3.948
 6470SOL     OW20308   5.770   2.457   0.602
 6470SOL    HW120309   5.845   2.438   0.665
 6470SOL    HW220310   5.688   2.409   0.632
 6471SOL     OW20311   0.738   6.381   4.562
 6471SOL    HW120312   0.700   6.289   4.560
 6471SOL    HW220313   0.691   6.435   4.631
 6472SOL     OW20314   6.466   5.997   2.361
 6472SOL    HW120315   6.489   6.094   2.359
 6472SOL    HW220316   6.547   5.944   2.386
 6473SOL     OW20317   1.890   1.761   4.739
 6473SOL    HW120318   1.808   1.817   4.725
 6473SOL    HW220319   1.952   1.809   4.801
 6474SOL     OW20320   3.982   5.394   5.620
 6474SOL    HW120321   4.003   5.382   5.523
 6474SOL    HW220322   3.942   5.485   5.633
 6475SOL     OW20323   5.556   5.112   3.687
 6475SOL    HW120324   5.577   5.054   3.609
 6475SOL    HW220325   5.619   5.091   3.762
 6476SOL     OW20326   3.782   2.705   6.823
 6476SOL    HW120327   3.686   2.728   6.837
 6476SOL    HW220328   3.827   2.781   6.776
 6477SOL     OW20329   6.774   5.354   0.755
 6477SOL    HW120330   6.761   5.281   0.688
 6477SOL    HW220331   6.828   5.319   0.831
 6478SOL     OW20332   2.537   5.940   1.563
 6478SOL    HW120333   2.548   5.860   1.504
 6478SOL    HW220334   2.550   6.023   1.509
 6479SOL     OW20335   3.118   5.301   4.453
 6479SOL    HW120336   3.207   5.343   4.468
 6479SOL    HW220337   3.049   5.372   4.443
 6480SOL     OW20338   2.358   1.561   0.222
 6480SOL    HW120339   2.286   1.595   0.284
 6480SOL    HW220340   2.316   1.528   0.138
 6481SOL     OW20341   3.226   2.411   1.635
 6481SOL    HW120342   3.141   2.395   1.585
 6481SOL    HW220343   3.303   2.379   1.581
 6482SOL     OW20344   6.624   2.118   5.619
 6482SOL    HW120345   6.602   2.179   5.694
 6482SOL    HW220346   6.605   2.023   5.646
 6483SOL     OW20347   1.191   5.956   3.859
 6483SOL    HW120348   1.129   5.994   3.790
 6483SOL    HW220349   1.184   5.856   3.858
 6484SOL     OW20350   2.580   1.738   2.575
 6484SOL    HW120351   2.621   1.807   2.636
 6484SOL    HW220352   2.535   1.784   2.499
 6485SOL     OW20353   2.247   6.062   4.475
 6485SOL    HW120354   2.326   6.054   4.415
 6485SOL    HW220355   2.191   5.979   4.468
 6486SOL     OW20356   0.983   4.857   3.022
 6486SOL    HW120357   0.998   4.783   2.957
 6486SOL    HW220358   0.952   4.820   3.110
 6487SOL     OW20359   1.181   5.718   4.269
 6487SOL    HW120360   1.207   5.633   4.223
 6487SOL    HW220361   1.220   5.795   4.219
 6488SOL     OW20362   4.775   5.919   5.284
 6488SOL    HW120363   4.739   5.829   5.310
 6488SOL    HW220364   4.716   5.960   5.214
 6489SOL     OW20365   3.154   3.281   6.487
 6489SOL    HW120366   3.093   3.204   6.468
 6489SOL    HW220367   3.134   3.356   6.423
 6490SOL     OW20368   2.519   1.581   6.534
 6490SOL    HW120369   2.567   1.560   6.449
 6490SOL    HW220370   2.480   1.673   6.528
 6491SOL     OW20371   2.116   0.608   1.280
 6491SOL    HW120372   2.083   0.543   1.350
 6491SOL    HW220373   2.186   0.667   1.320
 6492SOL     OW20374   3.748   3.881   4.069
 6492SOL    HW120375   3.720   3.817   3.997
 6492SOL    HW220376   3.781   3.829   4.148
 6493SOL     OW20377   1.618   4.740   6.253
 6493SOL    HW120378   1.666   4.753   6.166
 6493SOL    HW220379   1.650   4.807   6.320
 6494SOL     OW20380   6.198   6.172   2.491
 6494SOL    HW120381   6.134   6.249   2.493
 6494SOL    HW220382   6.292   6.207   2.487
 6495SOL     OW20383   6.786   6.884   4.711
 6495SOL    HW120384   6.761   6.942   4.788
 6495SOL    HW220385   6.797   6.790   4.744
 6496SOL     OW20386   5.089   6.821   1.559
 6496SOL    HW120387   5.088   6.883   1.482
 6496SOL    HW220388   5.007   6.763   1.556
 6497SOL     OW20389   0.983   1.158   1.622
 6497SOL    HW120390   1.014   1.225   1.554
 6497SOL    HW220391   1.052   1.150   1.694
 6498SOL     OW20392   0.661   3.855   4.139
 6498SOL    HW120393   0.599   3.918   4.091
 6498SOL    HW220394   0.635   3.850   4.235
 6499SOL     OW20395   5.494   3.588   4.267
 6499SOL    HW120396   5.468   3.683   4.286
 6499SOL    HW220397   5.433   3.526   4.318
 6500SOL     OW20398   0.424   4.195   2.206
 6500SOL    HW120399   0.511   4.238   2.228
 6500SOL    HW220400   0.349   4.256   2.231
 6501SOL     OW20401   0.143   1.503   0.953
 6501SOL    HW120402   0.106   1.585   0.909
 6501SOL    HW220403   0.183   1.443   0.883
 6502SOL     OW20404   6.555   3.792   1.601
 6502SOL    HW120405   6.652   3.769   1.597
 6502SOL    HW220406   6.541   3.882   1.559
 6503SOL     OW20407   6.156   0.982   4.745
 6503SOL    HW120408   6.089   1.008   4.674
 6503SOL    HW220409   6.189   1.064   4.792
 6504SOL     OW20410   4.488   6.602   6.626
 6504SOL    HW120411   4.579   6.642   6.611
 6504SOL    HW220412   4.478   6.577   6.722
 6505SOL     OW20413   5.378   6.577   6.732
 6505SOL    HW120414   5.329   6.632   6.665
 6505SOL    HW220415   5.472   6.611   6.742
 6506SOL     OW20416   0.172   3.150   3.597
 6506SOL    HW120417   0.155   3.058   3.561
 6506SOL    HW220418   0.222   3.203   3.528
 6507SOL     OW20419   2.543   5.571   6.181
 6507SOL    HW120420   2.482   5.609   6.250
 6507SOL    HW220421   2.635   5.610   6.194
 6508SOL     OW20422   2.045   0.109   2.493
 6508SOL    HW120423   1.990   0.075   2.569
 6508SOL    HW220424   2.064   0.206   2.506
 6509SOL     OW20425   5.047   1.230   5.481
 6509SOL    HW120426   5.005   1.277   5.404
 6509SOL    HW220427   5.145   1.216   5.462
 6510SOL     OW20428   4.442   5.748   6.525
 6510SOL    HW120429   4.436   5.843   6.493
 6510SOL    HW220430   4.484   5.746   6.615
 6511SOL     OW20431   4.081   0.767   5.791
 6511SOL    HW120432   4.100   0.688   5.733
 6511SOL    HW220433   4.009   0.743   5.857
 6512SOL     OW20434   2.959   6.344   2.728
 6512SOL    HW120435   3.055   6.328   2.752
 6512SOL    HW220436   2.953   6.422   2.666
 6513SOL     OW20437   2.551   6.301   4.143
 6513SOL    HW120438   2.571   6.277   4.238
 6513SOL    HW220439   2.490   6.380   4.140
 6514SOL     OW20440   5.900   0.725   4.909
 6514SOL    HW120441   5.984   0.723   4.963
 6514SOL    HW220442   5.840   0.797   4.944
 6515SOL     OW20443   1.936   4.003   2.356
 6515SOL    HW120444   1.868   4.041   2.419
 6515SOL    HW220445   2.020   3.983   2.406
 6516SOL     OW20446   6.686   3.205   1.984
 6516SOL    HW120447   6.773   3.240   2.019
 6516SOL    HW220448   6.612   3.266   2.014
 6517SOL     OW20449   0.419   2.031   0.730
 6517SOL    HW120450   0.422   2.122   0.771
 6517SOL    HW220451   0.437   2.038   0.632
 6518SOL     OW20452   6.666   0.702   2.381
 6518SOL    HW120453   6.762   0.701   2.355
 6518SOL    HW220454   6.609   0.703   2.299
 6519SOL     OW20455   0.388   0.683   3.376
 6519SOL    HW120456   0.309   0.706   3.433
 6519SOL    HW220457   0.453   0.759   3.378
 6520SOL     OW20458   7.011   5.876   6.299
 6520SOL    HW120459   6.957   5.794   6.281
 6520SOL    HW220460   7.017   5.931   6.216
 6521SOL     OW20461   1.517   2.870   2.850
 6521SOL    HW120462   1.569   2.896   2.931
 6521SOL    HW220463   1.429   2.918   2.849
 6522SOL     OW20464   2.473   4.461   5.278
 6522SOL    HW120465   2.531   4.380   5.289
 6522SOL    HW220466   2.499   4.510   5.195
 6523SOL     OW20467   4.422   6.758   6.968
 6523SOL    HW120468   4.386   6.771   0.039
 6523SOL    HW220469   4.397   6.667   6.935
 6524SOL     OW20470   2.866   2.496   1.667
 6524SOL    HW120471   2.914   2.452   1.743
 6524SOL    HW220472   2.914   2.477   1.582
 6525SOL     OW20473   2.444   5.550   3.692
 6525SOL    HW120474   2.450   5.615   3.768
 6525SOL    HW220475   2.527   5.556   3.636
 6526SOL     OW20476   0.405   0.169   1.268
 6526SOL    HW120477   0.337   0.156   1.196
 6526SOL    HW220478   0.364   0.219   1.344
 6527SOL     OW20479   0.570   2.161   0.500
 6527SOL    HW120480   0.602   2.096   0.431
 6527SOL    HW220481   0.612   2.250   0.484
 6528SOL     OW20482   6.991   1.565   6.215
 6528SOL    HW120483   6.972   1.661   6.232
 6528SOL    HW220484   6.954   1.539   6.126
 6529SOL     OW20485   0.739   0.377   2.784
 6529SOL    HW120486   0.646   0.411   2.775
 6529SOL    HW220487   0.798   0.423   2.717
 6530SOL     OW20488   0.696   2.121   1.241
 6530SOL    HW120489   0.598   2.134   1.227
 6530SOL    HW220490   0.741   2.102   1.154
 6531SOL     OW20491   4.457   3.710   5.544
 6531SOL    HW120492   4.464   3.649   5.465
 6531SOL    HW220493   4.361   3.722   5.569
 6532SOL     OW20494   1.961   1.143   0.693
 6532SOL    HW120495   2.025   1.221   0.699
 6532SOL    HW220496   1.984   1.077   0.765
 6533SOL     OW20497   4.383   6.273   0.327
 6533SOL    HW120498   4.296   6.237   0.292
 6533SOL    HW220499   4.435   6.199   0.369
 6534SOL     OW20500   5.181   4.931   1.606
 6534SOL    HW120501   5.147   4.850   1.558
 6534SOL    HW220502   5.257   4.971   1.554
 6535SOL     OW20503   5.955   4.448   4.347
 6535SOL    HW120504   6.046   4.412   4.367
 6535SOL    HW220505   5.919   4.495   4.428
 6536SOL     OW20506   0.555   1.910   5.440
 6536SOL    HW120507   0.556   1.830   5.379
 6536SOL    HW220508   0.632   1.969   5.419
 6537SOL     OW20509   6.852   4.723   4.532
 6537SOL    HW120510   6.893   4.703   4.443
 6537SOL    HW220511   6.753   4.710   4.527
 6538SOL     OW20512   1.619   3.675   5.975
 6538SOL    HW120513   1.681   3.684   5.898
 6538SOL    HW220514   1.591   3.765   6.007
 6539SOL     OW20515   4.895   0.633   6.645
 6539SOL    HW120516   4.913   0.711   6.584
 6539SOL    HW220517   4.799   0.606   6.638
 6540SOL     OW20518   2.301   2.519   6.051
 6540SOL    HW120519   2.382   2.516   5.991
 6540SOL    HW220520   2.250   2.434   6.042
 6541SOL     OW20521   5.512   2.440   5.878
 6541SOL    HW120522   5.512   2.340   5.873
 6541SOL    HW220523   5.420   2.474   5.858
 6542SOL     OW20524   1.187   3.294   4.677
 6542SOL    HW120525   1.230   3.308   4.588
 6542SOL    HW220526   1.093   3.264   4.664
 6543SOL     OW20527   3.801   2.510   6.156
 6543SOL    HW120528   3.842   2.457   6.081
 6543SOL    HW220529   3.872   2.531   6.224
 6544SOL     OW20530   0.246   6.555   2.261
 6544SOL    HW120531   0.212   6.608   2.183
 6544SOL    HW220532   0.177   6.556   2.334
 6545SOL     OW20533   4.072   6.879   0.408
 6545SOL    HW120534   4.138   6.855   0.478
 6545SOL    HW220535   3.979   6.871   0.445
 6546SOL     OW20536   4.218   4.022   6.864
 6546SOL    HW120537   4.229   4.022   6.764
 6546SOL    HW220538   4.305   3.998   6.906
 6547SOL     OW20539   4.607   0.469   5.702
 6547SOL    HW120540   4.648   0.404   5.767
 6547SOL    HW220541   4.508   0.463   5.707
 6548SOL     OW20542   1.335   3.287   6.917
 6548SOL    HW120543   1.236   3.271   6.928
 6548SOL    HW220544   1.384   3.247   6.994
 6549SOL     OW20545   4.829   0.254   2.082
 6549SOL    HW120546   4.869   0.223   1.995
 6549SOL    HW220547   4.884   0.329   2.118
 6550SOL     OW20548   0.164   6.974   3.739
 6550SOL    HW120549   0.104   0.013   3.791
 6550SOL    HW220550   0.148   6.879   3.767
 6551SOL     OW20551   2.683   3.400   1.777
 6551SOL    HW120552   2.707   3.494   1.755
 6551SOL    HW220553   2.593   3.397   1.819
 6552SOL     OW20554   2.385   0.353   0.640
 6552SOL    HW120555   2.408   0.427   0.704
 6552SOL    HW220556   2.451   0.352   0.565
 6553SOL     OW20557   0.961   1.592   2.912
 6553SOL    HW120558   0.951   1.512   2.852
 6553SOL    HW220559   1.004   1.564   2.997
 6554SOL     OW20560   2.713   0.819   5.436
 6554SOL    HW120561   2.689   0.851   5.528
 6554SOL    HW220562   2.749   0.896   5.383
 6555SOL     OW20563   6.082   1.814   4.287
 6555SOL    HW120564   6.018   1.737   4.295
 6555SOL    HW220565   6.162   1.786   4.234
 6556SOL     OW20566   6.312   3.122   2.677
 6556SOL    HW120567   6.224   3.149   2.639
 6556SOL    HW220568   6.298   3.064   2.757
 6557SOL     OW20569   2.739   0.759   2.431
 6557SOL    HW120570   2.717   0.677   2.485
 6557SOL    HW220571   2.660   0.784   2.375
 6558SOL     OW20572   5.707   5.492   0.186
 6558SOL    HW120573   5.771   5.416   0.196
 6558SOL    HW220574   5.732   5.565   0.249
 6559SOL     OW20575   6.969   3.517   6.044
 6559SOL    HW120576   6.895   3.582   6.065
 6559SOL    HW220577   0.036   3.559   6.067
 6560SOL     OW20578   3.800   4.461   0.891
 6560SOL    HW120579   3.842   4.461   0.800
 6560SOL    HW220580   3.720   4.522   0.891
 6561SOL     OW20581   3.850   4.463   1.162
 6561SOL    HW120582   3.847   4.440   1.065
 6561SOL    HW220583   3.915   4.403   1.209
 6562SOL     OW20584   5.702   2.516   1.139
 6562SOL    HW120585   5.686   2.615   1.139
 6562SOL    HW220586   5.733   2.487   1.230
 6563SOL     OW20587   4.983   0.606   5.923
 6563SOL    HW120588   4.997   0.524   5.978
 6563SOL    HW220589   4.929   0.584   5.842
 6564SOL     OW20590   6.392   3.291   2.098
 6564SOL    HW120591   6.353   3.383   2.112
 6564SOL    HW220592   6.387   3.268   2.000
 6565SOL     OW20593   6.283   6.249   2.939
 6565SOL    HW120594   6.250   6.316   2.873
 6565SOL    HW220595   6.380   6.230   2.922
 6566SOL     OW20596   3.151   5.190   1.741
 6566SOL    HW120597   3.068   5.225   1.698
 6566SOL    HW220598   3.134   5.173   1.838
 6567SOL     OW20599   4.959   0.812   1.875
 6567SOL    HW120600   4.871   0.802   1.828
 6567SOL    HW220601   4.948   0.875   1.952
 6568SOL     OW20602   3.826   2.121   3.018
 6568SOL    HW120603   3.799   2.104   3.112
 6568SOL    HW220604   3.916   2.166   3.016
 6569SOL     OW20605   1.411   3.601   6.552
 6569SOL    HW120606   1.489   3.552   6.514
 6569SOL    HW220607   1.358   3.539   6.609
 6570SOL     OW20608   3.551   0.845   2.778
 6570SOL    HW120609   3.649   0.842   2.757
 6570SOL    HW220610   3.537   0.821   2.875
 6571SOL     OW20611   2.942   4.788   2.367
 6571SOL    HW120612   2.906   4.751   2.281
 6571SOL    HW220613   2.880   4.765   2.442
 6572SOL     OW20614   0.200   3.385   3.903
 6572SOL    HW120615   0.161   3.365   3.993
 6572SOL    HW220616   0.275   3.451   3.914
 6573SOL     OW20617   1.764   1.236   3.149
 6573SOL    HW120618   1.707   1.154   3.143
 6573SOL    HW220619   1.720   1.302   3.210
 6574SOL     OW20620   2.357   6.121   3.374
 6574SOL    HW120621   2.409   6.093   3.293
 6574SOL    HW220622   2.396   6.204   3.412
 6575SOL     OW20623   0.513   6.762   3.172
 6575SOL    HW120624   0.567   6.680   3.191
 6575SOL    HW220625   0.565   6.843   3.197
 6576SOL     OW20626   3.155   5.575   0.755
 6576SOL    HW120627   3.138   5.492   0.702
 6576SOL    HW220628   3.104   5.571   0.841
 6577SOL     OW20629   1.550   2.012   3.846
 6577SOL    HW120630   1.554   1.920   3.808
 6577SOL    HW220631   1.640   2.055   3.840
 6578SOL     OW20632   0.839   6.147   2.003
 6578SOL    HW120633   0.905   6.092   2.054
 6578SOL    HW220634   0.889   6.215   1.947
 6579SOL     OW20635   7.012   2.595   4.420
 6579SOL    HW120636   6.928   2.596   4.473
 6579SOL    HW220637   6.990   2.605   4.323
 6580SOL     OW20638   0.957   1.687   0.591
 6580SOL    HW120639   0.937   1.594   0.559
 6580SOL    HW220640   1.030   1.683   0.660
 6581SOL     OW20641   1.582   0.601   0.963
 6581SOL    HW120642   1.530   0.589   0.878
 6581SOL    HW220643   1.635   0.519   0.982
 6582SOL     OW20644   6.639   0.263   2.790
 6582SOL    HW120645   6.664   0.285   2.884
 6582SOL    HW220646   6.539   0.258   2.783
 6583SOL     OW20647   5.241   6.467   5.323
 6583SOL    HW120648   5.202   6.417   5.400
 6583SOL    HW220649   5.338   6.444   5.314
 6584SOL     OW20650   3.742   2.443   0.645
 6584SOL    HW120651   3.680   2.418   0.719
 6584SOL    HW220652   3.711   2.528   0.602
 6585SOL     OW20653   6.674   6.404   6.855
 6585SOL    HW120654   6.579   6.422   6.830
 6585SOL    HW220655   6.728   6.487   6.842
 6586SOL     OW20656   6.450   1.961   6.203
 6586SOL    HW120657   6.532   1.940   6.150
 6586SOL    HW220658   6.458   1.920   6.294
 6587SOL     OW20659   1.486   4.518   6.656
 6587SOL    HW120660   1.531   4.476   6.577
 6587SOL    HW220661   1.469   4.615   6.637
 6588SOL     OW20662   0.339   3.501   1.389
 6588SOL    HW120663   0.410   3.478   1.322
 6588SOL    HW220664   0.323   3.422   1.448
 6589SOL     OW20665   4.953   0.976   2.137
 6589SOL    HW120666   4.936   1.041   2.212
 6589SOL    HW220667   5.024   0.911   2.164
 6590SOL     OW20668   0.529   6.924   5.407
 6590SOL    HW120669   0.494   6.958   5.320
 6590SOL    HW220670   0.452   6.897   5.465
 6591SOL     OW20671   5.553   6.641   3.455
 6591SOL    HW120672   5.580   6.664   3.361
 6591SOL    HW220673   5.627   6.590   3.499
 6592SOL     OW20674   4.694   0.448   2.447
 6592SOL    HW120675   4.794   0.449   2.438
 6592SOL    HW220676   4.659   0.358   2.423
 6593SOL     OW20677   2.704   2.352   2.348
 6593SOL    HW120678   2.785   2.366   2.290
 6593SOL    HW220679   2.681   2.255   2.350
 6594SOL     OW20680   3.525   1.710   5.651
 6594SOL    HW120681   3.562   1.787   5.703
 6594SOL    HW220682   3.529   1.732   5.553
 6595SOL     OW20683   1.227   3.321   5.638
 6595SOL    HW120684   1.221   3.334   5.737
 6595SOL    HW220685   1.150   3.264   5.607
 6596SOL     OW20686   3.836   6.309   3.563
 6596SOL    HW120687   3.796   6.400   3.574
 6596SOL    HW220688   3.776   6.242   3.606
 6597SOL     OW20689   1.765   5.102   2.114
 6597SOL    HW120690   1.833   5.137   2.051
 6597SOL    HW220691   1.798   5.017   2.156
 6598SOL     OW20692   2.085   4.744   4.114
 6598SOL    HW120693   2.052   4.838   4.109
 6598SOL    HW220694   2.181   4.743   4.141
 6599SOL     OW20695   4.700   6.133   6.811
 6599SOL    HW120696   4.604   6.134   6.783
 6599SOL    HW220697   4.722   6.042   6.848
 6600SOL     OW20698   3.857   6.905   4.537
 6600SOL    HW120699   3.939   6.853   4.563
 6600SOL    HW220700   3.776   6.850   4.558
 6601SOL     OW20701   0.529   2.147   3.364
 6601SOL    HW120702   0.526   2.096   3.277
 6601SOL    HW220703   0.438   2.145   3.406
 6602SOL     OW20704   1.990   0.458   1.459
 6602SOL    HW120705   1.982   0.392   1.534
 6602SOL    HW220706   1.904   0.507   1.449
 6603SOL     OW20707   0.694   2.842   4.165
 6603SOL    HW120708   0.694   2.884   4.256
 6603SOL    HW220709   0.661   2.907   4.097
 6604SOL     OW20710   1.669   0.209   1.355
 6604SOL    HW120711   1.570   0.211   1.371
 6604SOL    HW220712   1.717   0.242   1.436
 6605SOL     OW20713   5.855   6.000   2.571
 6605SOL    HW120714   5.938   5.966   2.527
 6605SOL    HW220715   5.862   5.988   2.670
 6606SOL     OW20716   6.810   4.552   2.905
 6606SOL    HW120717   6.720   4.575   2.868
 6606SOL    HW220718   6.817   4.586   2.999
 6607SOL     OW20719   6.734   5.154   3.737
 6607SOL    HW120720   6.692   5.065   3.720
 6607SOL    HW220721   6.684   5.225   3.687
 6608SOL     OW20722   0.035   0.240   0.639
 6608SOL    HW120723   7.004   0.248   0.724
 6608SOL    HW220724   7.002   0.192   0.570
 6609SOL     OW20725   5.138   1.065   6.527
 6609SOL    HW120726   5.093   1.153   6.512
 6609SOL    HW220727   5.203   1.048   6.454
 6610SOL     OW20728   2.553   6.654   0.161
 6610SOL    HW120729   2.512   6.670   0.251
 6610SOL    HW220730   2.498   6.589   0.110
 6611SOL     OW20731   5.231   2.978   3.165
 6611SOL    HW120732   5.279   3.065   3.158
 6611SOL    HW220733   5.154   2.988   3.229
 6612SOL     OW20734   6.858   2.019   6.156
 6612SOL    HW120735   6.888   1.936   6.202
 6612SOL    HW220736   6.920   2.094   6.179
 6613SOL     OW20737   5.343   0.055   5.772
 6613SOL    HW120738   5.369   0.139   5.725
 6613SOL    HW220739   5.405   0.041   5.850
 6614SOL     OW20740   4.684   6.884   0.571
 6614SOL    HW120741   4.680   6.984   0.576
 6614SOL    HW220742   4.757   6.850   0.630
 6615SOL     OW20743   2.071   5.645   0.626
 6615SOL    HW120744   2.038   5.682   0.713
 6615SOL    HW220745   2.099   5.550   0.639
 6616SOL     OW20746   4.771   0.110   6.185
 6616SOL    HW120747   4.817   0.046   6.123
 6616SOL    HW220748   4.676   0.081   6.197
 6617SOL     OW20749   4.546   6.159   3.508
 6617SOL    HW120750   4.471   6.222   3.525
 6617SOL    HW220751   4.633   6.207   3.517
 6618SOL     OW20752   1.231   1.320   2.608
 6618SOL    HW120753   1.251   1.361   2.697
 6618SOL    HW220754   1.172   1.381   2.555
 6619SOL     OW20755   4.577   6.961   3.573
 6619SOL    HW120756   4.480   6.973   3.551
 6619SOL    HW220757   4.623   0.029   3.570
 6620SOL     OW20758   2.162   3.703   4.604
 6620SOL    HW120759   2.160   3.802   4.586
 6620SOL    HW220760   2.257   3.673   4.615
 6621SOL     OW20761   3.669   2.569   5.367
 6621SOL    HW120762   3.600   2.620   5.418
 6621SOL    HW220763   3.722   2.631   5.310
 6622SOL     OW20764   6.311   5.669   1.988
 6622SOL    HW120765   6.391   5.715   2.029
 6622SOL    HW220766   6.230   5.690   2.041
 6623SOL     OW20767   3.460   4.104   4.673
 6623SOL    HW120768   3.365   4.101   4.705
 6623SOL    HW220769   3.460   4.120   4.574
 6624SOL     OW20770   0.629   3.596   5.795
 6624SOL    HW120771   0.639   3.508   5.749
 6624SOL    HW220772   0.702   3.658   5.765
 6625SOL     OW20773   5.152   1.960   5.088
 6625SOL    HW120774   5.229   1.911   5.129
 6625SOL    HW220775   5.167   1.969   4.989
 6626SOL     OW20776   3.473   6.754   5.854
 6626SOL    HW120777   3.448   6.819   5.783
 6626SOL    HW220778   3.551   6.699   5.824
 6627SOL     OW20779   2.132   6.520   4.021
 6627SOL    HW120780   2.129   6.615   4.051
 6627SOL    HW220781   2.041   6.491   3.992
 6628SOL     OW20782   5.144   4.716   3.545
 6628SOL    HW120783   5.176   4.701   3.638
 6628SOL    HW220784   5.045   4.729   3.545
 6629SOL     OW20785   4.714   5.495   6.130
 6629SOL    HW120786   4.704   5.588   6.165
 6629SOL    HW220787   4.629   5.445   6.142
 6630SOL     OW20788   3.665   1.782   1.746
 6630SOL    HW120789   3.599   1.707   1.745
 6630SOL    HW220790   3.653   1.836   1.830
 6631SOL     OW20791   2.179   5.444   4.187
 6631SOL    HW120792   2.175   5.504   4.267
 6631SOL    HW220793   2.228   5.360   4.210
 6632SOL     OW20794   1.253   1.084   1.139
 6632SOL    HW120795   1.218   1.016   1.204
 6632SOL    HW220796   1.306   1.153   1.188
 6633SOL     OW20797   2.813   4.868   6.059
 6633SOL    HW120798   2.871   4.933   6.009
 6633SOL    HW220799   2.835   4.775   6.030
 6634SOL     OW20800   4.481   1.657   5.033
 6634SOL    HW120801   4.418   1.634   4.960
 6634SOL    HW220802   4.572   1.621   5.011
 6635SOL     OW20803   4.732   4.154   3.290
 6635SOL    HW120804   4.743   4.095   3.211
 6635SOL    HW220805   4.814   4.211   3.302
 6636SOL     OW20806   3.631   1.450   0.416
 6636SOL    HW120807   3.727   1.429   0.397
 6636SOL    HW220808   3.624   1.497   0.504
 6637SOL     OW20809   2.617   7.005   6.279
 6637SOL    HW120810   2.555   6.985   6.355
 6637SOL    HW220811   2.580   6.964   6.196
 6638SOL     OW20812   3.226   3.640   3.364
 6638SOL    HW120813   3.128   3.659   3.363
 6638SOL    HW220814   3.271   3.690   3.290
 6639SOL     OW20815   3.523   3.800   6.569
 6639SOL    HW120816   3.520   3.872   6.499
 6639SOL    HW220817   3.461   3.825   6.644
 6640SOL     OW20818   0.026   2.338   4.606
 6640SOL    HW120819   0.082   2.390   4.542
 6640SOL    HW220820   6.998   2.267   4.557
 6641SOL     OW20821   3.552   1.656   6.678
 6641SOL    HW120822   3.548   1.584   6.747
 6641SOL    HW220823   3.463   1.700   6.671
 6642SOL     OW20824   2.016   5.523   6.129
 6642SOL    HW120825   1.982   5.449   6.071
 6642SOL    HW220826   2.030   5.605   6.074
 6643SOL     OW20827   6.401   6.838   0.307
 6643SOL    HW120828   6.402   6.903   0.383
 6643SOL    HW220829   6.495   6.818   0.279
 6644SOL     OW20830   2.128   6.071   3.024
 6644SOL    HW120831   2.129   6.051   3.122
 6644SOL    HW220832   2.220   6.096   2.994
 6645SOL     OW20833   5.699   3.400   0.751
 6645SOL    HW120834   5.609   3.443   0.740
 6645SOL    HW220835   5.697   3.340   0.830
 6646SOL     OW20836   4.358   1.030   5.358
 6646SOL    HW120837   4.310   1.025   5.446
 6646SOL    HW220838   4.454   1.005   5.371
 6647SOL     OW20839   4.629   6.458   0.840
 6647SOL    HW120840   4.685   6.533   0.875
 6647SOL    HW220841   4.615   6.471   0.741
 6648SOL     OW20842   3.201   6.098   4.596
 6648SOL    HW120843   3.102   6.109   4.593
 6648SOL    HW220844   3.225   6.029   4.664
 6649SOL     OW20845   5.814   2.990   6.348
 6649SOL    HW120846   5.742   2.966   6.412
 6649SOL    HW220847   5.844   2.908   6.299
 6650SOL     OW20848   3.383   1.478   4.915
 6650SOL    HW120849   3.368   1.560   4.970
 6650SOL    HW220850   3.400   1.400   4.975
 6651SOL     OW20851   1.737   1.881   6.331
 6651SOL    HW120852   1.821   1.832   6.354
 6651SOL    HW220853   1.658   1.820   6.344
 6652SOL     OW20854   0.628   4.878   7.001
 6652SOL    HW120855   0.699   4.945   6.979
 6652SOL    HW220856   0.543   4.926   0.003
 6653SOL     OW20857   4.724   3.092   0.669
 6653SOL    HW120858   4.646   3.154   0.658
 6653SOL    HW220859   4.784   3.100   0.589
 6654SOL     OW20860   0.552   5.709   2.555
 6654SOL    HW120861   0.645   5.688   2.587
 6654SOL    HW220862   0.518   5.634   2.499
 6655SOL     OW20863   0.150   6.232   2.057
 6655SOL    HW120864   0.155   6.225   2.156
 6655SOL    HW220865   0.104   6.317   2.032
 6656SOL     OW20866   5.345   2.011   3.160
 6656SOL    HW120867   5.351   1.956   3.244
 6656SOL    HW220868   5.426   1.996   3.104
 6657SOL     OW20869   6.063   3.047   4.988
 6657SOL    HW120870   6.018   3.086   5.068
 6657SOL    HW220871   6.103   3.120   4.933
 6658SOL     OW20872   6.266   6.885   5.937
 6658SOL    HW120873   6.324   6.919   6.011
 6658SOL    HW220874   6.215   6.805   5.968
 6659SOL     OW20875   0.918   3.501   1.416
 6659SOL    HW120876   0.945   3.569   1.484
 6659SOL    HW220877   0.907   3.412   1.461
 6660SOL     OW20878   2.084   5.212   1.424
 6660SOL    HW120879   2.146   5.209   1.502
 6660SOL    HW220880   2.015   5.140   1.433
 6661SOL     OW20881   2.833   0.608   5.290
 6661SOL    HW120882   2.785   0.683   5.338
 6661SOL    HW220883   2.839   0.630   5.193
 6662SOL     OW20884   1.770   0.742   0.799
 6662SOL    HW120885   1.829   0.804   0.850
 6662SOL    HW220886   1.706   0.698   0.862
 6663SOL     OW20887   0.670   6.446   4.955
 6663SOL    HW120888   0.657   6.361   5.006
 6663SOL    HW220889   0.765   6.453   4.925
 6664SOL     OW20890   2.180   6.961   0.896
 6664SOL    HW120891   2.243   6.885   0.885
 6664SOL    HW220892   2.140   6.985   0.807
 6665SOL     OW20893   1.725   6.767   5.334
 6665SOL    HW120894   1.740   6.794   5.429
 6665SOL    HW220895   1.808   6.783   5.281
 6666SOL     OW20896   6.285   5.029   5.847
 6666SOL    HW120897   6.363   5.042   5.786
 6666SOL    HW220898   6.315   5.034   5.942
 6667SOL     OW20899   6.779   6.691   5.543
 6667SOL    HW120900   6.792   6.729   5.451
 6667SOL    HW220901   6.752   6.765   5.605
 6668SOL     OW20902   6.437   5.906   1.067
 6668SOL    HW120903   6.337   5.907   1.072
 6668SOL    HW220904   6.474   5.978   1.127
 6669SOL     OW20905   3.198   2.093   1.471
 6669SOL    HW120906   3.255   2.063   1.547
 6669SOL    HW220907   3.118   2.034   1.464
 6670SOL     OW20908   3.702   0.877   5.780
 6670SOL    HW120909   3.640   0.849   5.854
 6670SOL    HW220910   3.769   0.942   5.816
 6671SOL     OW20911   5.694   6.803   0.028
 6671SOL    HW120912   5.659   6.718   0.065
 6671SOL    HW220913   5.772   6.834   0.082
 6672SOL     OW20914   0.775   2.928   0.151
 6672SOL    HW120915   0.749   2.960   0.242
 6672SOL    HW220916   0.702   2.872   0.114
 6673SOL     OW20917   4.765   4.058   3.741
 6673SOL    HW120918   4.745   4.024   3.649
 6673SOL    HW220919   4.776   3.980   3.803
 6674SOL     OW20920   0.776   3.480   0.003
 6674SOL    HW120921   0.767   3.559   6.965
 6674SOL    HW220922   0.718   3.406   6.991
 6675SOL     OW20923   6.077   2.682   0.112
 6675SOL    HW120924   6.064   2.717   0.205
 6675SOL    HW220925   6.151   2.615   0.111
 6676SOL     OW20926   0.469   3.264   3.223
 6676SOL    HW120927   0.507   3.356   3.218
 6676SOL    HW220928   0.380   3.262   3.178
 6677SOL     OW20929   0.907   0.666   6.752
 6677SOL    HW120930   0.896   0.672   6.653
 6677SOL    HW220931   0.944   0.577   6.776
 6678SOL     OW20932   2.669   4.685   0.506
 6678SOL    HW120933   2.621   4.606   0.467
 6678SOL    HW220934   2.757   4.655   0.545
 6679SOL     OW20935   3.988   1.058   3.929
 6679SOL    HW120936   4.014   1.013   3.844
 6679SOL    HW220937   4.070   1.094   3.975
 6680SOL     OW20938   4.404   6.497   6.859
 6680SOL    HW120939   4.308   6.491   6.829
 6680SOL    HW220940   4.413   6.458   6.950
 6681SOL     OW20941   4.787   5.595   0.818
 6681SOL    HW120942   4.690   5.616   0.803
 6681SOL    HW220943   4.798   5.497   0.833
 6682SOL     OW20944   2.436   4.982   6.922
 6682SOL    HW120945   2.456   4.900   6.868
 6682SOL    HW220946   2.435   5.062   6.862
 6683SOL     OW20947   6.387   3.451   5.388
 6683SOL    HW120948   6.288   3.457   5.392
 6683SOL    HW220949   6.415   3.381   5.323
 6684SOL     OW20950   3.955   6.613   2.160
 6684SOL    HW120951   3.945   6.631   2.062
 6684SOL    HW220952   4.037   6.559   2.176
 6685SOL     OW20953   4.833   2.761   5.999
 6685SOL    HW120954   4.838   2.841   6.059
 6685SOL    HW220955   4.881   2.684   6.041
 6686SOL     OW20956   5.459   6.134   3.697
 6686SOL    HW120957   5.507   6.220   3.679
 6686SOL    HW220958   5.524   6.058   3.693
 6687SOL     OW20959   0.696   2.695   2.007
 6687SOL    HW120960   0.775   2.711   1.948
 6687SOL    HW220961   0.612   2.712   1.956
 6688SOL     OW20962   3.758   4.741   0.572
 6688SOL    HW120963   3.728   4.758   0.478
 6688SOL    HW220964   3.769   4.828   0.620
 6689SOL     OW20965   4.327   3.744   5.839
 6689SOL    HW120966   4.238   3.730   5.882
 6689SOL    HW220967   4.320   3.813   5.767
 6690SOL     OW20968   0.813   6.710   0.905
 6690SOL    HW120969   0.792   6.623   0.862
 6690SOL    HW220970   0.874   6.695   0.983
 6691SOL     OW20971   2.288   0.534   2.375
 6691SOL    HW120972   2.247   0.485   2.298
 6691SOL    HW220973   2.340   0.612   2.340
 6692SOL     OW20974   4.175   3.639   1.856
 6692SOL    HW120975   4.183   3.669   1.951
 6692SOL    HW220976   4.120   3.556   1.852
 6693SOL     OW20977   4.361   2.239   4.976
 6693SOL    HW120978   4.295   2.306   5.010
 6693SOL    HW220979   4.439   2.234   5.038
 6694SOL     OW20980   4.440   6.663   1.289
 6694SOL    HW120981   4.483   6.622   1.369
 6694SOL    HW220982   4.364   6.721   1.318
 6695SOL     OW20983   2.736   2.216   6.958
 6695SOL    HW120984   2.655   2.260   6.995
 6695SOL    HW220985   2.717   2.183   6.866
 6696SOL     OW20986   3.790   2.941   3.727
 6696SOL    HW120987   3.736   2.883   3.788
 6696SOL    HW220988   3.807   3.029   3.772
 6697SOL     OW20989   4.604   2.216   3.238
 6697SOL    HW120990   4.641   2.278   3.168
 6697SOL    HW220991   4.608   2.122   3.205
 6698SOL     OW20992   3.161   3.235   1.016
 6698SOL    HW120993   3.088   3.243   0.948
 6698SOL    HW220994   3.136   3.167   1.085
 6699SOL     OW20995   2.087   6.689   5.502
 6699SOL    HW120996   2.008   6.733   5.545
 6699SOL    HW220997   2.063   6.596   5.475
 6700SOL     OW20998   6.631   1.299   1.143
 6700SOL    HW120999   6.697   1.361   1.101
 6700SOL    HW221000   6.539   1.336   1.130
 6701SOL     OW21001   5.277   6.191   1.702
 6701SOL    HW121002   5.221   6.109   1.689
 6701SOL    HW221003   5.246   6.240   1.784
 6702SOL     OW21004   1.923   2.385   2.325
 6702SOL    HW121005   1.983   2.308   2.348
 6702SOL    HW221006   1.971   2.471   2.344
 6703SOL     OW21007   0.770   0.563   0.570
 6703SOL    HW121008   0.673   0.560   0.593
 6703SOL    HW221009   0.783   0.615   0.486
 6704SOL     OW21010   4.092   2.227   4.423
 6704SOL    HW121011   4.170   2.165   4.410
 6704SOL    HW221012   4.084   2.286   4.343
 6705SOL     OW21013   6.256   2.845   0.907
 6705SOL    HW121014   6.341   2.895   0.922
 6705SOL    HW221015   6.178   2.905   0.923
 6706SOL     OW21016   1.218   5.477   0.559
 6706SOL    HW121017   1.138   5.438   0.603
 6706SOL    HW221018   1.269   5.533   0.625
 6707SOL     OW21019   5.177   6.487   3.167
 6707SOL    HW121020   5.101   6.494   3.103
 6707SOL    HW221021   5.164   6.406   3.225
 6708SOL     OW21022   5.346   5.445   1.301
 6708SOL    HW121023   5.375   5.394   1.220
 6708SOL    HW221024   5.330   5.381   1.376
 6709SOL     OW21025   0.710   5.441   3.025
 6709SOL    HW121026   0.778   5.384   2.979
 6709SOL    HW221027   0.749   5.530   3.047
 6710SOL     OW21028   4.125   0.888   6.911
 6710SOL    HW121029   4.075   0.974   6.901
 6710SOL    HW221030   4.204   0.902   6.971
 6711SOL     OW21031   4.575   6.580   5.984
 6711SOL    HW121032   4.607   6.631   6.064
 6711SOL    HW221033   4.575   6.639   5.904
 6712SOL     OW21034   5.920   3.324   1.288
 6712SOL    HW121035   5.992   3.370   1.342
 6712SOL    HW221036   5.831   3.344   1.328
 6713SOL     OW21037   1.235   0.689   3.280
 6713SOL    HW121038   1.141   0.687   3.314
 6713SOL    HW221039   1.285   0.609   3.314
 6714SOL     OW21040   6.206   1.707   0.513
 6714SOL    HW121041   6.153   1.699   0.597
 6714SOL    HW221042   6.303   1.690   0.532
 6715SOL     OW21043   1.505   0.417   1.491
 6715SOL    HW121044   1.543   0.510   1.491
 6715SOL    HW221045   1.412   0.419   1.456
 6716SOL     OW21046   0.821   5.823   2.237
 6716SOL    HW121047   0.889   5.883   2.195
 6716SOL    HW221048   0.811   5.847   2.334
 6717SOL     OW21049   2.459   1.962   6.618
 6717SOL    HW121050   2.487   2.030   6.685
 6717SOL    HW221051   2.368   1.928   6.641
 6718SOL     OW21052   4.900   0.163   0.919
 6718SOL    HW121053   4.815   0.162   0.971
 6718SOL    HW221054   4.891   0.103   0.839
 6719SOL     OW21055   2.326   6.992   0.218
 6719SOL    HW121056   2.386   6.991   0.298
 6719SOL    HW221057   2.299   0.065   0.198
 6720SOL     OW21058   2.562   0.871   3.215
 6720SOL    HW121059   2.470   0.853   3.182
 6720SOL    HW221060   2.578   0.970   3.217
 6721SOL     OW21061   6.963   6.638   0.751
 6721SOL    HW121062   6.909   6.646   0.667
 6721SOL    HW221063   6.961   6.544   0.783
 6722SOL     OW21064   0.061   3.022   7.006
 6722SOL    HW121065   0.007   2.951   0.030
 6722SOL    HW221066   0.019   3.112   0.001
 6723SOL     OW21067   1.501   6.899   5.231
 6723SOL    HW121068   1.499   6.879   5.133
 6723SOL    HW221069   1.573   6.846   5.275
 6724SOL     OW21070   1.825   2.653   6.348
 6724SOL    HW121071   1.877   2.607   6.420
 6724SOL    HW221072   1.839   2.752   6.354
 6725SOL     OW21073   6.926   2.176   2.411
 6725SOL    HW121074   6.981   2.156   2.330
 6725SOL    HW221075   6.987   2.198   2.488
 6726SOL     OW21076   0.558   2.600   4.045
 6726SOL    HW121077   0.590   2.669   4.110
 6726SOL    HW221078   0.524   2.644   3.963
 6727SOL     OW21079   0.260   4.721   5.491
 6727SOL    HW121080   0.346   4.712   5.442
 6727SOL    HW221081   0.191   4.761   5.430
 6728SOL     OW21082   4.151   2.051   2.582
 6728SOL    HW121083   4.057   2.085   2.575
 6728SOL    HW221084   4.163   2.003   2.670
 6729SOL     OW21085   0.264   1.471   0.519
 6729SOL    HW121086   0.229   1.398   0.577
 6729SOL    HW221087   0.302   1.432   0.436
 6730SOL     OW21088   2.009   0.087   1.077
 6730SOL    HW121089   2.065   0.118   1.153
 6730SOL    HW221090   2.068   0.050   1.005
 6731SOL     OW21091   1.415   6.757   0.695
 6731SOL    HW121092   1.427   6.787   0.600
 6731SOL    HW221093   1.501   6.767   0.744
 6732SOL     OW21094   5.797   4.783   4.704
 6732SOL    HW121095   5.873   4.791   4.767
 6732SOL    HW221096   5.719   4.836   4.738
 6733SOL     OW21097   3.987   5.579   6.018
 6733SOL    HW121098   3.989   5.480   6.009
 6733SOL    HW221099   4.017   5.605   6.110
 6734SOL     OW21100   5.932   2.224   5.761
 6734SOL    HW121101   5.907   2.263   5.672
 6734SOL    HW221102   5.966   2.297   5.820
 6735SOL     OW21103   5.699   3.327   4.415
 6735SOL    HW121104   5.630   3.361   4.479
 6735SOL    HW221105   5.689   3.374   4.327
 6736SOL     OW21106   2.993   3.766   5.953
 6736SOL    HW121107   2.895   3.751   5.963
 6736SOL    HW221108   3.038   3.750   6.041
 6737SOL     OW21109   1.436   3.125   1.007
 6737SOL    HW121110   1.426   3.212   1.055
 6737SOL    HW221111   1.364   3.062   1.038
 6738SOL     OW21112   1.943   5.483   4.033
 6738SOL    HW121113   1.882   5.497   4.111
 6738SOL    HW221114   2.038   5.487   4.064
 6739SOL     OW21115   5.915   6.279   3.749
 6739SOL    HW121116   5.950   6.351   3.689
 6739SOL    HW221117   5.872   6.321   3.829
 6740SOL     OW21118   6.399   0.380   5.522
 6740SOL    HW121119   6.305   0.396   5.550
 6740SOL    HW221120   6.414   0.282   5.510
 6741SOL     OW21121   3.472   2.075   5.372
 6741SOL    HW121122   3.404   2.122   5.428
 6741SOL    HW221123   3.524   2.143   5.320
 6742SOL     OW21124   5.508   5.291   3.475
 6742SOL    HW121125   5.561   5.283   3.391
 6742SOL    HW221126   5.551   5.236   3.547
 6743SOL     OW21127   3.796   4.188   6.200
 6743SOL    HW121128   3.768   4.270   6.248
 6743SOL    HW221129   3.719   4.151   6.148
 6744SOL     OW21130   0.341   6.106   4.947
 6744SOL    HW121131   0.276   6.097   4.872
 6744SOL    HW221132   0.433   6.081   4.915
 6745SOL     OW21133   6.785   6.136   3.613
 6745SOL    HW121134   6.751   6.177   3.698
 6745SOL    HW221135   6.859   6.072   3.635
 6746SOL     OW21136   1.316   0.392   3.581
 6746SOL    HW121137   1.403   0.441   3.591
 6746SOL    HW221138   1.331   0.294   3.594
 6747SOL     OW21139   5.819   0.612   0.027
 6747SOL    HW121140   5.856   0.639   0.115
 6747SOL    HW221141   5.761   0.685   7.013
 6748SOL     OW21142   3.473   1.602   2.993
 6748SOL    HW121143   3.501   1.698   2.986
 6748SOL    HW221144   3.421   1.589   3.077
 6749SOL     OW21145   3.795   4.190   0.851
 6749SOL    HW121146   3.752   4.189   0.760
 6749SOL    HW221147   3.805   4.285   0.882
 6750SOL     OW21148   3.373   1.873   4.262
 6750SOL    HW121149   3.445   1.841   4.201
 6750SOL    HW221150   3.371   1.973   4.262
 6751SOL     OW21151   4.819   0.938   3.570
 6751SOL    HW121152   4.885   0.900   3.505
 6751SOL    HW221153   4.792   0.868   3.636
 6752SOL     OW21154   2.449   0.164   2.565
 6752SOL    HW121155   2.379   0.204   2.624
 6752SOL    HW221156   2.505   0.236   2.526
 6753SOL     OW21157   3.663   1.490   5.993
 6753SOL    HW121158   3.705   1.446   6.072
 6753SOL    HW221159   3.618   1.574   6.022
 6754SOL     OW21160   6.821   0.780   1.093
 6754SOL    HW121161   6.834   0.681   1.103
 6754SOL    HW221162   6.726   0.803   1.110
 6755SOL     OW21163   3.795   3.491   1.275
 6755SOL    HW121164   3.798   3.590   1.291
 6755SOL    HW221165   3.885   3.451   1.293
 6756SOL     OW21166   3.738   6.347   5.612
 6756SOL    HW121167   3.700   6.348   5.520
 6756SOL    HW221168   3.785   6.260   5.628
 6757SOL     OW21169   3.420   2.313   0.444
 6757SOL    HW121170   3.504   2.289   0.395
 6757SOL    HW221171   3.380   2.231   0.485
 6758SOL     OW21172   6.219   3.075   1.946
 6758SOL    HW121173   6.254   3.000   2.003
 6758SOL    HW221174   6.153   3.038   1.880
 6759SOL     OW21175   0.521   3.484   2.769
 6759SOL    HW121176   0.488   3.393   2.743
 6759SOL    HW221177   0.605   3.504   2.719
 6760SOL     OW21178   6.646   3.428   2.409
 6760SOL    HW121179   6.725   3.373   2.381
 6760SOL    HW221180   6.655   3.452   2.506
 6761SOL     OW21181   6.336   2.705   4.790
 6761SOL    HW121182   6.273   2.753   4.729
 6761SOL    HW221183   6.395   2.645   4.736
 6762SOL     OW21184   0.585   4.561   4.145
 6762SOL    HW121185   0.596   4.544   4.047
 6762SOL    HW221186   0.537   4.484   4.187
 6763SOL     OW21187   6.174   4.921   3.975
 6763SOL    HW121188   6.116   4.903   4.054
 6763SOL    HW221189   6.238   4.995   3.996
 6764SOL     OW21190   2.344   5.564   1.523
 6764SOL    HW121191   2.268   5.552   1.459
 6764SOL    HW221192   2.421   5.605   1.475
 6765SOL     OW21193   5.663   4.976   3.211
 6765SOL    HW121194   5.720   4.904   3.174
 6765SOL    HW221195   5.681   5.062   3.163
 6766SOL     OW21196   5.586   6.549   5.575
 6766SOL    HW121197   5.504   6.511   5.618
 6766SOL    HW221198   5.667   6.501   5.607
 6767SOL     OW21199   2.859   0.492   1.757
 6767SOL    HW121200   2.830   0.588   1.765
 6767SOL    HW221201   2.844   0.462   1.662
 6768SOL     OW21202   2.245   0.566   5.333
 6768SOL    HW121203   2.327   0.607   5.295
 6768SOL    HW221204   2.180   0.639   5.356
 6769SOL     OW21205   3.646   1.088   0.353
 6769SOL    HW121206   3.562   1.112   0.402
 6769SOL    HW221207   3.630   1.095   0.255
 6770SOL     OW21208   6.938   0.681   2.397
 6770SOL    HW121209   6.964   0.753   2.461
 6770SOL    HW221210   6.998   0.684   2.317
 6771SOL     OW21211   5.121   2.201   3.151
 6771SOL    HW121212   5.041   2.145   3.130
 6771SOL    HW221213   5.203   2.144   3.152
 6772SOL     OW21214   3.735   1.763   3.164
 6772SOL    HW121215   3.825   1.722   3.148
 6772SOL    HW221216   3.683   1.707   3.229
 6773SOL     OW21217   6.624   5.134   2.504
 6773SOL    HW121218   6.619   5.225   2.545
 6773SOL    HW221219   6.547   5.121   2.442
 6774SOL     OW21220   1.133   2.656   5.671
 6774SOL    HW121221   1.215   2.629   5.621
 6774SOL    HW221222   1.063   2.686   5.606
 6775SOL     OW21223   2.451   2.624   1.815
 6775SOL    HW121224   2.508   2.706   1.802
 6775SOL    HW221225   2.369   2.632   1.759
 6776SOL     OW21226   4.686   5.214   0.121
 6776SOL    HW121227   4.656   5.148   0.053
 6776SOL    HW221228   4.749   5.170   0.186
 6777SOL     OW21229   4.606   4.512   0.243
 6777SOL    HW121230   4.580   4.416   0.254
 6777SOL    HW221231   4.523   4.568   0.240
 6778SOL     OW21232   5.861   5.037   1.697
 6778SOL    HW121233   5.879   5.112   1.632
 6778SOL    HW221234   5.948   4.994   1.722
 6779SOL     OW21235   6.086   5.527   6.810
 6779SOL    HW121236   6.056   5.477   6.729
 6779SOL    HW221237   6.171   5.486   6.845
 6780SOL     OW21238   1.201   2.969   2.017
 6780SOL    HW121239   1.246   2.988   1.929
 6780SOL    HW221240   1.236   2.883   2.054
 6781SOL     OW21241   6.640   1.075   4.349
 6781SOL    HW121242   6.698   0.994   4.362
 6781SOL    HW221243   6.638   1.129   4.433
 6782SOL     OW21244   6.822   0.925   3.805
 6782SOL    HW121245   6.824   0.831   3.771
 6782SOL    HW221246   6.820   0.924   3.905
 6783SOL     OW21247   6.437   2.207   6.060
 6783SOL    HW121248   6.342   2.194   6.029
 6783SOL    HW221249   6.454   2.148   6.139
 6784SOL     OW21250   2.226   3.530   1.119
 6784SOL    HW121251   2.185   3.597   1.058
 6784SOL    HW221252   2.305   3.571   1.165
 6785SOL     OW21253   5.593   4.973   3.473
 6785SOL    HW121254   5.635   4.976   3.382
 6785SOL    HW221255   5.507   4.921   3.468
 6786SOL     OW21256   1.992   1.981   0.133
 6786SOL    HW121257   1.977   2.071   0.175
 6786SOL    HW221258   2.070   1.986   0.071
 6787SOL     OW21259   1.612   2.594   1.314
 6787SOL    HW121260   1.598   2.535   1.393
 6787SOL    HW221261   1.706   2.587   1.283
 6788SOL     OW21262   2.476   4.538   1.259
 6788SOL    HW121263   2.533   4.470   1.305
 6788SOL    HW221264   2.383   4.535   1.296
 6789SOL     OW21265   6.584   5.374   3.655
 6789SOL    HW121266   6.522   5.442   3.616
 6789SOL    HW221267   6.594   5.392   3.753
 6790SOL     OW21268   0.527   3.954   1.523
 6790SOL    HW121269   0.595   3.894   1.481
 6790SOL    HW221270   0.526   4.042   1.475
 6791SOL     OW21271   3.963   2.024   1.289
 6791SOL    HW121272   3.902   2.094   1.328
 6791SOL    HW221273   3.952   1.939   1.340
 6792SOL     OW21274   6.500   5.977   5.107
 6792SOL    HW121275   6.415   6.028   5.125
 6792SOL    HW221276   6.477   5.885   5.075
 6793SOL     OW21277   1.036   1.980   1.167
 6793SOL    HW121278   1.046   2.079   1.155
 6793SOL    HW221279   0.997   1.940   1.084
 6794SOL     OW21280   5.104   2.046   6.114
 6794SOL    HW121281   5.140   1.984   6.045
 6794SOL    HW221282   5.032   1.999   6.166
 6795SOL     OW21283   2.295   6.744   1.628
 6795SOL    HW121284   2.236   6.664   1.618
 6795SOL    HW221285   2.310   6.762   1.725
 6796SOL     OW21286   6.394   0.483   2.061
 6796SOL    HW121287   6.413   0.572   2.102
 6796SOL    HW221288   6.445   0.473   1.976
 6797SOL     OW21289   5.880   2.321   1.937
 6797SOL    HW121290   5.809   2.387   1.914
 6797SOL    HW221291   5.862   2.235   1.890
 6798SOL     OW21292   4.774   0.033   2.217
 6798SOL    HW121293   4.792   0.126   2.186
 6798SOL    HW221294   4.838   6.992   2.171
 6799SOL     OW21295   6.024   6.350   1.530
 6799SOL    HW121296   5.974   6.299   1.600
 6799SOL    HW221297   5.991   6.444   1.527
 6800SOL     OW21298   1.699   3.705   1.469
 6800SOL    HW121299   1.683   3.739   1.562
 6800SOL    HW221300   1.778   3.644   1.469
 6801SOL     OW21301   0.651   0.019   3.145
 6801SOL    HW121302   0.586   0.087   3.111
 6801SOL    HW221303   0.667   0.032   3.242
 6802SOL     OW21304   3.469   5.809   0.740
 6802SOL    HW121305   3.566   5.830   0.743
 6802SOL    HW221306   3.424   5.848   0.820
 6803SOL     OW21307   4.686   3.275   5.933
 6803SOL    HW121308   4.601   3.224   5.925
 6803SOL    HW221309   4.668   3.364   5.974
 6804SOL     OW21310   3.400   5.264   3.524
 6804SOL    HW121311   3.487   5.215   3.512
 6804SOL    HW221312   3.364   5.247   3.616
 6805SOL     OW21313   6.653   4.798   6.326
 6805SOL    HW121314   6.697   4.710   6.341
 6805SOL    HW221315   6.652   4.820   6.229
 6806SOL     OW21316   5.804   0.446   4.002
 6806SOL    HW121317   5.828   0.543   4.010
 6806SOL    HW221318   5.705   0.436   4.000
 6807SOL     OW21319   3.168   3.168   0.197
 6807SOL    HW121320   3.151   3.070   0.186
 6807SOL    HW221321   3.121   3.218   0.124
 6808SOL     OW21322   6.830   2.028   4.966
 6808SOL    HW121323   6.744   2.028   5.018
 6808SOL    HW221324   6.829   2.103   4.900
 6809SOL     OW21325   0.846   2.848   1.596
 6809SOL    HW121326   0.869   2.944   1.609
 6809SOL    HW221327   0.800   2.837   1.507
 6810SOL     OW21328   2.174   0.829   2.343
 6810SOL    HW121329   2.146   0.744   2.387
 6810SOL    HW221330   2.129   0.837   2.254
 6811SOL     OW21331   6.035   3.651   1.068
 6811SOL    HW121332   6.075   3.695   0.987
 6811SOL    HW221333   5.938   3.633   1.052
 6812SOL     OW21334   3.372   3.416   3.384
 6812SOL    HW121335   3.300   3.486   3.391
 6812SOL    HW221336   3.430   3.437   3.306
 6813SOL     OW21337   5.029   2.308   2.597
 6813SOL    HW121338   4.975   2.234   2.557
 6813SOL    HW221339   4.984   2.341   2.680
 6814SOL     OW21340   3.157   1.448   5.836
 6814SOL    HW121341   3.219   1.452   5.758
 6814SOL    HW221342   3.211   1.451   5.921
 6815SOL     OW21343   3.187   6.945   1.303
 6815SOL    HW121344   3.259   6.879   1.322
 6815SOL    HW221345   3.133   6.959   1.386
 6816SOL     OW21346   0.237   0.235   0.104
 6816SOL    HW121347   0.265   0.181   0.184
 6816SOL    HW221348   0.236   0.177   0.023
 6817SOL     OW21349   1.686   2.200   3.175
 6817SOL    HW121350   1.710   2.232   3.267
 6817SOL    HW221351   1.728   2.260   3.107
 6818SOL     OW21352   3.299   5.627   2.072
 6818SOL    HW121353   3.356   5.595   2.148
 6818SOL    HW221354   3.221   5.678   2.108
 6819SOL     OW21355   5.377   0.923   4.164
 6819SOL    HW121356   5.468   0.902   4.200
 6819SOL    HW221357   5.362   0.872   4.079
 6820SOL     OW21358   2.295   5.723   2.839
 6820SOL    HW121359   2.220   5.666   2.806
 6820SOL    HW221360   2.372   5.665   2.864
 6821SOL     OW21361   3.948   2.019   4.541
 6821SOL    HW121362   4.007   2.098   4.522
 6821SOL    HW221363   4.005   1.938   4.557
 6822SOL     OW21364   5.713   2.508   6.841
 6822SOL    HW121365   5.631   2.449   6.845
 6822SOL    HW221366   5.751   2.518   6.933
 6823SOL     OW21367   3.958   3.120   5.045
 6823SOL    HW121368   3.910   3.051   4.992
 6823SOL    HW221369   4.020   3.171   4.985
 6824SOL     OW21370   0.904   2.103   6.556
 6824SOL    HW121371   0.871   2.184   6.507
 6824SOL    HW221372   0.901   2.120   6.654
 6825SOL     OW21373   5.023   6.574   2.178
 6825SOL    HW121374   5.024   6.639   2.102
 6825SOL    HW221375   5.098   6.595   2.240
 6826SOL     OW21376   1.985   4.096   2.747
 6826SOL    HW121377   2.006   4.049   2.833
 6826SOL    HW221378   1.996   4.194   2.760
 6827SOL     OW21379   4.508   5.348   6.210
 6827SOL    HW121380   4.432   5.374   6.150
 6827SOL    HW221381   4.523   5.249   6.203
 6828SOL     OW21382   2.714   1.884   1.456
 6828SOL    HW121383   2.804   1.883   1.499
 6828SOL    HW221384   2.698   1.973   1.413
 6829SOL     OW21385   4.336   6.780   4.267
 6829SOL    HW121386   4.397   6.841   4.319
 6829SOL    HW221387   4.361   6.685   4.285
 6830SOL     OW21388   5.165   0.795   3.990
 6830SOL    HW121389   5.178   0.764   4.084
 6830SOL    HW221390   5.075   0.837   3.981
 6831SOL     OW21391   1.630   0.915   0.023
 6831SOL    HW121392   1.715   0.935   0.072
 6831SOL    HW221393   1.600   0.822   0.045
 6832SOL     OW21394   2.717   4.325   1.273
 6832SOL    HW121395   2.690   4.236   1.309
 6832SOL    HW221396   2.757   4.380   1.347
 6833SOL     OW21397   3.698   4.432   6.295
 6833SOL    HW121398   3.603   4.464   6.298
 6833SOL    HW221399   3.743   4.450   6.382
 6834SOL     OW21400   5.241   6.538   0.898
 6834SOL    HW121401   5.159   6.484   0.914
 6834SOL    HW221402   5.303   6.490   0.836
 6835SOL     OW21403   3.946   0.067   4.126
 6835SOL    HW121404   3.871   0.031   4.182
 6835SOL    HW221405   4.033   0.034   4.163
 6836SOL     OW21406   2.752   5.370   0.036
 6836SOL    HW121407   2.669   5.380   7.003
 6836SOL    HW221408   2.727   5.339   0.128
 6837SOL     OW21409   0.932   2.017   2.394
 6837SOL    HW121410   1.004   2.082   2.368
 6837SOL    HW221411   0.851   2.034   2.338
 6838SOL     OW21412   2.999   6.313   0.228
 6838SOL    HW121413   3.098   6.310   0.214
 6838SOL    HW221414   2.976   6.388   0.291
 6839SOL     OW21415   5.117   0.932   0.260
 6839SOL    HW121416   5.206   0.895   0.235
 6839SOL    HW221417   5.051   0.857   0.267
 6840SOL     OW21418   3.471   0.912   4.847
 6840SOL    HW121419   3.475   0.977   4.770
 6840SOL    HW221420   3.441   0.960   4.929
 6841SOL     OW21421   4.548   4.086   6.934
 6841SOL    HW121422   4.601   4.105   7.017
 6841SOL    HW221423   4.602   4.030   6.872
 6842SOL     OW21424   2.456   4.123   1.048
 6842SOL    HW121425   2.394   4.144   1.123
 6842SOL    HW221426   2.468   4.024   1.041
 6843SOL     OW21427   6.273   6.531   1.131
 6843SOL    HW121428   6.323   6.445   1.139
 6843SOL    HW221429   6.194   6.517   1.071
 6844SOL     OW21430   5.438   0.523   4.247
 6844SOL    HW121431   5.461   0.432   4.213
 6844SOL    HW221432   5.489   0.542   4.331
 6845SOL     OW21433   6.469   3.560   3.234
 6845SOL    HW121434   6.388   3.540   3.179
 6845SOL    HW221435   6.446   3.630   3.302
 6846SOL     OW21436   3.775   3.174   0.308
 6846SOL    HW121437   3.677   3.171   0.288
 6846SOL    HW221438   3.826   3.174   0.222
 6847SOL     OW21439   0.021   3.365   4.588
 6847SOL    HW121440   0.041   3.430   4.662
 6847SOL    HW221441   0.022   3.272   4.625
 6848SOL     OW21442   4.844   4.733   3.592
 6848SOL    HW121443   4.846   4.694   3.684
 6848SOL    HW221444   4.753   4.767   3.572
 6849SOL     OW21445   4.883   4.240   5.315
 6849SOL    HW121446   4.808   4.205   5.259
 6849SOL    HW221447   4.947   4.290   5.257
 6850SOL     OW21448   5.574   3.249   3.127
 6850SOL    HW121449   5.548   3.324   3.065
 6850SOL    HW221450   5.576   3.283   3.221
 6851SOL     OW21451   0.015   2.282   3.420
 6851SOL    HW121452   6.951   2.242   3.386
 6851SOL    HW221453   0.058   2.335   3.346
 6852SOL     OW21454   2.573   4.779   1.447
 6852SOL    HW121455   2.663   4.820   1.434
 6852SOL    HW221456   2.561   4.703   1.383
 6853SOL     OW21457   5.571   4.664   0.081
 6853SOL    HW121458   5.607   4.685   7.011
 6853SOL    HW221459   5.630   4.598   0.126
 6854SOL     OW21460   4.886   0.761   5.442
 6854SOL    HW121461   4.820   0.695   5.479
 6854SOL    HW221462   4.908   0.829   5.511
 6855SOL     OW21463   3.994   6.396   3.980
 6855SOL    HW121464   4.019   6.493   3.981
 6855SOL    HW221465   4.025   6.354   3.895
 6856SOL     OW21466   0.185   2.245   4.793
 6856SOL    HW121467   0.202   2.336   4.832
 6856SOL    HW221468   0.109   2.251   4.729
 6857SOL     OW21469   1.542   2.698   6.614
 6857SOL    HW121470   1.536   2.761   6.536
 6857SOL    HW221471   1.521   2.605   6.583
 6858SOL     OW21472   4.026   3.881   1.796
 6858SOL    HW121473   4.084   3.799   1.793
 6858SOL    HW221474   3.953   3.867   1.863
 6859SOL     OW21475   1.236   0.971   1.657
 6859SOL    HW121476   1.202   0.877   1.656
 6859SOL    HW221477   1.266   0.995   1.749
 6860SOL     OW21478   0.369   5.137   1.318
 6860SOL    HW121479   0.403   5.075   1.248
 6860SOL    HW221480   0.383   5.096   1.408
 6861SOL     OW21481   4.749   3.829   0.017
 6861SOL    HW121482   4.773   3.867   0.106
 6861SOL    HW221483   4.783   3.890   6.966
 6862SOL     OW21484   0.892   5.664   5.589
 6862SOL    HW121485   0.853   5.736   5.533
 6862SOL    HW221486   0.940   5.598   5.531
 6863SOL     OW21487   6.232   6.609   6.095
 6863SOL    HW121488   6.297   6.533   6.106
 6863SOL    HW221489   6.188   6.602   6.006
 6864SOL     OW21490   2.264   4.650   5.047
 6864SOL    HW121491   2.359   4.644   5.016
 6864SOL    HW221492   2.206   4.597   4.986
 6865SOL     OW21493   0.695   6.590   4.383
 6865SOL    HW121494   0.711   6.511   4.442
 6865SOL    HW221495   0.621   6.646   4.421
 6866SOL     OW21496   5.523   5.504   2.991
 6866SOL    HW121497   5.622   5.496   3.002
 6866SOL    HW221498   5.501   5.591   2.947
 6867SOL     OW21499   1.874   3.683   2.047
 6867SOL    HW121500   1.912   3.629   2.122
 6867SOL    HW221501   1.940   3.687   1.972
 6868SOL     OW21502   1.784   6.334   6.327
 6868SOL    HW121503   1.877   6.298   6.326
 6868SOL    HW221504   1.737   6.308   6.243
 6869SOL     OW21505   4.761   0.697   6.168
 6869SOL    HW121506   4.860   0.693   6.177
 6869SOL    HW221507   4.736   0.776   6.112
 6870SOL     OW21508   0.251   4.448   1.066
 6870SOL    HW121509   0.234   4.527   1.008
 6870SOL    HW221510   0.274   4.480   1.159
 6871SOL     OW21511   5.986   4.382   3.006
 6871SOL    HW121512   5.915   4.449   2.985
 6871SOL    HW221513   6.012   4.334   2.922
 6872SOL     OW21514   0.037   2.404   1.372
 6872SOL    HW121515   0.105   2.339   1.339
 6872SOL    HW221516   7.011   2.366   1.452
 6873SOL     OW21517   0.138   3.387   4.183
 6873SOL    HW121518   0.207   3.368   4.252
 6873SOL    HW221519   0.076   3.309   4.174
 6874SOL     OW21520   0.040   5.067   3.004
 6874SOL    HW121521   0.048   5.022   2.915
 6874SOL    HW221522   0.016   5.163   2.990
 6875SOL     OW21523   2.179   2.336   2.711
 6875SOL    HW121524   2.224   2.250   2.687
 6875SOL    HW221525   2.229   2.412   2.668
 6876SOL     OW21526   4.303   6.957   3.382
 6876SOL    HW121527   4.307   6.896   3.303
 6876SOL    HW221528   4.300   6.903   3.466
 6877SOL     OW21529   3.057   4.496   1.369
 6877SOL    HW121530   3.144   4.480   1.323
 6877SOL    HW221531   3.067   4.478   1.467
 6878SOL     OW21532   3.337   1.704   3.947
 6878SOL    HW121533   3.406   1.751   3.891
 6878SOL    HW221534   3.383   1.656   4.022
 6879SOL     OW21535   1.686   3.015   0.477
 6879SOL    HW121536   1.773   2.977   0.448
 6879SOL    HW221537   1.695   3.053   0.569
 6880SOL     OW21538   1.461   5.480   5.570
 6880SOL    HW121539   1.467   5.547   5.644
 6880SOL    HW221540   1.552   5.463   5.532
 6881SOL     OW21541   1.267   3.857   1.610
 6881SOL    HW121542   1.307   3.781   1.558
 6881SOL    HW221543   1.327   3.936   1.603
 6882SOL     OW21544   2.906   0.715   0.460
 6882SOL    HW121545   2.856   0.678   0.538
 6882SOL    HW221546   2.882   0.665   0.377
 6883SOL     OW21547   5.141   2.347   0.100
 6883SOL    HW121548   5.166   2.299   0.015
 6883SOL    HW221549   5.118   2.442   0.078
 6884SOL     OW21550   1.065   4.258   3.280
 6884SOL    HW121551   1.125   4.248   3.201
 6884SOL    HW221552   0.972   4.230   3.255
 6885SOL     OW21553   4.577   4.783   3.514
 6885SOL    HW121554   4.505   4.839   3.555
 6885SOL    HW221555   4.580   4.801   3.415
 6886SOL     OW21556   6.761   0.883   4.509
 6886SOL    HW121557   6.835   0.819   4.528
 6886SOL    HW221558   6.673   0.836   4.518
 6887SOL     OW21559   4.790   5.625   6.569
 6887SOL    HW121560   4.836   5.644   6.656
 6887SOL    HW221561   4.797   5.527   6.549
 6888SOL     OW21562   5.432   5.363   6.297
 6888SOL    HW121563   5.454   5.266   6.311
 6888SOL    HW221564   5.335   5.372   6.278
 6889SOL     OW21565   1.266   2.640   5.902
 6889SOL    HW121566   1.201   2.651   5.827
 6889SOL    HW221567   1.216   2.639   5.989
 6890SOL     OW21568   3.956   6.360   2.015
 6890SOL    HW121569   4.034   6.423   2.017
 6890SOL    HW221570   3.875   6.407   2.051
 6891SOL     OW21571   2.165   4.421   1.892
 6891SOL    HW121572   2.080   4.377   1.920
 6891SOL    HW221573   2.144   4.503   1.838
 6892SOL     OW21574   3.525   1.979   3.961
 6892SOL    HW121575   3.531   2.055   4.026
 6892SOL    HW221576   3.572   1.899   3.999
 6893SOL     OW21577   4.496   4.000   0.182
 6893SOL    HW121578   4.571   4.064   0.197
 6893SOL    HW221579   4.417   4.048   0.143
 6894SOL     OW21580   5.908   4.673   1.322
 6894SOL    HW121581   5.995   4.636   1.288
 6894SOL    HW221582   5.833   4.620   1.284
 6895SOL     OW21583   2.307   5.038   1.389
 6895SOL    HW121584   2.218   5.003   1.358
 6895SOL    HW221585   2.380   4.980   1.353
 6896SOL     OW21586   2.709   1.879   4.025
 6896SOL    HW121587   2.667   1.840   3.944
 6896SOL    HW221588   2.780   1.818   4.060
 6897SOL     OW21589   4.905   3.698   4.737
 6897SOL    HW121590   4.965   3.774   4.762
 6897SOL    HW221591   4.841   3.680   4.812
 6898SOL     OW21592   4.084   1.593   1.240
 6898SOL    HW121593   4.000   1.645   1.251
 6898SOL    HW221594   4.140   1.602   1.323
 6899SOL     OW21595   4.355   6.292   2.049
 6899SOL    HW121596   4.392   6.270   2.140
 6899SOL    HW221597   4.427   6.331   1.992
 6900SOL     OW21598   6.441   5.135   4.493
 6900SOL    HW121599   6.527   5.147   4.542
 6900SOL    HW221600   6.440   5.192   4.411
 6901SOL     OW21601   6.081   6.232   6.338
 6901SOL    HW121602   6.056   6.233   6.241
 6901SOL    HW221603   6.176   6.202   6.347
 6902SOL     OW21604   6.374   5.673   6.129
 6902SOL    HW121605   6.403   5.596   6.073
 6902SOL    HW221606   6.411   5.758   6.092
 6903SOL     OW21607   3.291   4.936   5.042
 6903SOL    HW121608   3.293   4.970   5.136
 6903SOL    HW221609   3.204   4.891   5.025
 6904SOL     OW21610   6.116   0.514   6.018
 6904SOL    HW121611   6.213   0.491   6.004
 6904SOL    HW221612   6.104   0.547   6.112
 6905SOL     OW21613   5.557   6.008   6.889
 6905SOL    HW121614   5.539   6.056   6.803
 6905SOL    HW221615   5.653   5.982   6.894
 6906SOL     OW21616   3.783   1.286   3.785
 6906SOL    HW121617   3.804   1.280   3.882
 6906SOL    HW221618   3.702   1.344   3.772
 6907SOL     OW21619   5.770   2.475   1.401
 6907SOL    HW121620   5.696   2.436   1.457
 6907SOL    HW221621   5.833   2.402   1.374
 6908SOL     OW21622   1.874   5.955   6.401
 6908SOL    HW121623   1.872   5.956   6.501
 6908SOL    HW221624   1.780   5.959   6.366
 6909SOL     OW21625   4.996   3.909   1.024
 6909SOL    HW121626   5.059   3.910   1.102
 6909SOL    HW221627   5.037   3.859   0.948
 6910SOL     OW21628   1.299   3.461   3.437
 6910SOL    HW121629   1.258   3.418   3.357
 6910SOL    HW221630   1.335   3.551   3.411
 6911SOL     OW21631   4.282   6.771   3.597
 6911SOL    HW121632   4.244   6.808   3.682
 6911SOL    HW221633   4.334   6.688   3.616
 6912SOL     OW21634   2.649   3.344   5.990
 6912SOL    HW121635   2.716   3.389   6.048
 6912SOL    HW221636   2.681   3.252   5.967
 6913SOL     OW21637   5.836   6.164   4.554
 6913SOL    HW121638   5.847   6.091   4.487
 6913SOL    HW221639   5.880   6.137   4.640
 6914SOL     OW21640   5.451   4.276   3.648
 6914SOL    HW121641   5.398   4.207   3.697
 6914SOL    HW221642   5.425   4.367   3.681
 6915SOL     OW21643   6.739   2.671   1.761
 6915SOL    HW121644   6.835   2.648   1.747
 6915SOL    HW221645   6.730   2.770   1.776
 6916SOL     OW21646   5.389   1.332   0.373
 6916SOL    HW121647   5.401   1.362   0.279
 6916SOL    HW221648   5.296   1.356   0.404
 6917SOL     OW21649   3.991   6.710   0.862
 6917SOL    HW121650   3.924   6.780   0.885
 6917SOL    HW221651   4.013   6.657   0.944
 6918SOL     OW21652   0.387   2.613   4.328
 6918SOL    HW121653   0.350   2.640   4.239
 6918SOL    HW221654   0.335   2.658   4.400
 6919SOL     OW21655   5.529   5.437   4.587
 6919SOL    HW121656   5.604   5.498   4.560
 6919SOL    HW221657   5.548   5.345   4.554
 6920SOL     OW21658   4.565   0.097   5.484
 6920SOL    HW121659   4.533   0.191   5.468
 6920SOL    HW221660   4.520   0.035   5.419
 6921SOL     OW21661   4.385   6.073   3.956
 6921SOL    HW121662   4.377   6.097   4.053
 6921SOL    HW221663   4.373   5.974   3.946
 6922SOL     OW21664   1.898   5.572   5.755
 6922SOL    HW121665   1.988   5.527   5.756
 6922SOL    HW221666   1.875   5.599   5.662
 6923SOL     OW21667   4.938   5.563   2.338
 6923SOL    HW121668   4.887   5.525   2.416
 6923SOL    HW221669   4.960   5.490   2.274
 6924SOL     OW21670   2.065   4.843   0.272
 6924SOL    HW121671   1.985   4.805   0.224
 6924SOL    HW221672   2.142   4.849   0.209
 6925SOL     OW21673   4.922   5.916   4.494
 6925SOL    HW121674   4.874   5.924   4.582
 6925SOL    HW221675   4.990   5.843   4.499
 6926SOL     OW21676   2.695   2.650   0.592
 6926SOL    HW121677   2.711   2.741   0.631
 6926SOL    HW221678   2.777   2.593   0.605
 6927SOL     OW21679   3.534   2.896   6.140
 6927SOL    HW121680   3.629   2.913   6.112
 6927SOL    HW221681   3.526   2.802   6.173
 6928SOL     OW21682   5.595   5.582   1.280
 6928SOL    HW121683   5.595   5.637   1.197
 6928SOL    HW221684   5.521   5.514   1.275
 6929SOL     OW21685   4.567   5.873   2.292
 6929SOL    HW121686   4.652   5.860   2.241
 6929SOL    HW221687   4.513   5.789   2.290
 6930SOL     OW21688   1.784   0.921   1.654
 6930SOL    HW121689   1.814   0.826   1.667
 6930SOL    HW221690   1.850   0.983   1.694
 6931SOL     OW21691   1.620   1.056   2.555
 6931SOL    HW121692   1.560   1.135   2.542
 6931SOL    HW221693   1.659   1.029   2.467
 6932SOL     OW21694   4.325   0.047   0.250
 6932SOL    HW121695   4.340   0.070   0.346
 6932SOL    HW221696   4.230   0.067   0.225
 6933SOL     OW21697   3.405   6.458   5.459
 6933SOL    HW121698   3.380   6.465   5.556
 6933SOL    HW221699   3.343   6.395   5.413
 6934SOL     OW21700   4.714   3.120   6.176
 6934SOL    HW121701   4.728   3.179   6.255
 6934SOL    HW221702   4.743   3.167   6.093
 6935SOL     OW21703   4.612   5.956   2.535
 6935SOL    HW121704   4.540   5.926   2.597
 6935SOL    HW221705   4.589   5.928   2.441
 6936SOL     OW21706   6.198   3.005   4.119
 6936SOL    HW121707   6.271   2.963   4.173
 6936SOL    HW221708   6.228   3.016   4.024
 6937SOL     OW21709   6.087   6.173   1.116
 6937SOL    HW121710   6.020   6.138   1.180
 6937SOL    HW221711   6.043   6.191   1.028
 6938SOL     OW21712   6.644   2.648   4.869
 6938SOL    HW121713   6.616   2.577   4.804
 6938SOL    HW221714   6.693   2.606   4.945
 6939SOL     OW21715   0.334   5.278   2.148
 6939SOL    HW121716   0.411   5.273   2.212
 6939SOL    HW221717   0.259   5.220   2.181
 6940SOL     OW21718   3.814   0.719   0.264
 6940SOL    HW121719   3.729   0.666   0.259
 6940SOL    HW221720   3.814   0.773   0.349
 6941SOL     OW21721   3.107   4.005   2.050
 6941SOL    HW121722   3.081   3.994   2.146
 6941SOL    HW221723   3.041   4.066   2.005
 6942SOL     OW21724   5.842   6.838   2.574
 6942SOL    HW121725   5.748   6.812   2.551
 6942SOL    HW221726   5.906   6.787   2.517
 6943SOL     OW21727   3.916   5.655   0.882
 6943SOL    HW121728   4.005   5.697   0.900
 6943SOL    HW221729   3.908   5.570   0.934
 6944SOL     OW21730   1.220   4.871   6.137
 6944SOL    HW121731   1.246   4.801   6.204
 6944SOL    HW221732   1.193   4.826   6.051
 6945SOL     OW21733   7.011   1.705   0.793
 6945SOL    HW121734   6.952   1.725   0.871
 6945SOL    HW221735   0.059   1.777   0.785
 6946SOL     OW21736   4.171   0.023   1.330
 6946SOL    HW121737   4.179   6.946   1.350
 6946SOL    HW221738   4.077   0.043   1.302
 6947SOL     OW21739   3.616   5.054   6.718
 6947SOL    HW121740   3.527   5.100   6.719
 6947SOL    HW221741   3.686   5.120   6.691
 6948SOL     OW21742   1.094   6.202   0.928
 6948SOL    HW121743   1.155   6.202   1.007
 6948SOL    HW221744   1.029   6.278   0.936
 6949SOL     OW21745   3.404   0.276   3.396
 6949SOL    HW121746   3.502   0.269   3.375
 6949SOL    HW221747   3.387   0.357   3.452
 6950SOL     OW21748   1.805   1.180   4.753
 6950SOL    HW121749   1.903   1.171   4.768
 6950SOL    HW221750   1.760   1.204   4.839
 6951SOL     OW21751   0.258   5.731   5.836
 6951SOL    HW121752   0.308   5.729   5.922
 6951SOL    HW221753   0.294   5.661   5.775
 6952SOL     OW21754   1.033   5.312   3.286
 6952SOL    HW121755   1.021   5.213   3.297
 6952SOL    HW221756   1.122   5.339   3.323
 6953SOL     OW21757   4.981   6.413   0.998
 6953SOL    HW121758   4.959   6.457   1.085
 6953SOL    HW221759   4.908   6.348   0.974
 6954SOL     OW21760   0.811   4.207   1.882
 6954SOL    HW121761   0.777   4.197   1.789
 6954SOL    HW221762   0.872   4.286   1.887
 6955SOL     OW21763   5.410   1.024   2.269
 6955SOL    HW121764   5.373   1.034   2.177
 6955SOL    HW221765   5.335   1.028   2.335
 6956SOL     OW21766   4.838   5.814   3.475
 6956SOL    HW121767   4.760   5.847   3.529
 6956SOL    HW221768   4.805   5.751   3.405
 6957SOL     OW21769   6.486   6.186   0.291
 6957SOL    HW121770   6.428   6.147   0.220
 6957SOL    HW221771   6.428   6.213   0.369
 6958SOL     OW21772   4.132   3.375   5.040
 6958SOL    HW121773   4.193   3.431   5.096
 6958SOL    HW221774   4.113   3.422   4.954
 6959SOL     OW21775   1.949   3.202   3.114
 6959SOL    HW121776   1.940   3.126   3.178
 6959SOL    HW221777   1.858   3.227   3.080
 6960SOL     OW21778   1.964   4.156   1.422
 6960SOL    HW121779   2.038   4.159   1.354
 6960SOL    HW221780   1.989   4.092   1.495
 6961SOL     OW21781   6.154   0.467   4.843
 6961SOL    HW121782   6.231   0.443   4.901
 6961SOL    HW221783   6.101   0.540   4.887
 6962SOL     OW21784   4.207   5.734   1.081
 6962SOL    HW121785   4.185   5.766   0.988
 6962SOL    HW221786   4.301   5.759   1.103
 6963SOL     OW21787   5.344   5.676   0.923
 6963SOL    HW121788   5.356   5.763   0.971
 6963SOL    HW221789   5.349   5.692   0.824
 6964SOL     OW21790   3.883   1.431   5.725
 6964SOL    HW121791   3.885   1.462   5.630
 6964SOL    HW221792   3.928   1.498   5.783
 6965SOL     OW21793   2.139   1.315   7.000
 6965SOL    HW121794   2.040   1.328   6.998
 6965SOL    HW221795   2.161   1.223   6.968
 6966SOL     OW21796   0.661   1.112   2.731
 6966SOL    HW121797   0.613   1.195   2.762
 6966SOL    HW221798   0.723   1.136   2.657
 6967SOL     OW21799   3.226   0.907   5.919
 6967SOL    HW121800   3.185   0.946   6.002
 6967SOL    HW221801   3.250   0.980   5.856
 6968SOL     OW21802   3.256   1.064   3.951
 6968SOL    HW121803   3.157   1.056   3.956
 6968SOL    HW221804   3.281   1.159   3.929
 6969SOL     OW21805   3.010   2.318   1.483
 6969SOL    HW121806   3.064   2.250   1.434
 6969SOL    HW221807   2.952   2.272   1.550
 6970SOL     OW21808   3.975   3.809   5.705
 6970SOL    HW121809   3.976   3.766   5.614
 6970SOL    HW221810   4.009   3.745   5.773
 6971SOL     OW21811   6.474   4.610   0.586
 6971SOL    HW121812   6.392   4.664   0.567
 6971SOL    HW221813   6.502   4.623   0.681
 6972SOL     OW21814   5.084   4.395   3.044
 6972SOL    HW121815   5.000   4.361   3.002
 6972SOL    HW221816   5.086   4.495   3.037
 6973SOL     OW21817   0.629   2.626   3.435
 6973SOL    HW121818   0.693   2.696   3.402
 6973SOL    HW221819   0.624   2.552   3.369
 6974SOL     OW21820   2.989   3.715   2.520
 6974SOL    HW121821   3.018   3.707   2.424
 6974SOL    HW221822   2.996   3.810   2.549
 6975SOL     OW21823   1.546   6.413   4.919
 6975SOL    HW121824   1.449   6.422   4.941
 6975SOL    HW221825   1.566   6.462   4.834
 6976SOL     OW21826   6.545   4.637   5.965
 6976SOL    HW121827   6.543   4.666   5.870
 6976SOL    HW221828   6.615   4.689   6.014
 6977SOL     OW21829   3.471   3.195   0.720
 6977SOL    HW121830   3.450   3.202   0.818
 6977SOL    HW221831   3.451   3.102   0.689
 6978SOL     OW21832   4.977   2.422   1.918
 6978SOL    HW121833   4.962   2.496   1.852
 6978SOL    HW221834   4.939   2.337   1.882
 6979SOL     OW21835   0.898   4.137   1.329
 6979SOL    HW121836   0.906   4.142   1.229
 6979SOL    HW221837   0.923   4.046   1.360
 6980SOL     OW21838   1.900   1.008   3.317
 6980SOL    HW121839   1.807   1.044   3.309
 6980SOL    HW221840   1.937   0.989   3.227
 6981SOL     OW21841   3.519   3.869   5.822
 6981SOL    HW121842   3.573   3.809   5.763
 6981SOL    HW221843   3.435   3.822   5.849
 6982SOL     OW21844   1.256   1.295   4.365
 6982SOL    HW121845   1.178   1.287   4.427
 6982SOL    HW221846   1.251   1.223   4.297
 6983SOL     OW21847   4.712   1.436   4.725
 6983SOL    HW121848   4.638   1.493   4.690
 6983SOL    HW221849   4.737   1.466   4.817
 6984SOL     OW21850   2.213   1.784   3.430
 6984SOL    HW121851   2.218   1.710   3.497
 6984SOL    HW221852   2.125   1.779   3.382
 6985SOL     OW21853   5.913   5.271   0.868
 6985SOL    HW121854   5.887   5.184   0.825
 6985SOL    HW221855   6.012   5.280   0.867
 6986SOL     OW21856   3.068   0.281   6.625
 6986SOL    HW121857   3.135   0.348   6.592
 6986SOL    HW221858   2.979   0.300   6.584
 6987SOL     OW21859   6.591   1.388   6.064
 6987SOL    HW121860   6.673   1.331   6.058
 6987SOL    HW221861   6.539   1.379   5.979
 6988SOL     OW21862   1.203   0.268   6.668
 6988SOL    HW121863   1.276   0.307   6.724
 6988SOL    HW221864   1.192   0.171   6.690
 6989SOL     OW21865   0.574   4.460   2.803
 6989SOL    HW121866   0.534   4.431   2.715
 6989SOL    HW221867   0.548   4.554   2.822
 6990SOL     OW21868   4.144   3.122   0.936
 6990SOL    HW121869   4.070   3.141   1.000
 6990SOL    HW221870   4.214   3.066   0.981
 6991SOL     OW21871   4.609   4.388   3.361
 6991SOL    HW121872   4.650   4.297   3.371
 6991SOL    HW221873   4.653   4.436   3.285
 6992SOL     OW21874   5.838   0.420   6.662
 6992SOL    HW121875   5.878   0.476   6.734
 6992SOL    HW221876   5.790   0.343   6.702
 6993SOL     OW21877   5.919   0.129   2.240
 6993SOL    HW121878   5.977   0.155   2.163
 6993SOL    HW221879   5.949   0.177   2.322
 6994SOL     OW21880   0.408   2.372   3.963
 6994SOL    HW121881   0.465   2.445   4.001
 6994SOL    HW221882   0.404   2.381   3.864
 6995SOL     OW21883   0.594   3.904   6.506
 6995SOL    HW121884   0.681   3.892   6.459
 6995SOL    HW221885   0.521   3.917   6.439
 6996SOL     OW21886   2.288   0.272   0.289
 6996SOL    HW121887   2.240   0.335   0.229
 6996SOL    HW221888   2.354   0.322   0.344
 6997SOL     OW21889   0.363   5.295   5.088
 6997SOL    HW121890   0.411   5.282   5.174
 6997SOL    HW221891   0.351   5.206   5.043
 6998SOL     OW21892   1.525   1.605   1.347
 6998SOL    HW121893   1.606   1.553   1.321
 6998SOL    HW221894   1.443   1.553   1.322
 6999SOL     OW21895   1.783   2.817   6.003
 6999SOL    HW121896   1.732   2.901   6.020
 6999SOL    HW221897   1.729   2.739   6.032
 7000SOL     OW21898   6.217   6.553   2.193
 7000SOL    HW121899   6.179   6.482   2.133
 7000SOL    HW221900   6.151   6.575   2.265
 7001SOL     OW21901   1.133   3.153   5.335
 7001SOL    HW121902   1.218   3.202   5.315
 7001SOL    HW221903   1.140   3.059   5.300
 7002SOL     OW21904   1.892   5.587   4.530
 7002SOL    HW121905   1.826   5.604   4.456
 7002SOL    HW221906   1.898   5.669   4.588
 7003SOL     OW21907   4.368   6.087   1.215
 7003SOL    HW121908   4.427   6.128   1.284
 7003SOL    HW221909   4.418   6.016   1.166
 7004SOL     OW21910   0.427   5.846   0.981
 7004SOL    HW121911   0.513   5.848   0.929
 7004SOL    HW221912   0.365   5.780   0.939
 7005SOL     OW21913   1.160   0.270   0.902
 7005SOL    HW121914   1.141   0.223   0.815
 7005SOL    HW221915   1.133   0.366   0.893
 7006SOL     OW21916   5.567   5.700   3.522
 7006SOL    HW121917   5.598   5.642   3.598
 7006SOL    HW221918   5.477   5.668   3.492
 7007SOL     OW21919   4.037   0.823   4.105
 7007SOL    HW121920   4.015   0.884   4.029
 7007SOL    HW221921   4.042   0.729   4.072
 7008SOL     OW21922   0.532   4.342   4.485
 7008SOL    HW121923   0.483   4.270   4.534
 7008SOL    HW221924   0.480   4.369   4.404
 7009SOL     OW21925   4.055   6.592   2.561
 7009SOL    HW121926   4.088   6.685   2.539
 7009SOL    HW221927   3.957   6.587   2.541
 7010SOL     OW21928   5.314   3.981   3.727
 7010SOL    HW121929   5.410   3.956   3.741
 7010SOL    HW221930   5.266   3.905   3.683
 7011SOL     OW21931   3.749   7.014   6.809
 7011SOL    HW121932   3.792   6.961   6.881
 7011SOL    HW221933   3.653   6.988   6.800
 7012SOL     OW21934   0.806   1.501   1.240
 7012SOL    HW121935   0.814   1.594   1.203
 7012SOL    HW221936   0.714   1.466   1.221
 7013SOL     OW21937   1.073   6.798   6.712
 7013SOL    HW121938   1.123   6.713   6.728
 7013SOL    HW221939   0.999   6.781   6.648
 7014SOL     OW21940   5.330   3.182   0.294
 7014SOL    HW121941   5.391   3.105   0.277
 7014SOL    HW221942   5.301   3.182   0.390
 7015SOL     OW21943   6.008   4.255   1.388
 7015SOL    HW121944   5.916   4.275   1.423
 7015SOL    HW221945   6.063   4.338   1.391
 7016SOL     OW21946   4.127   4.665   1.369
 7016SOL    HW121947   4.082   4.652   1.458
 7016SOL    HW221948   4.136   4.763   1.351
 7017SOL     OW21949   2.993   5.305   3.220
 7017SOL    HW121950   3.081   5.267   3.247
 7017SOL    HW221951   3.001   5.404   3.210
 7018SOL     OW21952   5.144   3.791   4.319
 7018SOL    HW121953   5.146   3.758   4.413
 7018SOL    HW221954   5.060   3.760   4.274
 7019SOL     OW21955   3.612   4.511   0.588
 7019SOL    HW121956   3.536   4.546   0.533
 7019SOL    HW221957   3.676   4.586   0.607
 7020SOL     OW21958   6.816   3.745   5.240
 7020SOL    HW121959   6.850   3.670   5.297
 7020SOL    HW221960   6.758   3.805   5.296
 7021SOL     OW21961   1.644   2.494   4.108
 7021SOL    HW121962   1.702   2.506   4.189
 7021SOL    HW221963   1.597   2.406   4.113
 7022SOL     OW21964   4.757   6.886   6.621
 7022SOL    HW121965   4.706   6.956   6.571
 7022SOL    HW221966   4.853   6.887   6.592
 7023SOL     OW21967   0.597   3.157   1.939
 7023SOL    HW121968   0.554   3.068   1.926
 7023SOL    HW221969   0.669   3.150   2.007
 7024SOL     OW21970   2.952   3.440   4.472
 7024SOL    HW121971   2.955   3.372   4.545
 7024SOL    HW221972   2.951   3.395   4.383
 7025SOL     OW21973   4.136   1.330   1.271
 7025SOL    HW121974   4.232   1.350   1.291
 7025SOL    HW221975   4.084   1.416   1.269
 7026SOL     OW21976   3.517   2.019   2.210
 7026SOL    HW121977   3.566   2.076   2.144
 7026SOL    HW221978   3.419   2.018   2.186
 7027SOL     OW21979   2.739   5.804   4.465
 7027SOL    HW121980   2.740   5.881   4.528
 7027SOL    HW221981   2.646   5.788   4.434
 7028SOL     OW21982   3.865   0.752   3.542
 7028SOL    HW121983   3.779   0.743   3.594
 7028SOL    HW221984   3.854   0.712   3.452
 7029SOL     OW21985   4.345   4.210   5.568
 7029SOL    HW121986   4.407   4.133   5.558
 7029SOL    HW221987   4.380   4.272   5.639
 7030SOL     OW21988   0.189   0.720   4.390
 7030SOL    HW121989   0.238   0.807   4.400
 7030SOL    HW221990   0.227   0.670   4.313
 7031SOL     OW21991   3.993   6.084   0.069
 7031SOL    HW121992   4.018   6.009   0.008
 7031SOL    HW221993   3.976   6.167   0.015
 7032SOL     OW21994   3.954   1.479   3.356
 7032SOL    HW121995   3.925   1.518   3.269
 7032SOL    HW221996   3.929   1.383   3.360
 7033SOL     OW21997   1.180   2.566   3.431
 7033SOL    HW121998   1.159   2.660   3.457
 7033SOL    HW221999   1.279   2.556   3.419
 7034SOL     OW22000   0.011   1.281   2.781
 7034SOL    HW122001   6.976   1.282   2.699
 7034SOL    HW222002   6.992   1.341   2.850
 7035SOL     OW22003   1.553   0.248   0.659
 7035SOL    HW122004   1.651   0.231   0.664
 7035SOL    HW222005   1.504   0.164   0.683
 7036SOL     OW22006   6.851   1.175   2.197
 7036SOL    HW122007   6.828   1.101   2.261
 7036SOL    HW222008   6.936   1.218   2.224
 7037SOL     OW22009   1.232   1.071   6.528
 7037SOL    HW122010   1.144   1.049   6.570
 7037SOL    HW222011   1.304   1.021   6.575
 7038SOL     OW22012   2.458   4.539   4.700
 7038SOL    HW122013   2.536   4.578   4.651
 7038SOL    HW222014   2.396   4.494   4.635
 7039SOL     OW22015   0.171   5.727   3.013
 7039SOL    HW122016   0.114   5.756   2.936
 7039SOL    HW222017   0.128   5.757   3.099
 7040SOL     OW22018   4.687   2.796   5.714
 7040SOL    HW122019   4.732   2.828   5.631
 7040SOL    HW222020   4.749   2.806   5.791
 7041SOL     OW22021   7.021   1.837   2.609
 7041SOL    HW122022   6.936   1.785   2.604
 7041SOL    HW222023   0.032   1.857   2.516
 7042SOL     OW22024   4.576   6.238   4.281
 7042SOL    HW122025   4.557   6.268   4.375
 7042SOL    HW222026   4.669   6.203   4.276
 7043SOL     OW22027   2.382   4.921   3.522
 7043SOL    HW122028   2.430   4.969   3.448
 7043SOL    HW222029   2.448   4.890   3.590
 7044SOL     OW22030   5.751   5.611   5.210
 7044SOL    HW122031   5.742   5.685   5.144
 7044SOL    HW222032   5.677   5.545   5.196
 7045SOL     OW22033   5.062   5.804   2.454
 7045SOL    HW122034   5.135   5.804   2.522
 7045SOL    HW222035   5.037   5.710   2.431
 7046SOL     OW22036   3.550   1.340   3.438
 7046SOL    HW122037   3.463   1.372   3.475
 7046SOL    HW222038   3.626   1.387   3.485
 7047SOL     OW22039   6.517   0.715   2.133
 7047SOL    HW122040   6.485   0.810   2.128
 7047SOL    HW222041   6.561   0.690   2.047
 7048SOL     OW22042   5.889   6.665   4.815
 7048SOL    HW122043   5.843   6.753   4.827
 7048SOL    HW222044   5.865   6.628   4.725
 7049SOL     OW22045   3.594   1.925   1.255
 7049SOL    HW122046   3.592   1.974   1.343
 7049SOL    HW222047   3.542   1.840   1.263
 7050SOL     OW22048   4.038   3.662   1.117
 7050SOL    HW122049   4.020   3.665   1.215
 7050SOL    HW222050   4.068   3.570   1.091
 7051SOL     OW22051   6.708   6.428   1.298
 7051SOL    HW122052   6.706   6.364   1.375
 7051SOL    HW222053   6.625   6.484   1.298
 7052SOL     OW22054   6.540   0.970   4.029
 7052SOL    HW122055   6.638   0.949   4.024
 7052SOL    HW222056   6.507   0.996   3.938
 7053SOL     OW22057   1.347   3.608   4.469
 7053SOL    HW122058   1.348   3.515   4.433
 7053SOL    HW222059   1.349   3.673   4.393
 7054SOL     OW22060   6.990   6.845   0.934
 7054SOL    HW122061   6.958   6.769   0.877
 7054SOL    HW222062   6.978   6.821   1.031
 7055SOL     OW22063   2.838   0.645   0.216
 7055SOL    HW122064   2.847   0.694   0.129
 7055SOL    HW222065   2.755   0.588   0.213
 7056SOL     OW22066   6.976   5.063   1.231
 7056SOL    HW122067   0.029   5.085   1.168
 7056SOL    HW222068   7.010   5.058   1.324
 7057SOL     OW22069   2.837   5.066   3.870
 7057SOL    HW122070   2.888   4.991   3.828
 7057SOL    HW222071   2.811   5.039   3.963
 7058SOL     OW22072   5.397   2.116   6.111
 7058SOL    HW122073   5.305   2.107   6.149
 7058SOL    HW222074   5.458   2.052   6.156
 7059SOL     OW22075   1.401   1.125   3.902
 7059SOL    HW122076   1.374   1.162   3.991
 7059SOL    HW222077   1.319   1.103   3.849
 7060SOL     OW22078   3.489   0.139   0.913
 7060SOL    HW122079   3.482   0.153   1.012
 7060SOL    HW222080   3.419   0.194   0.867
 7061SOL     OW22081   6.949   2.738   3.894
 7061SOL    HW122082   7.004   2.818   3.870
 7061SOL    HW222083   6.865   2.737   3.839
 7062SOL     OW22084   3.645   2.266   5.292
 7062SOL    HW122085   3.631   2.365   5.304
 7062SOL    HW222086   3.715   2.251   5.223
 7063SOL     OW22087   1.172   0.237   1.674
 7063SOL    HW122088   1.154   0.321   1.622
 7063SOL    HW222089   1.270   0.226   1.688
 7064SOL     OW22090   4.188   1.927   6.604
 7064SOL    HW122091   4.232   1.839   6.588
 7064SOL    HW222092   4.258   1.995   6.629
 7065SOL     OW22093   3.038   3.987   5.112
 7065SOL    HW122094   3.061   3.929   5.033
 7065SOL    HW222095   3.109   4.057   5.124
 7066SOL     OW22096   4.190   6.610   5.562
 7066SOL    HW122097   4.223   6.542   5.628
 7066SOL    HW222098   4.105   6.650   5.596
 7067SOL     OW22099   1.077   3.664   5.797
 7067SOL    HW122100   1.113   3.613   5.718
 7067SOL    HW222101   1.106   3.619   5.881
 7068SOL     OW22102   5.583   4.179   4.442
 7068SOL    HW122103   5.522   4.173   4.363
 7068SOL    HW222104   5.625   4.270   4.444
 7069SOL     OW22105   5.874   1.663   5.491
 7069SOL    HW122106   5.903   1.640   5.584
 7069SOL    HW222107   5.828   1.584   5.450
 7070SOL     OW22108   1.243   6.435   4.076
 7070SOL    HW122109   1.167   6.387   4.033
 7070SOL    HW222110   1.284   6.499   4.011
 7071SOL     OW22111   3.976   5.872   6.855
 7071SOL    HW122112   3.997   5.909   6.764
 7071SOL    HW222113   4.015   5.780   6.864
 7072SOL     OW22114   2.376   4.767   0.358
 7072SOL    HW122115   2.383   4.782   0.457
 7072SOL    HW222116   2.463   4.788   0.315
 7073SOL     OW22117   3.553   0.313   2.974
 7073SOL    HW122118   3.622   0.376   3.011
 7073SOL    HW222119   3.592   0.262   2.898
 7074SOL     OW22120   6.358   2.709   2.920
 7074SOL    HW122121   6.454   2.697   2.948
 7074SOL    HW222122   6.342   2.657   2.836
 7075SOL     OW22123   2.880   5.033   4.779
 7075SOL    HW122124   2.817   4.959   4.754
 7075SOL    HW222125   2.828   5.116   4.796
 7076SOL     OW22126   5.694   2.717   0.572
 7076SOL    HW122127   5.753   2.636   0.574
 7076SOL    HW222128   5.744   2.797   0.604
 7077SOL     OW22129   2.169   3.918   3.446
 7077SOL    HW122130   2.162   3.827   3.486
 7077SOL    HW222131   2.120   3.984   3.503
 7078SOL     OW22132   6.333   6.281   1.200
 7078SOL    HW122133   6.250   6.229   1.181
 7078SOL    HW222134   6.399   6.267   1.125
 7079SOL     OW22135   1.252   6.763   3.391
 7079SOL    HW122136   1.240   6.862   3.403
 7079SOL    HW222137   1.198   6.732   3.313
 7080SOL     OW22138   3.915   1.972   4.113
 7080SOL    HW122139   3.852   1.984   4.190
 7080SOL    HW222140   3.870   1.919   4.042
 7081SOL     OW22141   1.011   5.429   0.068
 7081SOL    HW122142   1.048   5.429   0.161
 7081SOL    HW222143   1.052   5.503   0.015
 7082SOL     OW22144   6.600   4.313   0.307
 7082SOL    HW122145   6.585   4.232   0.363
 7082SOL    HW222146   6.664   4.292   0.234
 7083SOL     OW22147   0.088   1.183   2.291
 7083SOL    HW122148   0.120   1.183   2.386
 7083SOL    HW222149   0.120   1.100   2.245
 7084SOL     OW22150   0.714   5.305   5.583
 7084SOL    HW122151   0.698   5.385   5.525
 7084SOL    HW222152   0.748   5.334   5.672
 7085SOL     OW22153   6.658   2.426   2.613
 7085SOL    HW122154   6.639   2.417   2.516
 7085SOL    HW222155   6.753   2.400   2.632
 7086SOL     OW22156   5.584   1.082   6.294
 7086SOL    HW122157   5.606   0.990   6.262
 7086SOL    HW222158   5.641   1.149   6.246
 7087SOL     OW22159   5.668   4.093   2.652
 7087SOL    HW122160   5.582   4.083   2.602
 7087SOL    HW222161   5.673   4.023   2.723
 7088SOL     OW22162   5.175   2.581   5.540
 7088SOL    HW122163   5.179   2.568   5.640
 7088SOL    HW222164   5.190   2.678   5.519
 7089SOL     OW22165   2.068   3.572   3.238
 7089SOL    HW122166   2.094   3.632   3.162
 7089SOL    HW222167   2.111   3.603   3.322
 7090SOL     OW22168   2.579   1.723   0.179
 7090SOL    HW122169   2.496   1.667   0.180
 7090SOL    HW222170   2.573   1.788   0.103
 7091SOL     OW22171   0.406   0.971   1.496
 7091SOL    HW122172   0.476   0.994   1.565
 7091SOL    HW222173   0.428   1.018   1.411
 7092SOL     OW22174   3.994   3.066   5.520
 7092SOL    HW122175   4.011   2.978   5.563
 7092SOL    HW222176   3.925   3.116   5.571
 7093SOL     OW22177   3.224   4.215   1.707
 7093SOL    HW122178   3.218   4.131   1.653
 7093SOL    HW222179   3.306   4.212   1.765
 7094SOL     OW22180   1.388   0.544   5.595
 7094SOL    HW122181   1.330   0.554   5.514
 7094SOL    HW222182   1.442   0.461   5.587
 7095SOL     OW22183   3.446   4.869   5.399
 7095SOL    HW122184   3.456   4.880   5.498
 7095SOL    HW222185   3.385   4.939   5.364
 7096SOL     OW22186   6.271   0.280   1.832
 7096SOL    HW122187   6.280   0.237   1.742
 7096SOL    HW222188   6.361   0.305   1.866
 7097SOL     OW22189   5.402   0.773   1.445
 7097SOL    HW122190   5.413   0.726   1.533
 7097SOL    HW222191   5.334   0.725   1.390
 7098SOL     OW22192   1.441   5.935   5.825
 7098SOL    HW122193   1.501   6.015   5.827
 7098SOL    HW222194   1.354   5.958   5.868
 7099SOL     OW22195   3.792   2.131   4.320
 7099SOL    HW122196   3.848   2.214   4.318
 7099SOL    HW222197   3.829   2.067   4.388
 7100SOL     OW22198   6.351   3.153   0.692
 7100SOL    HW122199   6.371   3.148   0.790
 7100SOL    HW222200   6.407   3.087   0.643
 7101SOL     OW22201   2.464   0.723   5.248
 7101SOL    HW122202   2.423   0.781   5.178
 7101SOL    HW222203   2.536   0.774   5.295
 7102SOL     OW22204   5.660   0.225   0.840
 7102SOL    HW122205   5.576   0.276   0.821
 7102SOL    HW222206   5.638   0.137   0.881
 7103SOL     OW22207   5.681   5.154   1.309
 7103SOL    HW122208   5.750   5.226   1.309
 7103SOL    HW222209   5.713   5.077   1.254
 7104SOL     OW22210   6.335   3.550   2.322
 7104SOL    HW122211   6.420   3.603   2.331
 7104SOL    HW222212   6.338   3.472   2.385
 7105SOL     OW22213   3.553   3.257   5.008
 7105SOL    HW122214   3.571   3.223   4.915
 7105SOL    HW222215   3.499   3.340   5.003
 7106SOL     OW22216   3.595   3.056   1.603
 7106SOL    HW122217   3.503   3.041   1.638
 7106SOL    HW222218   3.662   3.020   1.669
 7107SOL     OW22219   3.737   0.692   0.973
 7107SOL    HW122220   3.772   0.630   0.903
 7107SOL    HW222221   3.789   0.680   1.057
 7108SOL     OW22222   2.847   5.612   2.570
 7108SOL    HW122223   2.758   5.613   2.526
 7108SOL    HW222224   2.918   5.635   2.503
 7109SOL     OW22225   1.757   1.213   0.049
 7109SOL    HW122226   1.801   1.242   6.986
 7109SOL    HW222227   1.716   1.292   0.095
 7110SOL     OW22228   3.175   5.977   4.352
 7110SOL    HW122229   3.105   5.989   4.281
 7110SOL    HW222230   3.160   6.042   4.426
 7111SOL     OW22231   1.835   2.258   4.331
 7111SOL    HW122232   1.766   2.323   4.298
 7111SOL    HW222233   1.912   2.256   4.267
 7112SOL     OW22234   2.003   4.817   4.407
 7112SOL    HW122235   2.062   4.893   4.378
 7112SOL    HW222236   2.012   4.742   4.342
 7113SOL     OW22237   3.287   4.143   5.144
 7113SOL    HW122238   3.333   4.143   5.233
 7113SOL    HW222239   3.355   4.143   5.071
 7114SOL     OW22240   4.362   5.145   1.414
 7114SOL    HW122241   4.293   5.145   1.486
 7114SOL    HW222242   4.350   5.064   1.356
 7115SOL     OW22243   5.550   3.529   6.720
 7115SOL    HW122244   5.595   3.453   6.673
 7115SOL    HW222245   5.610   3.565   6.791
 7116SOL     OW22246   5.365   4.354   3.020
 7116SOL    HW122247   5.276   4.377   3.058
 7116SOL    HW222248   5.362   4.262   2.981
 7117SOL     OW22249   0.214   6.792   4.761
 7117SOL    HW122250   0.230   6.843   4.676
 7117SOL    HW222251   0.266   6.706   4.759
 7118SOL     OW22252   3.935   4.027   5.553
 7118SOL    HW122253   3.950   3.945   5.609
 7118SOL    HW222254   3.965   4.108   5.604
 7119SOL     OW22255   5.363   0.886   5.441
 7119SOL    HW122256   5.428   0.811   5.427
 7119SOL    HW222257   5.292   0.856   5.504
 7120SOL     OW22258   3.896   1.614   1.611
 7120SOL    HW122259   3.828   1.608   1.684
 7120SOL    HW222260   3.884   1.537   1.548
 7121SOL     OW22261   0.522   6.835   2.730
 7121SOL    HW122262   0.461   6.907   2.697
 7121SOL    HW222263   0.616   6.857   2.704
 7122SOL     OW22264   1.800   0.565   5.710
 7122SOL    HW122265   1.889   0.523   5.730
 7122SOL    HW222266   1.756   0.593   5.795
 7123SOL     OW22267   0.420   5.255   3.674
 7123SOL    HW122268   0.359   5.312   3.619
 7123SOL    HW222269   0.454   5.179   3.618
 7124SOL     OW22270   0.691   2.588   1.619
 7124SOL    HW122271   0.785   2.623   1.617
 7124SOL    HW222272   0.692   2.492   1.592
 7125SOL     OW22273   1.483   1.062   1.451
 7125SOL    HW122274   1.449   1.023   1.536
 7125SOL    HW222275   1.408   1.106   1.402
 7126SOL     OW22276   4.504   6.095   0.539
 7126SOL    HW122277   4.477   6.025   0.473
 7126SOL    HW222278   4.507   6.056   0.631
 7127SOL     OW22279   2.518   6.341   5.965
 7127SOL    HW122280   2.462   6.260   5.951
 7127SOL    HW222281   2.532   6.388   5.878
 7128SOL     OW22282   3.666   3.890   6.918
 7128SOL    HW122283   3.623   3.807   6.882
 7128SOL    HW222284   3.698   3.946   6.842
 7129SOL     OW22285   1.758   1.150   1.418
 7129SOL    HW122286   1.674   1.100   1.435
 7129SOL    HW222287   1.775   1.213   1.494
 7130SOL     OW22288   3.760   6.540   4.401
 7130SOL    HW122289   3.824   6.498   4.465
 7130SOL    HW222290   3.705   6.469   4.357
 7131SOL     OW22291   3.092   0.785   1.634
 7131SOL    HW122292   3.118   0.705   1.686
 7131SOL    HW222293   3.165   0.854   1.638
 7132SOL     OW22294   5.029   4.009   0.265
 7132SOL    HW122295   5.088   4.024   0.345
 7132SOL    HW222296   5.077   3.952   0.198
 7133SOL     OW22297   4.425   4.620   4.466
 7133SOL    HW122298   4.364   4.552   4.507
 7133SOL    HW222299   4.411   4.708   4.510
 7134SOL     OW22300   5.105   6.863   2.523
 7134SOL    HW122301   5.051   6.840   2.604
 7134SOL    HW222302   5.143   6.779   2.483
 7135SOL     OW22303   2.192   2.949   2.931
 7135SOL    HW122304   2.263   2.911   2.991
 7135SOL    HW222305   2.196   3.049   2.934
 7136SOL     OW22306   3.145   1.944   1.149
 7136SOL    HW122307   3.174   1.886   1.073
 7136SOL    HW222308   3.150   1.892   1.234
 7137SOL     OW22309   2.953   1.841   0.637
 7137SOL    HW122310   2.947   1.888   0.725
 7137SOL    HW222311   2.870   1.860   0.584
 7138SOL     OW22312   2.000   1.638   1.036
 7138SOL    HW122313   2.001   1.665   1.132
 7138SOL    HW222314   1.993   1.719   0.978
 7139SOL     OW22315   5.695   4.798   2.201
 7139SOL    HW122316   5.737   4.712   2.231
 7139SOL    HW222317   5.742   4.875   2.244
 7140SOL     OW22318   6.196   4.033   1.045
 7140SOL    HW122319   6.237   4.029   1.137
 7140SOL    HW222320   6.261   3.999   0.978
 7141SOL     OW22321   4.401   0.100   1.221
 7141SOL    HW122322   4.321   0.054   1.259
 7141SOL    HW222323   4.371   0.174   1.161
 7142SOL     OW22324   3.557   0.057   3.913
 7142SOL    HW122325   3.544   6.991   3.959
 7142SOL    HW222326   3.511   0.129   3.965
 7143SOL     OW22327   1.936   4.060   0.181
 7143SOL    HW122328   2.014   4.071   0.243
 7143SOL    HW222329   1.962   4.089   0.089
 7144SOL     OW22330   0.920   0.856   3.635
 7144SOL    HW122331   0.863   0.938   3.644
 7144SOL    HW222332   0.945   0.824   3.726
 7145SOL     OW22333   4.027   0.953   6.517
 7145SOL    HW122334   4.085   1.034   6.523
 7145SOL    HW222335   4.066   0.888   6.452
 7146SOL     OW22336   1.894   1.464   5.822
 7146SOL    HW122337   1.807   1.512   5.827
 7146SOL    HW222338   1.887   1.376   5.869
 7147SOL     OW22339   6.495   5.755   3.159
 7147SOL    HW122340   6.438   5.802   3.226
 7147SOL    HW222341   6.591   5.771   3.181
 7148SOL     OW22342   6.274   6.012   1.919
 7148SOL    HW122343   6.211   5.951   1.870
 7148SOL    HW222344   6.256   6.007   2.017
 7149SOL     OW22345   0.744   5.068   3.861
 7149SOL    HW122346   0.694   5.128   3.797
 7149SOL    HW222347   0.822   5.118   3.898
 7150SOL     OW22348   3.307   3.168   0.425
 7150SOL    HW122349   3.401   3.187   0.396
 7150SOL    HW222350   3.247   3.165   0.345
 7151SOL     OW22351   2.946   6.618   1.160
 7151SOL    HW122352   2.972   6.711   1.133
 7151SOL    HW222353   2.853   6.618   1.197
 7152SOL     OW22354   6.215   0.764   6.589
 7152SOL    HW122355   6.289   0.774   6.523
 7152SOL    HW222356   6.163   0.681   6.569
 7153SOL     OW22357   3.367   5.208   2.114
 7153SOL    HW122358   3.354   5.110   2.127
 7153SOL    HW222359   3.428   5.224   2.037
 7154SOL     OW22360   4.114   0.100   2.944
 7154SOL    HW122361   4.041   0.158   2.909
 7154SOL    HW222362   4.190   0.156   2.976
 7155SOL     OW22363   3.197   3.193   1.321
 7155SOL    HW122364   3.287   3.234   1.307
 7155SOL    HW222365   3.193   3.104   1.274
 7156SOL     OW22366   4.939   3.381   2.474
 7156SOL    HW122367   4.907   3.452   2.537
 7156SOL    HW222368   4.936   3.416   2.381
 7157SOL     OW22369   6.815   4.682   1.790
 7157SOL    HW122370   6.765   4.627   1.856
 7157SOL    HW222371   6.853   4.623   1.719
 7158SOL     OW22372   0.239   6.847   3.284
 7158SOL    HW122373   0.196   6.917   3.341
 7158SOL    HW222374   0.267   6.886   3.197
 7159SOL     OW22375   1.147   4.854   4.195
 7159SOL    HW122376   1.204   4.827   4.273
 7159SOL    HW222377   1.201   4.908   4.131
 7160SOL     OW22378   5.851   6.223   2.429
 7160SOL    HW122379   5.758   6.255   2.412
 7160SOL    HW222380   5.848   6.136   2.479
 7161SOL     OW22381   3.435   4.018   2.809
 7161SOL    HW122382   3.422   4.031   2.711
 7161SOL    HW222383   3.454   3.922   2.828
 7162SOL     OW22384   0.309   4.847   6.718
 7162SOL    HW122385   0.277   4.761   6.759
 7162SOL    HW222386   0.302   4.921   6.785
 7163SOL     OW22387   2.757   0.243   2.696
 7163SOL    HW122388   2.799   0.320   2.648
 7163SOL    HW222389   2.672   0.272   2.740
 7164SOL     OW22390   1.762   0.665   5.094
 7164SOL    HW122391   1.753   0.688   4.997
 7164SOL    HW222392   1.698   0.592   5.118
 7165SOL     OW22393   5.914   6.040   1.939
 7165SOL    HW122394   5.954   6.069   2.026
 7165SOL    HW222395   5.938   5.945   1.921
 7166SOL     OW22396   5.370   1.068   6.699
 7166SOL    HW122397   5.283   1.107   6.668
 7166SOL    HW222398   5.360   0.969   6.710
 7167SOL     OW22399   5.011   2.917   5.149
 7167SOL    HW122400   5.056   2.982   5.088
 7167SOL    HW222401   5.024   2.946   5.244
 7168SOL     OW22402   2.907   1.888   3.008
 7168SOL    HW122403   2.999   1.925   3.024
 7168SOL    HW222404   2.850   1.905   3.089
 7169SOL     OW22405   0.615   3.845   4.424
 7169SOL    HW122406   0.525   3.813   4.453
 7169SOL    HW222407   0.659   3.893   4.500
 7170SOL     OW22408   3.932   6.316   2.486
 7170SOL    HW122409   3.888   6.396   2.527
 7170SOL    HW222410   3.862   6.258   2.443
 7171SOL     OW22411   6.443   3.739   0.901
 7171SOL    HW122412   6.500   3.795   0.841
 7171SOL    HW222413   6.374   3.797   0.945
 7172SOL     OW22414   1.942   1.729   5.287
 7172SOL    HW122415   1.929   1.806   5.224
 7172SOL    HW222416   2.013   1.751   5.354
 7173SOL     OW22417   6.295   5.103   0.052
 7173SOL    HW122418   6.384   5.127   0.013
 7173SOL    HW222419   6.237   5.184   0.058
 7174SOL     OW22420   6.896   4.925   0.464
 7174SOL    HW122421   6.942   4.925   0.375
 7174SOL    HW222422   6.839   4.843   0.471
 7175SOL     OW22423   6.749   3.423   5.586
 7175SOL    HW122424   6.824   3.457   5.642
 7175SOL    HW222425   6.783   3.354   5.522
 7176SOL     OW22426   6.981   1.378   4.531
 7176SOL    HW122427   6.954   1.399   4.625
 7176SOL    HW222428   6.980   1.279   4.518
 7177SOL     OW22429   1.635   5.159   5.440
 7177SOL    HW122430   1.647   5.215   5.522
 7177SOL    HW222431   1.554   5.190   5.391
 7178SOL     OW22432   0.839   0.916   6.282
 7178SOL    HW122433   0.780   0.976   6.229
 7178SOL    HW222434   0.929   0.910   6.237
 7179SOL     OW22435   1.853   3.764   4.556
 7179SOL    HW122436   1.953   3.755   4.560
 7179SOL    HW222437   1.811   3.676   4.574
 7180SOL     OW22438   2.137   3.723   0.944
 7180SOL    HW122439   2.182   3.783   0.877
 7180SOL    HW222440   2.067   3.775   0.994
 7181SOL     OW22441   2.379   1.377   6.624
 7181SOL    HW122442   2.424   1.460   6.593
 7181SOL    HW222443   2.431   1.337   6.700
 7182SOL     OW22444   0.814   3.686   3.365
 7182SOL    HW122445   0.879   3.758   3.340
 7182SOL    HW222446   0.819   3.612   3.299
 7183SOL     OW22447   1.993   6.056   2.160
 7183SOL    HW122448   1.983   6.113   2.241
 7183SOL    HW222449   1.976   6.111   2.078
 7184SOL     OW22450   6.314   0.818   4.088
 7184SOL    HW122451   6.394   0.877   4.074
 7184SOL    HW222452   6.326   0.765   4.171
 7185SOL     OW22453   5.223   0.793   5.648
 7185SOL    HW122454   5.159   0.793   5.725
 7185SOL    HW222455   5.303   0.738   5.672
 7186SOL     OW22456   0.375   1.255   1.065
 7186SOL    HW122457   0.368   1.156   1.071
 7186SOL    HW222458   0.284   1.296   1.064
 7187SOL     OW22459   2.837   3.612   5.362
 7187SOL    HW122460   2.924   3.629   5.409
 7187SOL    HW222461   2.787   3.698   5.351
 7188SOL     OW22462   4.874   5.410   0.024
 7188SOL    HW122463   4.877   5.395   6.947
 7188SOL    HW222464   4.829   5.333   0.068
 7189SOL     OW22465   6.001   3.285   5.557
 7189SOL    HW122466   5.907   3.316   5.547
 7189SOL    HW222467   6.059   3.331   5.489
 7190SOL     OW22468   5.990   5.945   1.553
 7190SOL    HW122469   5.907   5.919   1.602
 7190SOL    HW222470   6.003   6.044   1.560
 7191SOL     OW22471   0.334   4.382   3.153
 7191SOL    HW122472   0.430   4.395   3.128
 7191SOL    HW222473   0.285   4.340   3.076
 7192SOL     OW22474   1.272   4.206   6.361
 7192SOL    HW122475   1.339   4.188   6.433
 7192SOL    HW222476   1.269   4.130   6.297
 7193SOL     OW22477   2.702   1.665   2.949
 7193SOL    HW122478   2.741   1.719   3.024
 7193SOL    HW222479   2.773   1.645   2.882
 7194SOL     OW22480   2.127   2.739   0.426
 7194SOL    HW122481   2.148   2.680   0.349
 7194SOL    HW222482   2.095   2.828   0.392
 7195SOL     OW22483   6.389   4.349   6.542
 7195SOL    HW122484   6.300   4.360   6.497
 7195SOL    HW222485   6.375   4.321   6.637
 7196SOL     OW22486   2.945   4.181   1.777
 7196SOL    HW122487   2.912   4.273   1.795
 7196SOL    HW222488   3.044   4.183   1.762
 7197SOL     OW22489   0.824   3.736   5.672
 7197SOL    HW122490   0.909   3.752   5.723
 7197SOL    HW222491   0.784   3.824   5.646
 7198SOL     OW22492   0.705   0.778   6.932
 7198SOL    HW122493   0.768   0.744   6.862
 7198SOL    HW222494   0.750   0.780   7.021
 7199SOL     OW22495   1.332   0.059   2.698
 7199SOL    HW122496   1.366   0.144   2.658
 7199SOL    HW222497   1.232   0.060   2.699
 7200SOL     OW22498   1.747   3.345   0.124
 7200SOL    HW122499   1.816   3.367   0.056
 7200SOL    HW222500   1.721   3.428   0.173
 7201SOL     OW22501   0.659   5.323   4.113
 7201SOL    HW122502   0.619   5.233   4.099
 7201SOL    HW222503   0.639   5.381   4.033
 7202SOL     OW22504   5.215   6.504   6.321
 7202SOL    HW122505   5.167   6.480   6.406
 7202SOL    HW222506   5.306   6.538   6.342
 7203SOL     OW22507   0.359   1.102   1.808
 7203SOL    HW122508   0.447   1.104   1.760
 7203SOL    HW222509   0.290   1.147   1.751
 7204SOL     OW22510   6.893   1.427   6.456
 7204SOL    HW122511   6.829   1.374   6.400
 7204SOL    HW222512   6.967   1.461   6.398
 7205SOL     OW22513   1.418   3.976   4.849
 7205SOL    HW122514   1.434   3.937   4.758
 7205SOL    HW222515   1.490   3.945   4.911
 7206SOL     OW22516   1.327   1.530   1.861
 7206SOL    HW122517   1.299   1.472   1.938
 7206SOL    HW222518   1.424   1.552   1.869
 7207SOL     OW22519   2.867   0.975   4.609
 7207SOL    HW122520   2.842   1.072   4.612
 7207SOL    HW222521   2.870   0.944   4.514
 7208SOL     OW22522   4.639   0.406   4.012
 7208SOL    HW122523   4.637   0.504   4.029
 7208SOL    HW222524   4.671   0.358   4.094
 7209SOL     OW22525   2.084   2.740   2.118
 7209SOL    HW122526   2.102   2.838   2.104
 7209SOL    HW222527   2.164   2.687   2.090
 7210SOL     OW22528   3.600   2.109   3.728
 7210SOL    HW122529   3.663   2.185   3.742
 7210SOL    HW222530   3.575   2.070   3.817
 7211SOL     OW22531   2.893   6.318   5.308
 7211SOL    HW122532   2.902   6.308   5.209
 7211SOL    HW222533   2.821   6.256   5.341
 7212SOL     OW22534   0.544   6.099   6.028
 7212SOL    HW122535   0.555   6.005   6.059
 7212SOL    HW222536   0.463   6.106   5.969
 7213SOL     OW22537   3.367   6.062   5.980
 7213SOL    HW122538   3.306   6.036   6.056
 7213SOL    HW222539   3.399   5.979   5.934
 7214SOL     OW22540   6.528   1.220   5.416
 7214SOL    HW122541   6.490   1.215   5.323
 7214SOL    HW222542   6.460   1.261   5.477
 7215SOL     OW22543   5.893   2.677   4.289
 7215SOL    HW122544   5.905   2.587   4.331
 7215SOL    HW222545   5.796   2.695   4.275
 7216SOL     OW22546   3.043   6.202   2.436
 7216SOL    HW122547   3.019   6.283   2.491
 7216SOL    HW222548   2.993   6.123   2.471
 7217SOL     OW22549   1.828   3.403   3.358
 7217SOL    HW122550   1.887   3.357   3.292
 7217SOL    HW222551   1.858   3.498   3.370
 7218SOL     OW22552   6.878   2.873   4.510
 7218SOL    HW122553   6.971   2.864   4.474
 7218SOL    HW222554   6.836   2.955   4.471
 7219SOL     OW22555   2.853   0.070   2.154
 7219SOL    HW122556   2.769   0.105   2.195
 7219SOL    HW222557   2.923   0.141   2.155
 7220SOL     OW22558   6.258   4.363   3.894
 7220SOL    HW122559   6.350   4.383   3.927
 7220SOL    HW222560   6.264   4.326   3.801
 7221SOL     OW22561   3.741   6.067   4.638
 7221SOL    HW122562   3.810   6.139   4.627
 7221SOL    HW222563   3.676   6.093   4.709
 7222SOL     OW22564   5.870   6.993   3.445
 7222SOL    HW122565   5.777   6.988   3.481
 7222SOL    HW222566   5.914   0.054   3.480
 7223SOL     OW22567   2.755   0.794   1.184
 7223SOL    HW122568   2.715   0.756   1.267
 7223SOL    HW222569   2.793   0.885   1.203
 7224SOL     OW22570   4.875   2.904   4.826
 7224SOL    HW122571   4.938   2.867   4.894
 7224SOL    HW222572   4.814   2.971   4.869
 7225SOL     OW22573   1.844   6.468   0.778
 7225SOL    HW122574   1.798   6.490   0.864
 7225SOL    HW222575   1.852   6.550   0.722
 7226SOL     OW22576   5.950   6.855   1.145
 7226SOL    HW122577   5.857   6.855   1.181
 7226SOL    HW222578   6.008   6.797   1.202
 7227SOL     OW22579   2.532   1.663   2.202
 7227SOL    HW122580   2.471   1.612   2.142
 7227SOL    HW222581   2.607   1.701   2.148
 7228SOL     OW22582   1.376   1.095   2.915
 7228SOL    HW122583   1.334   1.015   2.958
 7228SOL    HW222584   1.371   1.086   2.815
 7229SOL     OW22585   0.803   6.781   4.637
 7229SOL    HW122586   0.882   6.739   4.593
 7229SOL    HW222587   0.763   6.848   4.576
 7230SOL     OW22588   3.143   6.025   3.771
 7230SOL    HW122589   3.219   6.016   3.835
 7230SOL    HW222590   3.168   6.089   3.698
 7231SOL     OW22591   4.429   0.758   6.838
 7231SOL    HW122592   4.444   0.686   6.906
 7231SOL    HW222593   4.352   0.732   6.779
 7232SOL     OW22594   4.905   6.059   2.962
 7232SOL    HW122595   4.966   6.037   2.885
 7232SOL    HW222596   4.829   6.115   2.929
 7233SOL     OW22597   1.093   0.950   5.334
 7233SOL    HW122598   1.176   0.900   5.357
 7233SOL    HW222599   1.117   1.041   5.300
 7234SOL     OW22600   5.973   2.978   3.051
 7234SOL    HW122601   5.887   3.015   3.016
 7234SOL    HW222602   6.045   3.048   3.043
 7235SOL     OW22603   6.234   4.344   2.137
 7235SOL    HW122604   6.196   4.299   2.056
 7235SOL    HW222605   6.330   4.367   2.122
 7236SOL     OW22606   2.682   2.436   2.844
 7236SOL    HW122607   2.645   2.433   2.751
 7236SOL    HW222608   2.775   2.400   2.844
 7237SOL     OW22609   3.858   0.005   6.069
 7237SOL    HW122610   3.821   7.014   5.977
 7237SOL    HW222611   3.832   6.949   6.126
 7238SOL     OW22612   4.544   2.269   6.067
 7238SOL    HW122613   4.591   2.197   6.016
 7238SOL    HW222614   4.601   2.351   6.069
 7239SOL     OW22615   0.939   2.757   1.856
 7239SOL    HW122616   0.937   2.848   1.897
 7239SOL    HW222617   0.918   2.764   1.758
 7240SOL     OW22618   0.324   1.051   6.450
 7240SOL    HW122619   0.243   0.992   6.442
 7240SOL    HW222620   0.382   1.019   6.524
 7241SOL     OW22621   2.582   0.140   0.604
 7241SOL    HW122622   2.490   0.166   0.635
 7241SOL    HW222623   2.647   0.157   0.678
 7242SOL     OW22624   6.801   5.655   6.322
 7242SOL    HW122625   6.707   5.666   6.354
 7242SOL    HW222626   6.830   5.560   6.338
 7243SOL     OW22627   6.994   4.384   5.804
 7243SOL    HW122628   0.003   4.473   5.771
 7243SOL    HW222629   6.901   4.391   5.840
 7244SOL     OW22630   0.112   0.541   1.155
 7244SOL    HW122631   0.027   0.536   1.103
 7244SOL    HW222632   0.188   0.507   1.099
 7245SOL     OW22633   1.008   3.187   5.569
 7245SOL    HW122634   1.025   3.192   5.471
 7245SOL    HW222635   1.027   3.094   5.601
 7246SOL     OW22636   1.826   0.071   3.627
 7246SOL    HW122637   1.863   0.133   3.558
 7246SOL    HW222638   1.780   7.016   3.581
 7247SOL     OW22639   2.549   1.399   5.219
 7247SOL    HW122640   2.559   1.460   5.298
 7247SOL    HW222641   2.452   1.378   5.205
 7248SOL     OW22642   3.364   0.867   2.595
 7248SOL    HW122643   3.432   0.851   2.667
 7248SOL    HW222644   3.374   0.961   2.561
 7249SOL     OW22645   5.192   4.731   1.884
 7249SOL    HW122646   5.282   4.766   1.858
 7249SOL    HW222647   5.195   4.631   1.888
 7250SOL     OW22648   5.267   5.638   5.859
 7250SOL    HW122649   5.193   5.704   5.843
 7250SOL    HW222650   5.342   5.656   5.795
 7251SOL     OW22651   1.083   6.697   4.857
 7251SOL    HW122652   0.989   6.717   4.885
 7251SOL    HW222653   1.140   6.778   4.871
 7252SOL     OW22654   3.242   3.675   1.839
 7252SOL    HW122655   3.245   3.576   1.827
 7252SOL    HW222656   3.164   3.699   1.897
 7253SOL     OW22657   1.685   5.595   6.683
 7253SOL    HW122658   1.752   5.647   6.736
 7253SOL    HW222659   1.599   5.645   6.680
 7254SOL     OW22660   5.583   5.187   4.490
 7254SOL    HW122661   5.657   5.211   4.428
 7254SOL    HW222662   5.593   5.091   4.519
 7255SOL     OW22663   4.641   3.623   0.198
 7255SOL    HW122664   4.610   3.543   0.147
 7255SOL    HW222665   4.638   3.704   0.139
 7256SOL     OW22666   3.154   5.916   5.119
 7256SOL    HW122667   3.161   5.944   5.215
 7256SOL    HW222668   3.106   5.987   5.067
 7257SOL     OW22669   0.084   1.854   3.703
 7257SOL    HW122670   0.069   1.852   3.802
 7257SOL    HW222671   0.021   1.920   3.661
 7258SOL     OW22672   4.923   2.330   2.865
 7258SOL    HW122673   4.907   2.231   2.864
 7258SOL    HW222674   5.016   2.348   2.898
 7259SOL     OW22675   1.558   3.341   1.959
 7259SOL    HW122676   1.461   3.345   1.936
 7259SOL    HW222677   1.604   3.423   1.924
 7260SOL     OW22678   5.684   1.853   1.939
 7260SOL    HW122679   5.762   1.829   1.996
 7260SOL    HW222680   5.639   1.769   1.906
 7261SOL     OW22681   1.212   4.635   1.782
 7261SOL    HW122682   1.284   4.682   1.732
 7261SOL    HW222683   1.199   4.678   1.871
 7262SOL     OW22684   5.604   2.220   6.386
 7262SOL    HW122685   5.537   2.285   6.350
 7262SOL    HW222686   5.570   2.182   6.472
 7263SOL     OW22687   0.298   0.020   6.885
 7263SOL    HW122688   0.303   6.950   6.924
 7263SOL    HW222689   0.218   0.026   6.825
 7264SOL     OW22690   5.140   1.553   0.828
 7264SOL    HW122691   5.220   1.571   0.886
 7264SOL    HW222692   5.130   1.455   0.815
 7265SOL     OW22693   5.445   4.773   6.298
 7265SOL    HW122694   5.474   4.825   6.217
 7265SOL    HW222695   5.515   4.780   6.369
 7266SOL     OW22696   5.537   0.623   2.975
 7266SOL    HW122697   5.462   0.678   3.013
 7266SOL    HW222698   5.572   0.667   2.892
 7267SOL     OW22699   6.767   6.069   4.968
 7267SOL    HW122700   6.726   6.108   4.885
 7267SOL    HW222701   6.707   5.997   5.004
 7268SOL     OW22702   6.646   5.663   4.452
 7268SOL    HW122703   6.694   5.635   4.368
 7268SOL    HW222704   6.612   5.756   4.440
 7269SOL     OW22705   1.680   6.119   5.813
 7269SOL    HW122706   1.739   6.112   5.893
 7269SOL    HW222707   1.631   6.206   5.815
 7270SOL     OW22708   0.953   2.763   5.488
 7270SOL    HW122709   1.042   2.779   5.445
 7270SOL    HW222710   0.881   2.794   5.427
 7271SOL     OW22711   1.674   4.958   3.910
 7271SOL    HW122712   1.608   4.891   3.944
 7271SOL    HW222713   1.703   5.017   3.985
 7272SOL     OW22714   6.160   5.586   2.582
 7272SOL    HW122715   6.125   5.679   2.576
 7272SOL    HW222716   6.229   5.580   2.654
 7273SOL     OW22717   6.445   4.049   0.908
 7273SOL    HW122718   6.433   4.114   0.834
 7273SOL    HW222719   6.543   4.035   0.925
 7274SOL     OW22720   0.381   5.211   6.472
 7274SOL    HW122721   0.329   5.126   6.472
 7274SOL    HW222722   0.328   5.282   6.425
 7275SOL     OW22723   7.019   5.331   2.989
 7275SOL    HW122724   6.977   5.396   3.052
 7275SOL    HW222725   0.072   5.376   2.940
 7276SOL     OW22726   4.696   0.738   3.223
 7276SOL    HW122727   4.734   0.709   3.136
 7276SOL    HW222728   4.729   0.678   3.296
 7277SOL     OW22729   4.994   0.441   4.405
 7277SOL    HW122730   5.074   0.404   4.452
 7277SOL    HW222731   5.006   0.432   4.306
 7278SOL     OW22732   3.988   2.929   1.196
 7278SOL    HW122733   4.014   2.860   1.128
 7278SOL    HW222734   3.987   2.888   1.287
 7279SOL     OW22735   3.860   4.990   6.506
 7279SOL    HW122736   3.918   5.067   6.479
 7279SOL    HW222737   3.797   5.021   6.578
 7280SOL     OW22738   0.140   1.467   3.859
 7280SOL    HW122739   0.135   1.434   3.953
 7280SOL    HW222740   0.222   1.522   3.847
 7281SOL     OW22741   2.628   1.708   6.780
 7281SOL    HW122742   2.719   1.680   6.812
 7281SOL    HW222743   2.583   1.630   6.736
 7282SOL     OW22744   5.396   5.187   3.096
 7282SOL    HW122745   5.487   5.180   3.053
 7282SOL    HW222746   5.372   5.100   3.137
 7283SOL     OW22747   4.307   1.236   2.586
 7283SOL    HW122748   4.261   1.209   2.501
 7283SOL    HW222749   4.243   1.287   2.644
 7284SOL     OW22750   0.233   2.730   6.439
 7284SOL    HW122751   0.299   2.756   6.510
 7284SOL    HW222752   0.269   2.756   6.349
 7285SOL     OW22753   5.240   3.020   2.312
 7285SOL    HW122754   5.291   3.034   2.227
 7285SOL    HW222755   5.143   3.004   2.291
 7286SOL     OW22756   2.843   1.000   0.622
 7286SOL    HW122757   2.776   1.031   0.554
 7286SOL    HW222758   2.932   1.042   0.602
 7287SOL     OW22759   0.044   2.564   5.855
 7287SOL    HW122760   0.087   2.474   5.851
 7287SOL    HW222761   6.988   2.567   5.792
 7288SOL     OW22762   2.790   0.856   0.843
 7288SOL    HW122763   2.853   0.895   0.909
 7288SOL    HW222764   2.775   0.921   0.768
 7289SOL     OW22765   4.834   2.926   4.557
 7289SOL    HW122766   4.846   2.924   4.656
 7289SOL    HW222767   4.780   3.005   4.531
 7290SOL     OW22768   3.769   0.126   5.262
 7290SOL    HW122769   3.742   0.056   5.329
 7290SOL    HW222770   3.865   0.115   5.239
 7291SOL     OW22771   2.221   6.623   0.684
 7291SOL    HW122772   2.177   6.568   0.755
 7291SOL    HW222773   2.320   6.620   0.697
 7292SOL     OW22774   3.788   0.940   3.283
 7292SOL    HW122775   3.878   0.906   3.311
 7292SOL    HW222776   3.718   0.871   3.304
 7293SOL     OW22777   1.206   1.929   4.829
 7293SOL    HW122778   1.128   1.992   4.833
 7293SOL    HW222779   1.215   1.883   4.918
 7294SOL     OW22780   2.847   4.925   6.824
 7294SOL    HW122781   2.916   4.956   6.759
 7294SOL    HW222782   2.879   4.942   6.918
 7295SOL     OW22783   0.528   2.865   0.830
 7295SOL    HW122784   0.447   2.858   0.888
 7295SOL    HW222785   0.546   2.961   0.810
 7296SOL     OW22786   3.246   5.507   1.838
 7296SOL    HW122787   3.188   5.426   1.830
 7296SOL    HW222788   3.268   5.523   1.935
 7297SOL     OW22789   3.739   6.862   1.812
 7297SOL    HW122790   3.694   6.836   1.898
 7297SOL    HW222791   3.680   6.838   1.735
 7298SOL     OW22792   5.178   4.645   5.359
 7298SOL    HW122793   5.218   4.602   5.440
 7298SOL    HW222794   5.154   4.740   5.380
 7299SOL     OW22795   0.955   2.182   0.527
 7299SOL    HW122796   0.861   2.176   0.492
 7299SOL    HW222797   1.019   2.184   0.450
 7300SOL     OW22798   0.022   5.911   3.138
 7300SOL    HW122799   7.001   5.972   3.205
 7300SOL    HW222800   6.976   5.883   3.070
 7301SOL     OW22801   5.643   0.858   4.923
 7301SOL    HW122802   5.562   0.822   4.968
 7301SOL    HW222803   5.626   0.865   4.825
 7302SOL     OW22804   1.069   2.075   5.525
 7302SOL    HW122805   1.090   2.035   5.614
 7302SOL    HW222806   1.127   2.155   5.511
 7303SOL     OW22807   3.591   0.575   0.221
 7303SOL    HW122808   3.590   0.479   0.248
 7303SOL    HW222809   3.505   0.618   0.248
 7304SOL     OW22810   3.904   5.027   1.208
 7304SOL    HW122811   3.908   5.075   1.296
 7304SOL    HW222812   3.834   5.070   1.150
 7305SOL     OW22813   4.725   1.297   0.384
 7305SOL    HW122814   4.792   1.371   0.390
 7305SOL    HW222815   4.772   1.209   0.378
 7306SOL     OW22816   5.018   1.805   0.941
 7306SOL    HW122817   4.959   1.853   0.877
 7306SOL    HW222818   5.053   1.722   0.898
 7307SOL     OW22819   2.227   6.541   2.279
 7307SOL    HW122820   2.274   6.629   2.290
 7307SOL    HW222821   2.279   6.483   2.215
 7308SOL     OW22822   0.022   2.770   5.686
 7308SOL    HW122823   6.999   2.858   5.701
 7308SOL    HW222824   0.018   2.715   5.770
 7309SOL     OW22825   4.475   5.904   1.463
 7309SOL    HW122826   4.510   5.976   1.523
 7309SOL    HW222827   4.410   5.847   1.513
 7310SOL     OW22828   2.392   4.269   1.401
 7310SOL    HW122829   2.336   4.257   1.484
 7310SOL    HW222830   2.467   4.203   1.403
 7311SOL     OW22831   2.637   2.005   1.709
 7311SOL    HW122832   2.537   2.000   1.712
 7311SOL    HW222833   2.672   1.939   1.643
 7312SOL     OW22834   0.443   3.380   4.581
 7312SOL    HW122835   0.412   3.435   4.659
 7312SOL    HW222836   0.541   3.361   4.590
 7313SOL     OW22837   2.548   1.241   6.806
 7313SOL    HW122838   2.581   1.256   6.899
 7313SOL    HW222839   2.516   1.147   6.796
 7314SOL     OW22840   0.058   5.931   5.978
 7314SOL    HW122841   0.076   5.839   5.942
 7314SOL    HW222842   7.010   5.975   5.922
 7315SOL     OW22843   6.483   0.169   2.424
 7315SOL    HW122844   6.507   0.224   2.344
 7315SOL    HW222845   6.386   0.145   2.420
 7316SOL     OW22846   2.607   4.025   6.170
 7316SOL    HW122847   2.558   4.052   6.253
 7316SOL    HW222848   2.547   3.971   6.112
 7317SOL     OW22849   4.951   1.676   3.062
 7317SOL    HW122850   5.039   1.723   3.074
 7317SOL    HW222851   4.963   1.578   3.077
 7318SOL     OW22852   2.122   0.946   1.514
 7318SOL    HW122853   2.040   0.968   1.461
 7318SOL    HW222854   2.183   0.889   1.458
 7319SOL     OW22855   0.134   3.946   6.292
 7319SOL    HW122856   0.140   4.028   6.235
 7319SOL    HW222857   0.039   3.912   6.291
 7320SOL     OW22858   6.577   3.691   2.315
 7320SOL    HW122859   6.532   3.722   2.399
 7320SOL    HW222860   6.614   3.599   2.329
 7321SOL     OW22861   2.384   0.773   5.962
 7321SOL    HW122862   2.372   0.838   6.037
 7321SOL    HW222863   2.476   0.733   5.966
 7322SOL     OW22864   6.975   2.876   3.154
 7322SOL    HW122865   6.914   2.955   3.157
 7322SOL    HW222866   6.930   2.800   3.107
 7323SOL     OW22867   1.593   2.243   1.951
 7323SOL    HW122868   1.578   2.149   1.918
 7323SOL    HW222869   1.673   2.282   1.904
 7324SOL     OW22870   4.504   6.154   2.248
 7324SOL    HW122871   4.525   6.058   2.264
 7324SOL    HW222872   4.475   6.196   2.334
 7325SOL     OW22873   3.220   6.839   0.405
 7325SOL    HW122874   3.222   6.861   0.502
 7325SOL    HW222875   3.144   6.776   0.387
 7326SOL     OW22876   3.373   6.118   5.423
 7326SOL    HW122877   3.402   6.022   5.416
 7326SOL    HW222878   3.332   6.134   5.512
 7327SOL     OW22879   5.969   1.293   6.391
 7327SOL    HW122880   5.972   1.342   6.478
 7327SOL    HW222881   6.049   1.235   6.382
 7328SOL     OW22882   3.325   0.980   6.220
 7328SOL    HW122883   3.367   0.893   6.245
 7328SOL    HW222884   3.391   1.037   6.171
 7329SOL     OW22885   6.158   3.875   1.788
 7329SOL    HW122886   6.170   3.972   1.768
 7329SOL    HW222887   6.239   3.840   1.834
 7330SOL     OW22888   2.591   2.416   0.065
 7330SOL    HW122889   2.503   2.454   0.035
 7330SOL    HW222890   2.576   2.358   0.145
 7331SOL     OW22891   5.065   6.714   1.943
 7331SOL    HW122892   5.157   6.747   1.922
 7331SOL    HW222893   5.039   6.644   1.877
 7332SOL     OW22894   2.286   6.128   0.224
 7332SOL    HW122895   2.331   6.135   0.135
 7332SOL    HW222896   2.298   6.036   0.260
 7333SOL     OW22897   0.487   2.944   2.447
 7333SOL    HW122898   0.511   2.879   2.376
 7333SOL    HW222899   0.569   2.991   2.480
 7334SOL     OW22900   2.735   5.444   5.888
 7334SOL    HW122901   2.828   5.458   5.854
 7334SOL    HW222902   2.729   5.477   5.983
 7335SOL     OW22903   1.972   2.460   2.904
 7335SOL    HW122904   1.898   2.454   2.837
 7335SOL    HW222905   2.000   2.367   2.930
 7336SOL     OW22906   1.724   6.722   2.924
 7336SOL    HW122907   1.646   6.765   2.879
 7336SOL    HW222908   1.698   6.631   2.957
 7337SOL     OW22909   6.972   3.262   2.034
 7337SOL    HW122910   0.026   3.320   2.063
 7337SOL    HW222911   6.968   3.180   2.090
 7338SOL     OW22912   6.333   1.862   1.719
 7338SOL    HW122913   6.380   1.938   1.762
 7338SOL    HW222914   6.377   1.776   1.747
 7339SOL     OW22915   5.836   6.815   4.039
 7339SOL    HW122916   5.859   6.789   4.133
 7339SOL    HW222917   5.798   6.735   3.991
 7340SOL     OW22918   3.076   1.310   1.209
 7340SOL    HW122919   2.986   1.294   1.250
 7340SOL    HW222920   3.072   1.285   1.112
 7341SOL     OW22921   0.386   3.422   6.515
 7341SOL    HW122922   0.431   3.465   6.437
 7341SOL    HW222923   0.445   3.427   6.595
 7342SOL     OW22924   0.431   2.107   1.148
 7342SOL    HW122925   0.395   2.160   1.071
 7342SOL    HW222926   0.358   2.088   1.213
 7343SOL     OW22927   6.067   3.801   0.828
 7343SOL    HW122928   6.092   3.897   0.817
 7343SOL    HW222929   6.115   3.746   0.760
 7344SOL     OW22930   0.977   1.021   6.605
 7344SOL    HW122931   0.883   0.985   6.604
 7344SOL    HW222932   1.024   0.990   6.688
 7345SOL     OW22933   4.240   4.593   6.065
 7345SOL    HW122934   4.265   4.662   5.997
 7345SOL    HW222935   4.149   4.556   6.043
 7346SOL     OW22936   4.020   5.546   2.158
 7346SOL    HW122937   4.028   5.616   2.087
 7346SOL    HW222938   4.111   5.509   2.179
 7347SOL     OW22939   1.158   1.453   0.605
 7347SOL    HW122940   1.219   1.373   0.603
 7347SOL    HW222941   1.067   1.426   0.575
 7348SOL     OW22942   1.261   4.165   4.151
 7348SOL    HW122943   1.320   4.095   4.111
 7348SOL    HW222944   1.284   4.175   4.248
 7349SOL     OW22945   4.894   1.339   1.385
 7349SOL    HW122946   4.877   1.255   1.333
 7349SOL    HW222947   4.845   1.415   1.343
 7350SOL     OW22948   2.884   2.327   5.606
 7350SOL    HW122949   2.888   2.377   5.519
 7350SOL    HW222950   2.968   2.342   5.657
 7351SOL     OW22951   5.525   5.786   4.490
 7351SOL    HW122952   5.529   5.882   4.464
 7351SOL    HW222953   5.510   5.730   4.408
 7352SOL     OW22954   1.910   1.246   2.913
 7352SOL    HW122955   1.905   1.184   2.835
 7352SOL    HW222956   1.830   1.233   2.971
 7353SOL     OW22957   0.123   0.470   5.868
 7353SOL    HW122958   0.109   0.447   5.965
 7353SOL    HW222959   0.073   0.406   5.811
 7354SOL     OW22960   1.045   1.647   4.292
 7354SOL    HW122961   1.048   1.704   4.374
 7354SOL    HW222962   1.136   1.611   4.273
 7355SOL     OW22963   1.421   0.784   1.241
 7355SOL    HW122964   1.373   0.850   1.298
 7355SOL    HW222965   1.356   0.739   1.180
 7356SOL     OW22966   3.740   3.655   6.523
 7356SOL    HW122967   3.814   3.719   6.546
 7356SOL    HW222968   3.656   3.683   6.570
 7357SOL     OW22969   3.209   6.545   1.920
 7357SOL    HW122970   3.269   6.530   1.998
 7357SOL    HW222971   3.141   6.472   1.915
 7358SOL     OW22972   6.477   2.994   2.498
 7358SOL    HW122973   6.400   3.022   2.556
 7358SOL    HW222974   6.500   3.068   2.435
 7359SOL     OW22975   4.153   2.160   5.616
 7359SOL    HW122976   4.252   2.174   5.624
 7359SOL    HW222977   4.120   2.204   5.532
 7360SOL     OW22978   3.128   3.278   5.371
 7360SOL    HW122979   3.225   3.284   5.349
 7360SOL    HW222980   3.117   3.261   5.469
 7361SOL     OW22981   5.274   0.702   2.387
 7361SOL    HW122982   5.356   0.750   2.420
 7361SOL    HW222983   5.225   0.761   2.323
 7362SOL     OW22984   1.633   5.999   6.227
 7362SOL    HW122985   1.556   6.012   6.164
 7362SOL    HW222986   1.609   5.930   6.295
 7363SOL     OW22987   4.560   1.990   1.190
 7363SOL    HW122988   4.560   1.957   1.285
 7363SOL    HW222989   4.471   2.030   1.168
 7364SOL     OW22990   4.707   0.747   1.759
 7364SOL    HW122991   4.624   0.794   1.788
 7364SOL    HW222992   4.686   0.687   1.681
 7365SOL     OW22993   0.396   6.264   1.936
 7365SOL    HW122994   0.371   6.296   1.844
 7365SOL    HW222995   0.313   6.249   1.989
 7366SOL     OW22996   2.038   6.629   6.182
 7366SOL    HW122997   2.024   6.575   6.099
 7366SOL    HW222998   1.955   6.627   6.237
 7367SOL     OW22999   4.808   3.008   1.251
 7367SOL    HW123000   4.745   2.932   1.268
 7367SOL    HW223001   4.755   3.092   1.236
 7368SOL     OW23002   3.884   2.960   2.734
 7368SOL    HW123003   3.900   3.048   2.690
 7368SOL    HW223004   3.837   2.899   2.670
 7369SOL     OW23005   2.852   2.166   1.061
 7369SOL    HW123006   2.844   2.106   0.982
 7369SOL    HW223007   2.949   2.178   1.084
 7370SOL     OW23008   2.271   1.342   5.043
 7370SOL    HW123009   2.255   1.425   5.098
 7370SOL    HW223010   2.218   1.348   4.959
 7371SOL     OW23011   2.563   6.797   3.325
 7371SOL    HW123012   2.571   6.752   3.236
 7371SOL    HW223013   2.574   6.895   3.313
 7372SOL     OW23014   4.242   0.527   4.203
 7372SOL    HW123015   4.277   0.466   4.133
 7372SOL    HW223016   4.197   0.474   4.275
 7373SOL     OW23017   6.015   1.402   4.119
 7373SOL    HW123018   5.919   1.373   4.111
 7373SOL    HW223019   6.027   1.452   4.205
 7374SOL     OW23020   2.648   1.934   4.965
 7374SOL    HW123021   2.730   1.931   4.908
 7374SOL    HW223022   2.566   1.933   4.907
 7375SOL     OW23023   2.146   2.236   2.388
 7375SOL    HW123024   2.239   2.212   2.360
 7375SOL    HW223025   2.148   2.323   2.438
 7376SOL     OW23026   1.589   1.810   1.030
 7376SOL    HW123027   1.626   1.785   1.119
 7376SOL    HW223028   1.516   1.747   1.004
 7377SOL     OW23029   5.181   4.990   0.404
 7377SOL    HW123030   5.192   4.985   0.503
 7377SOL    HW223031   5.229   5.070   0.369
 7378SOL     OW23032   0.658   0.460   5.285
 7378SOL    HW123033   0.594   0.386   5.262
 7378SOL    HW223034   0.697   0.442   5.376
 7379SOL     OW23035   3.477   1.649   2.278
 7379SOL    HW123036   3.542   1.574   2.277
 7379SOL    HW223037   3.518   1.729   2.234
 7380SOL     OW23038   0.334   4.196   3.795
 7380SOL    HW123039   0.317   4.294   3.786
 7380SOL    HW223040   0.424   4.181   3.835
 7381SOL     OW23041   4.491   3.242   0.657
 7381SOL    HW123042   4.435   3.325   0.664
 7381SOL    HW223043   4.437   3.169   0.616
 7382SOL     OW23044   0.312   1.089   4.907
 7382SOL    HW123045   0.297   1.087   4.809
 7382SOL    HW223046   0.386   1.026   4.931
 7383SOL     OW23047   2.923   6.405   0.994
 7383SOL    HW123048   2.930   6.492   1.043
 7383SOL    HW223049   2.987   6.339   1.033
 7384SOL     OW23050   6.954   6.509   2.757
 7384SOL    HW123051   6.890   6.549   2.692
 7384SOL    HW223052   0.004   6.574   2.779
 7385SOL     OW23053   3.035   5.136   2.258
 7385SOL    HW123054   3.014   5.174   2.348
 7385SOL    HW223055   2.992   5.046   2.250
 7386SOL     OW23056   6.810   2.685   0.006
 7386SOL    HW123057   6.885   2.741   0.041
 7386SOL    HW223058   6.766   2.733   6.952
 7387SOL     OW23059   6.379   5.257   5.503
 7387SOL    HW123060   6.306   5.231   5.566
 7387SOL    HW223061   6.450   5.308   5.552
 7388SOL     OW23062   1.244   4.887   1.964
 7388SOL    HW123063   1.344   4.899   1.970
 7388SOL    HW223064   1.208   4.948   1.893
 7389SOL     OW23065   6.126   3.930   6.276
 7389SOL    HW123066   6.118   4.028   6.260
 7389SOL    HW223067   6.035   3.890   6.289
 7390SOL     OW23068   1.662   2.302   2.432
 7390SOL    HW123069   1.652   2.214   2.385
 7390SOL    HW223070   1.748   2.345   2.404
 7391SOL     OW23071   4.045   3.566   3.517
 7391SOL    HW123072   4.032   3.498   3.590
 7391SOL    HW223073   4.006   3.653   3.546
 7392SOL     OW23074   3.311   5.961   6.530
 7392SOL    HW123075   3.371   6.029   6.572
 7392SOL    HW223076   3.222   5.962   6.576
 7393SOL     OW23077   6.394   4.834   3.251
 7393SOL    HW123078   6.416   4.829   3.348
 7393SOL    HW223079   6.298   4.807   3.237
 7394SOL     OW23080   1.826   3.090   5.548
 7394SOL    HW123081   1.841   3.014   5.611
 7394SOL    HW223082   1.906   3.102   5.489
 7395SOL     OW23083   1.985   3.681   1.414
 7395SOL    HW123084   1.961   3.727   1.328
 7395SOL    HW223085   1.978   3.582   1.401
 7396SOL     OW23086   2.371   6.441   1.186
 7396SOL    HW123087   2.309   6.505   1.230
 7396SOL    HW223088   2.326   6.351   1.179
 7397SOL     OW23089   4.753   5.886   4.711
 7397SOL    HW123090   4.682   5.929   4.767
 7397SOL    HW223091   4.806   5.822   4.767
 7398SOL     OW23092   1.288   5.060   3.144
 7398SOL    HW123093   1.347   4.980   3.131
 7398SOL    HW223094   1.210   5.035   3.202
 7399SOL     OW23095   0.488   2.511   4.698
 7399SOL    HW123096   0.454   2.424   4.662
 7399SOL    HW223097   0.531   2.563   4.624
 7400SOL     OW23098   4.146   2.852   6.064
 7400SOL    HW123099   4.230   2.805   6.036
 7400SOL    HW223100   4.072   2.829   6.000
 7401SOL     OW23101   1.139   2.818   3.492
 7401SOL    HW123102   1.060   2.866   3.530
 7401SOL    HW223103   1.216   2.881   3.486
 7402SOL     OW23104   3.476   4.304   6.011
 7402SOL    HW123105   3.410   4.329   5.939
 7402SOL    HW223106   3.427   4.287   6.096
 7403SOL     OW23107   1.369   4.339   2.479
 7403SOL    HW123108   1.293   4.383   2.526
 7403SOL    HW223109   1.345   4.244   2.456
 7404SOL     OW23110   3.078   4.699   1.754
 7404SOL    HW123111   3.107   4.624   1.695
 7404SOL    HW223112   3.023   4.663   1.829
 7405SOL     OW23113   3.679   4.962   4.135
 7405SOL    HW123114   3.739   4.899   4.184
 7405SOL    HW223115   3.593   4.972   4.185
 7406SOL     OW23116   0.433   2.090   3.996
 7406SOL    HW123117   0.520   2.056   4.031
 7406SOL    HW223118   0.432   2.190   4.001
 7407SOL     OW23119   0.824   0.112   5.202
 7407SOL    HW123120   0.878   0.106   5.118
 7407SOL    HW223121   0.734   0.150   5.181
 7408SOL     OW23122   3.588   4.043   6.035
 7408SOL    HW123123   3.539   3.979   5.976
 7408SOL    HW223124   3.561   4.136   6.013
 7409SOL     OW23125   5.333   3.359   6.823
 7409SOL    HW123126   5.372   3.355   6.915
 7409SOL    HW223127   5.393   3.413   6.764
 7410SOL     OW23128   0.767   0.741   0.356
 7410SOL    HW123129   0.701   0.691   0.300
 7410SOL    HW223130   0.805   0.817   0.303
 7411SOL     OW23131   2.217   1.244   0.306
 7411SOL    HW123132   2.303   1.268   0.352
 7411SOL    HW223133   2.231   1.249   0.207
 7412SOL     OW23134   4.060   0.394   1.129
 7412SOL    HW123135   4.011   0.376   1.215
 7412SOL    HW223136   4.021   0.476   1.085
 7413SOL     OW23137   4.300   5.005   3.879
 7413SOL    HW123138   4.352   5.083   3.914
 7413SOL    HW223139   4.202   5.024   3.885
 7414SOL     OW23140   2.000   0.832   3.120
 7414SOL    HW123141   1.929   0.789   3.175
 7414SOL    HW223142   2.085   0.779   3.128
 7415SOL     OW23143   2.156   4.162   4.408
 7415SOL    HW123144   2.091   4.167   4.332
 7415SOL    HW223145   2.148   4.072   4.452
 7416SOL     OW23146   2.625   0.200   2.203
 7416SOL    HW123147   2.591   0.248   2.284
 7416SOL    HW223148   2.645   0.266   2.131
 7417SOL     OW23149   2.256   2.202   1.441
 7417SOL    HW123150   2.244   2.261   1.521
 7417SOL    HW223151   2.202   2.238   1.365
 7418SOL     OW23152   1.586   5.250   7.013
 7418SOL    HW123153   1.506   5.193   0.008
 7418SOL    HW223154   1.594   5.268   6.915
 7419SOL     OW23155   6.803   4.060   4.249
 7419SOL    HW123156   6.720   4.116   4.246
 7419SOL    HW223157   6.784   3.971   4.206
 7420SOL     OW23158   0.138   6.568   1.156
 7420SOL    HW123159   0.065   6.501   1.163
 7420SOL    HW223160   0.170   6.574   1.061
 7421SOL     OW23161   4.319   3.575   0.921
 7421SOL    HW123162   4.385   3.588   0.994
 7421SOL    HW223163   4.244   3.517   0.953
 7422SOL     OW23164   0.106   4.579   2.019
 7422SOL    HW123165   0.073   4.666   1.981
 7422SOL    HW223166   0.041   4.546   2.088
 7423SOL     OW23167   6.006   2.422   5.929
 7423SOL    HW123168   6.067   2.486   5.883
 7423SOL    HW223169   5.911   2.446   5.912
 7424SOL     OW23170   0.214   1.481   5.942
 7424SOL    HW123171   0.169   1.472   5.853
 7424SOL    HW223172   0.156   1.440   6.013
 7425SOL     OW23173   5.003   0.159   0.269
 7425SOL    HW123174   5.064   0.213   0.211
 7425SOL    HW223175   5.053   0.079   0.303
 7426SOL     OW23176   2.981   1.758   5.012
 7426SOL    HW123177   2.918   1.764   5.090
 7426SOL    HW223178   2.939   1.803   4.933
 7427SOL     OW23179   5.030   0.963   4.260
 7427SOL    HW123180   5.110   0.905   4.268
 7427SOL    HW223181   4.961   0.918   4.203
 7428SOL     OW23182   4.202   0.905   4.939
 7428SOL    HW123183   4.186   0.970   5.013
 7428SOL    HW223184   4.277   0.843   4.965
 7429SOL     OW23185   0.810   6.185   3.858
 7429SOL    HW123186   0.896   6.189   3.808
 7429SOL    HW223187   0.813   6.248   3.936
 7430SOL     OW23188   0.467   3.747   1.221
 7430SOL    HW123189   0.517   3.667   1.252
 7430SOL    HW223190   0.464   3.747   1.121
 7431SOL     OW23191   0.741   2.309   2.885
 7431SOL    HW123192   0.834   2.276   2.899
 7431SOL    HW223193   0.720   2.312   2.787
 7432SOL     OW23194   1.837   0.676   3.306
 7432SOL    HW123195   1.897   0.616   3.360
 7432SOL    HW223196   1.775   0.724   3.367
 7433SOL     OW23197   4.121   6.154   6.455
 7433SOL    HW123198   4.197   6.218   6.451
 7433SOL    HW223199   4.038   6.202   6.484
 7434SOL     OW23200   5.013   5.308   5.217
 7434SOL    HW123201   5.016   5.211   5.194
 7434SOL    HW223202   5.106   5.345   5.220
 7435SOL     OW23203   4.608   6.335   1.107
 7435SOL    HW123204   4.692   6.313   1.057
 7435SOL    HW223205   4.533   6.348   1.043
 7436SOL     OW23206   4.527   4.027   6.535
 7436SOL    HW123207   4.538   3.931   6.560
 7436SOL    HW223208   4.471   4.033   6.452
 7437SOL     OW23209   2.767   6.117   0.282
 7437SOL    HW123210   2.681   6.090   0.239
 7437SOL    HW223211   2.805   6.196   0.235
 7438SOL     OW23212   0.612   6.718   0.241
 7438SOL    HW123213   0.582   6.624   0.226
 7438SOL    HW223214   0.615   6.736   0.340
 7439SOL     OW23215   1.696   6.680   6.164
 7439SOL    HW123216   1.730   6.644   6.251
 7439SOL    HW223217   1.747   6.764   6.141
 7440SOL     OW23218   6.728   2.692   3.685
 7440SOL    HW123219   6.724   2.753   3.606
 7440SOL    HW223220   6.635   2.668   3.714
 7441SOL     OW23221   5.765   0.532   4.780
 7441SOL    HW123222   5.815   0.484   4.708
 7441SOL    HW223223   5.807   0.621   4.795
 7442SOL     OW23224   6.012   1.524   0.015
 7442SOL    HW123225   6.025   1.540   0.113
 7442SOL    HW223226   6.080   1.458   7.004
 7443SOL     OW23227   6.138   5.802   1.380
 7443SOL    HW123228   6.224   5.836   1.419
 7443SOL    HW223229   6.061   5.849   1.424
 7444SOL     OW23230   5.406   2.068   0.099
 7444SOL    HW123231   5.351   1.985   0.099
 7444SOL    HW223232   5.348   2.147   0.119
 7445SOL     OW23233   3.299   0.423   1.232
 7445SOL    HW123234   3.267   0.478   1.310
 7445SOL    HW223235   3.374   0.471   1.186
 7446SOL     OW23236   5.672   2.765   0.066
 7446SOL    HW123237   5.724   2.729   0.143
 7446SOL    HW223238   5.633   2.690   0.013
 7447SOL     OW23239   6.714   4.686   0.028
 7447SOL    HW123240   6.645   4.746   0.070
 7447SOL    HW223241   6.669   4.626   6.983
 7448SOL     OW23242   6.265   6.721   4.806
 7448SOL    HW123243   6.336   6.784   4.836
 7448SOL    HW223244   6.304   6.630   4.793
 7449SOL     OW23245   0.635   5.194   0.929
 7449SOL    HW123246   0.667   5.166   0.839
 7449SOL    HW223247   0.713   5.224   0.984
 7450SOL     OW23248   5.410   2.432   4.661
 7450SOL    HW123249   5.328   2.486   4.677
 7450SOL    HW223250   5.491   2.485   4.685
 7451SOL     OW23251   6.477   6.277   2.462
 7451SOL    HW123252   6.466   6.374   2.482
 7451SOL    HW223253   6.560   6.243   2.506
 7452SOL     OW23254   5.753   6.089   4.141
 7452SOL    HW123255   5.672   6.132   4.180
 7452SOL    HW223256   5.774   6.004   4.190
 7453SOL     OW23257   4.983   5.212   4.604
 7453SOL    HW123258   5.037   5.161   4.537
 7453SOL    HW223259   4.886   5.197   4.588
 7454SOL     OW23260   1.770   2.153   1.006
 7454SOL    HW123261   1.831   2.223   1.042
 7454SOL    HW223262   1.678   2.190   0.997
 7455SOL     OW23263   6.688   2.920   1.911
 7455SOL    HW123264   6.608   2.894   1.966
 7455SOL    HW223265   6.722   3.009   1.942
 7456SOL     OW23266   2.082   1.152   4.793
 7456SOL    HW123267   2.120   1.242   4.815
 7456SOL    HW223268   2.093   1.091   4.871
 7457SOL     OW23269   2.974   0.416   5.013
 7457SOL    HW123270   2.962   0.515   5.012
 7457SOL    HW223271   2.920   0.377   5.087
 7458SOL     OW23272   1.764   0.259   5.685
 7458SOL    HW123273   1.678   0.272   5.733
 7458SOL    HW223274   1.840   0.262   5.750
 7459SOL     OW23275   5.618   1.200   2.385
 7459SOL    HW123276   5.658   1.114   2.414
 7459SOL    HW223277   5.549   1.183   2.315
 7460SOL     OW23278   0.775   5.726   0.172
 7460SOL    HW123279   0.849   5.746   0.236
 7460SOL    HW223280   0.765   5.626   0.162
 7461SOL     OW23281   5.932   6.965   6.548
 7461SOL    HW123282   5.856   6.901   6.552
 7461SOL    HW223283   5.968   6.980   6.640
 7462SOL     OW23284   1.532   4.523   2.317
 7462SOL    HW123285   1.493   4.615   2.320
 7462SOL    HW223286   1.468   4.458   2.358
 7463SOL     OW23287   2.862   4.224   0.053
 7463SOL    HW123288   2.880   4.257   0.146
 7463SOL    HW223289   2.808   4.291   0.003
 7464SOL     OW23290   5.787   6.921   5.809
 7464SOL    HW123291   5.753   6.977   5.733
 7464SOL    HW223292   5.882   6.947   5.830
 7465SOL     OW23293   2.492   5.206   6.774
 7465SOL    HW123294   2.516   5.269   6.700
 7465SOL    HW223295   2.462   5.258   6.854
 7466SOL     OW23296   6.724   0.809   5.217
 7466SOL    HW123297   6.782   0.886   5.192
 7466SOL    HW223298   6.637   0.843   5.253
 7467SOL     OW23299   0.353   2.360   5.826
 7467SOL    HW123300   0.254   2.352   5.835
 7467SOL    HW223301   0.396   2.352   5.916
 7468SOL     OW23302   5.461   3.023   4.093
 7468SOL    HW123303   5.538   3.036   4.155
 7468SOL    HW223304   5.457   2.927   4.063
 7469SOL     OW23305   0.018   0.610   6.520
 7469SOL    HW123306   0.004   0.648   6.612
 7469SOL    HW223307   0.077   0.530   6.526
 7470SOL     OW23308   5.464   3.448   3.522
 7470SOL    HW123309   5.454   3.399   3.609
 7470SOL    HW223310   5.376   3.490   3.499
 7471SOL     OW23311   5.094   6.475   6.015
 7471SOL    HW123312   5.085   6.534   5.935
 7471SOL    HW223313   5.150   6.520   6.085
 7472SOL     OW23314   6.758   1.068   5.596
 7472SOL    HW123315   6.669   1.094   5.559
 7472SOL    HW223316   6.755   0.974   5.629
 7473SOL     OW23317   5.193   5.296   3.866
 7473SOL    HW123318   5.145   5.370   3.820
 7473SOL    HW223319   5.270   5.334   3.918
 7474SOL     OW23320   6.728   1.787   6.390
 7474SOL    HW123321   6.688   1.732   6.317
 7474SOL    HW223322   6.826   1.797   6.373
 7475SOL     OW23323   4.275   2.508   1.681
 7475SOL    HW123324   4.177   2.489   1.684
 7475SOL    HW223325   4.289   2.606   1.670
 7476SOL     OW23326   2.963   1.080   2.937
 7476SOL    HW123327   2.945   1.085   3.035
 7476SOL    HW223328   3.044   1.024   2.921
 7477SOL     OW23329   6.547   2.418   4.789
 7477SOL    HW123330   6.552   2.352   4.715
 7477SOL    HW223331   6.525   2.371   4.874
 7478SOL     OW23332   6.203   3.874   5.487
 7478SOL    HW123333   6.284   3.843   5.438
 7478SOL    HW223334   6.123   3.824   5.454
 7479SOL     OW23335   4.308   2.310   1.885
 7479SOL    HW123336   4.322   2.383   1.818
 7479SOL    HW223337   4.243   2.243   1.849
 7480SOL     OW23338   1.582   4.962   2.404
 7480SOL    HW123339   1.663   4.925   2.357
 7480SOL    HW223340   1.502   4.908   2.378
 7481SOL     OW23341   5.861   5.025   0.754
 7481SOL    HW123342   5.902   4.935   0.743
 7481SOL    HW223343   5.834   5.061   0.664
 7482SOL     OW23344   4.580   2.645   2.948
 7482SOL    HW123345   4.664   2.677   2.904
 7482SOL    HW223346   4.520   2.723   2.964
 7483SOL     OW23347   4.949   3.405   4.840
 7483SOL    HW123348   5.048   3.417   4.832
 7483SOL    HW223349   4.911   3.481   4.893
 7484SOL     OW23350   1.874   5.783   4.707
 7484SOL    HW123351   1.971   5.774   4.730
 7484SOL    HW223352   1.830   5.844   4.772
 7485SOL     OW23353   2.646   0.369   4.950
 7485SOL    HW123354   2.687   0.368   4.858
 7485SOL    HW223355   2.718   0.362   5.018
 7486SOL     OW23356   1.060   6.597   6.956
 7486SOL    HW123357   1.127   6.578   6.884
 7486SOL    HW223358   1.048   6.515   7.013
 7487SOL     OW23359   2.826   0.733   3.279
 7487SOL    HW123360   2.883   0.783   3.214
 7487SOL    HW223361   2.730   0.747   3.256
 7488SOL     OW23362   2.073   5.449   5.099
 7488SOL    HW123363   2.067   5.378   5.028
 7488SOL    HW223364   2.078   5.405   5.189
 7489SOL     OW23365   6.543   3.105   6.535
 7489SOL    HW123366   6.624   3.118   6.477
 7489SOL    HW223367   6.462   3.136   6.486
 7490SOL     OW23368   1.386   0.486   3.316
 7490SOL    HW123369   1.481   0.484   3.286
 7490SOL    HW223370   1.383   0.485   3.416
 7491SOL     OW23371   4.123   3.122   6.647
 7491SOL    HW123372   4.098   3.031   6.680
 7491SOL    HW223373   4.159   3.114   6.554
 7492SOL     OW23374   2.323   0.794   3.665
 7492SOL    HW123375   2.321   0.892   3.645
 7492SOL    HW223376   2.359   0.745   3.585
 7493SOL     OW23377   7.002   2.476   6.195
 7493SOL    HW123378   6.922   2.525   6.160
 7493SOL    HW223379   0.062   2.504   6.143
 7494SOL     OW23380   6.059   1.697   3.350
 7494SOL    HW123381   5.975   1.656   3.385
 7494SOL    HW223382   6.036   1.777   3.294
 7495SOL     OW23383   1.160   3.056   6.372
 7495SOL    HW123384   1.229   3.120   6.407
 7495SOL    HW223385   1.076   3.106   6.352
 7496SOL     OW23386   6.178   3.558   3.849
 7496SOL    HW123387   6.126   3.592   3.927
 7496SOL    HW223388   6.205   3.463   3.866
 7497SOL     OW23389   1.767   4.731   1.450
 7497SOL    HW123390   1.706   4.809   1.438
 7497SOL    HW223391   1.800   4.728   1.544
 7498SOL     OW23392   3.230   0.987   4.370
 7498SOL    HW123393   3.246   1.077   4.328
 7498SOL    HW223394   3.142   0.951   4.338
 7499SOL     OW23395   4.359   2.367   3.160
 7499SOL    HW123396   4.447   2.338   3.197
 7499SOL    HW223397   4.374   2.432   3.085
 7500SOL     OW23398   3.733   5.822   3.095
 7500SOL    HW123399   3.727   5.739   3.151
 7500SOL    HW223400   3.807   5.880   3.129
 7501SOL     OW23401   5.121   4.447   3.940
 7501SOL    HW123402   5.144   4.353   3.963
 7501SOL    HW223403   5.098   4.497   4.023
 7502SOL     OW23404   3.186   0.383   4.435
 7502SOL    HW123405   3.143   0.466   4.399
 7502SOL    HW223406   3.137   0.352   4.516
 7503SOL     OW23407   2.719   6.647   1.377
 7503SOL    HW123408   2.690   6.568   1.324
 7503SOL    HW223409   2.677   6.730   1.341
 7504SOL     OW23410   0.714   6.322   3.358
 7504SOL    HW123411   0.804   6.287   3.384
 7504SOL    HW223412   0.644   6.256   3.384
 7505SOL     OW23413   1.512   2.356   6.345
 7505SOL    HW123414   1.509   2.390   6.439
 7505SOL    HW223415   1.604   2.321   6.325
 7506SOL     OW23416   5.275   2.630   4.090
 7506SOL    HW123417   5.195   2.662   4.038
 7506SOL    HW223418   5.276   2.673   4.180
 7507SOL     OW23419   5.859   1.611   2.628
 7507SOL    HW123420   5.907   1.698   2.621
 7507SOL    HW223421   5.760   1.627   2.618
 7508SOL     OW23422   2.216   5.391   0.600
 7508SOL    HW123423   2.156   5.312   0.614
 7508SOL    HW223424   2.255   5.387   0.509
 7509SOL     OW23425   5.797   3.853   0.576
 7509SOL    HW123426   5.843   3.786   0.518
 7509SOL    HW223427   5.781   3.812   0.666
 7510SOL     OW23428   3.867   3.380   4.837
 7510SOL    HW123429   3.784   3.334   4.806
 7510SOL    HW223430   3.874   3.373   4.936
 7511SOL     OW23431   3.184   5.994   3.370
 7511SOL    HW123432   3.278   6.026   3.378
 7511SOL    HW223433   3.127   6.067   3.332
 7512SOL     OW23434   2.927   1.102   6.517
 7512SOL    HW123435   2.878   1.135   6.597
 7512SOL    HW223436   2.868   1.112   6.436
 7513SOL     OW23437   1.475   0.854   2.102
 7513SOL    HW123438   1.496   0.783   2.036
 7513SOL    HW223439   1.539   0.849   2.178
 7514SOL     OW23440   2.643   4.941   2.726
 7514SOL    HW123441   2.589   5.003   2.670
 7514SOL    HW223442   2.635   4.967   2.822
 7515SOL     OW23443   6.600   4.819   4.590
 7515SOL    HW123444   6.543   4.823   4.672
 7515SOL    HW223445   6.654   4.903   4.584
 7516SOL     OW23446   0.268   5.324   6.069
 7516SOL    HW123447   0.215   5.280   5.997
 7516SOL    HW223448   0.366   5.311   6.051
 7517SOL     OW23449   1.046   2.412   0.082
 7517SOL    HW123450   0.955   2.452   0.100
 7517SOL    HW223451   1.037   2.313   0.073
 7518SOL     OW23452   5.151   3.536   3.953
 7518SOL    HW123453   5.179   3.465   3.890
 7518SOL    HW223454   5.208   3.617   3.940
 7519SOL     OW23455   6.654   6.460   4.883
 7519SOL    HW123456   6.595   6.482   4.804
 7519SOL    HW223457   6.724   6.530   4.893
 7520SOL     OW23458   2.364   0.498   2.716
 7520SOL    HW123459   2.343   0.512   2.813
 7520SOL    HW223460   2.338   0.580   2.664
 7521SOL     OW23461   5.491   2.608   5.169
 7521SOL    HW123462   5.422   2.551   5.213
 7521SOL    HW223463   5.575   2.555   5.156
 7522SOL     OW23464   1.262   0.675   6.024
 7522SOL    HW123465   1.279   0.754   6.083
 7522SOL    HW223466   1.318   0.683   5.941
 7523SOL     OW23467   4.935   0.859   6.483
 7523SOL    HW123468   5.005   0.920   6.519
 7523SOL    HW223469   4.959   0.830   6.391
 7524SOL     OW23470   0.958   2.471   5.473
 7524SOL    HW123471   0.948   2.570   5.476
 7524SOL    HW223472   0.935   2.433   5.563
 7525SOL     OW23473   4.195   6.919   6.942
 7525SOL    HW123474   4.279   6.865   6.936
 7525SOL    HW223475   4.124   6.865   6.988
 7526SOL     OW23476   2.633   3.135   1.691
 7526SOL    HW123477   2.630   3.227   1.731
 7526SOL    HW223478   2.726   3.099   1.697
 7527SOL     OW23479   3.374   5.785   4.321
 7527SOL    HW123480   3.303   5.851   4.347
 7527SOL    HW223481   3.358   5.754   4.227
 7528SOL     OW23482   6.074   2.079   6.278
 7528SOL    HW123483   6.158   2.118   6.315
 7528SOL    HW223484   5.995   2.120   6.325
 7529SOL     OW23485   5.496   1.819   4.908
 7529SOL    HW123486   5.588   1.846   4.879
 7529SOL    HW223487   5.498   1.722   4.935
 7530SOL     OW23488   6.151   2.536   2.156
 7530SOL    HW123489   6.146   2.598   2.078
 7530SOL    HW223490   6.190   2.584   2.234
 7531SOL     OW23491   5.354   3.338   4.119
 7531SOL    HW123492   5.278   3.394   4.087
 7531SOL    HW223493   5.431   3.346   4.055
 7532SOL     OW23494   4.735   6.265   0.617
 7532SOL    HW123495   4.808   6.299   0.557
 7532SOL    HW223496   4.653   6.248   0.562
 7533SOL     OW23497   3.545   1.980   1.909
 7533SOL    HW123498   3.593   2.061   1.945
 7533SOL    HW223499   3.460   2.009   1.865
 7534SOL     OW23500   5.066   5.841   4.206
 7534SOL    HW123501   5.117   5.755   4.207
 7534SOL    HW223502   5.129   5.915   4.182
 7535SOL     OW23503   1.612   6.667   5.032
 7535SOL    HW123504   1.587   6.604   4.959
 7535SOL    HW223505   1.677   6.622   5.094
 7536SOL     OW23506   4.904   5.049   4.056
 7536SOL    HW123507   5.003   5.055   4.068
 7536SOL    HW223508   4.870   5.131   4.012
 7537SOL     OW23509   1.749   4.912   2.686
 7537SOL    HW123510   1.739   4.841   2.615
 7537SOL    HW223511   1.660   4.952   2.705
 7538SOL     OW23512   1.925   2.480   1.390
 7538SOL    HW123513   1.854   2.413   1.371
 7538SOL    HW223514   1.899   2.535   1.469
 7539SOL     OW23515   1.500   3.996   4.129
 7539SOL    HW123516   1.579   3.934   4.121
 7539SOL    HW223517   1.533   4.089   4.144
 7540SOL     OW23518   4.151   0.119   4.506
 7540SOL    HW123519   4.075   0.125   4.570
 7540SOL    HW223520   4.229   0.075   4.550
 7541SOL     OW23521   0.349   3.987   5.807
 7541SOL    HW123522   0.443   4.020   5.815
 7541SOL    HW223523   0.286   4.058   5.838
 7542SOL     OW23524   6.741   6.065   0.542
 7542SOL    HW123525   6.810   6.068   0.469
 7542SOL    HW223526   6.691   6.152   0.543
 7543SOL     OW23527   3.330   1.286   5.251
 7543SOL    HW123528   3.246   1.339   5.267
 7543SOL    HW223529   3.339   1.216   5.322
 7544SOL     OW23530   6.531   2.561   4.472
 7544SOL    HW123531   6.576   2.637   4.425
 7544SOL    HW223532   6.599   2.492   4.496
 7545SOL     OW23533   0.913   6.426   6.643
 7545SOL    HW123534   0.930   6.328   6.628
 7545SOL    HW223535   0.963   6.479   6.574
 7546SOL     OW23536   4.764   2.149   1.128
 7546SOL    HW123537   4.691   2.083   1.144
 7546SOL    HW223538   4.749   2.229   1.187
 7547SOL     OW23539   5.193   1.177   1.207
 7547SOL    HW123540   5.101   1.174   1.168
 7547SOL    HW223541   5.193   1.238   1.287
 7548SOL     OW23542   4.607   2.515   5.955
 7548SOL    HW123543   4.670   2.482   5.885
 7548SOL    HW223544   4.641   2.601   5.993
 7549SOL     OW23545   3.732   3.306   6.258
 7549SOL    HW123546   3.705   3.400   6.277
 7549SOL    HW223547   3.827   3.292   6.288
 7550SOL     OW23548   1.660   4.318   3.621
 7550SOL    HW123549   1.720   4.248   3.660
 7550SOL    HW223550   1.566   4.284   3.619
 7551SOL     OW23551   5.828   3.088   5.224
 7551SOL    HW123552   5.802   3.002   5.180
 7551SOL    HW223553   5.746   3.132   5.262
 7552SOL     OW23554   1.864   5.962   4.390
 7552SOL    HW123555   1.932   5.995   4.455
 7552SOL    HW223556   1.772   5.981   4.425
 7553SOL     OW23557   4.837   6.669   5.769
 7553SOL    HW123558   4.738   6.652   5.763
 7553SOL    HW223559   4.860   6.753   5.721
 7554SOL     OW23560   4.662   0.958   6.548
 7554SOL    HW123561   4.740   0.908   6.510
 7554SOL    HW223562   4.693   1.048   6.581
 7555SOL     OW23563   3.039   5.422   6.499
 7555SOL    HW123564   2.943   5.397   6.511
 7555SOL    HW223565   3.095   5.374   6.566
 7556SOL     OW23566   2.818   1.687   0.323
 7556SOL    HW123567   2.728   1.708   0.284
 7556SOL    HW223568   2.866   1.772   0.343
 7557SOL     OW23569   5.087   0.777   6.254
 7557SOL    HW123570   5.093   0.679   6.237
 7557SOL    HW223571   5.110   0.827   6.171
 7558SOL     OW23572   2.112   3.062   4.272
 7558SOL    HW123573   2.149   3.032   4.184
 7558SOL    HW223574   2.171   3.028   4.346
 7559SOL     OW23575   3.798   2.988   6.050
 7559SOL    HW123576   3.837   3.015   6.138
 7559SOL    HW223577   3.792   3.068   5.990
 7560SOL     OW23578   5.569   0.006   0.335
 7560SOL    HW123579   5.668   0.017   0.321
 7560SOL    HW223580   5.551   7.021   0.433
 7561SOL     OW23581   6.791   2.886   5.819
 7561SOL    HW123582   6.812   2.922   5.910
 7561SOL    HW223583   6.704   2.924   5.787
 7562SOL     OW23584   0.474   4.715   5.323
 7562SOL    HW123585   0.502   4.628   5.365
 7562SOL    HW223586   0.547   4.747   5.263
 7563SOL     OW23587   2.853   6.143   1.695
 7563SOL    HW123588   2.819   6.145   1.601
 7563SOL    HW223589   2.947   6.108   1.696
 7564SOL     OW23590   3.738   0.253   4.313
 7564SOL    HW123591   3.691   0.265   4.401
 7564SOL    HW223592   3.793   0.169   4.317
 7565SOL     OW23593   5.403   4.001   6.135
 7565SOL    HW123594   5.452   3.957   6.059
 7565SOL    HW223595   5.408   3.943   6.216
 7566SOL     OW23596   5.479   5.273   1.990
 7566SOL    HW123597   5.559   5.330   2.011
 7566SOL    HW223598   5.503   5.207   1.919
 7567SOL     OW23599   1.575   1.151   6.037
 7567SOL    HW123600   1.510   1.203   5.982
 7567SOL    HW223601   1.553   1.164   6.134
 7568SOL     OW23602   5.594   4.473   2.206
 7568SOL    HW123603   5.590   4.520   2.118
 7568SOL    HW223604   5.690   4.460   2.232
 7569SOL     OW23605   2.739   4.731   6.273
 7569SOL    HW123606   2.787   4.797   6.215
 7569SOL    HW223607   2.647   4.715   6.236
 7570SOL     OW23608   5.685   3.853   4.431
 7570SOL    HW123609   5.674   3.887   4.338
 7570SOL    HW223610   5.632   3.909   4.494
 7571SOL     OW23611   4.963   3.721   3.333
 7571SOL    HW123612   4.950   3.655   3.259
 7571SOL    HW223613   4.970   3.673   3.420
 7572SOL     OW23614   5.044   0.771   3.061
 7572SOL    HW123615   4.987   0.850   3.041
 7572SOL    HW223616   4.991   0.704   3.113
 7573SOL     OW23617   6.277   0.678   5.348
 7573SOL    HW123618   6.330   0.673   5.433
 7573SOL    HW223619   6.223   0.594   5.338
 7574SOL     OW23620   5.633   1.114   4.698
 7574SOL    HW123621   5.654   1.028   4.651
 7574SOL    HW223622   5.534   1.122   4.710
 7575SOL     OW23623   5.301   0.084   0.243
 7575SOL    HW123624   5.398   0.060   0.244
 7575SOL    HW223625   5.257   0.045   0.162
 7576SOL     OW23626   5.114   3.208   0.109
 7576SOL    HW123627   5.070   3.119   0.113
 7576SOL    HW223628   5.213   3.198   0.119
 7577SOL     OW23629   0.534   6.157   6.623
 7577SOL    HW123630   0.606   6.210   6.581
 7577SOL    HW223631   0.503   6.086   6.559
 7578SOL     OW23632   2.497   5.271   2.429
 7578SOL    HW123633   2.432   5.316   2.369
 7578SOL    HW223634   2.502   5.319   2.517
 7579SOL     OW23635   0.213   1.534   1.397
 7579SOL    HW123636   0.220   1.588   1.482
 7579SOL    HW223637   0.118   1.534   1.366
 7580SOL     OW23638   0.635   4.057   3.661
 7580SOL    HW123639   0.597   4.095   3.577
 7580SOL    HW223640   0.635   3.957   3.655
 7581SOL     OW23641   0.875   1.701   1.583
 7581SOL    HW123642   0.974   1.691   1.593
 7581SOL    HW223643   0.855   1.780   1.525
 7582SOL     OW23644   3.904   1.926   3.819
 7582SOL    HW123645   3.889   2.023   3.801
 7582SOL    HW223646   3.997   1.912   3.853
 7583SOL     OW23647   5.352   2.811   2.060
 7583SOL    HW123648   5.357   2.910   2.054
 7583SOL    HW223649   5.311   2.774   1.977
 7584SOL     OW23650   1.635   0.606   2.993
 7584SOL    HW123651   1.682   0.687   2.957
 7584SOL    HW223652   1.537   0.627   3.003
 7585SOL     OW23653   1.669   2.546   6.157
 7585SOL    HW123654   1.727   2.582   6.230
 7585SOL    HW223655   1.702   2.456   6.130
 7586SOL     OW23656   1.944   6.398   3.607
 7586SOL    HW123657   1.992   6.331   3.551
 7586SOL    HW223658   1.847   6.375   3.612
 7587SOL     OW23659   3.113   1.480   0.082
 7587SOL    HW123660   3.157   1.479   0.172
 7587SOL    HW223661   3.062   1.565   0.071
 7588SOL     OW23662   2.217   2.233   3.583
 7588SOL    HW123663   2.232   2.288   3.501
 7588SOL    HW223664   2.149   2.162   3.564
 7589SOL     OW23665   0.404   0.420   2.969
 7589SOL    HW123666   0.420   0.404   2.871
 7589SOL    HW223667   0.359   0.508   2.982
 7590SOL     OW23668   5.220   1.526   6.989
 7590SOL    HW123669   5.154   1.583   6.940
 7590SOL    HW223670   5.175   1.484   0.046
 7591SOL     OW23671   5.269   4.220   0.154
 7591SOL    HW123672   5.175   4.249   0.139
 7591SOL    HW223673   5.303   4.258   0.239
 7592SOL     OW23674   6.079   4.982   4.447
 7592SOL    HW123675   6.142   5.045   4.492
 7592SOL    HW223676   6.091   4.890   4.484
 7593SOL     OW23677   6.568   3.200   6.815
 7593SOL    HW123678   6.627   3.125   6.785
 7593SOL    HW223679   6.602   3.237   6.901
 7594SOL     OW23680   1.850   4.753   1.708
 7594SOL    HW123681   1.760   4.723   1.740
 7594SOL    HW223682   1.910   4.768   1.786
 7595SOL     OW23683   6.428   2.943   6.145
 7595SOL    HW123684   6.466   2.880   6.077
 7595SOL    HW223685   6.388   2.891   6.220
 7596SOL     OW23686   3.169   6.837   4.231
 7596SOL    HW123687   3.200   6.743   4.242
 7596SOL    HW223688   3.151   6.877   4.321
 7597SOL     OW23689   2.066   6.464   3.121
 7597SOL    HW123690   1.978   6.431   3.156
 7597SOL    HW223691   2.058   6.479   3.022
 7598SOL     OW23692   6.228   0.459   3.643
 7598SOL    HW123693   6.322   0.492   3.658
 7598SOL    HW223694   6.217   0.369   3.684
 7599SOL     OW23695   5.234   2.349   1.638
 7599SOL    HW123696   5.270   2.256   1.637
 7599SOL    HW223697   5.246   2.390   1.728
 7600SOL     OW23698   0.890   0.766   3.918
 7600SOL    HW123699   0.924   0.674   3.939
 7600SOL    HW223700   0.793   0.771   3.941
 7601SOL     OW23701   2.404   4.843   2.174
 7601SOL    HW123702   2.410   4.938   2.144
 7601SOL    HW223703   2.366   4.787   2.099
 7602SOL     OW23704   1.265   3.463   6.716
 7602SOL    HW123705   1.197   3.523   6.756
 7602SOL    HW223706   1.312   3.411   6.788
 7603SOL     OW23707   2.377   6.247   6.682
 7603SOL    HW123708   2.403   6.165   6.733
 7603SOL    HW223709   2.279   6.244   6.662
 7604SOL     OW23710   0.864   2.182   5.011
 7604SOL    HW123711   0.903   2.232   5.088
 7604SOL    HW223712   0.928   2.185   4.934
 7605SOL     OW23713   1.523   0.590   0.467
 7605SOL    HW123714   1.590   0.537   0.521
 7605SOL    HW223715   1.439   0.537   0.457
 7606SOL     OW23716   5.493   2.977   4.774
 7606SOL    HW123717   5.464   2.941   4.863
 7606SOL    HW223718   5.458   2.917   4.701
 7607SOL     OW23719   4.494   5.201   0.418
 7607SOL    HW123720   4.462   5.165   0.330
 7607SOL    HW223721   4.517   5.298   0.407
 7608SOL     OW23722   5.458   2.858   0.944
 7608SOL    HW123723   5.377   2.832   0.997
 7608SOL    HW223724   5.511   2.776   0.922
 7609SOL     OW23725   1.361   3.331   4.148
 7609SOL    HW123726   1.307   3.360   4.227
 7609SOL    HW223727   1.345   3.393   4.071
 7610SOL     OW23728   4.095   4.857   5.889
 7610SOL    HW123729   4.195   4.858   5.894
 7610SOL    HW223730   4.066   4.873   5.795
 7611SOL     OW23731   4.919   4.097   1.306
 7611SOL    HW123732   4.874   4.078   1.393
 7611SOL    HW223733   4.964   4.014   1.273
 7612SOL     OW23734   4.797   2.898   3.035
 7612SOL    HW123735   4.715   2.889   2.979
 7612SOL    HW223736   4.878   2.902   2.977
 7613SOL     OW23737   0.260   1.973   1.365
 7613SOL    HW123738   0.321   1.954   1.442
 7613SOL    HW223739   0.250   1.891   1.309
 7614SOL     OW23740   5.463   3.475   1.418
 7614SOL    HW123741   5.377   3.524   1.431
 7614SOL    HW223742   5.474   3.407   1.491
 7615SOL     OW23743   4.812   4.071   6.412
 7615SOL    HW123744   4.715   4.054   6.433
 7615SOL    HW223745   4.857   3.985   6.390
 7616SOL     OW23746   7.004   6.660   4.419
 7616SOL    HW123747   6.983   6.582   4.477
 7616SOL    HW223748   0.081   6.665   4.403
 7617SOL     OW23749   5.279   6.373   3.660
 7617SOL    HW123750   5.317   6.283   3.684
 7617SOL    HW223751   5.259   6.376   3.562
 7618SOL     OW23752   0.942   2.834   6.567
 7618SOL    HW123753   1.038   2.861   6.556
 7618SOL    HW223754   0.889   2.866   6.489
 7619SOL     OW23755   0.233   2.962   4.515
 7619SOL    HW123756   0.195   3.006   4.596
 7619SOL    HW223757   0.237   2.863   4.530
 7620SOL     OW23758   4.535   5.475   1.517
 7620SOL    HW123759   4.489   5.484   1.605
 7620SOL    HW223760   4.599   5.551   1.505
 7621SOL     OW23761   0.173   0.790   1.245
 7621SOL    HW123762   0.144   0.792   1.341
 7621SOL    HW223763   0.155   0.700   1.206
 7622SOL     OW23764   4.860   4.474   6.225
 7622SOL    HW123765   4.765   4.459   6.200
 7622SOL    HW223766   4.883   4.416   6.303
 7623SOL     OW23767   4.466   4.625   1.117
 7623SOL    HW123768   4.507   4.676   1.041
 7623SOL    HW223769   4.525   4.547   1.139
 7624SOL     OW23770   7.007   3.365   3.576
 7624SOL    HW123771   0.050   3.298   3.612
 7624SOL    HW223772   7.004   3.444   3.636
 7625SOL     OW23773   6.228   1.346   7.010
 7625SOL    HW123774   6.278   1.316   0.070
 7625SOL    HW223775   6.292   1.350   6.932
 7626SOL     OW23776   6.388   0.642   5.775
 7626SOL    HW123777   6.305   0.595   5.748
 7626SOL    HW223778   6.412   0.617   5.869
 7627SOL     OW23779   3.213   2.421   0.278
 7627SOL    HW123780   3.300   2.418   0.329
 7627SOL    HW223781   3.151   2.352   0.315
 7628SOL     OW23782   3.783   2.953   1.841
 7628SOL    HW123783   3.865   2.906   1.808
 7628SOL    HW223784   3.807   3.006   1.922
 7629SOL     OW23785   0.352   3.793   3.434
 7629SOL    HW123786   0.267   3.844   3.452
 7629SOL    HW223787   0.362   3.720   3.503
 7630SOL     OW23788   1.157   0.854   6.799
 7630SOL    HW123789   1.128   0.760   6.778
 7630SOL    HW223790   1.242   0.875   6.751
 7631SOL     OW23791   1.265   1.505   5.764
 7631SOL    HW123792   1.244   1.480   5.858
 7631SOL    HW223793   1.359   1.478   5.743
 7632SOL     OW23794   4.316   4.529   0.615
 7632SOL    HW123795   4.275   4.620   0.618
 7632SOL    HW223796   4.416   4.537   0.620
 7633SOL     OW23797   5.234   0.528   1.666
 7633SOL    HW123798   5.330   0.547   1.689
 7633SOL    HW223799   5.184   0.614   1.660
 7634SOL     OW23800   2.668   1.172   1.575
 7634SOL    HW123801   2.708   1.261   1.599
 7634SOL    HW223802   2.740   1.103   1.572
 7635SOL     OW23803   3.255   5.062   4.571
 7635SOL    HW123804   3.249   5.073   4.670
 7635SOL    HW223805   3.203   5.134   4.525
 7636SOL     OW23806   0.953   3.622   3.735
 7636SOL    HW123807   1.050   3.646   3.740
 7636SOL    HW223808   0.898   3.705   3.748
 7637SOL     OW23809   2.425   5.950   2.898
 7637SOL    HW123810   2.362   5.882   2.861
 7637SOL    HW223811   2.492   5.904   2.957
 7638SOL     OW23812   1.647   5.515   2.768
 7638SOL    HW123813   1.639   5.452   2.690
 7638SOL    HW223814   1.743   5.539   2.781
 7639SOL     OW23815   0.843   1.395   0.850
 7639SOL    HW123816   0.745   1.384   0.867
 7639SOL    HW223817   0.870   1.489   0.872
 7640SOL     OW23818   2.393   2.967   6.672
 7640SOL    HW123819   2.364   2.885   6.622
 7640SOL    HW223820   2.324   2.991   6.740
 7641SOL     OW23821   6.993   3.867   2.763
 7641SOL    HW123822   7.012   3.965   2.761
 7641SOL    HW223823   6.899   3.851   2.733
 7642SOL     OW23824   4.878   1.173   2.304
 7642SOL    HW123825   4.954   1.201   2.363
 7642SOL    HW223826   4.800   1.234   2.320
 7643SOL     OW23827   4.880   1.581   2.701
 7643SOL    HW123828   4.972   1.611   2.674
 7643SOL    HW223829   4.887   1.523   2.782
 7644SOL     OW23830   5.004   2.999   2.174
 7644SOL    HW123831   4.950   2.915   2.174
 7644SOL    HW223832   5.010   3.035   2.081
 7645SOL     OW23833   4.631   3.822   5.733
 7645SOL    HW123834   4.687   3.876   5.670
 7645SOL    HW223835   4.568   3.764   5.680
 7646SOL     OW23836   0.412   2.799   3.894
 7646SOL    HW123837   0.490   2.861   3.888
 7646SOL    HW223838   0.374   2.783   3.803
 7647SOL     OW23839   0.232   2.825   4.801
 7647SOL    HW123840   0.153   2.768   4.781
 7647SOL    HW223841   0.208   2.893   4.870
 7648SOL     OW23842   2.682   1.469   2.574
 7648SOL    HW123843   2.682   1.567   2.596
 7648SOL    HW223844   2.697   1.416   2.657
 7649SOL     OW23845   1.467   1.247   4.171
 7649SOL    HW123846   1.393   1.179   4.170
 7649SOL    HW223847   1.548   1.208   4.215
 7650SOL     OW23848   6.047   0.492   0.887
 7650SOL    HW123849   6.131   0.485   0.833
 7650SOL    HW223850   6.027   0.588   0.905
 7651SOL     OW23851   2.482   6.470   4.483
 7651SOL    HW123852   2.423   6.403   4.437
 7651SOL    HW223853   2.425   6.536   4.531
 7652SOL     OW23854   5.425   2.117   5.011
 7652SOL    HW123855   5.467   2.054   4.946
 7652SOL    HW223856   5.328   2.128   4.990
 7653SOL     OW23857   1.428   1.838   0.410
 7653SOL    HW123858   1.376   1.924   0.415
 7653SOL    HW223859   1.370   1.768   0.369
 7654SOL     OW23860   5.253   3.147   4.288
 7654SOL    HW123861   5.303   3.206   4.225
 7654SOL    HW223862   5.180   3.199   4.331
 7655SOL     OW23863   3.742   6.981   3.703
 7655SOL    HW123864   3.671   0.013   3.748
 7655SOL    HW223865   3.731   6.987   3.604
 7656SOL     OW23866   4.716   3.309   6.383
 7656SOL    HW123867   4.766   3.384   6.341
 7656SOL    HW223868   4.727   3.314   6.483
 7657SOL     OW23869   2.228   2.300   3.895
 7657SOL    HW123870   2.262   2.253   3.976
 7657SOL    HW223871   2.136   2.267   3.873
 7658SOL     OW23872   2.866   0.451   0.857
 7658SOL    HW123873   2.895   0.507   0.934
 7658SOL    HW223874   2.798   0.500   0.803
 7659SOL     OW23875   4.745   4.617   0.061
 7659SOL    HW123876   4.687   4.683   0.015
 7659SOL    HW223877   4.689   4.542   0.098
 7660SOL     OW23878   6.482   5.763   4.079
 7660SOL    HW123879   6.466   5.843   4.021
 7660SOL    HW223880   6.421   5.689   4.051
 7661SOL     OW23881   5.365   2.114   5.644
 7661SOL    HW123882   5.405   2.115   5.735
 7661SOL    HW223883   5.353   2.209   5.612
 7662SOL     OW23884   0.802   2.316   3.153
 7662SOL    HW123885   0.892   2.359   3.150
 7662SOL    HW223886   0.774   2.291   3.061
 7663SOL     OW23887   5.190   5.315   6.147
 7663SOL    HW123888   5.245   5.290   6.067
 7663SOL    HW223889   5.105   5.262   6.146
 7664SOL     OW23890   4.142   1.136   2.421
 7664SOL    HW123891   4.118   1.048   2.462
 7664SOL    HW223892   4.083   1.152   2.341
 7665SOL     OW23893   5.655   1.068   5.107
 7665SOL    HW123894   5.681   0.999   5.040
 7665SOL    HW223895   5.580   1.123   5.070
 7666SOL     OW23896   0.447   4.706   3.510
 7666SOL    HW123897   0.481   4.797   3.486
 7666SOL    HW223898   0.524   4.643   3.522
 7667SOL     OW23899   4.385   0.578   2.302
 7667SOL    HW123900   4.428   0.523   2.230
 7667SOL    HW223901   4.448   0.649   2.333
 7668SOL     OW23902   2.646   4.865   0.951
 7668SOL    HW123903   2.634   4.784   0.894
 7668SOL    HW223904   2.736   4.905   0.934
 7669SOL     OW23905   4.610   0.958   5.348
 7669SOL    HW123906   4.695   0.986   5.303
 7669SOL    HW223907   4.596   0.860   5.335
 7670SOL     OW23908   1.080   5.509   0.323
 7670SOL    HW123909   1.135   5.492   0.405
 7670SOL    HW223910   0.995   5.555   0.349
 7671SOL     OW23911   3.905   0.501   2.190
 7671SOL    HW123912   3.863   0.581   2.148
 7671SOL    HW223913   3.979   0.468   2.132
 7672SOL     OW23914   6.812   5.375   3.496
 7672SOL    HW123915   6.720   5.366   3.533
 7672SOL    HW223916   6.877   5.324   3.553
 7673SOL     OW23917   1.884   5.495   2.336
 7673SOL    HW123918   1.843   5.404   2.329
 7673SOL    HW223919   1.903   5.530   2.244
 7674SOL     OW23920   4.609   0.706   4.038
 7674SOL    HW123921   4.545   0.694   4.113
 7674SOL    HW223922   4.560   0.706   3.951
 7675SOL     OW23923   5.241   6.248   3.423
 7675SOL    HW123924   5.279   6.179   3.362
 7675SOL    HW223925   5.209   6.204   3.507
 7676SOL     OW23926   3.140   2.246   6.305
 7676SOL    HW123927   3.200   2.244   6.225
 7676SOL    HW223928   3.070   2.175   6.295
 7677SOL     OW23929   0.693   4.361   0.947
 7677SOL    HW123930   0.783   4.397   0.970
 7677SOL    HW223931   0.659   4.406   0.865
 7678SOL     OW23932   1.876   2.749   5.373
 7678SOL    HW123933   1.916   2.725   5.462
 7678SOL    HW223934   1.921   2.697   5.301
 7679SOL     OW23935   1.896   5.346   5.966
 7679SOL    HW123936   1.815   5.295   5.995
 7679SOL    HW223937   1.923   5.317   5.875
 7680SOL     OW23938   1.773   0.532   0.632
 7680SOL    HW123939   1.811   0.550   0.541
 7680SOL    HW223940   1.767   0.618   0.682
 7681SOL     OW23941   3.206   1.061   0.321
 7681SOL    HW123942   3.279   1.127   0.306
 7681SOL    HW223943   3.156   1.046   0.235
 7682SOL     OW23944   4.643   0.586   1.997
 7682SOL    HW123945   4.653   0.639   1.913
 7682SOL    HW223946   4.647   0.648   2.076
 7683SOL     OW23947   0.185   1.557   4.629
 7683SOL    HW123948   0.128   1.636   4.649
 7683SOL    HW223949   0.133   1.491   4.574
 7684SOL     OW23950   4.075   2.114   1.025
 7684SOL    HW123951   4.001   2.151   0.969
 7684SOL    HW223952   4.037   2.078   1.110
 7685SOL     OW23953   3.048   1.782   6.155
 7685SOL    HW123954   3.091   1.787   6.064
 7685SOL    HW223955   2.955   1.817   6.149
 7686SOL     OW23956   6.629   6.892   4.218
 7686SOL    HW123957   6.561   6.819   4.213
 7686SOL    HW223958   6.598   6.961   4.284
 7687SOL     OW23959   5.058   5.466   4.680
 7687SOL    HW123960   4.985   5.405   4.650
 7687SOL    HW223961   5.140   5.413   4.701
 7688SOL     OW23962   0.443   5.868   6.199
 7688SOL    HW123963   0.363   5.918   6.165
 7688SOL    HW223964   0.482   5.916   6.277
 7689SOL     OW23965   5.254   6.245   2.980
 7689SOL    HW123966   5.318   6.292   2.920
 7689SOL    HW223967   5.168   6.296   2.983
 7690SOL     OW23968   5.032   5.442   0.651
 7690SOL    HW123969   5.036   5.519   0.714
 7690SOL    HW223970   5.076   5.362   0.694
 7691SOL     OW23971   5.555   4.155   2.187
 7691SOL    HW123972   5.464   4.177   2.222
 7691SOL    HW223973   5.614   4.236   2.192
 7692SOL     OW23974   0.614   6.033   1.890
 7692SOL    HW123975   0.533   6.087   1.911
 7692SOL    HW223976   0.691   6.063   1.947
 7693SOL     OW23977   2.956   0.422   1.280
 7693SOL    HW123978   2.937   0.460   1.189
 7693SOL    HW223979   2.981   0.325   1.271
 7694SOL     OW23980   5.536   2.769   3.983
 7694SOL    HW123981   5.522   2.676   3.947
 7694SOL    HW223982   5.624   2.804   3.952
 7695SOL     OW23983   5.900   0.759   1.236
 7695SOL    HW123984   5.888   0.769   1.138
 7695SOL    HW223985   5.998   0.758   1.259
 7696SOL     OW23986   6.652   1.662   6.163
 7696SOL    HW123987   6.643   1.562   6.161
 7696SOL    HW223988   6.612   1.700   6.079
 7697SOL     OW23989   3.067   0.780   2.569
 7697SOL    HW123990   3.161   0.811   2.585
 7697SOL    HW223991   3.032   0.823   2.485
 7698SOL     OW23992   6.423   1.229   5.141
 7698SOL    HW123993   6.504   1.186   5.100
 7698SOL    HW223994   6.387   1.298   5.078
 7699SOL     OW23995   2.531   5.392   6.571
 7699SOL    HW123996   2.494   5.482   6.593
 7699SOL    HW223997   2.507   5.369   6.476
 7700SOL     OW23998   4.200   5.859   3.233
 7700SOL    HW123999   4.150   5.779   3.200
 7700SOL    HW224000   4.282   5.872   3.178
 7701SOL     OW24001   0.387   2.633   6.939
 7701SOL    HW124002   0.347   2.720   6.909
 7701SOL    HW224003   0.313   2.569   6.959
 7702SOL     OW24004   4.613   5.700   5.068
 7702SOL    HW124005   4.630   5.692   5.166
 7702SOL    HW224006   4.546   5.632   5.039
 7703SOL     OW24007   6.493   6.323   5.753
 7703SOL    HW124008   6.521   6.308   5.658
 7703SOL    HW224009   6.549   6.395   5.794
 7704SOL     OW24010   5.789   1.587   3.466
 7704SOL    HW124011   5.755   1.528   3.540
 7704SOL    HW224012   5.779   1.539   3.378
 7705SOL     OW24013   2.526   5.727   1.406
 7705SOL    HW124014   2.463   5.785   1.354
 7705SOL    HW224015   2.593   5.687   1.344
 7706SOL     OW24016   3.981   3.085   4.095
 7706SOL    HW124017   3.959   3.094   4.192
 7706SOL    HW224018   3.932   3.007   4.057
 7707SOL     OW24019   0.460   4.456   6.673
 7707SOL    HW124020   0.508   4.542   6.683
 7707SOL    HW224021   0.499   4.403   6.598
 7708SOL     OW24022   1.679   6.440   4.337
 7708SOL    HW124023   1.741   6.363   4.319
 7708SOL    HW224024   1.590   6.404   4.364
 7709SOL     OW24025   0.057   5.086   1.916
 7709SOL    HW124026   0.085   4.992   1.896
 7709SOL    HW224027   6.979   5.090   1.924
 7710SOL     OW24028   1.404   2.250   0.769
 7710SOL    HW124029   1.342   2.300   0.829
 7710SOL    HW224030   1.433   2.166   0.813
 7711SOL     OW24031   5.449   5.800   5.645
 7711SOL    HW124032   5.429   5.879   5.587
 7711SOL    HW224033   5.463   5.719   5.589
 7712SOL     OW24034   5.939   4.779   0.713
 7712SOL    HW124035   5.859   4.758   0.657
 7712SOL    HW224036   6.017   4.726   0.679
 7713SOL     OW24037   1.741   3.183   0.733
 7713SOL    HW124038   1.799   3.252   0.690
 7713SOL    HW224039   1.798   3.110   0.772
 7714SOL     OW24040   0.336   5.817   5.027
 7714SOL    HW124041   0.300   5.910   5.028
 7714SOL    HW224042   0.290   5.764   4.955
 7715SOL     OW24043   2.546   2.369   6.333
 7715SOL    HW124044   2.454   2.403   6.315
 7715SOL    HW224045   2.610   2.411   6.268
 7716SOL     OW24046   6.545   4.938   0.418
 7716SOL    HW124047   6.535   4.886   0.503
 7716SOL    HW224048   6.518   4.880   0.341
 7717SOL     OW24049   1.175   1.924   5.326
 7717SOL    HW124050   1.251   1.894   5.384
 7717SOL    HW224051   1.127   1.999   5.371
 7718SOL     OW24052   6.632   4.180   3.186
 7718SOL    HW124053   6.566   4.133   3.127
 7718SOL    HW224054   6.665   4.118   3.257
 7719SOL     OW24055   1.059   4.089   4.626
 7719SOL    HW124056   1.019   4.002   4.656
 7719SOL    HW224057   0.997   4.164   4.650
 7720SOL     OW24058   6.171   2.185   6.003
 7720SOL    HW124059   6.077   2.152   6.010
 7720SOL    HW224060   6.171   2.284   5.995
 7721SOL     OW24061   0.426   6.361   2.334
 7721SOL    HW124062   0.376   6.447   2.331
 7721SOL    HW224063   0.484   6.352   2.253
 7722SOL     OW24064   1.789   4.751   3.795
 7722SOL    HW124065   1.760   4.827   3.853
 7722SOL    HW224066   1.750   4.665   3.830
 7723SOL     OW24067   4.046   3.644   6.704
 7723SOL    HW124068   4.061   3.672   6.799
 7723SOL    HW224069   4.033   3.544   6.701
 7724SOL     OW24070   3.176   4.369   7.019
 7724SOL    HW124071   3.142   4.277   0.015
 7724SOL    HW224072   3.214   4.374   6.926
 7725SOL     OW24073   6.142   1.690   2.658
 7725SOL    HW124074   6.131   1.661   2.563
 7725SOL    HW224075   6.118   1.787   2.667
 7726SOL     OW24076   1.506   3.910   6.307
 7726SOL    HW124077   1.492   3.983   6.374
 7726SOL    HW224078   1.424   3.854   6.301
 7727SOL     OW24079   5.890   3.013   2.084
 7727SOL    HW124080   5.801   2.967   2.088
 7727SOL    HW224081   5.963   2.945   2.086
 7728SOL     OW24082   2.310   2.804   4.789
 7728SOL    HW124083   2.358   2.719   4.769
 7728SOL    HW224084   2.351   2.847   4.870
 7729SOL     OW24085   5.602   1.481   2.127
 7729SOL    HW124086   5.685   1.480   2.181
 7729SOL    HW224087   5.534   1.541   2.170
 7730SOL     OW24088   0.177   4.416   6.584
 7730SOL    HW124089   0.271   4.435   6.613
 7730SOL    HW224090   0.115   4.426   6.662
 7731SOL     OW24091   6.678   0.165   0.198
 7731SOL    HW124092   6.595   0.111   0.183
 7731SOL    HW224093   6.751   0.131   0.139
 7732SOL     OW24094   3.883   0.557   0.688
 7732SOL    HW124095   3.867   0.502   0.769
 7732SOL    HW224096   3.947   0.509   0.627
 7733SOL     OW24097   6.106   5.596   2.231
 7733SOL    HW124098   6.153   5.508   2.234
 7733SOL    HW224099   6.153   5.661   2.291
 7734SOL     OW24100   1.946   4.712   4.669
 7734SOL    HW124101   1.955   4.739   4.574
 7734SOL    HW224102   1.851   4.724   4.699
 7735SOL     OW24103   6.017   5.783   6.777
 7735SOL    HW124104   6.045   5.688   6.785
 7735SOL    HW224105   6.063   5.826   6.699
 7736SOL     OW24106   2.267   3.291   0.469
 7736SOL    HW124107   2.204   3.223   0.507
 7736SOL    HW224108   2.302   3.258   0.381
 7737SOL     OW24109   3.614   6.441   1.836
 7737SOL    HW124110   3.628   6.468   1.931
 7737SOL    HW224111   3.656   6.351   1.821
 7738SOL     OW24112   2.693   5.277   0.286
 7738SOL    HW124113   2.623   5.206   0.286
 7738SOL    HW224114   2.776   5.242   0.330
 7739SOL     OW24115   1.826   1.827   1.647
 7739SOL    HW124116   1.905   1.885   1.630
 7739SOL    HW224117   1.803   1.776   1.564
 7740SOL     OW24118   1.733   0.725   2.364
 7740SOL    HW124119   1.762   0.705   2.458
 7740SOL    HW224120   1.752   0.821   2.342
 7741SOL     OW24121   0.434   3.524   5.267
 7741SOL    HW124122   0.466   3.578   5.190
 7741SOL    HW224123   0.451   3.573   5.352
 7742SOL     OW24124   4.583   1.758   3.662
 7742SOL    HW124125   4.543   1.672   3.630
 7742SOL    HW224126   4.641   1.797   3.591
 7743SOL     OW24127   4.862   1.292   7.019
 7743SOL    HW124128   4.923   1.254   0.066
 7743SOL    HW224129   4.904   1.285   6.928
 7744SOL     OW24130   1.244   6.076   3.459
 7744SOL    HW124131   1.191   5.993   3.441
 7744SOL    HW224132   1.257   6.126   3.374
 7745SOL     OW24133   2.522   7.003   0.403
 7745SOL    HW124134   2.545   0.050   0.472
 7745SOL    HW224135   2.596   6.996   0.337
 7746SOL     OW24136   1.112   6.836   0.705
 7746SOL    HW124137   1.014   6.854   0.711
 7746SOL    HW224138   1.127   6.746   0.665
 7747SOL     OW24139   6.850   5.993   1.484
 7747SOL    HW124140   6.859   6.089   1.460
 7747SOL    HW224141   6.876   5.936   1.406
 7748SOL     OW24142   3.506   4.093   3.850
 7748SOL    HW124143   3.503   4.060   3.756
 7748SOL    HW224144   3.414   4.118   3.880
 7749SOL     OW24145   3.830   4.030   3.552
 7749SOL    HW124146   3.836   4.129   3.551
 7749SOL    HW224147   3.813   3.998   3.645
 7750SOL     OW24148   6.336   6.168   6.428
 7750SOL    HW124149   6.377   6.258   6.446
 7750SOL    HW224150   6.408   6.103   6.402
 7751SOL     OW24151   0.706   2.388   2.605
 7751SOL    HW124152   0.629   2.442   2.572
 7751SOL    HW224153   0.789   2.444   2.608
 7752SOL     OW24154   5.566   6.103   5.402
 7752SOL    HW124155   5.626   6.036   5.445
 7752SOL    HW224156   5.521   6.061   5.323
 7753SOL     OW24157   2.697   0.976   4.018
 7753SOL    HW124158   2.608   0.937   3.997
 7753SOL    HW224159   2.697   1.073   3.996
 7754SOL     OW24160   5.527   6.905   1.738
 7754SOL    HW124161   5.481   6.817   1.728
 7754SOL    HW224162   5.492   6.953   1.818
 7755SOL     OW24163   1.358   1.977   5.778
 7755SOL    HW124164   1.297   1.920   5.833
 7755SOL    HW224165   1.422   2.025   5.837
 7756SOL     OW24166   3.305   5.175   2.372
 7756SOL    HW124167   3.334   5.200   2.280
 7756SOL    HW224168   3.231   5.108   2.367
 7757SOL     OW24169   5.137   6.384   4.044
 7757SOL    HW124170   5.093   6.412   3.958
 7757SOL    HW224171   5.073   6.394   4.119
 7758SOL     OW24172   1.816   2.004   6.705
 7758SOL    HW124173   1.788   1.930   6.766
 7758SOL    HW224174   1.905   1.982   6.665
 7759SOL     OW24175   1.203   1.545   4.574
 7759SOL    HW124176   1.215   1.467   4.513
 7759SOL    HW224177   1.239   1.522   4.665
 7760SOL     OW24178   6.006   2.970   2.348
 7760SOL    HW124179   6.026   2.952   2.445
 7760SOL    HW224180   5.910   2.995   2.339
 7761SOL     OW24181   1.513   0.191   6.362
 7761SOL    HW124182   1.445   0.221   6.296
 7761SOL    HW224183   1.494   0.097   6.389
 7762SOL     OW24184   4.227   0.961   4.237
 7762SOL    HW124185   4.181   1.047   4.260
 7762SOL    HW224186   4.169   0.909   4.174
 7763SOL     OW24187   1.423   1.417   1.550
 7763SOL    HW124188   1.349   1.441   1.613
 7763SOL    HW224189   1.454   1.499   1.502
 7764SOL     OW24190   3.500   2.950   2.805
 7764SOL    HW124191   3.533   2.921   2.894
 7764SOL    HW224192   3.560   3.021   2.768
 7765SOL     OW24193   5.945   2.967   4.040
 7765SOL    HW124194   5.924   2.890   3.979
 7765SOL    HW224195   6.044   2.976   4.048
 7766SOL     OW24196   5.081   1.991   0.467
 7766SOL    HW124197   5.114   2.057   0.399
 7766SOL    HW224198   5.153   1.925   0.487
 7767SOL     OW24199   4.053   6.303   3.733
 7767SOL    HW124200   3.976   6.315   3.671
 7767SOL    HW224201   4.101   6.218   3.711
 7768SOL     OW24202   4.280   5.210   2.373
 7768SOL    HW124203   4.196   5.156   2.365
 7768SOL    HW224204   4.347   5.159   2.428
 7769SOL     OW24205   4.921   2.150   1.830
 7769SOL    HW124206   4.968   2.195   1.754
 7769SOL    HW224207   4.823   2.163   1.821
 7770SOL     OW24208   1.216   3.800   2.722
 7770SOL    HW124209   1.197   3.824   2.627
 7770SOL    HW224210   1.302   3.749   2.727
 7771SOL     OW24211   2.478   2.732   5.153
 7771SOL    HW124212   2.529   2.729   5.239
 7771SOL    HW224213   2.474   2.826   5.119
 7772SOL     OW24214   4.816   1.228   3.606
 7772SOL    HW124215   4.804   1.255   3.511
 7772SOL    HW224216   4.830   1.129   3.610
 7773SOL     OW24217   3.263   5.425   5.682
 7773SOL    HW124218   3.293   5.518   5.703
 7773SOL    HW224219   3.192   5.427   5.612
 7774SOL     OW24220   6.497   2.588   6.352
 7774SOL    HW124221   6.566   2.524   6.319
 7774SOL    HW224222   6.542   2.662   6.403
 7775SOL     OW24223   4.176   6.533   2.861
 7775SOL    HW124224   4.086   6.570   2.837
 7775SOL    HW224225   4.209   6.475   2.786
 7776SOL     OW24226   3.130   3.986   6.409
 7776SOL    HW124227   3.201   3.978   6.338
 7776SOL    HW224228   3.078   3.901   6.413
 7777SOL     OW24229   2.260   1.107   5.170
 7777SOL    HW124230   2.198   1.107   5.248
 7777SOL    HW224231   2.260   1.197   5.127
 7778SOL     OW24232   4.655   6.203   0.059
 7778SOL    HW124233   4.711   6.208   6.998
 7778SOL    HW224234   4.577   6.142   0.042
 7779SOL     OW24235   3.100   2.980   0.568
 7779SOL    HW124236   3.061   3.066   0.602
 7779SOL    HW224237   3.053   2.953   0.484
 7780SOL     OW24238   1.647   5.143   4.691
 7780SOL    HW124239   1.716   5.080   4.654
 7780SOL    HW224240   1.692   5.226   4.725
 7781SOL     OW24241   1.673   4.973   6.795
 7781SOL    HW124242   1.717   4.883   6.801
 7781SOL    HW224243   1.618   4.988   6.878
 7782SOL     OW24244   1.313   4.269   5.843
 7782SOL    HW124245   1.297   4.359   5.884
 7782SOL    HW224246   1.355   4.281   5.753
 7783SOL     OW24247   1.759   5.621   5.525
 7783SOL    HW124248   1.697   5.692   5.559
 7783SOL    HW224249   1.751   5.615   5.426
 7784SOL     OW24250   2.919   2.880   6.933
 7784SOL    HW124251   2.961   2.789   6.935
 7784SOL    HW224252   2.822   2.872   6.912
 7785SOL     OW24253   1.603   6.664   4.199
 7785SOL    HW124254   1.524   6.693   4.253
 7785SOL    HW224255   1.644   6.583   4.240
 7786SOL     OW24256   3.099   5.954   6.708
 7786SOL    HW124257   3.012   6.003   6.711
 7786SOL    HW224258   3.087   5.862   6.744
 7787SOL     OW24259   2.523   2.964   5.978
 7787SOL    HW124260   2.471   3.034   5.929
 7787SOL    HW224261   2.463   2.888   6.002
 7788SOL     OW24262   1.662   6.828   1.480
 7788SOL    HW124263   1.758   6.839   1.505
 7788SOL    HW224264   1.655   6.776   1.395
 7789SOL     OW24265   2.917   0.044   0.322
 7789SOL    HW124266   2.925   0.034   0.421
 7789SOL    HW224267   3.008   0.061   0.283
 7790SOL     OW24268   5.803   4.991   2.357
 7790SOL    HW124269   5.787   5.036   2.445
 7790SOL    HW224270   5.842   5.056   2.292
 7791SOL     OW24271   2.857   6.662   3.759
 7791SOL    HW124272   2.838   6.757   3.737
 7791SOL    HW224273   2.955   6.651   3.778
 7792SOL     OW24274   1.675   5.215   6.023
 7792SOL    HW124275   1.674   5.115   6.025
 7792SOL    HW224276   1.605   5.247   5.960
 7793SOL     OW24277   2.504   0.714   6.413
 7793SOL    HW124278   2.475   0.707   6.509
 7793SOL    HW224279   2.591   0.762   6.408
 7794SOL     OW24280   5.275   5.072   3.709
 7794SOL    HW124281   5.240   5.140   3.773
 7794SOL    HW224282   5.374   5.084   3.698
 7795SOL     OW24283   1.938   3.538   5.409
 7795SOL    HW124284   1.868   3.547   5.338
 7795SOL    HW224285   2.017   3.488   5.373
 7796SOL     OW24286   3.267   3.685   3.655
 7796SOL    HW124287   3.253   3.682   3.556
 7796SOL    HW224288   3.201   3.748   3.697
 7797SOL     OW24289   0.834   6.532   3.090
 7797SOL    HW124290   0.759   6.536   3.156
 7797SOL    HW224291   0.797   6.509   3.000
 7798SOL     OW24292   1.431   4.952   5.972
 7798SOL    HW124293   1.413   5.044   5.937
 7798SOL    HW224294   1.353   4.921   6.027
 7799SOL     OW24295   0.078   6.708   1.439
 7799SOL    HW124296   0.128   6.674   1.359
 7799SOL    HW224297   0.049   6.631   1.496
 7800SOL     OW24298   1.625   5.398   0.485
 7800SOL    HW124299   1.542   5.371   0.435
 7800SOL    HW224300   1.690   5.322   0.483
 7801SOL     OW24301   2.017   2.260   1.702
 7801SOL    HW124302   2.077   2.281   1.779
 7801SOL    HW224303   2.013   2.161   1.690
 7802SOL     OW24304   5.571   2.101   1.409
 7802SOL    HW124305   5.646   2.051   1.452
 7802SOL    HW224306   5.573   2.197   1.438
 7803SOL     OW24307   4.455   2.718   6.188
 7803SOL    HW124308   4.505   2.783   6.130
 7803SOL    HW224309   4.403   2.655   6.130
 7804SOL     OW24310   5.425   1.280   4.427
 7804SOL    HW124311   5.372   1.239   4.353
 7804SOL    HW224312   5.455   1.209   4.490
 7805SOL     OW24313   5.312   1.643   1.018
 7805SOL    HW124314   5.385   1.594   1.067
 7805SOL    HW224315   5.321   1.741   1.035
 7806SOL     OW24316   5.758   2.254   6.144
 7806SOL    HW124317   5.825   2.326   6.163
 7806SOL    HW224318   5.715   2.224   6.230
 7807SOL     OW24319   6.941   4.071   5.671
 7807SOL    HW124320   6.999   4.101   5.747
 7807SOL    HW224321   6.923   3.973   5.680
 7808SOL     OW24322   0.128   3.119   4.712
 7808SOL    HW124323   0.037   3.115   4.754
 7808SOL    HW224324   0.190   3.171   4.771
 7809SOL     OW24325   2.523   5.508   4.769
 7809SOL    HW124326   2.491   5.593   4.726
 7809SOL    HW224327   2.484   5.430   4.722
 7810SOL     OW24328   3.614   0.017   5.032
 7810SOL    HW124329   3.676   6.972   4.991
 7810SOL    HW224330   3.651   0.047   5.120
 7811SOL     OW24331   0.647   5.167   3.373
 7811SOL    HW124332   0.574   5.109   3.409
 7811SOL    HW224333   0.608   5.237   3.314
 7812SOL     OW24334   1.594   1.918   3.453
 7812SOL    HW124335   1.502   1.957   3.450
 7812SOL    HW224336   1.661   1.990   3.472
 7813SOL     OW24337   3.786   2.472   6.666
 7813SOL    HW124338   3.687   2.485   6.659
 7813SOL    HW224339   3.814   2.485   6.761
 7814SOL     OW24340   6.567   3.253   3.910
 7814SOL    HW124341   6.542   3.340   3.867
 7814SOL    HW224342   6.624   3.200   3.848
 7815SOL     OW24343   4.740   0.366   6.478
 7815SOL    HW124344   4.675   0.418   6.423
 7815SOL    HW224345   4.775   0.423   6.553
 7816SOL     OW24346   1.223   2.881   6.669
 7816SOL    HW124347   1.184   2.970   6.694
 7816SOL    HW224348   1.302   2.862   6.727
 7817SOL     OW24349   5.310   4.335   3.377
 7817SOL    HW124350   5.310   4.344   3.477
 7817SOL    HW224351   5.311   4.426   3.335
 7818SOL     OW24352   4.063   1.121   3.111
 7818SOL    HW124353   4.148   1.160   3.075
 7818SOL    HW224354   4.054   1.145   3.207
 7819SOL     OW24355   6.534   2.900   2.157
 7819SOL    HW124356   6.571   2.977   2.208
 7819SOL    HW224357   6.437   2.917   2.136
 7820SOL     OW24358   0.950   2.334   4.579
 7820SOL    HW124359   0.871   2.369   4.630
 7820SOL    HW224360   0.989   2.407   4.523
 7821SOL     OW24361   5.159   6.179   0.960
 7821SOL    HW124362   5.092   6.250   0.982
 7821SOL    HW224363   5.243   6.197   1.012
 7822SOL     OW24364   0.770   0.629   5.494
 7822SOL    HW124365   0.690   0.630   5.434
 7822SOL    HW224366   0.782   0.719   5.535
 7823SOL     OW24367   2.708   3.842   5.340
 7823SOL    HW124368   2.723   3.896   5.423
 7823SOL    HW224369   2.628   3.878   5.292
 7824SOL     OW24370   5.556   1.711   4.608
 7824SOL    HW124371   5.544   1.761   4.523
 7824SOL    HW224372   5.560   1.776   4.684
 7825SOL     OW24373   1.080   2.849   0.768
 7825SOL    HW124374   1.116   2.756   0.779
 7825SOL    HW224375   1.132   2.896   0.696
 7826SOL     OW24376   6.068   1.167   1.066
 7826SOL    HW124377   5.991   1.227   1.045
 7826SOL    HW224378   6.117   1.146   0.981
 7827SOL     OW24379   1.968   5.942   1.054
 7827SOL    HW124380   1.890   5.984   1.007
 7827SOL    HW224381   1.940   5.910   1.144
 7828SOL     OW24382   6.294   4.586   0.102
 7828SOL    HW124383   6.285   4.515   0.172
 7828SOL    HW224384   6.214   4.583   0.041
 7829SOL     OW24385   2.357   3.527   1.590
 7829SOL    HW124386   2.389   3.494   1.679
 7829SOL    HW224387   2.323   3.620   1.599
 7830SOL     OW24388   2.723   4.918   5.449
 7830SOL    HW124389   2.814   4.893   5.480
 7830SOL    HW224390   2.659   4.844   5.472
 7831SOL     OW24391   1.357   0.115   1.343
 7831SOL    HW124392   1.368   0.016   1.351
 7831SOL    HW224393   1.260   0.137   1.329
 7832SOL     OW24394   6.129   0.837   4.457
 7832SOL    HW124395   6.147   0.849   4.555
 7832SOL    HW224396   6.214   0.849   4.405
 7833SOL     OW24397   0.684   0.724   5.030
 7833SOL    HW124398   0.727   0.806   5.067
 7833SOL    HW224399   0.610   0.695   5.090
 7834SOL     OW24400   6.673   1.514   3.647
 7834SOL    HW124401   6.583   1.522   3.690
 7834SOL    HW224402   6.733   1.458   3.704
 7835SOL     OW24403   3.540   1.785   5.392
 7835SOL    HW124404   3.550   1.884   5.392
 7835SOL    HW224405   3.573   1.747   5.306
 7836SOL     OW24406   3.422   3.573   4.700
 7836SOL    HW124407   3.473   3.632   4.638
 7836SOL    HW224408   3.324   3.592   4.692
 7837SOL     OW24409   4.328   5.509   6.893
 7837SOL    HW124410   4.354   5.443   6.963
 7837SOL    HW224411   4.362   5.478   6.804
 7838SOL     OW24412   4.211   6.918   0.742
 7838SOL    HW124413   4.309   6.900   0.734
 7838SOL    HW224414   4.163   6.834   0.766
 7839SOL     OW24415   5.808   4.313   4.672
 7839SOL    HW124416   5.903   4.281   4.669
 7839SOL    HW224417   5.776   4.334   4.580
 7840SOL     OW24418   6.659   3.536   4.255
 7840SOL    HW124419   6.746   3.566   4.295
 7840SOL    HW224420   6.674   3.454   4.199
 7841SOL     OW24421   3.886   1.852   5.948
 7841SOL    HW124422   3.826   1.919   5.992
 7841SOL    HW224423   3.959   1.827   6.011
 7842SOL     OW24424   2.384   1.610   2.736
 7842SOL    HW124425   2.415   1.596   2.830
 7842SOL    HW224426   2.451   1.664   2.686
 7843SOL     OW24427   0.671   5.899   3.197
 7843SOL    HW124428   0.620   5.919   3.113
 7843SOL    HW224429   0.609   5.856   3.263
 7844SOL     OW24430   2.941   0.675   2.253
 7844SOL    HW124431   3.010   0.740   2.221
 7844SOL    HW224432   2.867   0.725   2.299
 7845SOL     OW24433   5.118   1.849   2.525
 7845SOL    HW124434   5.057   1.854   2.604
 7845SOL    HW224435   5.157   1.939   2.507
 7846SOL     OW24436   0.488   2.547   0.992
 7846SOL    HW124437   0.460   2.600   0.912
 7846SOL    HW224438   0.407   2.508   1.036
 7847SOL     OW24439   6.688   1.326   3.436
 7847SOL    HW124440   6.610   1.268   3.457
 7847SOL    HW224441   6.682   1.410   3.489
 7848SOL     OW24442   3.330   4.993   0.527
 7848SOL    HW124443   3.296   4.930   0.458
 7848SOL    HW224444   3.423   5.021   0.504
 7849SOL     OW24445   6.578   4.272   4.719
 7849SOL    HW124446   6.558   4.237   4.810
 7849SOL    HW224447   6.525   4.222   4.651
 7850SOL     OW24448   0.477   1.432   3.607
 7850SOL    HW124449   0.472   1.528   3.580
 7850SOL    HW224450   0.573   1.408   3.624
 7851SOL     OW24451   0.079   1.928   1.620
 7851SOL    HW124452   0.120   1.883   1.541
 7851SOL    HW224453   0.123   1.894   1.704
 7852SOL     OW24454   3.280   1.795   0.153
 7852SOL    HW124455   3.262   1.697   0.159
 7852SOL    HW224456   3.211   1.839   0.095
 7853SOL     OW24457   5.009   2.837   1.406
 7853SOL    HW124458   5.012   2.898   1.326
 7853SOL    HW224459   4.933   2.862   1.465
 7854SOL     OW24460   3.284   3.170   5.976
 7854SOL    HW124461   3.304   3.093   5.917
 7854SOL    HW224462   3.370   3.209   6.011
 7855SOL     OW24463   4.391   6.593   4.813
 7855SOL    HW124464   4.320   6.607   4.882
 7855SOL    HW224465   4.419   6.497   4.814
 7856SOL     OW24466   6.676   5.942   5.314
 7856SOL    HW124467   6.668   5.843   5.304
 7856SOL    HW224468   6.619   5.987   5.245
 7857SOL     OW24469   4.603   2.779   0.625
 7857SOL    HW124470   4.675   2.725   0.669
 7857SOL    HW224471   4.536   2.717   0.583
 7858SOL     OW24472   6.810   6.300   4.471
 7858SOL    HW124473   6.838   6.209   4.442
 7858SOL    HW224474   6.742   6.336   4.407
 7859SOL     OW24475   4.431   3.315   6.519
 7859SOL    HW124476   4.457   3.376   6.594
 7859SOL    HW224477   4.501   3.320   6.447
 7860SOL     OW24478   4.437   1.261   4.154
 7860SOL    HW124479   4.379   1.260   4.072
 7860SOL    HW224480   4.482   1.172   4.165
 7861SOL     OW24481   3.370   4.741   1.486
 7861SOL    HW124482   3.403   4.818   1.540
 7861SOL    HW224483   3.371   4.658   1.541
 7862SOL     OW24484   2.141   4.994   2.117
 7862SOL    HW124485   2.233   5.029   2.102
 7862SOL    HW224486   2.140   4.935   2.198
 7863SOL     OW24487   0.283   3.780   4.173
 7863SOL    HW124488   0.194   3.740   4.196
 7863SOL    HW224489   0.318   3.738   4.089
 7864SOL     OW24490   0.701   5.054   5.369
 7864SOL    HW124491   0.789   5.078   5.329
 7864SOL    HW224492   0.715   5.026   5.465
 7865SOL     OW24493   6.503   6.004   3.903
 7865SOL    HW124494   6.408   6.031   3.886
 7865SOL    HW224495   6.564   6.078   3.875
 7866SOL     OW24496   1.007   0.616   5.363
 7866SOL    HW124497   0.915   0.591   5.391
 7866SOL    HW224498   1.044   0.684   5.426
 7867SOL     OW24499   6.294   6.060   3.559
 7867SOL    HW124500   6.342   6.148   3.570
 7867SOL    HW224501   6.207   6.064   3.607
 7868SOL     OW24502   4.459   5.763   1.222
 7868SOL    HW124503   4.545   5.792   1.180
 7868SOL    HW224504   4.447   5.809   1.310
 7869SOL     OW24505   5.191   4.405   6.313
 7869SOL    HW124506   5.199   4.483   6.375
 7869SOL    HW224507   5.131   4.336   6.352
 7870SOL     OW24508   5.282   6.236   4.538
 7870SOL    HW124509   5.287   6.194   4.629
 7870SOL    HW224510   5.190   6.222   4.500
 7871SOL     OW24511   4.707   2.378   1.630
 7871SOL    HW124512   4.664   2.294   1.661
 7871SOL    HW224513   4.796   2.357   1.589
 7872SOL     OW24514   2.122   4.044   3.013
 7872SOL    HW124515   2.078   4.102   3.081
 7872SOL    HW224516   2.207   4.087   2.982
 7873SOL     OW24517   5.924   6.875   0.171
 7873SOL    HW124518   5.962   6.938   0.104
 7873SOL    HW224519   5.919   6.920   0.260
 7874SOL     OW24520   5.112   2.453   0.889
 7874SOL    HW124521   5.038   2.391   0.861
 7874SOL    HW224522   5.074   2.532   0.937
 7875SOL     OW24523   4.164   2.303   6.763
 7875SOL    HW124524   4.140   2.349   6.677
 7875SOL    HW224525   4.088   2.309   6.827
 7876SOL     OW24526   1.259   6.421   3.222
 7876SOL    HW124527   1.330   6.378   3.167
 7876SOL    HW224528   1.295   6.443   3.312
 7877SOL     OW24529   0.679   1.818   2.669
 7877SOL    HW124530   0.775   1.826   2.642
 7877SOL    HW224531   0.672   1.755   2.747
 7878SOL     OW24532   4.832   4.506   4.191
 7878SOL    HW124533   4.778   4.579   4.149
 7878SOL    HW224534   4.790   4.479   4.278
 7879SOL     OW24535   3.708   5.368   3.037
 7879SOL    HW124536   3.629   5.312   3.012
 7879SOL    HW224537   3.777   5.310   3.080
 7880SOL     OW24538   1.931   4.177   1.908
 7880SOL    HW124539   1.982   4.092   1.897
 7880SOL    HW224540   1.864   4.185   1.834
 7881SOL     OW24541   5.724   4.361   5.151
 7881SOL    HW124542   5.692   4.357   5.246
 7881SOL    HW224543   5.665   4.422   5.099
 7882SOL     OW24544   1.583   3.778   1.736
 7882SOL    HW124545   1.639   3.861   1.738
 7882SOL    HW224546   1.496   3.796   1.780
 7883SOL     OW24547   1.155   0.587   6.578
 7883SOL    HW124548   1.128   0.553   6.668
 7883SOL    HW224549   1.081   0.644   6.540
 7884SOL     OW24550   1.648   3.914   5.010
 7884SOL    HW124551   1.712   3.842   4.984
 7884SOL    HW224552   1.699   3.992   5.048
 7885SOL     OW24553   6.689   5.583   0.915
 7885SOL    HW124554   6.668   5.535   1.000
 7885SOL    HW224555   6.698   5.517   0.841
 7886SOL     OW24556   4.001   5.961   6.616
 7886SOL    HW124557   4.059   6.034   6.580
 7886SOL    HW224558   3.911   5.967   6.573
 7887SOL     OW24559   3.281   2.512   6.002
 7887SOL    HW124560   3.361   2.572   5.995
 7887SOL    HW224561   3.200   2.567   6.023
 7888SOL     OW24562   6.162   0.504   5.671
 7888SOL    HW124563   6.086   0.567   5.652
 7888SOL    HW224564   6.127   0.410   5.673
 7889SOL     OW24565   1.994   4.364   2.454
 7889SOL    HW124566   1.936   4.305   2.510
 7889SOL    HW224567   1.937   4.421   2.395
 7890SOL     OW24568   2.140   3.494   2.797
 7890SOL    HW124569   2.058   3.481   2.851
 7890SOL    HW224570   2.150   3.591   2.774
 7891SOL     OW24571   1.545   3.374   3.274
 7891SOL    HW124572   1.498   3.438   3.213
 7891SOL    HW224573   1.635   3.412   3.298
 7892SOL     OW24574   1.801   2.569   4.325
 7892SOL    HW124575   1.890   2.607   4.350
 7892SOL    HW224576   1.729   2.629   4.359
 7893SOL     OW24577   6.786   6.763   2.928
 7893SOL    HW124578   6.884   6.766   2.950
 7893SOL    HW224579   6.765   6.675   2.885
 7894SOL     OW24580   2.722   6.686   1.659
 7894SOL    HW124581   2.822   6.690   1.663
 7894SOL    HW224582   2.693   6.671   1.564
 7895SOL     OW24583   6.716   1.410   5.710
 7895SOL    HW124584   6.794   1.348   5.701
 7895SOL    HW224585   6.740   1.500   5.673
 7896SOL     OW24586   4.913   3.562   6.816
 7896SOL    HW124587   4.950   3.489   6.873
 7896SOL    HW224588   4.978   3.638   6.813
 7897SOL     OW24589   2.591   4.159   6.407
 7897SOL    HW124590   2.657   4.149   6.333
 7897SOL    HW224591   2.639   4.172   6.494
 7898SOL     OW24592   5.159   1.867   3.880
 7898SOL    HW124593   5.119   1.919   3.804
 7898SOL    HW224594   5.235   1.812   3.846
 7899SOL     OW24595   5.923   1.467   1.841
 7899SOL    HW124596   5.826   1.464   1.815
 7899SOL    HW224597   5.930   1.474   1.941
 7900SOL     OW24598   1.462   5.774   1.533
 7900SOL    HW124599   1.420   5.865   1.530
 7900SOL    HW224600   1.401   5.707   1.490
 7901SOL     OW24601   4.549   0.740   6.357
 7901SOL    HW124602   4.610   0.733   6.278
 7901SOL    HW224603   4.561   0.830   6.400
 7902SOL     OW24604   5.395   5.520   1.680
 7902SOL    HW124605   5.437   5.450   1.621
 7902SOL    HW224606   5.296   5.507   1.681
 7903SOL     OW24607   6.000   2.106   0.759
 7903SOL    HW124608   5.948   2.121   0.675
 7903SOL    HW224609   5.937   2.094   0.836
 7904SOL     OW24610   5.618   0.355   3.600
 7904SOL    HW124611   5.691   0.312   3.653
 7904SOL    HW224612   5.624   0.325   3.505
 7905SOL     OW24613   4.506   2.301   0.121
 7905SOL    HW124614   4.467   2.235   0.185
 7905SOL    HW224615   4.447   2.309   0.040
 7906SOL     OW24616   0.581   5.762   0.397
 7906SOL    HW124617   0.648   5.755   0.322
 7906SOL    HW224618   0.616   5.713   0.477
 7907SOL     OW24619   5.763   1.755   3.926
 7907SOL    HW124620   5.745   1.718   4.017
 7907SOL    HW224621   5.853   1.726   3.895
 7908SOL     OW24622   0.561   1.295   4.384
 7908SOL    HW124623   0.585   1.350   4.465
 7908SOL    HW224624   0.601   1.337   4.303
 7909SOL     OW24625   5.501   3.772   5.013
 7909SOL    HW124626   5.516   3.731   4.923
 7909SOL    HW224627   5.562   3.850   5.025
 7910SOL     OW24628   2.890   2.945   5.700
 7910SOL    HW124629   2.908   3.030   5.750
 7910SOL    HW224630   2.859   2.967   5.608
 7911SOL     OW24631   1.559   3.379   6.391
 7911SOL    HW124632   1.484   3.433   6.352
 7911SOL    HW224633   1.646   3.422   6.369
 7912SOL     OW24634   0.269   5.562   0.271
 7912SOL    HW124635   0.327   5.623   0.217
 7912SOL    HW224636   0.255   5.602   0.362
 7913SOL     OW24637   1.549   4.976   1.024
 7913SOL    HW124638   1.603   5.026   0.956
 7913SOL    HW224639   1.551   4.878   1.001
 7914SOL     OW24640   6.953   4.570   6.084
 7914SOL    HW124641   6.962   4.490   6.024
 7914SOL    HW224642   6.878   4.555   6.149
 7915SOL     OW24643   4.829   2.953   2.427
 7915SOL    HW124644   4.908   3.010   2.449
 7915SOL    HW224645   4.787   2.984   2.341
 7916SOL     OW24646   6.359   3.941   5.731
 7916SOL    HW124647   6.321   3.877   5.664
 7916SOL    HW224648   6.319   3.924   5.820
 7917SOL     OW24649   3.090   3.258   3.693
 7917SOL    HW124650   3.049   3.329   3.636
 7917SOL    HW224651   3.115   3.180   3.636
 7918SOL     OW24652   0.518   1.475   0.658
 7918SOL    HW124653   0.587   1.540   0.691
 7918SOL    HW224654   0.437   1.526   0.626
 7919SOL     OW24655   0.801   4.252   3.196
 7919SOL    HW124656   0.758   4.296   3.118
 7919SOL    HW224657   0.767   4.294   3.281
 7920SOL     OW24658   1.001   5.240   1.321
 7920SOL    HW124659   0.960   5.330   1.307
 7920SOL    HW224660   1.040   5.236   1.413
 7921SOL     OW24661   4.023   5.897   0.421
 7921SOL    HW124662   3.931   5.873   0.451
 7921SOL    HW224663   4.041   5.993   0.441
 7922SOL     OW24664   6.207   5.568   0.702
 7922SOL    HW124665   6.241   5.638   0.765
 7922SOL    HW224666   6.283   5.513   0.670
 7923SOL     OW24667   3.261   0.205   2.281
 7923SOL    HW124668   3.304   0.290   2.313
 7923SOL    HW224669   3.244   0.212   2.182
 7924SOL     OW24670   3.801   6.097   2.784
 7924SOL    HW124671   3.761   6.032   2.720
 7924SOL    HW224672   3.737   6.172   2.800
 7925SOL     OW24673   0.598   1.739   6.305
 7925SOL    HW124674   0.544   1.776   6.380
 7925SOL    HW224675   0.633   1.649   6.329
 7926SOL     OW24676   4.757   1.157   4.926
 7926SOL    HW124677   4.658   1.159   4.940
 7926SOL    HW224678   4.803   1.202   5.003
 7927SOL     OW24679   3.982   5.643   4.375
 7927SOL    HW124680   3.929   5.727   4.369
 7927SOL    HW224681   4.048   5.639   4.300
 7928SOL     OW24682   1.325   3.064   4.031
 7928SOL    HW124683   1.249   3.042   4.093
 7928SOL    HW224684   1.373   3.145   4.064
 7929SOL     OW24685   4.108   4.140   5.726
 7929SOL    HW124686   4.107   4.215   5.792
 7929SOL    HW224687   4.177   4.159   5.656
 7930SOL     OW24688   4.644   5.518   3.823
 7930SOL    HW124689   4.705   5.531   3.901
 7930SOL    HW224690   4.566   5.462   3.851
 7931SOL     OW24691   1.301   1.757   6.299
 7931SOL    HW124692   1.379   1.787   6.354
 7931SOL    HW224693   1.223   1.738   6.360
 7932SOL     OW24694   2.976   6.710   0.409
 7932SOL    HW124695   2.885   6.695   0.369
 7932SOL    HW224696   2.999   6.631   0.467
 7933SOL     OW24697   0.128   7.010   0.391
 7933SOL    HW124698   0.057   0.055   0.370
 7933SOL    HW224699   0.126   6.937   0.323
 7934SOL     OW24700   2.402   4.648   6.848
 7934SOL    HW124701   2.501   4.665   6.853
 7934SOL    HW224702   2.369   4.615   6.936
 7935SOL     OW24703   5.615   5.473   6.941
 7935SOL    HW124704   5.667   5.497   0.001
 7935SOL    HW224705   5.523   5.443   6.967
 7936SOL     OW24706   3.496   5.068   2.586
 7936SOL    HW124707   3.454   5.089   2.498
 7936SOL    HW224708   3.571   5.132   2.602
 7937SOL     OW24709   5.903   6.964   3.793
 7937SOL    HW124710   5.914   6.959   3.893
 7937SOL    HW224711   5.991   6.949   3.748
 7938SOL     OW24712   5.872   4.750   5.659
 7938SOL    HW124713   5.795   4.702   5.702
 7938SOL    HW224714   5.950   4.751   5.721
 7939SOL     OW24715   0.458   2.129   6.000
 7939SOL    HW124716   0.378   2.175   5.961
 7939SOL    HW224717   0.433   2.092   6.090
 7940SOL     OW24718   1.816   4.418   2.768
 7940SOL    HW124719   1.916   4.424   2.765
 7940SOL    HW224720   1.789   4.349   2.835
 7941SOL     OW24721   6.795   0.067   1.013
 7941SOL    HW124722   6.742   7.004   1.012
 7941SOL    HW224723   6.871   0.058   1.078
 7942SOL     OW24724   6.565   6.172   2.836
 7942SOL    HW124725   6.633   6.130   2.897
 7942SOL    HW224726   6.611   6.216   2.760
 7943SOL     OW24727   5.890   2.126   0.354
 7943SOL    HW124728   5.872   2.209   0.407
 7943SOL    HW224729   5.952   2.148   0.278
 7944SOL     OW24730   0.351   3.210   1.038
 7944SOL    HW124731   0.361   3.167   0.948
 7944SOL    HW224732   0.378   3.306   1.031
 7945SOL     OW24733   5.547   6.880   2.888
 7945SOL    HW124734   5.508   6.939   2.817
 7945SOL    HW224735   5.598   6.936   2.954
 7946SOL     OW24736   2.357   2.675   5.653
 7946SOL    HW124737   2.345   2.761   5.603
 7946SOL    HW224738   2.370   2.600   5.589
 7947SOL     OW24739   3.756   2.791   6.423
 7947SOL    HW124740   3.661   2.816   6.438
 7947SOL    HW224741   3.761   2.699   6.386
 7948SOL     OW24742   0.390   6.547   1.329
 7948SOL    HW124743   0.426   6.631   1.289
 7948SOL    HW224744   0.295   6.534   1.301
 7949SOL     OW24745   4.413   4.589   3.883
 7949SOL    HW124746   4.401   4.540   3.797
 7949SOL    HW224747   4.490   4.653   3.874
 7950SOL     OW24748   4.823   5.488   3.587
 7950SOL    HW124749   4.866   5.399   3.597
 7950SOL    HW224750   4.759   5.504   3.663
 7951SOL     OW24751   1.950   3.839   1.113
 7951SOL    HW124752   1.863   3.803   1.080
 7951SOL    HW224753   1.969   3.926   1.067
 7952SOL     OW24754   0.701   3.551   6.543
 7952SOL    HW124755   0.644   3.602   6.607
 7952SOL    HW224756   0.660   3.554   6.452
 7953SOL     OW24757   2.289   2.820   3.366
 7953SOL    HW124758   2.257   2.856   3.279
 7953SOL    HW224759   2.355   2.746   3.350
 7954SOL     OW24760   4.578   4.571   5.319
 7954SOL    HW124761   4.672   4.605   5.325
 7954SOL    HW224762   4.536   4.572   5.409
 7955SOL     OW24763   1.167   6.727   6.159
 7955SOL    HW124764   1.169   6.762   6.253
 7955SOL    HW224765   1.239   6.771   6.106
 7956SOL     OW24766   1.498   6.239   2.347
 7956SOL    HW124767   1.587   6.277   2.324
 7956SOL    HW224768   1.491   6.145   2.313
 7957SOL     OW24769   2.293   1.020   0.514
 7957SOL    HW124770   2.258   1.038   0.422
 7957SOL    HW224771   2.306   1.107   0.562
 7958SOL     OW24772   3.227   5.588   4.496
 7958SOL    HW124773   3.133   5.613   4.475
 7958SOL    HW224774   3.289   5.631   4.431
 7959SOL     OW24775   4.349   5.413   1.313
 7959SOL    HW124776   4.343   5.316   1.336
 7959SOL    HW224777   4.417   5.457   1.372
 7960SOL     OW24778   3.760   1.625   0.965
 7960SOL    HW124779   3.735   1.532   0.992
 7960SOL    HW224780   3.808   1.670   1.041
 7961SOL     OW24781   0.700   6.159   0.085
 7961SOL    HW124782   0.798   6.147   0.067
 7961SOL    HW224783   0.656   6.197   0.004
 7962SOL     OW24784   1.878   0.334   0.284
 7962SOL    HW124785   1.883   0.309   0.187
 7962SOL    HW224786   1.880   0.434   0.292
 7963SOL     OW24787   6.480   0.548   3.698
 7963SOL    HW124788   6.450   0.642   3.718
 7963SOL    HW224789   6.539   0.516   3.772
 7964SOL     OW24790   6.360   5.205   3.672
 7964SOL    HW124791   6.434   5.248   3.619
 7964SOL    HW224792   6.373   5.106   3.673
 7965SOL     OW24793   3.491   2.794   6.491
 7965SOL    HW124794   3.455   2.701   6.496
 7965SOL    HW224795   3.444   2.845   6.420
 7966SOL     OW24796   0.520   2.961   5.508
 7966SOL    HW124797   0.460   3.040   5.514
 7966SOL    HW224798   0.542   2.928   5.599
 7967SOL     OW24799   3.114   6.569   3.933
 7967SOL    HW124800   3.066   6.491   3.972
 7967SOL    HW224801   3.093   6.652   3.985
 7968SOL     OW24802   1.953   2.697   3.128
 7968SOL    HW124803   1.948   2.635   3.050
 7968SOL    HW224804   1.902   2.780   3.108
 7969SOL     OW24805   4.557   6.939   2.323
 7969SOL    HW124806   4.652   6.954   2.297
 7969SOL    HW224807   4.497   6.957   2.245
 7970SOL     OW24808   0.153   3.130   2.778
 7970SOL    HW124809   0.091   3.071   2.726
 7970SOL    HW224810   0.132   3.225   2.759
 7971SOL     OW24811   3.692   1.581   0.656
 7971SOL    HW124812   3.757   1.607   0.728
 7971SOL    HW224813   3.620   1.525   0.695
 7972SOL     OW24814   0.766   4.138   1.626
 7972SOL    HW124815   0.818   4.192   1.561
 7972SOL    HW224816   0.768   4.042   1.598
 7973SOL     OW24817   5.479   3.373   2.858
 7973SOL    HW124818   5.446   3.280   2.843
 7973SOL    HW224819   5.403   3.438   2.845
 7974SOL     OW24820   5.433   0.345   4.818
 7974SOL    HW124821   5.408   0.418   4.754
 7974SOL    HW224822   5.532   0.340   4.826
 7975SOL     OW24823   5.772   0.709   3.646
 7975SOL    HW124824   5.783   0.610   3.635
 7975SOL    HW224825   5.850   0.756   3.603
 7976SOL     OW24826   0.829   0.512   5.716
 7976SOL    HW124827   0.754   0.513   5.782
 7976SOL    HW224828   0.802   0.561   5.633
 7977SOL     OW24829   4.546   5.553   1.927
 7977SOL    HW124830   4.624   5.558   1.864
 7977SOL    HW224831   4.573   5.504   2.010
 7978SOL     OW24832   5.658   3.637   6.322
 7978SOL    HW124833   5.559   3.641   6.307
 7978SOL    HW224834   5.680   3.682   6.409
 7979SOL     OW24835   3.530   0.857   5.556
 7979SOL    HW124836   3.591   0.890   5.627
 7979SOL    HW224837   3.493   0.768   5.582
 7980SOL     OW24838   2.902   6.008   6.997
 7980SOL    HW124839   2.818   6.058   7.018
 7980SOL    HW224840   2.978   6.072   6.985
 7981SOL     OW24841   0.633   6.114   2.386
 7981SOL    HW124842   0.601   6.022   2.367
 7981SOL    HW224843   0.596   6.177   2.317
 7982SOL     OW24844   6.635   1.787   0.184
 7982SOL    HW124845   6.719   1.737   0.205
 7982SOL    HW224846   6.579   1.794   0.267
 7983SOL     OW24847   5.309   1.914   2.811
 7983SOL    HW124848   5.285   2.004   2.774
 7983SOL    HW224849   5.407   1.899   2.802
 7984SOL     OW24850   1.614   2.455   1.562
 7984SOL    HW124851   1.637   2.368   1.518
 7984SOL    HW224852   1.697   2.497   1.598
 7985SOL     OW24853   2.432   0.289   3.577
 7985SOL    HW124854   2.359   0.331   3.631
 7985SOL    HW224855   2.395   0.265   3.487
 7986SOL     OW24856   3.395   0.945   6.678
 7986SOL    HW124857   3.332   0.994   6.618
 7986SOL    HW224858   3.445   0.876   6.625
 7987SOL     OW24859   0.937   3.456   6.436
 7987SOL    HW124860   0.921   3.378   6.375
 7987SOL    HW224861   0.849   3.492   6.468
 7988SOL     OW24862   1.690   1.924   4.651
 7988SOL    HW124863   1.628   1.998   4.626
 7988SOL    HW224864   1.703   1.863   4.573
 7989SOL     OW24865   3.227   2.263   5.452
 7989SOL    HW124866   3.159   2.191   5.439
 7989SOL    HW224867   3.226   2.324   5.372
 7990SOL     OW24868   5.907   3.963   3.985
 7990SOL    HW124869   5.962   3.996   4.063
 7990SOL    HW224870   5.959   3.974   3.901
 7991SOL     OW24871   6.420   0.652   5.015
 7991SOL    HW124872   6.324   0.654   4.988
 7991SOL    HW224873   6.431   0.697   5.104
 7992SOL     OW24874   1.283   6.489   0.685
 7992SOL    HW124875   1.233   6.475   0.770
 7992SOL    HW224876   1.336   6.574   0.691
 7993SOL     OW24877   1.554   6.258   6.891
 7993SOL    HW124878   1.624   6.194   6.859
 7993SOL    HW224879   1.535   6.240   6.988
 7994SOL     OW24880   4.553   0.621   2.875
 7994SOL    HW124881   4.567   0.715   2.845
 7994SOL    HW224882   4.613   0.560   2.825
 7995SOL     OW24883   4.129   5.278   3.569
 7995SOL    HW124884   4.221   5.317   3.562
 7995SOL    HW224885   4.070   5.317   3.498
 7996SOL     OW24886   2.989   6.759   4.641
 7996SOL    HW124887   2.960   6.713   4.725
 7996SOL    HW224888   2.925   6.832   4.618
 7997SOL     OW24889   0.211   1.311   0.781
 7997SOL    HW124890   0.161   1.225   0.767
 7997SOL    HW224891   0.308   1.296   0.765
 7998SOL     OW24892   4.199   5.488   0.983
 7998SOL    HW124893   4.099   5.481   0.986
 7998SOL    HW224894   4.227   5.580   1.008
 7999SOL     OW24895   1.564   0.716   6.536
 7999SOL    HW124896   1.512   0.652   6.480
 7999SOL    HW224897   1.630   0.666   6.591
 8000SOL     OW24898   5.383   0.771   0.005
 8000SOL    HW124899   5.369   0.809   0.096
 8000SOL    HW224900   5.467   0.809   6.987
 8001SOL     OW24901   3.467   6.408   1.349
 8001SOL    HW124902   3.439   6.448   1.262
 8001SOL    HW224903   3.419   6.321   1.363
 8002SOL     OW24904   0.485   2.611   5.812
 8002SOL    HW124905   0.565   2.604   5.752
 8002SOL    HW224906   0.442   2.521   5.821
 8003SOL     OW24907   1.981   4.796   1.973
 8003SOL    HW124908   2.010   4.703   1.995
 8003SOL    HW224909   2.014   4.859   2.044
 8004SOL     OW24910   1.749   4.241   2.959
 8004SOL    HW124911   1.776   4.211   3.051
 8004SOL    HW224912   1.649   4.241   2.952
 8005SOL     OW24913   3.719   1.810   2.151
 8005SOL    HW124914   3.647   1.876   2.130
 8005SOL    HW224915   3.763   1.834   2.237
 8006SOL     OW24916   2.859   6.539   0.736
 8006SOL    HW124917   2.803   6.615   0.769
 8006SOL    HW224918   2.887   6.482   0.813
 8007SOL     OW24919   1.398   6.942   4.156
 8007SOL    HW124920   1.361   6.917   4.067
 8007SOL    HW224921   1.401   0.020   4.163
 8008SOL     OW24922   4.829   6.967   5.986
 8008SOL    HW124923   4.759   6.935   5.923
 8008SOL    HW224924   4.907   7.003   5.934
 8009SOL     OW24925   6.293   0.396   3.399
 8009SOL    HW124926   6.292   0.297   3.410
 8009SOL    HW224927   6.274   0.440   3.486
 8010SOL     OW24928   1.418   1.705   0.067
 8010SOL    HW124929   1.432   1.608   0.086
 8010SOL    HW224930   1.394   1.753   0.151
 8011SOL     OW24931   2.324   3.014   1.378
 8011SOL    HW124932   2.358   2.920   1.390
 8011SOL    HW224933   2.241   3.026   1.434
 8012SOL     OW24934   2.296   5.828   1.659
 8012SOL    HW124935   2.382   5.877   1.674
 8012SOL    HW224936   2.315   5.741   1.614
 8013SOL     OW24937   0.530   5.185   4.517
 8013SOL    HW124938   0.595   5.256   4.489
 8013SOL    HW224939   0.524   5.116   4.445
 8014SOL     OW24940   0.848   6.434   5.375
 8014SOL    HW124941   0.807   6.505   5.432
 8014SOL    HW224942   0.781   6.361   5.359
 8015SOL     OW24943   2.926   1.277   0.130
 8015SOL    HW124944   2.975   1.358   0.098
 8015SOL    HW224945   2.980   1.196   0.110
 8016SOL     OW24946   4.386   0.374   6.212
 8016SOL    HW124947   4.461   0.391   6.148
 8016SOL    HW224948   4.361   0.460   6.258
 8017SOL     OW24949   6.935   5.040   6.084
 8017SOL    HW124950   6.951   5.126   6.132
 8017SOL    HW224951   0.001   5.002   6.054
 8018SOL     OW24952   3.992   2.604   6.326
 8018SOL    HW124953   4.024   2.546   6.401
 8018SOL    HW224954   4.013   2.700   6.347
 8019SOL     OW24955   2.019   3.700   6.930
 8019SOL    HW124956   1.920   3.688   6.921
 8019SOL    HW224957   2.065   3.662   6.850
 8020SOL     OW24958   6.123   5.813   0.562
 8020SOL    HW124959   6.153   5.724   0.598
 8020SOL    HW224960   6.158   5.824   0.469
 8021SOL     OW24961   1.340   2.351   2.100
 8021SOL    HW124962   1.403   2.318   2.029
 8021SOL    HW224963   1.391   2.404   2.168
 8022SOL     OW24964   4.273   0.411   2.452
 8022SOL    HW124965   4.317   0.481   2.397
 8022SOL    HW224966   4.300   0.421   2.548
 8023SOL     OW24967   5.657   5.945   3.547
 8023SOL    HW124968   5.637   5.847   3.556
 8023SOL    HW224969   5.649   5.971   3.451
 8024SOL     OW24970   2.861   4.741   0.075
 8024SOL    HW124971   2.934   4.802   0.105
 8024SOL    HW224972   2.893   4.684   7.021
 8025SOL     OW24973   2.592   5.894   5.859
 8025SOL    HW124974   2.675   5.918   5.910
 8025SOL    HW224975   2.618   5.848   5.774
 8026SOL     OW24976   0.640   4.648   6.757
 8026SOL    HW124977   0.625   4.723   6.821
 8026SOL    HW224978   0.737   4.621   6.760
 8027SOL     OW24979   4.235   2.040   5.226
 8027SOL    HW124980   4.316   1.991   5.194
 8027SOL    HW224981   4.161   1.976   5.244
 8028SOL     OW24982   3.470   4.850   5.682
 8028SOL    HW124983   3.544   4.913   5.706
 8028SOL    HW224984   3.392   4.866   5.743
 8029SOL     OW24985   5.574   3.533   0.203
 8029SOL    HW124986   5.584   3.534   0.302
 8029SOL    HW224987   5.665   3.535   0.161
 8030SOL     OW24988   5.591   4.181   6.694
 8030SOL    HW124989   5.516   4.115   6.702
 8030SOL    HW224990   5.661   4.161   6.762
 8031SOL     OW24991   4.816   5.861   2.697
 8031SOL    HW124992   4.841   5.816   2.611
 8031SOL    HW224993   4.724   5.899   2.689
 8032SOL     OW24994   5.703   4.339   5.694
 8032SOL    HW124995   5.674   4.272   5.762
 8032SOL    HW224996   5.711   4.429   5.738
 8033SOL     OW24997   5.033   3.365   6.936
 8033SOL    HW124998   5.127   3.379   6.905
 8033SOL    HW224999   5.034   3.321   0.005
 8034SOL     OW25000   6.234   1.233   5.350
 8034SOL    HW125001   6.281   1.193   5.271
 8034SOL    HW225002   6.138   1.247   5.327
 8035SOL     OW25003   4.389   0.133   4.865
 8035SOL    HW125004   4.401   0.231   4.880
 8035SOL    HW225005   4.470   0.084   4.896
 8036SOL     OW25006   0.828   3.817   2.537
 8036SOL    HW125007   0.892   3.800   2.462
 8036SOL    HW225008   0.735   3.817   2.502
 8037SOL     OW25009   1.305   4.070   2.391
 8037SOL    HW125010   1.260   3.989   2.427
 8037SOL    HW225011   1.360   4.045   2.311
 8038SOL     OW25012   4.746   1.272   2.712
 8038SOL    HW125013   4.667   1.260   2.773
 8038SOL    HW225014   4.718   1.255   2.618
 8039SOL     OW25015   1.547   0.105   3.113
 8039SOL    HW125016   1.477   0.152   3.167
 8039SOL    HW225017   1.542   0.136   3.018
 8040SOL     OW25018   1.677   5.955   1.030
 8040SOL    HW125019   1.612   5.897   0.980
 8040SOL    HW225020   1.692   5.918   1.121
 8041SOL     OW25021   2.947   2.158   2.258
 8041SOL    HW125022   2.869   2.123   2.310
 8041SOL    HW225023   2.917   2.231   2.197
 8042SOL     OW25024   3.803   3.275   3.032
 8042SOL    HW125025   3.772   3.202   3.093
 8042SOL    HW225026   3.805   3.362   3.082
 8043SOL     OW25027   3.883   6.283   0.727
 8043SOL    HW125028   3.930   6.317   0.809
 8043SOL    HW225029   3.867   6.359   0.664
 8044SOL     OW25030   3.151   3.738   0.867
 8044SOL    HW125031   3.174   3.640   0.862
 8044SOL    HW225032   3.187   3.776   0.951
 8045SOL     OW25033   5.430   0.679   1.804
 8045SOL    HW125034   5.383   0.761   1.772
 8045SOL    HW225035   5.518   0.705   1.846
 8046SOL     OW25036   6.919   5.164   6.759
 8046SOL    HW125037   6.937   5.066   6.765
 8046SOL    HW225038   6.999   5.215   6.791
 8047SOL     OW25039   3.960   5.033   5.130
 8047SOL    HW125040   3.955   5.105   5.200
 8047SOL    HW225041   4.010   4.954   5.166
 8048SOL     OW25042   4.983   1.086   6.046
 8048SOL    HW125043   4.988   1.089   6.146
 8048SOL    HW225044   5.053   1.146   6.007
 8049SOL     OW25045   1.251   0.410   1.425
 8049SOL    HW125046   1.169   0.462   1.447
 8049SOL    HW225047   1.227   0.334   1.364
 8050SOL     OW25048   0.531   4.518   2.156
 8050SOL    HW125049   0.535   4.435   2.099
 8050SOL    HW225050   0.453   4.573   2.128
 8051SOL     OW25051   4.895   6.197   3.357
 8051SOL    HW125052   4.917   6.212   3.453
 8051SOL    HW225053   4.979   6.170   3.308
 8052SOL     OW25054   3.569   1.192   1.680
 8052SOL    HW125055   3.611   1.146   1.602
 8052SOL    HW225056   3.634   1.256   1.721
 8053SOL     OW25057   4.009   3.887   2.794
 8053SOL    HW125058   3.974   3.930   2.878
 8053SOL    HW225059   4.090   3.937   2.763
 8054SOL     OW25060   5.598   6.701   4.540
 8054SOL    HW125061   5.548   6.617   4.560
 8054SOL    HW225062   5.534   6.776   4.529
 8055SOL     OW25063   0.446   0.454   6.297
 8055SOL    HW125064   0.539   0.482   6.319
 8055SOL    HW225065   0.448   0.366   6.249
 8056SOL     OW25066   4.068   1.548   4.049
 8056SOL    HW125067   4.070   1.588   4.140
 8056SOL    HW225068   4.115   1.609   3.985
 8057SOL     OW25069   2.273   2.056   2.677
 8057SOL    HW125070   2.252   2.038   2.774
 8057SOL    HW225071   2.224   1.990   2.620
 8058SOL     OW25072   3.482   0.124   2.652
 8058SOL    HW125073   3.409   0.127   2.720
 8058SOL    HW225074   3.473   0.201   2.589
 8059SOL     OW25075   4.313   2.283   4.715
 8059SOL    HW125076   4.336   2.279   4.812
 8059SOL    HW225077   4.265   2.368   4.695
 8060SOL     OW25078   0.195   1.381   4.125
 8060SOL    HW125079   0.112   1.429   4.154
 8060SOL    HW225080   0.271   1.445   4.122
 8061SOL     OW25081   6.227   6.904   1.546
 8061SOL    HW125082   6.139   6.859   1.558
 8061SOL    HW225083   6.236   6.933   1.450
 8062SOL     OW25084   2.886   4.887   4.494
 8062SOL    HW125085   2.934   4.887   4.582
 8062SOL    HW225086   2.887   4.979   4.456
 8063SOL     OW25087   1.954   3.028   0.834
 8063SOL    HW125088   1.977   2.948   0.779
 8063SOL    HW225089   2.030   3.047   0.897
 8064SOL     OW25090   0.148   5.239   1.697
 8064SOL    HW125091   0.109   5.173   1.762
 8064SOL    HW225092   0.244   5.257   1.722
 8065SOL     OW25093   4.316   6.471   3.877
 8065SOL    HW125094   4.292   6.392   3.820
 8065SOL    HW225095   4.236   6.499   3.931
 8066SOL     OW25096   0.878   1.435   6.246
 8066SOL    HW125097   0.896   1.438   6.344
 8066SOL    HW225098   0.877   1.340   6.215
 8067SOL     OW25099   4.551   3.029   1.574
 8067SOL    HW125100   4.558   3.042   1.673
 8067SOL    HW225101   4.461   3.060   1.543
 8068SOL     OW25102   6.026   5.134   6.515
 8068SOL    HW125103   6.052   5.096   6.426
 8068SOL    HW225104   5.975   5.066   6.567
 8069SOL     OW25105   2.194   6.089   1.454
 8069SOL    HW125106   2.121   6.021   1.455
 8069SOL    HW225107   2.253   6.077   1.534
 8070SOL     OW25108   2.390   3.576   0.661
 8070SOL    HW125109   2.388   3.566   0.561
 8070SOL    HW225110   2.453   3.509   0.700
 8071SOL     OW25111   2.952   6.359   5.035
 8071SOL    HW125112   2.886   6.367   4.960
 8071SOL    HW225113   2.971   6.450   5.072
 8072SOL     OW25114   3.455   1.140   0.097
 8072SOL    HW125115   3.446   1.168   0.001
 8072SOL    HW225116   3.408   1.053   0.111
 8073SOL     OW25117   4.444   6.761   6.280
 8073SOL    HW125118   4.395   6.682   6.243
 8073SOL    HW225119   4.426   6.769   6.378
 8074SOL     OW25120   2.979   2.957   6.671
 8074SOL    HW125121   3.069   2.918   6.651
 8074SOL    HW225122   2.938   2.908   6.748
 8075SOL     OW25123   6.515   0.904   1.492
 8075SOL    HW125124   6.539   1.000   1.505
 8075SOL    HW225125   6.474   0.892   1.402
 8076SOL     OW25126   4.500   2.242   5.649
 8076SOL    HW125127   4.584   2.290   5.674
 8076SOL    HW225128   4.500   2.224   5.551
 8077SOL     OW25129   1.208   5.956   1.899
 8077SOL    HW125130   1.240   6.031   1.958
 8077SOL    HW225131   1.287   5.905   1.866
 8078SOL     OW25132   6.182   1.615   0.924
 8078SOL    HW125133   6.111   1.640   0.858
 8078SOL    HW225134   6.209   1.520   0.908
 8079SOL     OW25135   5.053   1.580   3.638
 8079SOL    HW125136   4.962   1.608   3.666
 8079SOL    HW225137   5.121   1.617   3.702
 8080SOL     OW25138   0.779   4.001   0.074
 8080SOL    HW125139   0.862   3.989   0.021
 8080SOL    HW225140   0.790   3.959   0.164
 8081SOL     OW25141   5.079   0.279   5.008
 8081SOL    HW125142   5.095   0.357   4.947
 8081SOL    HW225143   4.986   0.245   4.996
 8082SOL     OW25144   5.991   0.652   1.990
 8082SOL    HW125145   6.033   0.663   1.900
 8082SOL    HW225146   5.943   0.564   1.994
 8083SOL     OW25147   5.210   2.671   2.243
 8083SOL    HW125148   5.263   2.710   2.168
 8083SOL    HW225149   5.115   2.657   2.214
 8084SOL     OW25150   5.592   6.774   0.871
 8084SOL    HW125151   5.497   6.795   0.851
 8084SOL    HW225152   5.598   6.689   0.923
 8085SOL     OW25153   6.064   0.142   2.663
 8085SOL    HW125154   6.127   0.070   2.637
 8085SOL    HW225155   5.976   0.101   2.691
 8086SOL     OW25156   4.479   0.712   3.793
 8086SOL    HW125157   4.439   0.620   3.795
 8086SOL    HW225158   4.405   0.779   3.789
 8087SOL     OW25159   2.018   1.757   1.288
 8087SOL    HW125160   2.038   1.711   1.374
 8087SOL    HW225161   2.007   1.855   1.304
 8088SOL     OW25162   5.992   1.784   1.776
 8088SOL    HW125163   6.026   1.747   1.689
 8088SOL    HW225164   5.925   1.721   1.815
 8089SOL     OW25165   5.600   2.629   0.842
 8089SOL    HW125166   5.587   2.532   0.864
 8089SOL    HW225167   5.610   2.640   0.743
 8090SOL     OW25168   4.427   1.949   6.242
 8090SOL    HW125169   4.395   1.863   6.280
 8090SOL    HW225170   4.460   2.008   6.316
 8091SOL     OW25171   2.525   3.699   6.434
 8091SOL    HW125172   2.501   3.619   6.380
 8091SOL    HW225173   2.457   3.771   6.419
 8092SOL     OW25174   0.983   1.589   4.868
 8092SOL    HW125175   0.918   1.643   4.815
 8092SOL    HW225176   1.039   1.650   4.924
 8093SOL     OW25177   5.074   5.778   1.927
 8093SOL    HW125178   5.142   5.796   1.999
 8093SOL    HW225179   5.080   5.849   1.857
 8094SOL     OW25180   2.075   3.969   4.606
 8094SOL    HW125181   1.978   3.973   4.630
 8094SOL    HW225182   2.130   4.004   4.682
 8095SOL     OW25183   5.620   3.916   3.729
 8095SOL    HW125184   5.626   3.877   3.821
 8095SOL    HW225185   5.637   3.844   3.662
 8096SOL     OW25186   3.263   5.515   4.135
 8096SOL    HW125187   3.326   5.493   4.210
 8096SOL    HW225188   3.291   5.466   4.053
 8097SOL     OW25189   5.260   0.591   3.853
 8097SOL    HW125190   5.350   0.600   3.810
 8097SOL    HW225191   5.226   0.681   3.878
 8098SOL     OW25192   1.723   6.829   4.579
 8098SOL    HW125193   1.796   6.892   4.606
 8098SOL    HW225194   1.661   6.875   4.516
 8099SOL     OW25195   6.113   0.505   4.339
 8099SOL    HW125196   6.089   0.554   4.423
 8099SOL    HW225197   6.030   0.466   4.298
 8100SOL     OW25198   0.111   6.886   0.125
 8100SOL    HW125199   0.209   6.904   0.118
 8100SOL    HW225200   0.092   6.793   0.093
 8101SOL     OW25201   2.344   0.958   4.501
 8101SOL    HW125202   2.404   1.028   4.464
 8101SOL    HW225203   2.289   0.918   4.427
 8102SOL     OW25204   1.396   5.043   5.661
 8102SOL    HW125205   1.489   5.007   5.655
 8102SOL    HW225206   1.398   5.134   5.702
 8103SOL     OW25207   4.339   1.025   0.581
 8103SOL    HW125208   4.325   1.090   0.656
 8103SOL    HW225209   4.399   1.066   0.513
 8104SOL     OW25210   2.853   6.596   5.808
 8104SOL    HW125211   2.905   6.549   5.879
 8104SOL    HW225212   2.904   6.678   5.779
 8105SOL     OW25213   1.649   1.942   3.067
 8105SOL    HW125214   1.549   1.944   3.067
 8105SOL    HW225215   1.684   2.031   3.097
 8106SOL     OW25216   2.492   5.784   3.845
 8106SOL    HW125217   2.433   5.750   3.919
 8106SOL    HW225218   2.444   5.854   3.794
 8107SOL     OW25219   1.272   5.859   5.523
 8107SOL    HW125220   1.296   5.762   5.509
 8107SOL    HW225221   1.231   5.870   5.613
 8108SOL     OW25222   5.706   2.643   4.917
 8108SOL    HW125223   5.697   2.565   4.980
 8108SOL    HW225224   5.684   2.613   4.824
 8109SOL     OW25225   1.100   3.611   4.609
 8109SOL    HW125226   1.107   3.669   4.691
 8109SOL    HW225227   1.177   3.630   4.548
 8110SOL     OW25228   3.470   6.742   0.660
 8110SOL    HW125229   3.446   6.747   0.563
 8110SOL    HW225230   3.500   6.831   0.692
 8111SOL     OW25231   3.751   6.993   5.829
 8111SOL    HW125232   3.747   6.895   5.810
 8111SOL    HW225233   3.699   0.022   5.760
 8112SOL     OW25234   1.738   1.184   5.026
 8112SOL    HW125235   1.777   1.202   5.115
 8112SOL    HW225236   1.671   1.109   5.033
 8113SOL     OW25237   2.480   3.297   0.029
 8113SOL    HW125238   2.446   3.369   6.989
 8113SOL    HW225239   2.547   3.241   7.001
 8114SOL     OW25240   2.166   3.011   2.141
 8114SOL    HW125241   2.215   2.988   2.225
 8114SOL    HW225242   2.150   3.110   2.138
 8115SOL     OW25243   4.170   1.494   1.700
 8115SOL    HW125244   4.205   1.405   1.729
 8115SOL    HW225245   4.075   1.486   1.672
 8116SOL     OW25246   4.655   6.927   4.647
 8116SOL    HW125247   4.673   6.876   4.563
 8116SOL    HW225248   4.678   0.002   4.633
 8117SOL     OW25249   2.163   1.501   3.906
 8117SOL    HW125250   2.226   1.573   3.935
 8117SOL    HW225251   2.069   1.528   3.925
 8118SOL     OW25252   0.393   3.316   5.952
 8118SOL    HW125253   0.384   3.230   5.902
 8118SOL    HW225254   0.369   3.392   5.891
 8119SOL     OW25255   0.135   5.631   4.951
 8119SOL    HW125256   0.065   5.560   4.951
 8119SOL    HW225257   0.225   5.588   4.939
 8120SOL     OW25258   3.828   4.524   6.541
 8120SOL    HW125259   3.816   4.556   6.635
 8120SOL    HW225260   3.841   4.603   6.480
 8121SOL     OW25261   6.503   5.448   3.124
 8121SOL    HW125262   6.510   5.538   3.082
 8121SOL    HW225263   6.422   5.444   3.182
 8122SOL     OW25264   0.452   5.490   2.446
 8122SOL    HW125265   0.434   5.460   2.540
 8122SOL    HW225266   0.490   5.413   2.394
 8123SOL     OW25267   0.353   0.154   0.349
 8123SOL    HW125268   0.429   0.179   0.408
 8123SOL    HW225269   0.303   0.077   0.390
 8124SOL     OW25270   0.660   6.195   1.233
 8124SOL    HW125271   0.645   6.273   1.172
 8124SOL    HW225272   0.663   6.228   1.328
 8125SOL     OW25273   6.847   5.663   3.607
 8125SOL    HW125274   6.851   5.576   3.558
 8125SOL    HW225275   6.761   5.709   3.586
 8126SOL     OW25276   6.319   3.930   2.181
 8126SOL    HW125277   6.336   3.973   2.269
 8126SOL    HW225278   6.400   3.937   2.123
 8127SOL     OW25279   2.220   5.925   0.659
 8127SOL    HW125280   2.240   5.873   0.576
 8127SOL    HW225281   2.157   5.873   0.717
 8128SOL     OW25282   2.973   2.944   0.322
 8128SOL    HW125283   2.874   2.948   0.336
 8128SOL    HW225284   2.997   2.857   0.278
 8129SOL     OW25285   4.670   1.326   5.927
 8129SOL    HW125286   4.627   1.269   5.856
 8129SOL    HW225287   4.606   1.337   6.003
 8130SOL     OW25288   1.019   5.051   6.240
 8130SOL    HW125289   1.102   4.997   6.225
 8130SOL    HW225290   0.939   4.995   6.220
 8131SOL     OW25291   2.745   0.619   0.663
 8131SOL    HW125292   2.735   0.703   0.717
 8131SOL    HW225293   2.656   0.590   0.630
 8132SOL     OW25294   6.065   6.246   6.066
 8132SOL    HW125295   6.025   6.155   6.049
 8132SOL    HW225296   6.126   6.270   5.990
 8133SOL     OW25297   3.562   4.923   2.106
 8133SOL    HW125298   3.608   4.856   2.047
 8133SOL    HW225299   3.464   4.920   2.090
 8134SOL     OW25300   1.955   1.190   4.340
 8134SOL    HW125301   2.008   1.194   4.256
 8134SOL    HW225302   2.014   1.209   4.418
 8135SOL     OW25303   2.313   5.544   2.579
 8135SOL    HW125304   2.309   5.618   2.510
 8135SOL    HW225305   2.409   5.525   2.601
 8136SOL     OW25306   4.870   4.570   2.486
 8136SOL    HW125307   4.961   4.572   2.443
 8136SOL    HW225308   4.806   4.523   2.426
 8137SOL     OW25309   2.557   1.764   4.340
 8137SOL    HW125310   2.612   1.681   4.345
 8137SOL    HW225311   2.540   1.787   4.244
 8138SOL     OW25312   6.010   1.990   1.411
 8138SOL    HW125313   5.970   1.938   1.336
 8138SOL    HW225314   6.107   1.969   1.418
 8139SOL     OW25315   1.699   2.518   3.064
 8139SOL    HW125316   1.776   2.469   3.023
 8139SOL    HW225317   1.615   2.497   3.012
 8140SOL     OW25318   3.534   0.309   0.244
 8140SOL    HW125319   3.512   0.273   0.334
 8140SOL    HW225320   3.590   0.242   0.195
 8141SOL     OW25321   4.850   6.661   5.436
 8141SOL    HW125322   4.835   6.583   5.496
 8141SOL    HW225323   4.794   6.652   5.354
 8142SOL     OW25324   1.829   5.158   1.086
 8142SOL    HW125325   1.766   5.210   1.145
 8142SOL    HW225326   1.813   5.060   1.098
 8143SOL     OW25327   4.910   4.885   1.003
 8143SOL    HW125328   4.864   4.818   0.944
 8143SOL    HW225329   4.868   4.884   1.093
 8144SOL     OW25330   1.027   6.001   5.430
 8144SOL    HW125331   1.025   6.066   5.354
 8144SOL    HW225332   1.119   5.999   5.469
 8145SOL     OW25333   4.781   4.482   0.734
 8145SOL    HW125334   4.853   4.422   0.701
 8145SOL    HW225335   4.726   4.434   0.802
 8146SOL     OW25336   6.655   7.010   5.447
 8146SOL    HW125337   6.579   6.952   5.478
 8146SOL    HW225338   6.708   6.962   5.378
 8147SOL     OW25339   0.166   0.922   0.230
 8147SOL    HW125340   0.160   0.823   0.224
 8147SOL    HW225341   0.170   0.949   0.327
 8148SOL     OW25342   4.268   4.802   6.823
 8148SOL    HW125343   4.278   4.901   6.822
 8148SOL    HW225344   4.207   4.775   6.898
 8149SOL     OW25345   1.433   6.231   4.097
 8149SOL    HW125346   1.396   6.315   4.058
 8149SOL    HW225347   1.418   6.230   4.196
 8150SOL     OW25348   0.932   3.631   0.966
 8150SOL    HW125349   0.892   3.548   0.928
 8150SOL    HW225350   0.881   3.711   0.932
 8151SOL     OW25351   5.750   5.679   3.815
 8151SOL    HW125352   5.840   5.701   3.779
 8151SOL    HW225353   5.717   5.594   3.773
 8152SOL     OW25354   5.378   2.458   3.459
 8152SOL    HW125355   5.320   2.513   3.519
 8152SOL    HW225356   5.326   2.382   3.422
 8153SOL     OW25357   0.229   0.740   3.126
 8153SOL    HW125358   0.201   0.836   3.128
 8153SOL    HW225359   0.265   0.714   3.216
 8154SOL     OW25360   3.376   0.152   3.108
 8154SOL    HW125361   3.354   0.172   3.203
 8154SOL    HW225362   3.442   0.219   3.074
 8155SOL     OW25363   1.110   4.290   2.279
 8155SOL    HW125364   1.154   4.200   2.287
 8155SOL    HW225365   1.013   4.281   2.299
 8156SOL     OW25366   4.925   6.186   1.727
 8156SOL    HW125367   4.849   6.155   1.784
 8156SOL    HW225368   4.933   6.126   1.647
 8157SOL     OW25369   6.006   4.331   5.838
 8157SOL    HW125370   5.909   4.322   5.814
 8157SOL    HW225371   6.055   4.376   5.763
 8158SOL     OW25372   5.281   4.639   6.774
 8158SOL    HW125373   5.238   4.639   6.864
 8158SOL    HW225374   5.373   4.678   6.780
 8159SOL     OW25375   3.636   6.223   5.385
 8159SOL    HW125376   3.628   6.316   5.350
 8159SOL    HW225377   3.545   6.186   5.404
 8160SOL     OW25378   4.459   0.110   3.918
 8160SOL    HW125379   4.472   0.024   3.967
 8160SOL    HW225380   4.548   0.143   3.885
 8161SOL     OW25381   5.917   3.751   6.497
 8161SOL    HW125382   5.956   3.660   6.485
 8161SOL    HW225383   5.883   3.785   6.410
 8162SOL     OW25384   0.160   5.285   6.737
 8162SOL    HW125385   0.120   5.348   6.670
 8162SOL    HW225386   0.139   5.316   6.829
 8163SOL     OW25387   2.605   5.071   6.133
 8163SOL    HW125388   2.566   5.062   6.225
 8163SOL    HW225389   2.621   4.980   6.095
 8164SOL     OW25390   4.556   1.374   0.128
 8164SOL    HW125391   4.614   1.295   0.107
 8164SOL    HW225392   4.605   1.434   0.192
 8165SOL     OW25393   6.603   3.834   6.379
 8165SOL    HW125394   6.505   3.828   6.360
 8165SOL    HW225395   6.646   3.746   6.360
 8166SOL     OW25396   2.241   1.270   3.446
 8166SOL    HW125397   2.217   1.341   3.512
 8166SOL    HW225398   2.187   1.283   3.363
 8167SOL     OW25399   0.333   0.770   3.814
 8167SOL    HW125400   0.294   0.738   3.727
 8167SOL    HW225401   0.393   0.698   3.851
 8168SOL     OW25402   2.287   6.896   1.400
 8168SOL    HW125403   2.284   6.849   1.488
 8168SOL    HW225404   2.382   6.902   1.369
 8169SOL     OW25405   4.027   2.059   0.162
 8169SOL    HW125406   3.932   2.085   0.175
 8169SOL    HW225407   4.084   2.141   0.156
 8170SOL     OW25408   6.662   4.718   1.452
 8170SOL    HW125409   6.760   4.735   1.465
 8170SOL    HW225410   6.649   4.627   1.413
 8171SOL     OW25411   1.911   1.286   6.524
 8171SOL    HW125412   1.825   1.336   6.517
 8171SOL    HW225413   1.947   1.270   6.432
 8172SOL     OW25414   0.129   2.216   1.612
 8172SOL    HW125415   0.087   2.234   1.701
 8172SOL    HW225416   0.117   2.120   1.587
 8173SOL     OW25417   6.146   1.605   2.368
 8173SOL    HW125418   6.152   1.519   2.319
 8173SOL    HW225419   6.140   1.681   2.303
 8174SOL     OW25420   1.018   6.848   2.855
 8174SOL    HW125421   1.058   6.940   2.852
 8174SOL    HW225422   0.941   6.847   2.919
 8175SOL     OW25423   0.488   2.827   4.764
 8175SOL    HW125424   0.534   2.740   4.743
 8175SOL    HW225425   0.390   2.818   4.742
 8176SOL     OW25426   2.554   4.541   1.839
 8176SOL    HW125427   2.582   4.520   1.745
 8176SOL    HW225428   2.635   4.551   1.897
 8177SOL     OW25429   4.270   1.135   3.584
 8177SOL    HW125430   4.268   1.185   3.498
 8177SOL    HW225431   4.240   1.196   3.658
 8178SOL     OW25432   3.497   6.512   1.086
 8178SOL    HW125433   3.594   6.527   1.104
 8178SOL    HW225434   3.460   6.591   1.037
 8179SOL     OW25435   5.840   1.346   5.079
 8179SOL    HW125436   5.911   1.291   5.035
 8179SOL    HW225437   5.750   1.317   5.045
 8180SOL     OW25438   5.625   0.884   7.000
 8180SOL    HW125439   5.604   0.947   6.925
 8180SOL    HW225440   5.717   0.903   0.013
 8181SOL     OW25441   1.148   1.058   0.888
 8181SOL    HW125442   1.232   1.052   0.835
 8181SOL    HW225443   1.170   1.059   0.986
 8182SOL     OW25444   3.525   3.747   4.513
 8182SOL    HW125445   3.561   3.684   4.444
 8182SOL    HW225446   3.527   3.841   4.477
 8183SOL     OW25447   6.155   2.187   4.135
 8183SOL    HW125448   6.067   2.140   4.142
 8183SOL    HW225449   6.216   2.155   4.208
 8184SOL     OW25450   0.736   0.002   0.662
 8184SOL    HW125451   0.818   0.051   0.629
 8184SOL    HW225452   0.655   0.047   0.625
 8185SOL     OW25453   2.111   0.386   0.550
 8185SOL    HW125454   2.208   0.370   0.565
 8185SOL    HW225455   2.073   0.312   0.495
 8186SOL     OW25456   2.590   4.233   5.370
 8186SOL    HW125457   2.632   4.171   5.304
 8186SOL    HW225458   2.532   4.182   5.432
 8187SOL     OW25459   2.332   0.810   4.737
 8187SOL    HW125460   2.335   0.866   4.654
 8187SOL    HW225461   2.320   0.869   4.816
 8188SOL     OW25462   4.972   2.765   3.679
 8188SOL    HW125463   4.892   2.732   3.731
 8188SOL    HW225464   5.008   2.690   3.624
 8189SOL     OW25465   5.274   5.564   2.317
 8189SOL    HW125466   5.364   5.521   2.310
 8189SOL    HW225467   5.204   5.493   2.320
 8190SOL     OW25468   4.801   4.123   4.070
 8190SOL    HW125469   4.870   4.179   4.116
 8190SOL    HW225470   4.726   4.181   4.039
 8191SOL     OW25471   4.240   5.381   2.582
 8191SOL    HW125472   4.159   5.434   2.606
 8191SOL    HW225473   4.226   5.338   2.493
 8192SOL     OW25474   1.543   5.844   2.558
 8192SOL    HW125475   1.505   5.876   2.471
 8192SOL    HW225476   1.472   5.845   2.628
 8193SOL     OW25477   5.994   4.847   5.147
 8193SOL    HW125478   6.052   4.772   5.179
 8193SOL    HW225479   5.922   4.864   5.214
 8194SOL     OW25480   4.788   0.861   0.853
 8194SOL    HW125481   4.755   0.786   0.795
 8194SOL    HW225482   4.881   0.886   0.825
 8195SOL     OW25483   6.439   0.691   3.352
 8195SOL    HW125484   6.366   0.623   3.348
 8195SOL    HW225485   6.502   0.677   3.276
 8196SOL     OW25486   4.352   6.800   0.199
 8196SOL    HW125487   4.330   6.873   0.264
 8196SOL    HW225488   4.434   6.752   0.230
 8197SOL     OW25489   3.538   1.798   0.916
 8197SOL    HW125490   3.468   1.779   0.986
 8197SOL    HW225491   3.623   1.752   0.942
 8198SOL     OW25492   3.741   6.602   2.565
 8198SOL    HW125493   3.736   6.678   2.501
 8198SOL    HW225494   3.650   6.564   2.579
 8199SOL     OW25495   5.460   3.672   5.562
 8199SOL    HW125496   5.430   3.687   5.656
 8199SOL    HW225497   5.555   3.704   5.552
 8200SOL     OW25498   5.925   4.591   1.589
 8200SOL    HW125499   5.928   4.638   1.501
 8200SOL    HW225500   5.936   4.493   1.575
 8201SOL     OW25501   6.824   1.072   5.208
 8201SOL    HW125502   6.884   1.138   5.164
 8201SOL    HW225503   6.865   1.041   5.294
 8202SOL     OW25504   0.285   5.443   3.535
 8202SOL    HW125505   0.219   5.416   3.465
 8202SOL    HW225506   0.236   5.481   3.614
 8203SOL     OW25507   2.364   2.197   6.779
 8203SOL    HW125508   2.417   2.251   6.713
 8203SOL    HW225509   2.362   2.245   6.867
 8204SOL     OW25510   3.415   4.262   0.251
 8204SOL    HW125511   3.435   4.357   0.276
 8204SOL    HW225512   3.335   4.230   0.301
 8205SOL     OW25513   6.545   4.000   6.919
 8205SOL    HW125514   6.504   4.031   6.833
 8205SOL    HW225515   6.508   3.911   6.943
 8206SOL     OW25516   4.679   2.268   6.776
 8206SOL    HW125517   4.606   2.290   6.712
 8206SOL    HW225518   4.670   2.325   6.858
 8207SOL     OW25519   3.404   3.074   4.271
 8207SOL    HW125520   3.383   3.163   4.231
 8207SOL    HW225521   3.406   3.004   4.200
 8208SOL     OW25522   1.213   0.898   1.369
 8208SOL    HW125523   1.198   0.942   1.457
 8208SOL    HW225524   1.193   0.801   1.376
 8209SOL     OW25525   0.415   0.634   4.722
 8209SOL    HW125526   0.328   0.592   4.696
 8209SOL    HW225527   0.459   0.579   4.793
 8210SOL     OW25528   2.459   2.317   0.503
 8210SOL    HW125529   2.465   2.331   0.602
 8210SOL    HW225530   2.365   2.296   0.478
 8211SOL     OW25531   3.873   4.528   1.457
 8211SOL    HW125532   3.841   4.508   1.364
 8211SOL    HW225533   3.819   4.602   1.496
 8212SOL     OW25534   1.068   2.364   2.817
 8212SOL    HW125535   1.050   2.288   2.880
 8212SOL    HW225536   1.095   2.328   2.728
 8213SOL     OW25537   0.010   4.574   1.621
 8213SOL    HW125538   0.004   4.664   1.578
 8213SOL    HW225539   0.095   4.568   1.673
 8214SOL     OW25540   6.511   4.941   3.983
 8214SOL    HW125541   6.530   4.907   3.891
 8214SOL    HW225542   6.541   4.873   4.051
 8215SOL     OW25543   3.877   5.649   5.617
 8215SOL    HW125544   3.933   5.729   5.639
 8215SOL    HW225545   3.784   5.662   5.652
 8216SOL     OW25546   5.451   5.700   4.170
 8216SOL    HW125547   5.420   5.654   4.087
 8216SOL    HW225548   5.412   5.792   4.174
 8217SOL     OW25549   1.558   5.072   0.406
 8217SOL    HW125550   1.618   5.069   0.325
 8217SOL    HW225551   1.590   5.007   0.474
 8218SOL     OW25552   6.834   0.222   6.509
 8218SOL    HW125553   6.790   0.255   6.426
 8218SOL    HW225554   6.930   0.252   6.510
 8219SOL     OW25555   4.431   2.095   0.300
 8219SOL    HW125556   4.516   2.051   0.329
 8219SOL    HW225557   4.375   2.030   0.249
 8220SOL     OW25558   3.841   3.025   3.426
 8220SOL    HW125559   3.885   3.102   3.473
 8220SOL    HW225560   3.829   2.949   3.490
 8221SOL     OW25561   5.541   6.103   4.624
 8221SOL    HW125562   5.609   6.062   4.564
 8221SOL    HW225563   5.501   6.184   4.579
 8222SOL     OW25564   5.393   1.576   2.275
 8222SOL    HW125565   5.331   1.652   2.296
 8222SOL    HW225566   5.404   1.518   2.356
 8223SOL     OW25567   1.562   4.493   5.897
 8223SOL    HW125568   1.618   4.414   5.921
 8223SOL    HW225569   1.475   4.489   5.946
 8224SOL     OW25570   6.705   1.121   2.909
 8224SOL    HW125571   6.625   1.084   2.861
 8224SOL    HW225572   6.675   1.191   2.975
 8225SOL     OW25573   3.692   1.211   6.600
 8225SOL    HW125574   3.725   1.118   6.616
 8225SOL    HW225575   3.592   1.211   6.599
 8226SOL     OW25576   4.226   6.361   1.712
 8226SOL    HW125577   4.139   6.409   1.699
 8226SOL    HW225578   4.216   6.290   1.780
 8227SOL     OW25579   6.455   2.272   3.559
 8227SOL    HW125580   6.463   2.181   3.599
 8227SOL    HW225581   6.412   2.265   3.469
 8228SOL     OW25582   6.650   1.840   5.266
 8228SOL    HW125583   6.724   1.775   5.251
 8228SOL    HW225584   6.563   1.791   5.275
 8229SOL     OW25585   3.701   3.773   0.846
 8229SOL    HW125586   3.650   3.852   0.879
 8229SOL    HW225587   3.657   3.689   0.875
 8230SOL     OW25588   3.817   6.859   4.972
 8230SOL    HW125589   3.843   6.804   4.893
 8230SOL    HW225590   3.884   6.932   4.986
 8231SOL     OW25591   4.054   5.047   0.576
 8231SOL    HW125592   4.069   5.130   0.630
 8231SOL    HW225593   4.088   5.061   0.483
 8232SOL     OW25594   4.731   1.529   1.240
 8232SOL    HW125595   4.651   1.582   1.215
 8232SOL    HW225596   4.769   1.485   1.159
 8233SOL     OW25597   1.286   6.119   6.886
 8233SOL    HW125598   1.361   6.060   6.915
 8233SOL    HW225599   1.301   6.149   6.791
 8234SOL     OW25600   2.687   4.162   6.698
 8234SOL    HW125601   2.786   4.151   6.712
 8234SOL    HW225602   2.664   4.259   6.704
 8235SOL     OW25603   0.855   3.873   0.284
 8235SOL    HW125604   0.766   3.841   0.317
 8235SOL    HW225605   0.919   3.796   0.279
 8236SOL     OW25606   0.020   4.412   6.784
 8236SOL    HW125607   6.969   4.432   6.851
 8236SOL    HW225608   0.103   4.385   6.832
 8237SOL     OW25609   4.356   6.674   4.530
 8237SOL    HW125610   4.359   6.737   4.607
 8237SOL    HW225611   4.448   6.641   4.510
 8238SOL     OW25612   0.828   5.002   6.635
 8238SOL    HW125613   0.731   5.028   6.642
 8238SOL    HW225614   0.883   5.085   6.623
 8239SOL     OW25615   6.422   0.822   5.578
 8239SOL    HW125616   6.404   0.764   5.657
 8239SOL    HW225617   6.357   0.898   5.576
 8240SOL     OW25618   3.386   4.145   2.559
 8240SOL    HW125619   3.423   4.127   2.468
 8240SOL    HW225620   3.368   4.243   2.568
 8241SOL     OW25621   4.043   0.434   0.229
 8241SOL    HW125622   4.031   0.372   0.151
 8241SOL    HW225623   4.076   0.523   0.196
 8242SOL     OW25624   0.214   5.124   5.803
 8242SOL    HW125625   0.135   5.172   5.765
 8242SOL    HW225626   0.294   5.143   5.748
 8243SOL     OW25627   0.536   3.117   0.285
 8243SOL    HW125628   0.465   3.118   0.215
 8243SOL    HW225629   0.525   3.037   0.343
 8244SOL     OW25630   1.169   6.866   4.448
 8244SOL    HW125631   1.156   6.768   4.465
 8244SOL    HW225632   1.144   6.886   4.353
 8245SOL     OW25633   4.314   2.251   2.829
 8245SOL    HW125634   4.250   2.237   2.753
 8245SOL    HW225635   4.363   2.337   2.815
 8246SOL     OW25636   0.866   3.041   5.898
 8246SOL    HW125637   0.871   2.970   5.829
 8246SOL    HW225638   0.862   3.131   5.854
 8247SOL     OW25639   1.030   0.089   2.684
 8247SOL    HW125640   0.970   0.013   2.659
 8247SOL    HW225641   1.056   0.141   2.602
 8248SOL     OW25642   6.229   5.094   4.663
 8248SOL    HW125643   6.317   5.109   4.619
 8248SOL    HW225644   6.200   5.178   4.708
 8249SOL     OW25645   1.529   2.961   4.609
 8249SOL    HW125646   1.481   2.957   4.696
 8249SOL    HW225647   1.584   3.044   4.604
 8250SOL     OW25648   3.544   4.132   2.327
 8250SOL    HW125649   3.634   4.105   2.361
 8250SOL    HW225650   3.554   4.182   2.241
 8251SOL     OW25651   6.164   3.266   3.548
 8251SOL    HW125652   6.135   3.180   3.505
 8251SOL    HW225653   6.099   3.290   3.620
 8252SOL     OW25654   3.217   1.681   5.338
 8252SOL    HW125655   3.216   1.670   5.239
 8252SOL    HW225656   3.183   1.772   5.363
 8253SOL     OW25657   4.736   4.349   5.500
 8253SOL    HW125658   4.791   4.378   5.579
 8253SOL    HW225659   4.795   4.313   5.429
 8254SOL     OW25660   4.772   4.474   5.020
 8254SOL    HW125661   4.817   4.561   5.041
 8254SOL    HW225662   4.779   4.455   4.922
 8255SOL     OW25663   2.542   6.723   4.992
 8255SOL    HW125664   2.487   6.645   4.962
 8255SOL    HW225665   2.608   6.747   4.921
 8256SOL     OW25666   6.285   6.997   2.367
 8256SOL    HW125667   6.213   6.958   2.425
 8256SOL    HW225668   6.370   6.947   2.381
 8257SOL     OW25669   6.231   3.682   3.631
 8257SOL    HW125670   6.213   3.616   3.703
 8257SOL    HW225671   6.305   3.743   3.659
 8258SOL     OW25672   5.500   1.966   0.666
 8258SOL    HW125673   5.441   1.886   0.660
 8258SOL    HW225674   5.464   2.038   0.606
 8259SOL     OW25675   4.252   2.166   3.681
 8259SOL    HW125676   4.335   2.169   3.625
 8259SOL    HW225677   4.199   2.084   3.658
 8260SOL     OW25678   2.778   6.247   1.424
 8260SOL    HW125679   2.790   6.338   1.383
 8260SOL    HW225680   2.688   6.211   1.397
 8261SOL     OW25681   5.867   0.429   2.007
 8261SOL    HW125682   5.829   0.386   2.089
 8261SOL    HW225683   5.921   0.363   1.955
 8262SOL     OW25684   0.240   2.870   6.895
 8262SOL    HW125685   0.155   2.914   6.926
 8262SOL    HW225686   0.308   2.939   6.873
 8263SOL     OW25687   1.476   2.298   6.916
 8263SOL    HW125688   1.563   2.290   6.867
 8263SOL    HW225689   1.401   2.304   6.850
 8264SOL     OW25690   2.871   6.080   2.810
 8264SOL    HW125691   2.785   6.096   2.859
 8264SOL    HW225692   2.906   6.167   2.775
 8265SOL     OW25693   0.762   6.977   0.924
 8265SOL    HW125694   0.763   6.877   0.929
 8265SOL    HW225695   0.747   7.006   0.830
 8266SOL     OW25696   2.299   0.971   3.300
 8266SOL    HW125697   2.391   1.009   3.289
 8266SOL    HW225698   2.244   0.993   3.220
 8267SOL     OW25699   1.240   2.755   1.216
 8267SOL    HW125700   1.325   2.784   1.260
 8267SOL    HW225701   1.221   2.660   1.242
 8268SOL     OW25702   1.768   6.596   5.860
 8268SOL    HW125703   1.758   6.621   5.956
 8268SOL    HW225704   1.859   6.558   5.844
 8269SOL     OW25705   4.182   1.944   2.130
 8269SOL    HW125706   4.129   1.909   2.052
 8269SOL    HW225707   4.136   2.025   2.167
 8270SOL     OW25708   2.609   6.498   5.735
 8270SOL    HW125709   2.688   6.527   5.789
 8270SOL    HW225710   2.635   6.493   5.639
 8271SOL     OW25711   6.542   0.120   3.246
 8271SOL    HW125712   6.548   0.045   3.180
 8271SOL    HW225713   6.446   0.135   3.271
 8272SOL     OW25714   5.059   1.698   1.890
 8272SOL    HW125715   5.077   1.697   1.792
 8272SOL    HW225716   4.965   1.667   1.906
 8273SOL     OW25717   3.228   0.476   0.478
 8273SOL    HW125718   3.128   0.473   0.469
 8273SOL    HW225719   3.252   0.528   0.560
 8274SOL     OW25720   5.276   4.945   3.482
 8274SOL    HW125721   5.265   4.992   3.570
 8274SOL    HW225722   5.226   4.859   3.484
 8275SOL     OW25723   5.180   1.180   5.728
 8275SOL    HW125724   5.156   1.218   5.817
 8275SOL    HW225725   5.108   1.201   5.662
 8276SOL     OW25726   0.924   1.928   3.813
 8276SOL    HW125727   0.917   2.016   3.860
 8276SOL    HW225728   0.980   1.866   3.866
 8277SOL     OW25729   6.910   0.035   0.038
 8277SOL    HW125730   7.007   0.019   0.056
 8277SOL    HW225731   6.882   7.007   6.978
 8278SOL     OW25732   2.526   1.943   5.558
 8278SOL    HW125733   2.552   2.036   5.587
 8278SOL    HW225734   2.505   1.944   5.460
 8279SOL     OW25735   1.571   6.602   4.730
 8279SOL    HW125736   1.629   6.609   4.649
 8279SOL    HW225737   1.482   6.643   4.711
 8280SOL     OW25738   2.065   3.869   0.610
 8280SOL    HW125739   2.003   3.939   0.645
 8280SOL    HW225740   2.012   3.795   0.568
 8281SOL     OW25741   2.806   4.850   1.853
 8281SOL    HW125742   2.797   4.895   1.942
 8281SOL    HW225743   2.794   4.752   1.864
 8282SOL     OW25744   5.169   3.472   0.189
 8282SOL    HW125745   5.263   3.505   0.197
 8282SOL    HW225746   5.168   3.372   0.192
 8283SOL     OW25747   1.388   5.167   6.678
 8283SOL    HW125748   1.378   5.115   6.763
 8283SOL    HW225749   1.470   5.224   6.684
 8284SOL     OW25750   0.741   3.770   0.787
 8284SOL    HW125751   0.797   3.706   0.733
 8284SOL    HW225752   0.776   3.863   0.775
 8285SOL     OW25753   2.865   3.647   4.317
 8285SOL    HW125754   2.900   3.570   4.370
 8285SOL    HW225755   2.823   3.614   4.233
 8286SOL     OW25756   6.204   2.744   6.038
 8286SOL    HW125757   6.245   2.800   5.967
 8286SOL    HW225758   6.224   2.783   6.128
 8287SOL     OW25759   2.019   5.427   3.767
 8287SOL    HW125760   2.000   5.469   3.856
 8287SOL    HW225761   2.106   5.379   3.771
 8288SOL     OW25762   3.147   1.738   1.779
 8288SOL    HW125763   3.105   1.722   1.868
 8288SOL    HW225764   3.198   1.824   1.780
 8289SOL     OW25765   0.754   5.491   1.017
 8289SOL    HW125766   0.763   5.588   1.039
 8289SOL    HW225767   0.688   5.480   0.942
 8290SOL     OW25768   6.282   1.339   1.341
 8290SOL    HW125769   6.229   1.256   1.325
 8290SOL    HW225770   6.334   1.363   1.259
 8291SOL     OW25771   5.319   6.455   5.706
 8291SOL    HW125772   5.257   6.382   5.735
 8291SOL    HW225773   5.269   6.520   5.648
 8292SOL     OW25774   2.892   6.646   0.060
 8292SOL    HW125775   2.815   6.694   0.017
 8292SOL    HW225776   2.862   6.610   0.149
 8293SOL     OW25777   3.480   6.177   6.868
 8293SOL    HW125778   3.443   6.258   6.915
 8293SOL    HW225779   3.452   6.095   6.917
 8294SOL     OW25780   5.441   3.988   4.602
 8294SOL    HW125781   5.413   4.020   4.692
 8294SOL    HW225782   5.493   4.060   4.555
 8295SOL     OW25783   5.535   5.303   1.532
 8295SOL    HW125784   5.604   5.271   1.466
 8295SOL    HW225785   5.557   5.268   1.623
 8296SOL     OW25786   1.381   5.321   6.402
 8296SOL    HW125787   1.397   5.341   6.498
 8296SOL    HW225788   1.465   5.286   6.360
 8297SOL     OW25789   6.214   2.739   2.336
 8297SOL    HW125790   6.154   2.809   2.374
 8297SOL    HW225791   6.288   2.719   2.400
 8298SOL     OW25792   6.381   1.412   1.090
 8298SOL    HW125793   6.377   1.508   1.063
 8298SOL    HW225794   6.331   1.357   1.023
 8299SOL     OW25795   6.873   2.930   1.572
 8299SOL    HW125796   6.901   2.995   1.501
 8299SOL    HW225797   6.776   2.943   1.593
 8300SOL     OW25798   0.426   5.741   4.502
 8300SOL    HW125799   0.358   5.812   4.517
 8300SOL    HW225800   0.496   5.747   4.574
 8301SOL     OW25801   4.149   1.931   1.567
 8301SOL    HW125802   4.169   2.012   1.512
 8301SOL    HW225803   4.067   1.886   1.531
 8302SOL     OW25804   6.072   6.316   0.171
 8302SOL    HW125805   5.987   6.333   0.221
 8302SOL    HW225806   6.132   6.395   0.178
 8303SOL     OW25807   6.497   0.412   3.950
 8303SOL    HW125808   6.400   0.429   3.967
 8303SOL    HW225809   6.511   0.314   3.932
 8304SOL     OW25810   0.153   3.473   0.976
 8304SOL    HW125811   0.102   3.424   0.906
 8304SOL    HW225812   0.251   3.468   0.955
 8305SOL     OW25813   4.268   4.906   4.459
 8305SOL    HW125814   4.175   4.896   4.425
 8305SOL    HW225815   4.331   4.922   4.382
 8306SOL     OW25816   6.947   2.740   6.454
 8306SOL    HW125817   0.004   2.688   6.486
 8306SOL    HW225818   6.978   2.806   6.385
 8307SOL     OW25819   3.881   5.384   1.520
 8307SOL    HW125820   3.857   5.473   1.481
 8307SOL    HW225821   3.901   5.394   1.617
 8308SOL     OW25822   3.853   5.617   1.338
 8308SOL    HW125823   3.805   5.705   1.331
 8308SOL    HW225824   3.950   5.631   1.319
 8309SOL     OW25825   6.454   5.235   3.998
 8309SOL    HW125826   6.474   5.137   4.006
 8309SOL    HW225827   6.539   5.284   3.977
 8310SOL     OW25828   0.327   4.412   0.531
 8310SOL    HW125829   0.228   4.399   0.537
 8310SOL    HW225830   0.361   4.374   0.445
 8311SOL     OW25831   0.664   2.001   4.087
 8311SOL    HW125832   0.666   1.909   4.125
 8311SOL    HW225833   0.758   2.031   4.067
 8312SOL     OW25834   4.830   0.097   0.034
 8312SOL    HW125835   4.740   0.059   0.056
 8312SOL    HW225836   4.885   0.103   0.117
 8313SOL     OW25837   5.391   0.428   1.979
 8313SOL    HW125838   5.401   0.520   1.941
 8313SOL    HW225839   5.386   0.434   2.079
 8314SOL     OW25840   4.712   0.812   0.402
 8314SOL    HW125841   4.722   0.810   0.302
 8314SOL    HW225842   4.615   0.809   0.426
 8315SOL     OW25843   3.882   3.267   1.005
 8315SOL    HW125844   3.818   3.287   0.931
 8315SOL    HW225845   3.878   3.340   1.073
 8316SOL     OW25846   0.394   2.608   2.246
 8316SOL    HW125847   0.328   2.645   2.180
 8316SOL    HW225848   0.468   2.674   2.260
 8317SOL     OW25849   2.357   2.264   2.922
 8317SOL    HW125850   2.273   2.260   2.869
 8317SOL    HW225851   2.401   2.174   2.922
 8318SOL     OW25852   4.502   1.194   4.684
 8318SOL    HW125853   4.579   1.234   4.634
 8318SOL    HW225854   4.501   1.229   4.777
 8319SOL     OW25855   2.477   1.900   6.351
 8319SOL    HW125856   2.470   1.941   6.442
 8319SOL    HW225857   2.544   1.950   6.297
 8320SOL     OW25858   3.119   3.068   1.552
 8320SOL    HW125859   3.144   3.135   1.482
 8320SOL    HW225860   3.178   2.988   1.544
 8321SOL     OW25861   6.644   1.102   6.997
 8321SOL    HW125862   6.670   1.101   0.072
 8321SOL    HW225863   6.638   1.007   6.963
 8322SOL     OW25864   0.331   0.463   0.737
 8322SOL    HW125865   0.326   0.420   0.827
 8322SOL    HW225866   0.253   0.523   0.724
 8323SOL     OW25867   5.637   5.970   2.360
 8323SOL    HW125868   5.666   5.909   2.286
 8323SOL    HW225869   5.708   5.972   2.431
 8324SOL     OW25870   5.405   6.887   1.247
 8324SOL    HW125871   5.308   6.880   1.273
 8324SOL    HW225872   5.426   6.982   1.222
 8325SOL     OW25873   2.619   3.250   5.595
 8325SOL    HW125874   2.626   3.332   5.538
 8325SOL    HW225875   2.572   3.178   5.544
 8326SOL     OW25876   5.112   3.680   5.989
 8326SOL    HW125877   5.168   3.621   6.046
 8326SOL    HW225878   5.159   3.767   5.974
 8327SOL     OW25879   6.281   1.272   5.996
 8327SOL    HW125880   6.313   1.184   6.031
 8327SOL    HW225881   6.339   1.301   5.920
 8328SOL     OW25882   2.333   5.236   5.781
 8328SOL    HW125883   2.359   5.257   5.687
 8328SOL    HW225884   2.414   5.235   5.839
 8329SOL     OW25885   0.914   3.184   6.356
 8329SOL    HW125886   0.863   3.227   6.281
 8329SOL    HW225887   0.868   3.099   6.383
 8330SOL     OW25888   2.954   0.415   0.510
 8330SOL    HW125889   2.895   0.436   0.432
 8330SOL    HW225890   2.909   0.441   0.595
 8331SOL     OW25891   2.962   1.552   1.661
 8331SOL    HW125892   3.033   1.616   1.689
 8331SOL    HW225893   2.997   1.459   1.663
 8332SOL     OW25894   5.155   5.302   2.376
 8332SOL    HW125895   5.204   5.219   2.351
 8332SOL    HW225896   5.063   5.299   2.337
 8333SOL     OW25897   0.240   6.542   6.164
 8333SOL    HW125898   0.239   6.508   6.258
 8333SOL    HW225899   0.283   6.475   6.104
 8334SOL     OW25900   4.163   1.928   4.224
 8334SOL    HW125901   4.233   1.927   4.153
 8334SOL    HW225902   4.076   1.956   4.186
 8335SOL     OW25903   6.354   6.152   6.731
 8335SOL    HW125904   6.255   6.151   6.713
 8335SOL    HW225905   6.375   6.088   6.805
 8336SOL     OW25906   6.189   6.138   3.173
 8336SOL    HW125907   6.231   6.217   3.129
 8336SOL    HW225908   6.101   6.165   3.213
 8337SOL     OW25909   1.189   6.126   2.439
 8337SOL    HW125910   1.122   6.172   2.496
 8337SOL    HW225911   1.252   6.193   2.400
 8338SOL     OW25912   2.206   5.388   1.687
 8338SOL    HW125913   2.269   5.435   1.627
 8338SOL    HW225914   2.236   5.293   1.699
 8339SOL     OW25915   5.746   0.523   1.421
 8339SOL    HW125916   5.788   0.447   1.470
 8339SOL    HW225917   5.705   0.587   1.486
 8340SOL     OW25918   4.979   3.131   1.508
 8340SOL    HW125919   5.075   3.103   1.497
 8340SOL    HW225920   4.928   3.057   1.552
 8341SOL     OW25921   1.842   6.199   0.101
 8341SOL    HW125922   1.784   6.276   0.076
 8341SOL    HW225923   1.903   6.226   0.176
 8342SOL     OW25924   4.322   0.072   1.801
 8342SOL    HW125925   4.282   0.128   1.873
 8342SOL    HW225926   4.290   0.105   1.712
 8343SOL     OW25927   1.265   5.425   6.023
 8343SOL    HW125928   1.356   5.428   6.063
 8343SOL    HW225929   1.197   5.420   6.096
 8344SOL     OW25930   4.563   6.835   4.895
 8344SOL    HW125931   4.603   6.850   4.804
 8344SOL    HW225932   4.533   6.740   4.902
 8345SOL     OW25933   4.793   1.841   3.476
 8345SOL    HW125934   4.812   1.754   3.432
 8345SOL    HW225935   4.873   1.869   3.530
 8346SOL     OW25936   2.782   4.285   0.567
 8346SOL    HW125937   2.787   4.337   0.652
 8346SOL    HW225938   2.696   4.235   0.564
 8347SOL     OW25939   3.420   5.466   4.993
 8347SOL    HW125940   3.405   5.448   4.895
 8347SOL    HW225941   3.352   5.531   5.025
 8348SOL     OW25942   1.849   6.828   2.453
 8348SOL    HW125943   1.937   6.872   2.467
 8348SOL    HW225944   1.851   6.736   2.494
 8349SOL     OW25945   5.755   6.519   1.398
 8349SOL    HW125946   5.704   6.515   1.484
 8349SOL    HW225947   5.719   6.594   1.342
 8350SOL     OW25948   4.764   0.487   4.776
 8350SOL    HW125949   4.760   0.562   4.842
 8350SOL    HW225950   4.720   0.516   4.691
 8351SOL     OW25951   4.868   4.579   3.823
 8351SOL    HW125952   4.924   4.499   3.842
 8351SOL    HW225953   4.903   4.658   3.874
 8352SOL     OW25954   6.972   6.419   3.192
 8352SOL    HW125955   7.016   6.500   3.230
 8352SOL    HW225956   7.007   6.403   3.099
 8353SOL     OW25957   6.859   3.990   1.445
 8353SOL    HW125958   6.903   3.900   1.439
 8353SOL    HW225959   6.783   3.994   1.381
 8354SOL     OW25960   3.695   0.294   6.718
 8354SOL    HW125961   3.742   0.219   6.766
 8354SOL    HW225962   3.645   0.349   6.784
 8355SOL     OW25963   3.069   0.900   6.761
 8355SOL    HW125964   3.166   0.901   6.787
 8355SOL    HW225965   3.034   0.993   6.757
 8356SOL     OW25966   1.613   6.434   1.054
 8356SOL    HW125967   1.697   6.478   1.085
 8356SOL    HW225968   1.612   6.339   1.085
 8357SOL     OW25969   3.802   0.639   4.949
 8357SOL    HW125970   3.788   0.697   4.868
 8357SOL    HW225971   3.720   0.584   4.966
 8358SOL     OW25972   1.211   3.956   5.401
 8358SOL    HW125973   1.216   3.947   5.500
 8358SOL    HW225974   1.209   3.865   5.359
 8359SOL     OW25975   2.756   6.959   5.280
 8359SOL    HW125976   2.714   6.873   5.310
 8359SOL    HW225977   2.713   6.990   5.195
 8360SOL     OW25978   3.711   6.176   1.038
 8360SOL    HW125979   3.742   6.133   0.953
 8360SOL    HW225980   3.619   6.142   1.061
 8361SOL     OW25981   3.394   6.466   2.934
 8361SOL    HW125982   3.326   6.518   2.883
 8361SOL    HW225983   3.414   6.513   3.021
 8362SOL     OW25984   3.516   2.330   0.874
 8362SOL    HW125985   3.557   2.246   0.910
 8362SOL    HW225986   3.441   2.359   0.933
 8363SOL     OW25987   0.545   2.569   6.713
 8363SOL    HW125988   0.621   2.634   6.704
 8363SOL    HW225989   0.483   2.600   6.785
 8364SOL     OW25990   0.494   3.381   2.087
 8364SOL    HW125991   0.498   3.306   2.021
 8364SOL    HW225992   0.548   3.357   2.168
 8365SOL     OW25993   2.072   3.955   1.854
 8365SOL    HW125994   2.119   3.996   1.932
 8365SOL    HW225995   2.059   3.857   1.870
 8366SOL     OW25996   2.548   5.974   2.467
 8366SOL    HW125997   2.473   5.959   2.532
 8366SOL    HW225998   2.510   6.003   2.379
 8367SOL     OW25999   3.980   5.981   4.196
 8367SOL    HW126000   3.888   5.988   4.159
 8367SOL    HW226001   4.028   5.905   4.152
 8368SOL     OW26002   2.174   6.565   6.582
 8368SOL    HW126003   2.205   6.620   6.660
 8368SOL    HW226004   2.145   6.475   6.615
 8369SOL     OW26005   2.256   6.901   6.567
 8369SOL    HW126006   2.236   6.829   6.635
 8369SOL    HW226007   2.345   6.942   6.588
 8370SOL     OW26008   2.407   2.449   5.012
 8370SOL    HW126009   2.431   2.546   5.011
 8370SOL    HW226010   2.443   2.406   5.095
 8371SOL     OW26011   2.198   4.863   1.190
 8371SOL    HW126012   2.196   4.782   1.249
 8371SOL    HW226013   2.293   4.890   1.175
 8372SOL     OW26014   0.294   5.698   2.713
 8372SOL    HW126015   0.306   5.694   2.614
 8372SOL    HW226016   0.378   5.666   2.758
 8373SOL     OW26017   1.623   0.370   3.777
 8373SOL    HW126018   1.645   0.298   3.842
 8373SOL    HW226019   1.579   0.329   3.696
 8374SOL     OW26020   0.451   0.877   5.444
 8374SOL    HW126021   0.495   0.963   5.417
 8374SOL    HW226022   0.432   0.823   5.362
 8375SOL     OW26023   4.122   6.906   5.391
 8375SOL    HW126024   4.195   6.875   5.329
 8375SOL    HW226025   4.052   6.835   5.398
 8376SOL     OW26026   1.543   0.612   3.901
 8376SOL    HW126027   1.586   0.540   3.848
 8376SOL    HW226028   1.543   0.697   3.848
 8377SOL     OW26029   5.432   5.905   1.364
 8377SOL    HW126030   5.498   5.980   1.362
 8377SOL    HW226031   5.462   5.836   1.429
 8378SOL     OW26032   3.933   5.018   2.755
 8378SOL    HW126033   3.866   4.960   2.800
 8378SOL    HW226034   3.910   5.114   2.770
 8379SOL     OW26035   5.929   2.249   1.386
 8379SOL    HW126036   6.000   2.285   1.448
 8379SOL    HW226037   5.927   2.150   1.393
 8380SOL     OW26038   6.905   0.527   2.624
 8380SOL    HW126039   6.984   0.566   2.672
 8380SOL    HW226040   6.908   0.555   2.528
 8381SOL     OW26041   0.291   3.241   4.890
 8381SOL    HW126042   0.237   3.272   4.969
 8381SOL    HW226043   0.336   3.319   4.848
 8382SOL     OW26044   2.526   0.399   2.412
 8382SOL    HW126045   2.434   0.435   2.427
 8382SOL    HW226046   2.590   0.474   2.400
 8383SOL     OW26047   2.454   0.210   6.004
 8383SOL    HW126048   2.540   0.261   6.008
 8383SOL    HW226049   2.470   0.124   5.954
 8384SOL     OW26050   0.179   0.747   0.770
 8384SOL    HW126051   0.253   0.771   0.832
 8384SOL    HW226052   0.091   0.761   0.816
 8385SOL     OW26053   6.262   1.902   1.451
 8385SOL    HW126054   6.333   1.893   1.381
 8385SOL    HW226055   6.289   1.853   1.533
 8386SOL     OW26056   0.997   4.661   2.404
 8386SOL    HW126057   1.049   4.746   2.402
 8386SOL    HW226058   1.031   4.599   2.334
 8387SOL     OW26059   1.992   0.882   2.129
 8387SOL    HW126060   1.907   0.855   2.084
 8387SOL    HW226061   2.066   0.884   2.062
 8388SOL     OW26062   2.016   6.189   0.310
 8388SOL    HW126063   2.038   6.218   0.403
 8388SOL    HW226064   2.100   6.181   0.257
 8389SOL     OW26065   6.489   3.311   2.794
 8389SOL    HW126066   6.461   3.221   2.762
 8389SOL    HW226067   6.465   3.322   2.890
 8390SOL     OW26068   3.837   0.844   6.192
 8390SOL    HW126069   3.776   0.770   6.222
 8390SOL    HW226070   3.805   0.931   6.228
 8391SOL     OW26071   6.486   5.278   0.936
 8391SOL    HW126072   6.529   5.322   1.015
 8391SOL    HW226073   6.538   5.196   0.911
 8392SOL     OW26074   6.451   3.573   4.421
 8392SOL    HW126075   6.517   3.553   4.349
 8392SOL    HW226076   6.377   3.506   4.419
 8393SOL     OW26077   6.340   0.174   2.743
 8393SOL    HW126078   6.336   0.076   2.722
 8393SOL    HW226079   6.249   0.214   2.735
 8394SOL     OW26080   6.365   2.604   1.061
 8394SOL    HW126081   6.305   2.632   0.986
 8394SOL    HW226082   6.359   2.505   1.073
 8395SOL     OW26083   2.681   6.181   5.723
 8395SOL    HW126084   2.717   6.153   5.812
 8395SOL    HW226085   2.650   6.276   5.727
 8396SOL     OW26086   4.751   5.129   3.441
 8396SOL    HW126087   4.652   5.120   3.428
 8396SOL    HW226088   4.799   5.097   3.359
 8397SOL     OW26089   1.233   0.824   2.857
 8397SOL    HW126090   1.273   0.829   2.765
 8397SOL    HW226091   1.140   0.787   2.850
 8398SOL     OW26092   4.535   2.209   6.337
 8398SOL    HW126093   4.574   2.197   6.246
 8398SOL    HW226094   4.442   2.244   6.329
 8399SOL     OW26095   6.272   6.941   6.504
 8399SOL    HW126096   6.189   6.989   6.477
 8399SOL    HW226097   6.275   6.852   6.460
 8400SOL     OW26098   2.404   1.425   4.387
 8400SOL    HW126099   2.321   1.461   4.430
 8400SOL    HW226100   2.392   1.425   4.287
 8401SOL     OW26101   2.452   1.075   5.358
 8401SOL    HW126102   2.388   1.083   5.281
 8401SOL    HW226103   2.412   1.015   5.428
 8402SOL     OW26104   5.318   1.794   6.439
 8402SOL    HW126105   5.364   1.869   6.392
 8402SOL    HW226106   5.310   1.716   6.377
 8403SOL     OW26107   6.737   3.332   4.561
 8403SOL    HW126108   6.646   3.373   4.568
 8403SOL    HW226109   6.806   3.401   4.584
 8404SOL     OW26110   3.782   6.827   5.585
 8404SOL    HW126111   3.804   6.745   5.533
 8404SOL    HW226112   3.725   6.887   5.530
 8405SOL     OW26113   2.200   1.376   5.417
 8405SOL    HW126114   2.182   1.281   5.390
 8405SOL    HW226115   2.132   1.405   5.484
 8406SOL     OW26116   4.255   0.846   0.260
 8406SOL    HW126117   4.307   0.765   0.285
 8406SOL    HW226118   4.298   0.890   0.181
 8407SOL     OW26119   4.019   5.867   3.791
 8407SOL    HW126120   3.932   5.912   3.775
 8407SOL    HW226121   4.046   5.815   3.710
 8408SOL     OW26122   5.636   4.124   1.286
 8408SOL    HW126123   5.627   4.036   1.239
 8408SOL    HW226124   5.733   4.149   1.291
 8409SOL     OW26125   4.896   2.038   3.239
 8409SOL    HW126126   4.873   1.947   3.272
 8409SOL    HW226127   4.871   2.106   3.307
 8410SOL     OW26128   5.870   0.761   0.926
 8410SOL    HW126129   5.833   0.845   0.967
 8410SOL    HW226130   5.797   0.709   0.884
 8411SOL     OW26131   0.634   6.094   0.464
 8411SOL    HW126132   0.601   6.025   0.399
 8411SOL    HW226133   0.563   6.114   0.530
 8412SOL     OW26134   3.353   2.613   1.178
 8412SOL    HW126135   3.406   2.607   1.263
 8412SOL    HW226136   3.256   2.600   1.199
 8413SOL     OW26137   5.160   6.039   6.382
 8413SOL    HW126138   5.117   5.955   6.415
 8413SOL    HW226139   5.102   6.081   6.312
 8414SOL     OW26140   3.062   6.848   3.603
 8414SOL    HW126141   3.137   6.844   3.669
 8414SOL    HW226142   2.976   6.865   3.651
 8415SOL     OW26143   0.853   5.693   4.554
 8415SOL    HW126144   0.866   5.692   4.653
 8415SOL    HW226145   0.867   5.601   4.518
 8416SOL     OW26146   6.554   2.070   3.718
 8416SOL    HW126147   6.600   1.986   3.745
 8416SOL    HW226148   6.461   2.070   3.754
 8417SOL     OW26149   0.794   3.294   6.141
 8417SOL    HW126150   0.737   3.375   6.126
 8417SOL    HW226151   0.837   3.268   6.055
 8418SOL     OW26152   6.501   5.621   1.311
 8418SOL    HW126153   6.474   5.713   1.340
 8418SOL    HW226154   6.571   5.586   1.373
 8419SOL     OW26155   5.674   0.007   2.233
 8419SOL    HW126156   5.763   0.034   2.269
 8419SOL    HW226157   5.645   0.072   2.162
 8420SOL     OW26158   4.273   0.254   1.034
 8420SOL    HW126159   4.244   0.204   0.952
 8420SOL    HW226160   4.196   0.308   1.068
 8421SOL     OW26161   3.231   4.834   0.332
 8421SOL    HW126162   3.235   4.743   0.372
 8421SOL    HW226163   3.188   4.829   0.242
 8422SOL     OW26164   4.479   1.204   2.155
 8422SOL    HW126165   4.512   1.297   2.166
 8422SOL    HW226166   4.388   1.206   2.112
 8423SOL     OW26167   4.319   4.334   6.178
 8423SOL    HW126168   4.314   4.411   6.115
 8423SOL    HW226169   4.397   4.347   6.240
 8424SOL     OW26170   1.369   2.062   2.874
 8424SOL    HW126171   1.464   2.059   2.845
 8424SOL    HW226172   1.309   2.067   2.794
 8425SOL     OW26173   3.942   3.993   6.303
 8425SOL    HW126174   3.888   4.078   6.301
 8425SOL    HW226175   4.039   4.015   6.300
 8426SOL     OW26176   3.650   3.145   2.718
 8426SOL    HW126177   3.723   3.189   2.769
 8426SOL    HW226178   3.606   3.211   2.658
 8427SOL     OW26179   3.489   3.981   3.611
 8427SOL    HW126180   3.425   3.961   3.537
 8427SOL    HW226181   3.518   3.895   3.654
 8428SOL     OW26182   6.948   6.053   1.162
 8428SOL    HW126183   0.008   6.060   1.218
 8428SOL    HW226184   6.959   5.978   1.096
 8429SOL     OW26185   1.603   5.821   5.592
 8429SOL    HW126186   1.620   5.889   5.663
 8429SOL    HW226187   1.526   5.851   5.535
 8430SOL     OW26188   3.442   4.970   4.246
 8430SOL    HW126189   3.384   4.926   4.178
 8430SOL    HW226190   3.400   4.962   4.337
 8431SOL     OW26191   3.917   3.968   0.145
 8431SOL    HW126192   3.937   3.898   0.213
 8431SOL    HW226193   3.866   4.043   0.188
 8432SOL     OW26194   6.623   5.676   5.332
 8432SOL    HW126195   6.526   5.651   5.328
 8432SOL    HW226196   6.678   5.593   5.337
 8433SOL     OW26197   4.024   3.193   0.116
 8433SOL    HW126198   4.062   3.237   0.034
 8433SOL    HW226199   4.043   3.250   0.196
 8434SOL     OW26200   2.838   0.397   4.265
 8434SOL    HW126201   2.792   0.431   4.183
 8434SOL    HW226202   2.920   0.347   4.240
 8435SOL     OW26203   5.573   0.063   2.691
 8435SOL    HW126204   5.560   0.010   2.607
 8435SOL    HW226205   5.668   0.053   2.722
 8436SOL     OW26206   3.425   6.631   3.542
 8436SOL    HW126207   3.409   6.615   3.444
 8436SOL    HW226208   3.348   6.592   3.594
 8437SOL     OW26209   1.943   1.796   3.349
 8437SOL    HW126210   1.903   1.750   3.269
 8437SOL    HW226211   1.876   1.798   3.423
 8438SOL     OW26212   2.442   4.470   2.994
 8438SOL    HW126213   2.484   4.540   2.936
 8438SOL    HW226214   2.467   4.486   3.089
 8439SOL     OW26215   6.098   4.564   2.391
 8439SOL    HW126216   6.136   4.493   2.449
 8439SOL    HW226217   6.172   4.619   2.351
 8440SOL     OW26218   2.981   1.964   3.534
 8440SOL    HW126219   2.951   1.883   3.583
 8440SOL    HW226220   3.054   2.009   3.585
 8441SOL     OW26221   5.639   6.535   0.078
 8441SOL    HW126222   5.629   6.473   7.021
 8441SOL    HW226223   5.693   6.490   0.149
 8442SOL     OW26224   3.712   2.105   5.590
 8442SOL    HW126225   3.650   2.107   5.511
 8442SOL    HW226226   3.803   2.076   5.559
 8443SOL     OW26227   2.533   4.526   3.522
 8443SOL    HW126228   2.457   4.490   3.577
 8443SOL    HW226229   2.555   4.619   3.552
 8444SOL     OW26230   2.928   6.654   4.365
 8444SOL    HW126231   2.979   6.583   4.318
 8444SOL    HW226232   2.980   6.686   4.444
 8445SOL     OW26233   2.303   0.156   1.043
 8445SOL    HW126234   2.293   0.251   1.014
 8445SOL    HW226235   2.261   0.095   0.975
 8446SOL     OW26236   5.785   5.228   5.888
 8446SOL    HW126237   5.711   5.261   5.948
 8446SOL    HW226238   5.868   5.280   5.907
 8447SOL     OW26239   4.733   1.304   1.629
 8447SOL    HW126240   4.794   1.280   1.553
 8447SOL    HW226241   4.645   1.333   1.592
 8448SOL     OW26242   4.434   5.892   3.482
 8448SOL    HW126243   4.465   5.986   3.473
 8448SOL    HW226244   4.354   5.877   3.423
 8449SOL     OW26245   0.088   3.196   3.189
 8449SOL    HW126246   0.002   3.148   3.209
 8449SOL    HW226247   0.150   3.134   3.141
 8450SOL     OW26248   0.874   0.919   1.512
 8450SOL    HW126249   0.944   0.988   1.527
 8450SOL    HW226250   0.856   0.871   1.597
 8451SOL     OW26251   3.556   1.417   6.833
 8451SOL    HW126252   3.620   1.398   6.906
 8451SOL    HW226253   3.486   1.345   6.831
 8452SOL     OW26254   6.152   2.935   3.674
 8452SOL    HW126255   6.060   2.971   3.689
 8452SOL    HW226256   6.152   2.875   3.594
 8453SOL     OW26257   0.307   5.384   0.063
 8453SOL    HW126258   0.366   5.439   0.003
 8453SOL    HW226259   0.277   5.440   0.140
 8454SOL     OW26260   0.304   5.507   1.176
 8454SOL    HW126261   0.307   5.595   1.223
 8454SOL    HW226262   0.353   5.438   1.231
 8455SOL     OW26263   0.454   2.054   1.827
 8455SOL    HW126264   0.530   2.072   1.889
 8455SOL    HW226265   0.374   2.105   1.858
 8456SOL     OW26266   4.543   6.703   3.209
 8456SOL    HW126267   4.607   6.771   3.244
 8456SOL    HW226268   4.456   6.748   3.187
 8457SOL     OW26269   6.802   6.540   4.042
 8457SOL    HW126270   6.802   6.615   4.108
 8457SOL    HW226271   6.893   6.498   4.039
 8458SOL     OW26272   2.397   0.688   0.367
 8458SOL    HW126273   2.458   0.748   0.419
 8458SOL    HW226274   2.435   0.674   0.275
 8459SOL     OW26275   2.799   5.727   2.080
 8459SOL    HW126276   2.766   5.636   2.104
 8459SOL    HW226277   2.727   5.795   2.097
 8460SOL     OW26278   4.609   4.231   5.223
 8460SOL    HW126279   4.606   4.187   5.313
 8460SOL    HW226280   4.610   4.160   5.152
 8461SOL     OW26281   0.949   3.180   4.601
 8461SOL    HW126282   0.866   3.185   4.656
 8461SOL    HW226283   0.959   3.087   4.564
 8462SOL     OW26284   1.965   2.934   6.596
 8462SOL    HW126285   1.875   2.923   6.554
 8462SOL    HW226286   1.966   2.889   6.686
 8463SOL     OW26287   0.018   0.214   1.746
 8463SOL    HW126288   0.045   0.310   1.756
 8463SOL    HW226289   0.009   0.193   1.648
 8464SOL     OW26290   5.086   4.759   4.385
 8464SOL    HW126291   5.048   4.850   4.401
 8464SOL    HW226292   5.167   4.767   4.327
 8465SOL     OW26293   0.732   2.927   0.444
 8465SOL    HW126294   0.832   2.919   0.446
 8465SOL    HW226295   0.701   2.977   0.525
 8466SOL     OW26296   0.880   6.622   4.037
 8466SOL    HW126297   0.904   6.639   3.942
 8466SOL    HW226298   0.949   6.665   4.096
 8467SOL     OW26299   3.022   6.106   0.448
 8467SOL    HW126300   2.945   6.069   0.501
 8467SOL    HW226301   2.987   6.170   0.380
 8468SOL     OW26302   3.222   1.498   0.349
 8468SOL    HW126303   3.215   1.528   0.445
 8468SOL    HW226304   3.289   1.425   0.342
 8469SOL     OW26305   3.237   2.914   0.043
 8469SOL    HW126306   3.253   2.925   0.141
 8469SOL    HW226307   3.186   2.830   0.026
 8470SOL     OW26308   1.669   3.742   0.665
 8470SOL    HW126309   1.631   3.651   0.685
 8470SOL    HW226310   1.767   3.734   0.649
 8471SOL     OW26311   3.039   1.470   2.443
 8471SOL    HW126312   3.070   1.489   2.536
 8471SOL    HW226313   2.948   1.509   2.430
 8472SOL     OW26314   0.777   0.112   4.206
 8472SOL    HW126315   0.792   0.207   4.233
 8472SOL    HW226316   0.716   0.109   4.126
 8473SOL     OW26317   6.628   5.421   6.673
 8473SOL    HW126318   6.567   5.353   6.712
 8473SOL    HW226319   6.679   5.467   6.747
 8474SOL     OW26320   3.322   2.867   2.307
 8474SOL    HW126321   3.289   2.948   2.258
 8474SOL    HW226322   3.323   2.886   2.405
 8475SOL     OW26323   0.410   1.426   3.095
 8475SOL    HW126324   0.383   1.432   2.998
 8475SOL    HW226325   0.360   1.350   3.137
 8476SOL     OW26326   6.650   1.027   1.122
 8476SOL    HW126327   6.735   1.052   1.168
 8476SOL    HW226328   6.610   1.109   1.081
 8477SOL     OW26329   3.723   6.271   2.182
 8477SOL    HW126330   3.812   6.233   2.158
 8477SOL    HW226331   3.703   6.250   2.278
 8478SOL     OW26332   1.445   0.346   6.132
 8478SOL    HW126333   1.368   0.353   6.069
 8478SOL    HW226334   1.516   0.288   6.092
 8479SOL     OW26335   6.182   3.035   1.195
 8479SOL    HW126336   6.084   3.041   1.177
 8479SOL    HW226337   6.222   3.127   1.188
 8480SOL     OW26338   3.533   0.803   0.438
 8480SOL    HW126339   3.589   0.870   0.388
 8480SOL    HW226340   3.572   0.790   0.529
 8481SOL     OW26341   4.028   1.512   3.667
 8481SOL    HW126342   4.071   1.587   3.616
 8481SOL    HW226343   4.090   1.433   3.668
 8482SOL     OW26344   3.617   6.833   2.935
 8482SOL    HW126345   3.636   6.900   3.007
 8482SOL    HW226346   3.694   6.828   2.873
 8483SOL     OW26347   4.052   5.682   1.894
 8483SOL    HW126348   4.143   5.662   1.857
 8483SOL    HW226349   4.032   5.779   1.880
 8484SOL     OW26350   6.843   5.419   3.220
 8484SOL    HW126351   6.792   5.348   3.170
 8484SOL    HW226352   6.843   5.397   3.317
 8485SOL     OW26353   2.796   3.517   6.420
 8485SOL    HW126354   2.701   3.550   6.411
 8485SOL    HW226355   2.835   3.552   6.505
 8486SOL     OW26356   4.939   1.359   3.134
 8486SOL    HW126357   5.018   1.319   3.181
 8486SOL    HW226358   4.947   1.344   3.036
 8487SOL     OW26359   5.506   0.659   0.347
 8487SOL    HW126360   5.521   0.570   0.305
 8487SOL    HW226361   5.594   0.697   0.378
 8488SOL     OW26362   5.725   4.754   5.002
 8488SOL    HW126363   5.821   4.768   5.025
 8488SOL    HW226364   5.714   4.667   4.954
 8489SOL     OW26365   6.633   0.674   1.623
 8489SOL    HW126366   6.604   0.761   1.582
 8489SOL    HW226367   6.565   0.604   1.606
 8490SOL     OW26368   4.013   6.694   4.253
 8490SOL    HW126369   3.930   6.670   4.304
 8490SOL    HW226370   4.041   6.787   4.277
 8491SOL     OW26371   2.045   0.235   1.722
 8491SOL    HW126372   2.112   0.244   1.649
 8491SOL    HW226373   2.073   0.290   1.801
 8492SOL     OW26374   4.527   4.261   6.703
 8492SOL    HW126375   4.524   4.231   6.798
 8492SOL    HW226376   4.553   4.185   6.644
 8493SOL     OW26377   2.767   1.839   6.093
 8493SOL    HW126378   2.747   1.872   6.001
 8493SOL    HW226379   2.723   1.900   6.160
 8494SOL     OW26380   2.645   4.774   0.239
 8494SOL    HW126381   2.674   4.750   0.332
 8494SOL    HW226382   2.715   4.743   0.174
 8495SOL     OW26383   6.606   3.873   0.335
 8495SOL    HW126384   6.515   3.834   0.330
 8495SOL    HW226385   6.603   3.958   0.388
 8496SOL     OW26386   0.404   1.885   1.596
 8496SOL    HW126387   0.428   1.951   1.667
 8496SOL    HW226388   0.483   1.828   1.575
 8497SOL     OW26389   6.521   0.460   4.288
 8497SOL    HW126390   6.457   0.389   4.261
 8497SOL    HW226391   6.588   0.475   4.215
 8498SOL     OW26392   0.173   5.932   2.772
 8498SOL    HW126393   0.181   5.948   2.871
 8498SOL    HW226394   0.212   5.843   2.749
 8499SOL     OW26395   2.134   5.569   6.769
 8499SOL    HW126396   2.061   5.573   6.837
 8499SOL    HW226397   2.108   5.506   6.696
 8500SOL     OW26398   1.685   0.640   5.954
 8500SOL    HW126399   1.646   0.617   6.043
 8500SOL    HW226400   1.669   0.737   5.934
 8501SOL     OW26401   0.894   2.651   0.520
 8501SOL    HW126402   0.956   2.729   0.522
 8501SOL    HW226403   0.825   2.661   0.592
 8502SOL     OW26404   1.922   4.875   1.192
 8502SOL    HW126405   1.891   4.784   1.217
 8502SOL    HW226406   2.020   4.872   1.172
 8503SOL     OW26407   1.391   5.929   2.776
 8503SOL    HW126408   1.309   5.980   2.801
 8503SOL    HW226409   1.412   5.862   2.847
 8504SOL     OW26410   1.771   6.012   3.764
 8504SOL    HW126411   1.711   6.080   3.806
 8504SOL    HW226412   1.866   6.033   3.787
 8505SOL     OW26413   4.829   3.863   3.970
 8505SOL    HW126414   4.866   3.801   4.039
 8505SOL    HW226415   4.835   3.958   4.002
 8506SOL     OW26416   6.965   0.860   0.868
 8506SOL    HW126417   6.936   0.833   0.777
 8506SOL    HW226418   6.895   0.836   0.935
 8507SOL     OW26419   3.337   1.052   5.417
 8507SOL    HW126420   3.430   1.016   5.418
 8507SOL    HW226421   3.279   0.997   5.477
 8508SOL     OW26422   6.726   2.396   4.539
 8508SOL    HW126423   6.760   2.485   4.571
 8508SOL    HW226424   6.745   2.385   4.442
 8509SOL     OW26425   5.207   1.344   4.047
 8509SOL    HW126426   5.126   1.286   4.038
 8509SOL    HW226427   5.180   1.434   4.081
 8510SOL     OW26428   5.552   4.515   3.134
 8510SOL    HW126429   5.484   4.462   3.084
 8510SOL    HW226430   5.604   4.455   3.194
 8511SOL     OW26431   5.709   3.562   1.350
 8511SOL    HW126432   5.615   3.548   1.381
 8511SOL    HW226433   5.768   3.577   1.430
 8512SOL     OW26434   2.542   2.583   0.388
 8512SOL    HW126435   2.525   2.485   0.376
 8512SOL    HW226436   2.586   2.599   0.476
 8513SOL     OW26437   4.751   3.691   1.500
 8513SOL    HW126438   4.684   3.661   1.432
 8513SOL    HW226439   4.817   3.753   1.457
 8514SOL     OW26440   2.610   2.499   3.734
 8514SOL    HW126441   2.584   2.557   3.811
 8514SOL    HW226442   2.564   2.530   3.651
 8515SOL     OW26443   6.198   0.839   6.842
 8515SOL    HW126444   6.196   0.757   6.899
 8515SOL    HW226445   6.225   0.814   6.749
 8516SOL     OW26446   6.562   2.533   1.588
 8516SOL    HW126447   6.635   2.563   1.650
 8516SOL    HW226448   6.562   2.591   1.507
 8517SOL     OW26449   1.992   2.291   5.732
 8517SOL    HW126450   1.950   2.323   5.647
 8517SOL    HW226451   2.045   2.366   5.772
 8518SOL     OW26452   4.983   4.338   6.002
 8518SOL    HW126453   4.913   4.282   6.047
 8518SOL    HW226454   5.007   4.416   6.060
 8519SOL     OW26455   1.494   5.307   1.535
 8519SOL    HW126456   1.419   5.319   1.470
 8519SOL    HW226457   1.555   5.387   1.531
 8520SOL     OW26458   3.215   2.834   6.670
 8520SOL    HW126459   3.285   2.861   6.736
 8520SOL    HW226460   3.249   2.850   6.577
 8521SOL     OW26461   2.096   5.034   5.830
 8521SOL    HW126462   2.166   5.106   5.827
 8521SOL    HW226463   2.120   4.968   5.902
 8522SOL     OW26464   0.848   0.126   1.450
 8522SOL    HW126465   0.885   0.042   1.491
 8522SOL    HW226466   0.752   0.136   1.478
 8523SOL     OW26467   2.105   6.119   6.834
 8523SOL    HW126468   2.072   6.155   6.747
 8523SOL    HW226469   2.140   6.026   6.821
 8524SOL     OW26470   0.548   2.927   5.808
 8524SOL    HW126471   0.543   2.832   5.839
 8524SOL    HW226472   0.634   2.967   5.840
 8525SOL     OW26473   6.510   5.304   1.732
 8525SOL    HW126474   6.548   5.228   1.679
 8525SOL    HW226475   6.414   5.318   1.708
 8526SOL     OW26476   3.654   6.114   0.707
 8526SOL    HW126477   3.580   6.163   0.753
 8526SOL    HW226478   3.737   6.170   0.709
 8527SOL     OW26479   2.814   1.300   6.747
 8527SOL    HW126480   2.714   1.307   6.746
 8527SOL    HW226481   2.851   1.374   6.802
 8528SOL     OW26482   4.032   1.151   6.887
 8528SOL    HW126483   4.120   1.193   6.910
 8528SOL    HW226484   3.965   1.176   6.956
 8529SOL     OW26485   1.148   0.540   0.915
 8529SOL    HW126486   1.211   0.617   0.926
 8529SOL    HW226487   1.065   0.572   0.870
 8530SOL     OW26488   4.262   3.988   5.316
 8530SOL    HW126489   4.257   4.068   5.256
 8530SOL    HW226490   4.224   3.909   5.269
 8531SOL     OW26491   0.243   5.079   2.547
 8531SOL    HW126492   0.228   5.077   2.448
 8531SOL    HW226493   0.315   5.015   2.571
 8532SOL     OW26494   4.393   5.615   4.665
 8532SOL    HW126495   4.381   5.604   4.566
 8532SOL    HW226496   4.400   5.713   4.686
 8533SOL     OW26497   2.052   5.664   0.158
 8533SOL    HW126498   2.023   5.685   0.251
 8533SOL    HW226499   2.132   5.718   0.134
 8534SOL     OW26500   5.414   2.134   4.586
 8534SOL    HW126501   5.385   2.222   4.625
 8534SOL    HW226502   5.385   2.060   4.647
 8535SOL     OW26503   5.952   0.988   3.369
 8535SOL    HW126504   6.027   1.053   3.384
 8535SOL    HW226505   5.983   0.896   3.394
 8536SOL     OW26506   6.960   1.741   4.623
 8536SOL    HW126507   7.012   1.805   4.567
 8536SOL    HW226508   6.972   1.763   4.720
 8537SOL     OW26509   5.279   0.854   3.453
 8537SOL    HW126510   5.348   0.885   3.387
 8537SOL    HW226511   5.323   0.833   3.540
 8538SOL     OW26512   1.638   1.025   0.391
 8538SOL    HW126513   1.727   0.999   0.354
 8538SOL    HW226514   1.651   1.099   0.458
 8539SOL     OW26515   6.460   1.051   2.798
 8539SOL    HW126516   6.484   1.010   2.710
 8539SOL    HW226517   6.362   1.072   2.799
 8540SOL     OW26518   5.733   0.143   6.347
 8540SOL    HW126519   5.726   0.079   6.424
 8540SOL    HW226520   5.814   0.121   6.292
 8541SOL     OW26521   3.175   2.154   3.575
 8541SOL    HW126522   3.238   2.104   3.516
 8541SOL    HW226523   3.114   2.210   3.519
 8542SOL     OW26524   4.330   5.065   5.996
 8542SOL    HW126525   4.385   5.022   6.067
 8542SOL    HW226526   4.236   5.031   6.003
 8543SOL     OW26527   2.295   1.911   1.338
 8543SOL    HW126528   2.298   2.010   1.355
 8543SOL    HW226529   2.263   1.894   1.245
 8544SOL     OW26530   5.529   3.599   4.001
 8544SOL    HW126531   5.618   3.641   3.984
 8544SOL    HW226532   5.519   3.581   4.099
 8545SOL     OW26533   4.017   0.331   5.347
 8545SOL    HW126534   4.092   0.266   5.334
 8545SOL    HW226535   4.048   0.408   5.401
 8546SOL     OW26536   5.514   1.983   4.388
 8546SOL    HW126537   5.605   2.021   4.373
 8546SOL    HW226538   5.477   2.018   4.474
 8547SOL     OW26539   1.063   6.565   5.711
 8547SOL    HW126540   0.979   6.619   5.716
 8547SOL    HW226541   1.073   6.512   5.795
 8548SOL     OW26542   6.092   2.829   5.667
 8548SOL    HW126543   6.062   2.886   5.591
 8548SOL    HW226544   6.053   2.738   5.658
 8549SOL     OW26545   0.834   3.385   4.128
 8549SOL    HW126546   0.799   3.458   4.187
 8549SOL    HW226547   0.898   3.423   4.061
 8550SOL     OW26548   1.957   5.003   0.002
 8550SOL    HW126549   1.948   5.015   6.924
 8550SOL    HW226550   2.033   4.940   0.020
 8551SOL     OW26551   3.486   4.144   5.707
 8551SOL    HW126552   3.465   4.068   5.768
 8551SOL    HW226553   3.583   4.168   5.716
 8552SOL     OW26554   2.512   6.352   3.429
 8552SOL    HW126555   2.578   6.422   3.457
 8552SOL    HW226556   2.441   6.395   3.372
 8553SOL     OW26557   4.882   4.949   5.717
 8553SOL    HW126558   4.861   4.971   5.812
 8553SOL    HW226559   4.922   5.030   5.672
 8554SOL     OW26560   0.585   5.185   0.259
 8554SOL    HW126561   0.526   5.139   0.193
 8554SOL    HW226562   0.677   5.146   0.255
 8555SOL     OW26563   1.043   0.080   3.003
 8555SOL    HW126564   1.140   0.093   2.987
 8555SOL    HW226565   1.005   0.160   3.049
 8556SOL     OW26566   0.833   6.355   4.090
 8556SOL    HW126567   0.843   6.454   4.086
 8556SOL    HW226568   0.829   6.326   4.186
 8557SOL     OW26569   6.268   0.450   2.597
 8557SOL    HW126570   6.248   0.443   2.695
 8557SOL    HW226571   6.352   0.502   2.584
 8558SOL     OW26572   2.696   5.545   3.520
 8558SOL    HW126573   2.774   5.484   3.529
 8558SOL    HW226574   2.720   5.622   3.460
 8559SOL     OW26575   6.517   0.884   2.529
 8559SOL    HW126576   6.418   0.883   2.519
 8559SOL    HW226577   6.556   0.806   2.480
 8560SOL     OW26578   0.339   6.640   1.832
 8560SOL    HW126579   0.350   6.732   1.796
 8560SOL    HW226580   0.242   6.616   1.836
 8561SOL     OW26581   3.577   6.740   1.984
 8561SOL    HW126582   3.488   6.784   1.972
 8561SOL    HW226583   3.563   6.647   2.017
 8562SOL     OW26584   4.915   6.160   5.008
 8562SOL    HW126585   4.974   6.079   5.007
 8562SOL    HW226586   4.971   6.241   5.023
 8563SOL     OW26587   2.652   4.701   6.794
 8563SOL    HW126588   2.739   4.743   6.820
 8563SOL    HW226589   2.639   4.710   6.696
 8564SOL     OW26590   2.822   1.319   3.639
 8564SOL    HW126591   2.921   1.333   3.645
 8564SOL    HW226592   2.804   1.228   3.602
 8565SOL     OW26593   4.459   6.315   1.366
 8565SOL    HW126594   4.470   6.404   1.411
 8565SOL    HW226595   4.492   6.321   1.272
 8566SOL     OW26596   1.259   0.595   1.914
 8566SOL    HW126597   1.349   0.636   1.927
 8566SOL    HW226598   1.253   0.509   1.964
 8567SOL     OW26599   6.862   1.307   2.508
 8567SOL    HW126600   6.890   1.217   2.473
 8567SOL    HW226601   6.764   1.319   2.494
 8568SOL     OW26602   5.119   1.306   5.947
 8568SOL    HW126603   5.027   1.339   5.970
 8568SOL    HW226604   5.183   1.339   6.016
 8569SOL     OW26605   5.146   1.724   5.546
 8569SOL    HW126606   5.046   1.721   5.539
 8569SOL    HW226607   5.175   1.673   5.627
 8570SOL     OW26608   1.216   2.517   5.251
 8570SOL    HW126609   1.172   2.571   5.323
 8570SOL    HW226610   1.296   2.566   5.217
 8571SOL     OW26611   0.893   5.387   5.762
 8571SOL    HW126612   0.906   5.470   5.708
 8571SOL    HW226613   0.831   5.408   5.839
 8572SOL     OW26614   3.206   5.049   6.286
 8572SOL    HW126615   3.252   5.126   6.330
 8572SOL    HW226616   3.114   5.039   6.323
 8573SOL     OW26617   3.525   0.114   6.280
 8573SOL    HW126618   3.591   0.049   6.240
 8573SOL    HW226619   3.521   0.100   6.379
 8574SOL     OW26620   0.136   5.913   5.652
 8574SOL    HW126621   0.155   5.891   5.747
 8574SOL    HW226622   0.045   5.877   5.627
 8575SOL     OW26623   3.086   2.819   6.310
 8575SOL    HW126624   3.045   2.803   6.220
 8575SOL    HW226625   3.083   2.734   6.363
 8576SOL     OW26626   0.954   6.140   0.462
 8576SOL    HW126627   1.031   6.190   0.422
 8576SOL    HW226628   0.914   6.194   0.536
 8577SOL     OW26629   6.723   5.634   4.194
 8577SOL    HW126630   6.652   5.674   4.136
 8577SOL    HW226631   6.812   5.673   4.168
 8578SOL     OW26632   4.718   0.519   4.487
 8578SOL    HW126633   4.810   0.501   4.452
 8578SOL    HW226634   4.686   0.607   4.454
 8579SOL     OW26635   1.567   6.404   3.419
 8579SOL    HW126636   1.514   6.377   3.500
 8579SOL    HW226637   1.525   6.486   3.378
 8580SOL     OW26638   2.018   6.672   2.170
 8580SOL    HW126639   2.047   6.768   2.172
 8580SOL    HW226640   2.096   6.613   2.187
 8581SOL     OW26641   3.362   3.036   1.770
 8581SOL    HW126642   3.269   3.074   1.767
 8581SOL    HW226643   3.363   2.953   1.825
 8582SOL     OW26644   4.256   4.932   2.203
 8582SOL    HW126645   4.224   4.888   2.119
 8582SOL    HW226646   4.178   4.971   2.252
 8583SOL     OW26647   5.674   0.839   5.642
 8583SOL    HW126648   5.621   0.921   5.620
 8583SOL    HW226649   5.711   0.800   5.558
 8584SOL     OW26650   0.188   3.682   6.107
 8584SOL    HW126651   0.164   3.778   6.123
 8584SOL    HW226652   0.278   3.676   6.065
 8585SOL     OW26653   0.189   6.774   5.850
 8585SOL    HW126654   0.100   6.807   5.818
 8585SOL    HW226655   0.221   6.701   5.791
 8586SOL     OW26656   2.821   6.915   3.692
 8586SOL    HW126657   2.723   6.924   3.709
 8586SOL    HW226658   2.868   6.999   3.721
 8587SOL     OW26659   1.725   0.390   2.836
 8587SOL    HW126660   1.691   0.456   2.904
 8587SOL    HW226661   1.679   0.302   2.850
 8588SOL     OW26662   2.641   0.849   6.870
 8588SOL    HW126663   2.559   0.905   6.869
 8588SOL    HW226664   2.658   0.813   6.779
 8589SOL     OW26665   4.681   2.752   4.138
 8589SOL    HW126666   4.681   2.699   4.053
 8589SOL    HW226667   4.624   2.706   4.206
 8590SOL     OW26668   6.509   6.169   4.206
 8590SOL    HW126669   6.426   6.202   4.162
 8590SOL    HW226670   6.547   6.093   4.154
 8591SOL     OW26671   1.104   4.812   6.507
 8591SOL    HW126672   1.145   4.761   6.431
 8591SOL    HW226673   1.127   4.909   6.498
 8592SOL     OW26674   0.005   3.656   0.359
 8592SOL    HW126675   0.022   3.708   0.275
 8592SOL    HW226676   6.969   3.711   0.421
 8593SOL     OW26677   1.395   0.366   2.379
 8593SOL    HW126678   1.414   0.455   2.338
 8593SOL    HW226679   1.340   0.312   2.316
 8594SOL     OW26680   3.586   2.936   5.375
 8594SOL    HW126681   3.637   2.872   5.317
 8594SOL    HW226682   3.596   3.029   5.338
 8595SOL     OW26683   2.135   1.656   2.986
 8595SOL    HW126684   2.191   1.577   3.014
 8595SOL    HW226685   2.180   1.740   3.016
 8596SOL     OW26686   6.067   5.818   3.448
 8596SOL    HW126687   6.006   5.886   3.489
 8596SOL    HW226688   6.154   5.861   3.427
 8597SOL     OW26689   4.662   1.828   0.964
 8597SOL    HW126690   4.611   1.877   1.036
 8597SOL    HW226691   4.710   1.750   1.005
 8598SOL     OW26692   6.851   5.770   1.243
 8598SOL    HW126693   6.818   5.805   1.155
 8598SOL    HW226694   6.840   5.671   1.245
 8599SOL     OW26695   0.628   2.958   3.905
 8599SOL    HW126696   0.659   3.052   3.919
 8599SOL    HW226697   0.705   2.901   3.878
 8600SOL     OW26698   5.010   5.108   6.124
 8600SOL    HW126699   4.934   5.067   6.073
 8600SOL    HW226700   5.066   5.035   6.163
 8601SOL     OW26701   1.289   0.588   5.335
 8601SOL    HW126702   1.344   0.616   5.257
 8601SOL    HW226703   1.192   0.591   5.311
 8602SOL     OW26704   3.000   5.803   3.428
 8602SOL    HW126705   3.021   5.733   3.497
 8602SOL    HW226706   3.078   5.864   3.418
 8603SOL     OW26707   3.543   4.983   0.158
 8603SOL    HW126708   3.500   5.073   0.158
 8603SOL    HW226709   3.564   4.956   0.064
 8604SOL     OW26710   0.157   2.894   3.553
 8604SOL    HW126711   0.249   2.879   3.516
 8604SOL    HW226712   0.161   2.896   3.653
 8605SOL     OW26713   3.162   4.875   4.156
 8605SOL    HW126714   3.071   4.854   4.122
 8605SOL    HW226715   3.165   4.861   4.255
 8606SOL     OW26716   2.004   4.498   5.549
 8606SOL    HW126717   2.095   4.504   5.509
 8606SOL    HW226718   1.972   4.403   5.545
 8607SOL     OW26719   3.569   5.383   0.444
 8607SOL    HW126720   3.653   5.335   0.419
 8607SOL    HW226721   3.562   5.388   0.544
 8608SOL     OW26722   4.392   4.985   3.190
 8608SOL    HW126723   4.331   4.954   3.116
 8608SOL    HW226724   4.476   4.930   3.189
 8609SOL     OW26725   4.746   0.737   3.722
 8609SOL    HW126726   4.650   0.747   3.748
 8609SOL    HW226727   4.780   0.648   3.754
 8610SOL     OW26728   1.586   0.994   3.062
 8610SOL    HW126729   1.525   0.972   3.138
 8610SOL    HW226730   1.533   1.032   2.986
 8611SOL     OW26731   2.253   2.485   4.196
 8611SOL    HW126732   2.289   2.522   4.281
 8611SOL    HW226733   2.228   2.388   4.209
 8612SOL     OW26734   2.936   3.346   0.098
 8612SOL    HW126735   2.969   3.277   0.034
 8612SOL    HW226736   2.925   3.306   0.188
 8613SOL     OW26737   2.575   2.453   1.650
 8613SOL    HW126738   2.672   2.449   1.674
 8613SOL    HW226739   2.525   2.499   1.724
 8614SOL     OW26740   0.465   3.252   2.629
 8614SOL    HW126741   0.408   3.255   2.547
 8614SOL    HW226742   0.561   3.236   2.603
 8615SOL     OW26743   4.929   1.656   5.236
 8615SOL    HW126744   4.997   1.605   5.183
 8615SOL    HW226745   4.914   1.746   5.194
 8616SOL     OW26746   2.098   5.230   1.158
 8616SOL    HW126747   2.110   5.217   1.257
 8616SOL    HW226748   2.004   5.208   1.133
 8617SOL     OW26749   6.522   0.946   6.593
 8617SOL    HW126750   6.465   0.879   6.545
 8617SOL    HW226751   6.520   1.033   6.544
 8618SOL     OW26752   5.326   6.808   0.839
 8618SOL    HW126753   5.286   6.731   0.889
 8618SOL    HW226754   5.291   6.809   0.746
 8619SOL     OW26755   3.266   5.177   1.509
 8619SOL    HW126756   3.350   5.135   1.545
 8619SOL    HW226757   3.203   5.195   1.584
 8620SOL     OW26758   6.902   6.982   3.251
 8620SOL    HW126759   6.879   0.007   3.165
 8620SOL    HW226760   6.884   0.023   3.327
 8621SOL     OW26761   6.168   1.785   2.966
 8621SOL    HW126762   6.200   1.717   2.900
 8621SOL    HW226763   6.212   1.769   3.054
 8622SOL     OW26764   5.063   4.044   0.592
 8622SOL    HW126765   4.992   3.976   0.570
 8622SOL    HW226766   5.019   4.130   0.619
 8623SOL     OW26767   0.962   3.887   3.286
 8623SOL    HW126768   0.943   3.839   3.200
 8623SOL    HW226769   0.948   3.985   3.274
 8624SOL     OW26770   1.131   3.788   3.526
 8624SOL    HW126771   1.091   3.824   3.442
 8624SOL    HW226772   1.110   3.850   3.602
 8625SOL     OW26773   4.878   6.800   4.959
 8625SOL    HW126774   4.871   6.884   4.905
 8625SOL    HW226775   4.917   6.821   5.049
 8626SOL     OW26776   3.758   2.794   5.215
 8626SOL    HW126777   3.824   2.866   5.239
 8626SOL    HW226778   3.733   2.802   5.119
 8627SOL     OW26779   0.640   0.658   3.677
 8627SOL    HW126780   0.675   0.743   3.639
 8627SOL    HW226781   0.588   0.677   3.760
 8628SOL     OW26782   6.235   6.956   1.277
 8628SOL    HW126783   6.202   6.996   1.191
 8628SOL    HW226784   6.330   6.981   1.292
 8629SOL     OW26785   1.476   5.554   5.169
 8629SOL    HW126786   1.391   5.563   5.222
 8629SOL    HW226787   1.515   5.645   5.153
 8630SOL     OW26788   5.866   4.064   4.527
 8630SOL    HW126789   5.814   3.991   4.483
 8630SOL    HW226790   5.807   4.115   4.589
 8631SOL     OW26791   3.176   5.544   6.318
 8631SOL    HW126792   3.269   5.517   6.341
 8631SOL    HW226793   3.113   5.512   6.389
 8632SOL     OW26794   3.237   6.578   4.319
 8632SOL    HW126795   3.292   6.530   4.251
 8632SOL    HW226796   3.248   6.535   4.408
 8633SOL     OW26797   5.059   1.138   5.010
 8633SOL    HW126798   5.055   1.110   4.914
 8633SOL    HW226799   5.086   1.059   5.066
 8634SOL     OW26800   5.745   3.147   0.552
 8634SOL    HW126801   5.660   3.102   0.578
 8634SOL    HW226802   5.739   3.245   0.570
 8635SOL     OW26803   5.978   4.193   6.313
 8635SOL    HW126804   5.904   4.158   6.370
 8635SOL    HW226805   5.942   4.256   6.245
 8636SOL     OW26806   5.346   5.817   6.957
 8636SOL    HW126807   5.262   5.834   6.905
 8636SOL    HW226808   5.420   5.873   6.921
 8637SOL     OW26809   1.993   1.069   0.390
 8637SOL    HW126810   2.053   1.146   0.368
 8637SOL    HW226811   1.956   1.080   0.482
 8638SOL     OW26812   2.000   3.194   6.660
 8638SOL    HW126813   2.034   3.103   6.636
 8638SOL    HW226814   1.928   3.186   6.729
 8639SOL     OW26815   6.072   2.039   1.855
 8639SOL    HW126816   6.137   2.009   1.786
 8639SOL    HW226817   5.982   2.001   1.836
 8640SOL     OW26818   4.530   3.909   0.459
 8640SOL    HW126819   4.432   3.921   0.444
 8640SOL    HW226820   4.577   3.909   0.370
 8641SOL     OW26821   6.474   4.446   4.066
 8641SOL    HW126822   6.547   4.470   4.001
 8641SOL    HW226823   6.515   4.421   4.153
 8642SOL     OW26824   3.721   0.968   2.369
 8642SOL    HW126825   3.627   0.998   2.390
 8642SOL    HW226826   3.724   0.930   2.277
 8643SOL     OW26827   4.103   0.128   0.031
 8643SOL    HW126828   4.051   0.183   6.987
 8643SOL    HW226829   4.135   0.044   7.008
 8644SOL     OW26830   4.779   2.412   5.752
 8644SOL    HW126831   4.864   2.361   5.749
 8644SOL    HW226832   4.757   2.446   5.661
 8645SOL     OW26833   5.134   4.426   1.386
 8645SOL    HW126834   5.233   4.410   1.383
 8645SOL    HW226835   5.097   4.427   1.293
 8646SOL     OW26836   6.621   1.674   1.140
 8646SOL    HW126837   6.663   1.660   1.229
 8646SOL    HW226838   6.526   1.702   1.151
 8647SOL     OW26839   2.520   5.067   6.396
 8647SOL    HW126840   2.512   5.166   6.391
 8647SOL    HW226841   2.517   5.038   6.492
 8648SOL     OW26842   6.047   0.877   4.019
 8648SOL    HW126843   6.007   0.964   3.990
 8648SOL    HW226844   6.145   0.890   4.034
 8649SOL     OW26845   5.873   4.630   6.591
 8649SOL    HW126846   5.912   4.541   6.568
 8649SOL    HW226847   5.818   4.662   6.514
 8650SOL     OW26848   1.463   4.335   5.604
 8650SOL    HW126849   1.456   4.350   5.505
 8650SOL    HW226850   1.516   4.409   5.645
 8651SOL     OW26851   3.520   0.446   0.776
 8651SOL    HW126852   3.438   0.393   0.797
 8651SOL    HW226853   3.494   0.534   0.738
 8652SOL     OW26854   1.335   3.804   3.113
 8652SOL    HW126855   1.389   3.880   3.078
 8652SOL    HW226856   1.242   3.810   3.078
 8653SOL     OW26857   6.027   1.383   5.739
 8653SOL    HW126858   5.931   1.355   5.742
 8653SOL    HW226859   6.037   1.475   5.777
 8654SOL     OW26860   1.455   5.748   1.816
 8654SOL    HW126861   1.505   5.665   1.841
 8654SOL    HW226862   1.427   5.742   1.720
 8655SOL     OW26863   5.961   1.129   3.893
 8655SOL    HW126864   5.910   1.060   3.842
 8655SOL    HW226865   5.898   1.187   3.943
 8656SOL     OW26866   6.442   0.876   1.032
 8656SOL    HW126867   6.526   0.909   1.075
 8656SOL    HW226868   6.411   0.942   0.964
 8657SOL     OW26869   4.576   5.115   6.731
 8657SOL    HW126870   4.641   5.162   6.791
 8657SOL    HW226871   4.624   5.044   6.679
 8658SOL     OW26872   4.161   6.439   0.060
 8658SOL    HW126873   4.094   6.388   0.114
 8658SOL    HW226874   4.246   6.448   0.112
 8659SOL     OW26875   4.256   1.328   3.382
 8659SOL    HW126876   4.254   1.428   3.385
 8659SOL    HW226877   4.208   1.296   3.300
 8660SOL     OW26878   5.460   3.747   0.835
 8660SOL    HW126879   5.398   3.825   0.832
 8660SOL    HW226880   5.456   3.704   0.926
 8661SOL     OW26881   5.988   4.009   1.252
 8661SOL    HW126882   6.034   4.032   1.166
 8661SOL    HW226883   5.985   4.091   1.310
 8662SOL     OW26884   5.037   5.774   1.498
 8662SOL    HW126885   4.986   5.699   1.539
 8662SOL    HW226886   5.123   5.739   1.460
 8663SOL     OW26887   2.470   6.156   1.105
 8663SOL    HW126888   2.384   6.153   1.053
 8663SOL    HW226889   2.542   6.193   1.047
 8664SOL     OW26890   3.458   6.051   1.078
 8664SOL    HW126891   3.441   6.071   1.175
 8664SOL    HW226892   3.478   5.954   1.067
 8665SOL     OW26893   6.012   5.729   5.266
 8665SOL    HW126894   5.921   5.688   5.266
 8665SOL    HW226895   6.009   5.816   5.218
 8666SOL     OW26896   4.952   1.769   4.915
 8666SOL    HW126897   5.041   1.734   4.943
 8666SOL    HW226898   4.953   1.869   4.921
 8667SOL     OW26899   4.699   2.380   3.040
 8667SOL    HW126900   4.648   2.452   2.994
 8667SOL    HW226901   4.796   2.388   3.018
 8668SOL     OW26902   5.771   3.130   2.994
 8668SOL    HW126903   5.722   3.145   2.908
 8668SOL    HW226904   5.719   3.170   3.069
 8669SOL     OW26905   2.564   6.366   7.019
 8669SOL    HW126906   2.662   6.351   7.006
 8669SOL    HW226907   2.528   6.420   6.943
 8670SOL     OW26908   4.133   4.411   5.791
 8670SOL    HW126909   4.089   4.468   5.860
 8670SOL    HW226910   4.073   4.403   5.711
 8671SOL     OW26911   5.595   1.994   3.040
 8671SOL    HW126912   5.620   1.932   2.966
 8671SOL    HW226913   5.637   1.963   3.125
 8672SOL     OW26914   2.508   5.131   3.789
 8672SOL    HW126915   2.482   5.042   3.754
 8672SOL    HW226916   2.594   5.160   3.747
 8673SOL     OW26917   6.573   1.923   6.531
 8673SOL    HW126918   6.618   1.940   6.618
 8673SOL    HW226919   6.614   1.843   6.487
 8674SOL     OW26920   5.935   5.771   1.874
 8674SOL    HW126921   5.907   5.712   1.950
 8674SOL    HW226922   6.006   5.724   1.820
 8675SOL     OW26923   3.822   2.121   5.142
 8675SOL    HW126924   3.778   2.035   5.167
 8675SOL    HW226925   3.901   2.102   5.084
 8676SOL     OW26926   4.362   6.840   2.795
 8676SOL    HW126927   4.391   6.893   2.715
 8676SOL    HW226928   4.362   6.743   2.773
 8677SOL     OW26929   2.505   6.280   5.344
 8677SOL    HW126930   2.443   6.284   5.423
 8677SOL    HW226931   2.575   6.212   5.360
 8678SOL     OW26932   6.892   0.490   1.037
 8678SOL    HW126933   6.901   0.425   0.961
 8678SOL    HW226934   6.799   0.484   1.074
 8679SOL     OW26935   6.403   2.953   4.500
 8679SOL    HW126936   6.406   2.935   4.402
 8679SOL    HW226937   6.317   2.919   4.537
 8680SOL     OW26938   0.529   4.413   1.577
 8680SOL    HW126939   0.628   4.399   1.575
 8680SOL    HW226940   0.483   4.327   1.552
 8681SOL     OW26941   4.779   5.345   6.538
 8681SOL    HW126942   4.831   5.332   6.453
 8681SOL    HW226943   4.689   5.382   6.516
 8682SOL     OW26944   4.373   6.741   1.651
 8682SOL    HW126945   4.330   6.747   1.741
 8682SOL    HW226946   4.439   6.816   1.640
 8683SOL     OW26947   1.524   2.184   2.639
 8683SOL    HW126948   1.557   2.248   2.569
 8683SOL    HW226949   1.474   2.109   2.596
 8684SOL     OW26950   0.988   2.740   5.174
 8684SOL    HW126951   1.009   2.835   5.153
 8684SOL    HW226952   0.894   2.733   5.208
 8685SOL     OW26953   0.687   2.605   5.651
 8685SOL    HW126954   0.718   2.514   5.677
 8685SOL    HW226955   0.660   2.605   5.554
 8686SOL     OW26956   0.327   1.729   1.243
 8686SOL    HW126957   0.304   1.640   1.283
 8686SOL    HW226958   0.417   1.723   1.200
 8687SOL     OW26959   3.465   5.816   2.915
 8687SOL    HW126960   3.561   5.791   2.927
 8687SOL    HW226961   3.420   5.821   3.004
 8688SOL     OW26962   3.383   6.747   6.660
 8688SOL    HW126963   3.290   6.721   6.685
 8688SOL    HW226964   3.398   6.730   6.563
 8689SOL     OW26965   3.136   4.497   0.979
 8689SOL    HW126966   3.099   4.409   1.009
 8689SOL    HW226967   3.217   4.482   0.923
 8690SOL     OW26968   2.213   2.477   3.126
 8690SOL    HW126969   2.239   2.496   3.031
 8690SOL    HW226970   2.117   2.500   3.140
 8691SOL     OW26971   3.543   2.201   6.837
 8691SOL    HW126972   3.531   2.104   6.859
 8691SOL    HW226973   3.609   2.242   6.900
 8692SOL     OW26974   3.443   2.063   3.209
 8692SOL    HW126975   3.530   2.045   3.165
 8692SOL    HW226976   3.450   2.044   3.307
 8693SOL     OW26977   6.374   1.151   0.571
 8693SOL    HW126978   6.362   1.250   0.562
 8693SOL    HW226979   6.294   1.105   0.533
 8694SOL     OW26980   3.516   1.232   4.997
 8694SOL    HW126981   3.486   1.153   5.051
 8694SOL    HW226982   3.612   1.252   5.018
 8695SOL     OW26983   4.336   3.000   6.188
 8695SOL    HW126984   4.399   3.002   6.111
 8695SOL    HW226985   4.263   2.934   6.169
 8696SOL     OW26986   2.940   5.910   0.678
 8696SOL    HW126987   2.958   5.871   0.768
 8696SOL    HW226988   2.917   5.837   0.614
 8697SOL     OW26989   6.332   3.314   6.802
 8697SOL    HW126990   6.413   3.256   6.806
 8697SOL    HW226991   6.293   3.310   6.710
 8698SOL     OW26992   5.739   5.735   4.219
 8698SOL    HW126993   5.690   5.718   4.134
 8698SOL    HW226994   5.692   5.689   4.295
 8699SOL     OW26995   1.994   2.656   5.594
 8699SOL    HW126996   1.958   2.575   5.548
 8699SOL    HW226997   2.071   2.630   5.652
 8700SOL     OW26998   1.205   0.984   4.501
 8700SOL    HW126999   1.172   1.053   4.565
 8700SOL    HW227000   1.303   0.997   4.484
 8701SOL     OW27001   1.405   0.347   6.961
 8701SOL    HW127002   1.427   0.251   6.978
 8701SOL    HW227003   1.487   0.403   6.973
 8702SOL     OW27004   5.526   4.484   0.637
 8702SOL    HW127005   5.545   4.529   0.724
 8702SOL    HW227006   5.569   4.535   0.562
 8703SOL     OW27007   2.953   5.510   0.996
 8703SOL    HW127008   2.922   5.604   0.983
 8703SOL    HW227009   3.037   5.510   1.051
 8704SOL     OW27010   6.653   3.513   3.061
 8704SOL    HW127011   6.583   3.533   3.129
 8704SOL    HW227012   6.711   3.594   3.048
 8705SOL     OW27013   5.189   0.600   0.487
 8705SOL    HW127014   5.220   0.506   0.477
 8705SOL    HW227015   5.268   0.661   0.496
 8706SOL     OW27016   4.887   1.963   6.317
 8706SOL    HW127017   4.818   1.942   6.248
 8706SOL    HW227018   4.932   1.878   6.346
 8707SOL     OW27019   6.166   2.353   6.798
 8707SOL    HW127020   6.079   2.306   6.816
 8707SOL    HW227021   6.187   2.414   6.874
 8708SOL     OW27022   4.271   1.900   2.368
 8708SOL    HW127023   4.209   1.903   2.289
 8708SOL    HW227024   4.223   1.930   2.450
 8709SOL     OW27025   6.825   5.961   6.514
 8709SOL    HW127026   6.908   5.982   6.463
 8709SOL    HW227027   6.781   5.880   6.473
 8710SOL     OW27028   2.133   3.212   3.561
 8710SOL    HW127029   2.155   3.242   3.468
 8710SOL    HW227030   2.166   3.119   3.575
 8711SOL     OW27031   0.900   5.731   2.809
 8711SOL    HW127032   0.908   5.828   2.788
 8711SOL    HW227033   0.848   5.685   2.737
 8712SOL     OW27034   4.019   2.030   4.943
 8712SOL    HW127035   4.061   1.942   4.965
 8712SOL    HW227036   4.085   2.103   4.958
 8713SOL     OW27037   0.470   3.782   3.746
 8713SOL    HW127038   0.552   3.750   3.698
 8713SOL    HW227039   0.496   3.832   3.828
 8714SOL     OW27040   1.107   1.172   6.174
 8714SOL    HW127041   1.106   1.241   6.247
 8714SOL    HW227042   1.168   1.203   6.101
 8715SOL     OW27043   4.938   0.439   0.795
 8715SOL    HW127044   4.949   0.341   0.812
 8715SOL    HW227045   4.926   0.455   0.697
 8716SOL     OW27046   0.657   0.146   1.099
 8716SOL    HW127047   0.574   0.119   1.148
 8716SOL    HW227048   0.681   0.075   1.033
 8717SOL     OW27049   3.758   3.543   3.530
 8717SOL    HW127050   3.712   3.607   3.592
 8717SOL    HW227051   3.750   3.451   3.567
 8718SOL     OW27052   0.221   3.537   4.477
 8718SOL    HW127053   0.135   3.525   4.527
 8718SOL    HW227054   0.271   3.450   4.475
 8719SOL     OW27055   2.105   0.188   6.285
 8719SOL    HW127056   2.088   0.182   6.383
 8719SOL    HW227057   2.195   0.150   6.264
 8720SOL     OW27058   6.476   4.878   5.373
 8720SOL    HW127059   6.404   4.866   5.441
 8720SOL    HW227060   6.482   4.974   5.346
 8721SOL     OW27061   6.364   2.009   3.114
 8721SOL    HW127062   6.318   1.995   3.202
 8721SOL    HW227063   6.346   2.103   3.082
 8722SOL     OW27064   4.296   1.298   0.206
 8722SOL    HW127065   4.253   1.340   0.287
 8722SOL    HW227066   4.370   1.358   0.174
 8723SOL     OW27067   4.829   5.268   1.234
 8723SOL    HW127068   4.841   5.248   1.137
 8723SOL    HW227069   4.736   5.246   1.261
 8724SOL     OW27070   6.020   0.009   5.867
 8724SOL    HW127071   6.006   0.108   5.864
 8724SOL    HW227072   6.118   7.011   5.870
 8725SOL     OW27073   2.124   0.294   6.965
 8725SOL    HW127074   2.155   0.374   7.016
 8725SOL    HW227075   2.157   0.299   6.871
 8726SOL     OW27076   6.047   0.421   1.769
 8726SOL    HW127077   6.121   0.384   1.824
 8726SOL    HW227078   6.079   0.501   1.719
 8727SOL     OW27079   6.620   6.438   1.976
 8727SOL    HW127080   6.670   6.418   2.059
 8727SOL    HW227081   6.605   6.537   1.969
 8728SOL     OW27082   3.894   0.474   4.272
 8728SOL    HW127083   3.985   0.447   4.303
 8728SOL    HW227084   3.833   0.395   4.275
 8729SOL     OW27085   4.609   5.511   3.399
 8729SOL    HW127086   4.593   5.598   3.352
 8729SOL    HW227087   4.667   5.527   3.479
 8730SOL     OW27088   6.553   4.183   2.633
 8730SOL    HW127089   6.583   4.142   2.719
 8730SOL    HW227090   6.623   4.246   2.600
 8731SOL     OW27091   1.770   2.484   2.636
 8731SOL    HW127092   1.736   2.419   2.567
 8731SOL    HW227093   1.695   2.511   2.695
 8732SOL     OW27094   5.773   4.203   1.763
 8732SOL    HW127095   5.797   4.253   1.846
 8732SOL    HW227096   5.839   4.129   1.748
 8733SOL     OW27097   1.959   5.727   2.468
 8733SOL    HW127098   1.911   5.766   2.546
 8733SOL    HW227099   1.894   5.680   2.408
 8734SOL     OW27100   0.914   4.528   1.986
 8734SOL    HW127101   0.872   4.546   2.075
 8734SOL    HW227102   1.010   4.504   1.999
 8735SOL     OW27103   0.926   1.713   0.051
 8735SOL    HW127104   0.884   1.692   6.984
 8735SOL    HW227105   0.856   1.750   0.113
 8736SOL     OW27106   0.327   6.443   5.866
 8736SOL    HW127107   0.290   6.505   5.796
 8736SOL    HW227108   0.342   6.353   5.825
 8737SOL     OW27109   2.194   6.882   6.066
 8737SOL    HW127110   2.182   6.826   5.984
 8737SOL    HW227111   2.151   6.837   6.144
 8738SOL     OW27112   2.121   5.453   4.534
 8738SOL    HW127113   2.117   5.357   4.562
 8738SOL    HW227114   2.030   5.494   4.543
 8739SOL     OW27115   5.975   5.381   5.996
 8739SOL    HW127116   6.075   5.384   6.000
 8739SOL    HW227117   5.936   5.425   6.076
 8740SOL     OW27118   5.010   0.788   4.998
 8740SOL    HW127119   5.016   0.742   5.086
 8740SOL    HW227120   5.088   0.763   4.941
 8741SOL     OW27121   2.725   1.060   1.853
 8741SOL    HW127122   2.657   1.056   1.926
 8741SOL    HW227123   2.684   1.100   1.771
 8742SOL     OW27124   5.551   6.215   1.743
 8742SOL    HW127125   5.457   6.202   1.713
 8742SOL    HW227126   5.572   6.151   1.817
 8743SOL     OW27127   1.866   0.401   2.386
 8743SOL    HW127128   1.788   0.342   2.405
 8743SOL    HW227129   1.938   0.385   2.453
 8744SOL     OW27130   3.519   2.611   6.135
 8744SOL    HW127131   3.609   2.569   6.144
 8744SOL    HW227132   3.454   2.563   6.194
 8745SOL     OW27133   6.307   2.929   5.832
 8745SOL    HW127134   6.388   2.888   5.791
 8745SOL    HW227135   6.226   2.899   5.782
 8746SOL     OW27136   4.919   3.817   5.121
 8746SOL    HW127137   4.873   3.732   5.095
 8746SOL    HW227138   5.016   3.811   5.101
 8747SOL     OW27139   0.163   2.308   2.831
 8747SOL    HW127140   0.109   2.385   2.864
 8747SOL    HW227141   0.257   2.339   2.813
 8748SOL     OW27142   0.774   1.431   5.853
 8748SOL    HW127143   0.833   1.445   5.773
 8748SOL    HW227144   0.806   1.351   5.904
 8749SOL     OW27145   2.622   0.396   6.510
 8749SOL    HW127146   2.607   0.475   6.570
 8749SOL    HW227147   2.550   0.392   6.441
 8750SOL     OW27148   3.122   3.422   5.681
 8750SOL    HW127149   3.191   3.356   5.652
 8750SOL    HW227150   3.050   3.376   5.732
 8751SOL     OW27151   6.478   0.070   2.982
 8751SOL    HW127152   6.455   0.159   2.943
 8751SOL    HW227153   6.534   0.018   2.917
 8752SOL     OW27154   2.633   5.019   6.660
 8752SOL    HW127155   2.567   5.090   6.684
 8752SOL    HW227156   2.696   5.005   6.737
 8753SOL     OW27157   4.761   1.544   4.984
 8753SOL    HW127158   4.812   1.626   4.959
 8753SOL    HW227159   4.803   1.500   5.063
 8754SOL     OW27160   1.165   2.330   5.002
 8754SOL    HW127161   1.122   2.414   4.968
 8754SOL    HW227162   1.194   2.344   5.097
 8755SOL     OW27163   2.430   1.073   6.507
 8755SOL    HW127164   2.466   1.166   6.495
 8755SOL    HW227165   2.330   1.076   6.503
 8756SOL     OW27166   2.148   3.294   3.309
 8756SOL    HW127167   2.138   3.380   3.260
 8756SOL    HW227168   2.131   3.217   3.247
 8757SOL     OW27169   5.398   6.565   5.953
 8757SOL    HW127170   5.381   6.662   5.973
 8757SOL    HW227171   5.375   6.546   5.858
 8758SOL     OW27172   4.623   6.561   1.922
 8758SOL    HW127173   4.627   6.514   2.011
 8758SOL    HW227174   4.628   6.660   1.937
 8759SOL     OW27175   3.688   2.597   0.082
 8759SOL    HW127176   3.778   2.636   0.105
 8759SOL    HW227177   3.641   2.658   0.018
 8760SOL     OW27178   1.391   1.570   4.971
 8760SOL    HW127179   1.477   1.526   4.994
 8760SOL    HW227180   1.410   1.652   4.916
 8761SOL     OW27181   4.676   1.413   1.922
 8761SOL    HW127182   4.603   1.474   1.893
 8761SOL    HW227183   4.711   1.363   1.842
 8762SOL     OW27184   0.653   4.316   2.336
 8762SOL    HW127185   0.617   4.404   2.367
 8762SOL    HW227186   0.656   4.253   2.414
 8763SOL     OW27187   5.902   6.019   6.041
 8763SOL    HW127188   5.968   5.957   5.999
 8763SOL    HW227189   5.849   5.970   6.110
 8764SOL     OW27190   4.810   0.965   4.450
 8764SOL    HW127191   4.899   0.985   4.407
 8764SOL    HW227192   4.744   1.035   4.424
 8765SOL     OW27193   6.249   6.345   4.999
 8765SOL    HW127194   6.314   6.298   4.940
 8765SOL    HW227195   6.296   6.417   5.051
 8766SOL     OW27196   3.893   5.186   3.104
 8766SOL    HW127197   3.992   5.198   3.099
 8766SOL    HW227198   3.872   5.102   3.154
 8767SOL     OW27199   3.969   6.924   3.144
 8767SOL    HW127200   4.011   6.971   3.067
 8767SOL    HW227201   3.870   6.934   3.139
 8768SOL     OW27202   0.896   3.342   0.548
 8768SOL    HW127203   0.827   3.333   0.477
 8768SOL    HW227204   0.987   3.330   0.507
 8769SOL     OW27205   1.641   6.873   3.991
 8769SOL    HW127206   1.660   6.775   3.994
 8769SOL    HW227207   1.567   6.894   4.056
 8770SOL     OW27208   5.204   3.638   2.007
 8770SOL    HW127209   5.106   3.635   2.027
 8770SOL    HW227210   5.223   3.585   1.924
 8771SOL     OW27211   0.952   0.283   5.799
 8771SOL    HW127212   0.938   0.382   5.801
 8771SOL    HW227213   0.880   0.238   5.851
 8772SOL     OW27214   5.637   6.731   6.783
 8772SOL    HW127215   5.622   6.808   6.721
 8772SOL    HW227216   5.657   6.765   6.875
 8773SOL     OW27217   4.564   2.597   3.955
 8773SOL    HW127218   4.468   2.616   3.934
 8773SOL    HW227219   4.573   2.501   3.983
 8774SOL     OW27220   2.477   1.901   0.373
 8774SOL    HW127221   2.515   1.830   0.315
 8774SOL    HW227222   2.402   1.948   0.325
 8775SOL     OW27223   6.553   0.232   5.190
 8775SOL    HW127224   6.517   0.325   5.200
 8775SOL    HW227225   6.646   0.228   5.228
 8776SOL     OW27226   3.288   4.032   4.343
 8776SOL    HW127227   3.230   4.064   4.418
 8776SOL    HW227228   3.384   4.033   4.372
 8777SOL     OW27229   0.182   4.035   1.457
 8777SOL    HW127230   0.180   4.028   1.557
 8777SOL    HW227231   0.258   3.980   1.422
 8778SOL     OW27232   5.778   2.004   4.528
 8778SOL    HW127233   5.814   1.914   4.550
 8778SOL    HW227234   5.843   2.074   4.557
 8779SOL     OW27235   2.901   5.175   1.872
 8779SOL    HW127236   2.896   5.261   1.821
 8779SOL    HW227237   2.975   5.180   1.939
 8780SOL     OW27238   1.248   5.384   3.427
 8780SOL    HW127239   1.237   5.483   3.443
 8780SOL    HW227240   1.337   5.367   3.385
 8781SOL     OW27241   6.304   1.688   4.196
 8781SOL    HW127242   6.386   1.705   4.141
 8781SOL    HW227243   6.310   1.597   4.237
 8782SOL     OW27244   5.267   0.224   1.881
 8782SOL    HW127245   5.320   0.144   1.911
 8782SOL    HW227246   5.314   0.307   1.911
 8783SOL     OW27247   6.601   4.390   3.565
 8783SOL    HW127248   6.582   4.293   3.547
 8783SOL    HW227249   6.651   4.429   3.487
 8784SOL     OW27250   5.825   3.932   6.287
 8784SOL    HW127251   5.847   3.990   6.209
 8784SOL    HW227252   5.782   3.987   6.359
 8785SOL     OW27253   6.850   3.515   6.747
 8785SOL    HW127254   6.907   3.434   6.735
 8785SOL    HW227255   6.767   3.506   6.693
 8786SOL     OW27256   2.526   6.471   0.429
 8786SOL    HW127257   2.434   6.433   0.416
 8786SOL    HW227258   2.521   6.548   0.493
 8787SOL     OW27259   1.969   2.937   2.494
 8787SOL    HW127260   1.904   2.887   2.552
 8787SOL    HW227261   2.039   2.979   2.551
 8788SOL     OW27262   0.037   2.167   5.611
 8788SOL    HW127263   0.085   2.238   5.560
 8788SOL    HW227264   7.001   2.114   5.548
 8789SOL     OW27265   6.145   6.934   5.447
 8789SOL    HW127266   6.087   7.008   5.413
 8789SOL    HW227267   6.094   6.877   5.511
 8790SOL     OW27268   0.166   1.025   7.007
 8790SOL    HW127269   0.183   1.121   0.009
 8790SOL    HW227270   0.178   0.968   0.067
 8791SOL     OW27271   5.613   6.879   4.966
 8791SOL    HW127272   5.647   6.801   5.020
 8791SOL    HW227273   5.602   6.958   5.026
 8792SOL     OW27274   3.743   5.935   3.829
 8792SOL    HW127275   3.694   5.853   3.799
 8792SOL    HW227276   3.706   6.015   3.781
 8793SOL     OW27277   1.528   5.921   3.948
 8793SOL    HW127278   1.488   5.950   3.861
 8793SOL    HW227279   1.552   6.001   4.003
 8794SOL     OW27280   4.214   6.766   1.427
 8794SOL    HW127281   4.244   6.750   1.521
 8794SOL    HW227282   4.132   6.711   1.409
 8795SOL     OW27283   1.318   6.773   4.689
 8795SOL    HW127284   1.377   6.814   4.758
 8795SOL    HW227285   1.253   6.711   4.733
 8796SOL     OW27286   4.168   0.667   4.489
 8796SOL    HW127287   4.214   0.658   4.401
 8796SOL    HW227288   4.122   0.756   4.493
 8797SOL     OW27289   1.205   6.939   4.930
 8797SOL    HW127290   1.163   7.016   4.978
 8797SOL    HW227291   1.282   6.904   4.983
 8798SOL     OW27292   5.345   5.131   5.036
 8798SOL    HW127293   5.416   5.061   5.046
 8798SOL    HW227294   5.322   5.141   4.939
 8799SOL     OW27295   2.039   4.135   3.685
 8799SOL    HW127296   1.999   4.081   3.759
 8799SOL    HW227297   2.083   4.217   3.723
 8800SOL     OW27298   6.109   4.271   5.353
 8800SOL    HW127299   6.150   4.204   5.291
 8800SOL    HW227300   6.019   4.239   5.382
 8801SOL     OW27301   0.966   1.351   4.256
 8801SOL    HW127302   0.982   1.327   4.351
 8801SOL    HW227303   0.937   1.446   4.249
 8802SOL     OW27304   1.833   0.252   0.698
 8802SOL    HW127305   1.814   0.346   0.670
 8802SOL    HW227306   1.889   0.207   0.629
 8803SOL     OW27307   0.349   5.508   5.712
 8803SOL    HW127308   0.258   5.469   5.726
 8803SOL    HW227309   0.418   5.448   5.754
 8804SOL     OW27310   3.403   6.900   1.679
 8804SOL    HW127311   3.443   6.814   1.648
 8804SOL    HW227312   3.411   6.907   1.779
 8805SOL     OW27313   2.356   0.425   4.249
 8805SOL    HW127314   2.325   0.345   4.197
 8805SOL    HW227315   2.392   0.395   4.337
 8806SOL     OW27316   2.306   5.144   1.635
 8806SOL    HW127317   2.323   5.068   1.698
 8806SOL    HW227318   2.350   5.126   1.548
 8807SOL     OW27319   6.202   6.682   6.361
 8807SOL    HW127320   6.219   6.646   6.269
 8807SOL    HW227321   6.127   6.632   6.403
 8808SOL     OW27322   5.543   2.288   0.636
 8808SOL    HW127323   5.533   2.253   0.543
 8808SOL    HW227324   5.453   2.311   0.673
 8809SOL     OW27325   4.601   4.823   3.221
 8809SOL    HW127326   4.677   4.888   3.215
 8809SOL    HW227327   4.633   4.732   3.194
 8810SOL     OW27328   5.619   0.839   6.444
 8810SOL    HW127329   5.618   0.805   6.349
 8810SOL    HW227330   5.590   0.934   6.446
 8811SOL     OW27331   2.869   1.759   3.675
 8811SOL    HW127332   2.954   1.732   3.721
 8811SOL    HW227333   2.834   1.682   3.621
 8812SOL     OW27334   1.689   0.365   1.093
 8812SOL    HW127335   1.717   0.334   1.183
 8812SOL    HW227336   1.616   0.307   1.058
 8813SOL     OW27337   1.109   4.429   1.653
 8813SOL    HW127338   1.145   4.344   1.691
 8813SOL    HW227339   1.128   4.504   1.716
 8814SOL     OW27340   6.104   0.891   0.744
 8814SOL    HW127341   6.173   0.834   0.699
 8814SOL    HW227342   6.070   0.843   0.825
 8815SOL     OW27343   6.460   6.107   0.760
 8815SOL    HW127344   6.558   6.110   0.738
 8815SOL    HW227345   6.443   6.159   0.844
 8816SOL     OW27346   2.113   0.854   0.641
 8816SOL    HW127347   2.166   0.906   0.574
 8816SOL    HW227348   2.121   0.756   0.621
 8817SOL     OW27349   0.920   6.075   5.700
 8817SOL    HW127350   0.839   6.114   5.744
 8817SOL    HW227351   0.974   6.147   5.658
 8818SOL     OW27352   0.160   3.055   4.076
 8818SOL    HW127353   0.248   3.102   4.084
 8818SOL    HW227354   0.160   2.974   4.134
 8819SOL     OW27355   4.368   5.176   4.463
 8819SOL    HW127356   4.390   5.210   4.372
 8819SOL    HW227357   4.338   5.081   4.458
 8820SOL     OW27358   2.562   1.416   4.635
 8820SOL    HW127359   2.562   1.500   4.688
 8820SOL    HW227360   2.497   1.424   4.559
 8821SOL     OW27361   2.853   6.356   7.021
 8821SOL    HW127362   2.872   6.454   7.020
 8821SOL    HW227363   2.920   6.309   0.057
 8822SOL     OW27364   1.034   0.004   4.244
 8822SOL    HW127365   0.937   0.016   4.223
 8822SOL    HW227366   1.078   0.093   4.251
 8823SOL     OW27367   2.030   0.890   0.891
 8823SOL    HW127368   2.063   0.848   0.806
 8823SOL    HW227369   2.012   0.819   0.959
 8824SOL     OW27370   1.057   3.010   1.322
 8824SOL    HW127371   1.099   3.038   1.236
 8824SOL    HW227372   0.972   2.959   1.303
 8825SOL     OW27373   1.915   0.176   3.010
 8825SOL    HW127374   1.855   0.254   2.993
 8825SOL    HW227375   1.947   0.178   3.104
 8826SOL     OW27376   6.389   3.030   0.417
 8826SOL    HW127377   6.432   2.995   0.334
 8826SOL    HW227378   6.322   3.101   0.394
 8827SOL     OW27379   3.707   1.210   2.864
 8827SOL    HW127380   3.628   1.177   2.916
 8827SOL    HW227381   3.760   1.273   2.921
 8828SOL     OW27382   4.437   5.537   4.951
 8828SOL    HW127383   4.433   5.554   4.852
 8828SOL    HW227384   4.467   5.443   4.966
 8829SOL     OW27385   0.303   2.233   0.446
 8829SOL    HW127386   0.394   2.213   0.483
 8829SOL    HW227387   0.235   2.229   0.520
 8830SOL     OW27388   0.263   1.669   1.629
 8830SOL    HW127389   0.303   1.749   1.586
 8830SOL    HW227390   0.285   1.668   1.727
 8831SOL     OW27391   5.439   0.885   3.673
 8831SOL    HW127392   5.365   0.910   3.736
 8831SOL    HW227393   5.503   0.961   3.665
 8832SOL     OW27394   6.861   5.860   2.959
 8832SOL    HW127395   6.834   5.798   2.886
 8832SOL    HW227396   6.834   5.954   2.936
 8833SOL     OW27397   2.321   6.489   5.733
 8833SOL    HW127398   2.317   6.425   5.656
 8833SOL    HW227399   2.409   6.538   5.731
 8834SOL     OW27400   5.490   3.112   4.413
 8834SOL    HW127401   5.565   3.159   4.366
 8834SOL    HW227402   5.407   3.119   4.358
 8835SOL     OW27403   6.284   1.486   5.667
 8835SOL    HW127404   6.283   1.526   5.575
 8835SOL    HW227405   6.197   1.441   5.685
 8836SOL     OW27406   4.637   1.921   6.556
 8836SOL    HW127407   4.693   2.000   6.533
 8836SOL    HW227408   4.552   1.952   6.599
 8837SOL     OW27409   0.282   6.313   2.964
 8837SOL    HW127410   0.314   6.379   3.031
 8837SOL    HW227411   0.260   6.227   3.011
 8838SOL     OW27412   2.910   4.783   2.747
 8838SOL    HW127413   2.848   4.764   2.671
 8838SOL    HW227414   2.896   4.717   2.820
 8839SOL     OW27415   4.959   5.339   2.174
 8839SOL    HW127416   4.921   5.248   2.190
 8839SOL    HW227417   5.005   5.340   2.085
 8840SOL     OW27418   6.546   1.588   1.569
 8840SOL    HW127419   6.503   1.570   1.657
 8840SOL    HW227420   6.477   1.585   1.497
 8841SOL     OW27421   1.076   0.122   5.057
 8841SOL    HW127422   1.149   0.170   5.107
 8841SOL    HW227423   1.016   0.189   5.013
 8842SOL     OW27424   2.893   3.043   1.673
 8842SOL    HW127425   2.983   3.038   1.630
 8842SOL    HW227426   2.858   2.950   1.687
 8843SOL     OW27427   1.778   3.499   5.194
 8843SOL    HW127428   1.719   3.419   5.206
 8843SOL    HW227429   1.862   3.472   5.148
 8844SOL     OW27430   5.992   1.925   6.787
 8844SOL    HW127431   6.024   1.862   6.858
 8844SOL    HW227432   5.898   1.904   6.762
 8845SOL     OW27433   4.570   3.642   6.940
 8845SOL    HW127434   4.631   3.721   6.935
 8845SOL    HW227435   4.623   3.557   6.936
 8846SOL     OW27436   3.128   5.617   3.599
 8846SOL    HW127437   3.073   5.578   3.673
 8846SOL    HW227438   3.200   5.675   3.637
 8847SOL     OW27439   3.167   1.219   2.356
 8847SOL    HW127440   3.206   1.184   2.441
 8847SOL    HW227441   3.150   1.317   2.364
 8848SOL     OW27442   2.576   6.917   2.040
 8848SOL    HW127443   2.612   6.837   2.089
 8848SOL    HW227444   2.632   6.997   2.063
 8849SOL     OW27445   3.222   5.695   2.779
 8849SOL    HW127446   3.305   5.743   2.809
 8849SOL    HW227447   3.202   5.719   2.684
 8850SOL     OW27448   1.364   2.253   0.146
 8850SOL    HW127449   1.374   2.336   0.200
 8850SOL    HW227450   1.423   2.260   0.065
 8851SOL     OW27451   1.773   4.073   2.548
 8851SOL    HW127452   1.838   4.062   2.624
 8851SOL    HW227453   1.718   4.155   2.563
 8852SOL     OW27454   0.706   2.007   4.852
 8852SOL    HW127455   0.752   2.066   4.918
 8852SOL    HW227456   0.625   1.967   4.894
 8853SOL     OW27457   2.888   0.339   1.541
 8853SOL    HW127458   2.883   0.240   1.526
 8853SOL    HW227459   2.943   0.381   1.469
 8854SOL     OW27460   2.090   3.481   4.811
 8854SOL    HW127461   2.096   3.499   4.909
 8854SOL    HW227462   2.100   3.567   4.761
 8855SOL     OW27463   6.704   5.158   1.233
 8855SOL    HW127464   6.801   5.136   1.231
 8855SOL    HW227465   6.657   5.096   1.296
 8856SOL     OW27466   0.624   6.165   6.288
 8856SOL    HW127467   0.599   6.159   6.192
 8856SOL    HW227468   0.585   6.248   6.327
 8857SOL     OW27469   6.476   1.534   4.595
 8857SOL    HW127470   6.546   1.549   4.525
 8857SOL    HW227471   6.470   1.436   4.615
 8858SOL     OW27472   0.279   4.066   4.293
 8858SOL    HW127473   0.271   4.105   4.201
 8858SOL    HW227474   0.306   3.970   4.286
 8859SOL     OW27475   1.170   1.065   3.766
 8859SOL    HW127476   1.091   1.019   3.808
 8859SOL    HW227477   1.166   1.053   3.667
 8860SOL     OW27478   6.833   1.956   1.505
 8860SOL    HW127479   6.912   1.971   1.564
 8860SOL    HW227480   6.752   1.997   1.546
 8861SOL     OW27481   4.174   1.351   6.688
 8861SOL    HW127482   4.076   1.344   6.670
 8861SOL    HW227483   4.190   1.343   6.787
 8862SOL     OW27484   5.506   6.906   3.977
 8862SOL    HW127485   5.413   6.871   3.963
 8862SOL    HW227486   5.541   6.873   4.065
 8863SOL     OW27487   2.209   4.635   3.185
 8863SOL    HW127488   2.209   4.702   3.259
 8863SOL    HW227489   2.299   4.592   3.177
 8864SOL     OW27490   3.727   4.453   5.946
 8864SOL    HW127491   3.667   4.530   5.923
 8864SOL    HW227492   3.673   4.381   5.990
 8865SOL     OW27493   3.738   0.769   4.739
 8865SOL    HW127494   3.697   0.860   4.730
 8865SOL    HW227495   3.686   0.704   4.683
 8866SOL     OW27496   5.728   6.713   3.132
 8866SOL    HW127497   5.788   6.652   3.080
 8866SOL    HW227498   5.637   6.672   3.140
 8867SOL     OW27499   5.729   4.360   3.347
 8867SOL    HW127500   5.763   4.319   3.432
 8867SOL    HW227501   5.757   4.303   3.270
 8868SOL     OW27502   6.884   3.303   2.382
 8868SOL    HW127503   6.921   3.225   2.331
 8868SOL    HW227504   6.945   3.382   2.371
 8869SOL     OW27505   4.326   5.922   5.250
 8869SOL    HW127506   4.366   5.854   5.188
 8869SOL    HW227507   4.360   6.013   5.225
 8870SOL     OW27508   1.710   6.526   1.826
 8870SOL    HW127509   1.689   6.468   1.905
 8870SOL    HW227510   1.726   6.619   1.857
 8871SOL     OW27511   2.123   0.793   3.459
 8871SOL    HW127512   2.032   0.819   3.428
 8871SOL    HW227513   2.192   0.836   3.400
 8872SOL     OW27514   1.070   5.020   5.897
 8872SOL    HW127515   1.091   5.081   5.821
 8872SOL    HW227516   1.065   5.073   5.982
 8873SOL     OW27517   1.797   6.764   1.894
 8873SOL    HW127518   1.890   6.799   1.900
 8873SOL    HW227519   1.737   6.819   1.952
 8874SOL     OW27520   1.672   5.731   2.361
 8874SOL    HW127521   1.629   5.789   2.430
 8874SOL    HW227522   1.627   5.643   2.358
 8875SOL     OW27523   6.911   3.541   4.407
 8875SOL    HW127524   6.934   3.448   4.434
 8875SOL    HW227525   6.902   3.598   4.489
 8876SOL     OW27526   2.651   0.989   6.327
 8876SOL    HW127527   2.565   0.992   6.378
 8876SOL    HW227528   2.675   1.081   6.296
 8877SOL     OW27529   1.919   2.702   3.418
 8877SOL    HW127530   1.830   2.746   3.423
 8877SOL    HW227531   1.934   2.668   3.325
 8878SOL     OW27532   3.381   5.204   1.178
 8878SOL    HW127533   3.436   5.145   1.238
 8878SOL    HW227534   3.411   5.299   1.187
 8879SOL     OW27535   5.480   4.933   2.311
 8879SOL    HW127536   5.577   4.910   2.304
 8879SOL    HW227537   5.456   4.946   2.407
 8880SOL     OW27538   4.302   6.364   5.129
 8880SOL    HW127539   4.255   6.403   5.208
 8880SOL    HW227540   4.340   6.275   5.154
 8881SOL     OW27541   5.246   5.516   4.374
 8881SOL    HW127542   5.219   5.593   4.432
 8881SOL    HW227543   5.329   5.474   4.410
 8882SOL     OW27544   4.478   0.999   1.270
 8882SOL    HW127545   4.449   1.060   1.196
 8882SOL    HW227546   4.569   0.963   1.249
 8883SOL     OW27547   1.353   6.447   6.061
 8883SOL    HW127548   1.331   6.545   6.061
 8883SOL    HW227549   1.281   6.397   6.013
 8884SOL     OW27550   6.068   3.691   5.973
 8884SOL    HW127551   6.118   3.687   5.887
 8884SOL    HW227552   5.972   3.671   5.957
 8885SOL     OW27553   4.789   4.749   0.798
 8885SOL    HW127554   4.695   4.775   0.819
 8885SOL    HW227555   4.790   4.656   0.760
 8886SOL     OW27556   3.549   5.888   5.885
 8886SOL    HW127557   3.601   5.810   5.849
 8886SOL    HW227558   3.596   5.925   5.965
 8887SOL     OW27559   3.748   1.006   0.934
 8887SOL    HW127560   3.804   1.089   0.930
 8887SOL    HW227561   3.803   0.931   0.970
 8888SOL     OW27562   1.759   2.446   4.732
 8888SOL    HW127563   1.828   2.512   4.760
 8888SOL    HW227564   1.717   2.403   4.812
 8889SOL     OW27565   0.188   6.396   6.398
 8889SOL    HW127566   0.152   6.401   6.492
 8889SOL    HW227567   0.128   6.339   6.342
 8890SOL     OW27568   0.917   6.193   6.199
 8890SOL    HW127569   0.945   6.104   6.163
 8890SOL    HW227570   0.826   6.185   6.239
 8891SOL     OW27571   4.361   4.662   0.243
 8891SOL    HW127572   4.287   4.635   0.182
 8891SOL    HW227573   4.339   4.633   0.337
 8892SOL     OW27574   3.597   4.905   3.373
 8892SOL    HW127575   3.521   4.875   3.429
 8892SOL    HW227576   3.683   4.886   3.420
 8893SOL     OW27577   1.276   5.137   4.917
 8893SOL    HW127578   1.284   5.206   4.989
 8893SOL    HW227579   1.195   5.080   4.934
 8894SOL     OW27580   3.339   1.842   6.796
 8894SOL    HW127581   3.429   1.879   6.820
 8894SOL    HW227582   3.291   1.908   6.738
 8895SOL     OW27583   0.291   2.443   1.124
 8895SOL    HW127584   0.280   2.354   1.167
 8895SOL    HW227585   0.202   2.487   1.113
 8896SOL     OW27586   1.620   3.274   4.271
 8896SOL    HW127587   1.525   3.276   4.240
 8896SOL    HW227588   1.659   3.184   4.251
 8897SOL     OW27589   2.160   2.704   3.639
 8897SOL    HW127590   2.083   2.663   3.591
 8897SOL    HW227591   2.234   2.721   3.574
 8898SOL     OW27592   5.544   3.324   2.099
 8898SOL    HW127593   5.561   3.271   2.182
 8898SOL    HW227594   5.592   3.412   2.106
 8899SOL     OW27595   1.423   4.557   0.275
 8899SOL    HW127596   1.499   4.497   0.249
 8899SOL    HW227597   1.364   4.510   0.341
 8900SOL     OW27598   5.511   2.935   3.188
 8900SOL    HW127599   5.411   2.940   3.185
 8900SOL    HW227600   5.548   3.021   3.222
 8901SOL     OW27601   0.660   1.120   3.918
 8901SOL    HW127602   0.714   1.149   3.996
 8901SOL    HW227603   0.568   1.160   3.924
 8902SOL     OW27604   1.466   5.749   6.775
 8902SOL    HW127605   1.383   5.761   6.720
 8902SOL    HW227606   1.443   5.759   6.872
 8903SOL     OW27607   0.852   2.082   4.607
 8903SOL    HW127608   0.792   2.068   4.686
 8903SOL    HW227609   0.881   2.178   4.604
 8904SOL     OW27610   0.687   1.509   4.240
 8904SOL    HW127611   0.678   1.561   4.155
 8904SOL    HW227612   0.715   1.571   4.314
 8905SOL     OW27613   2.163   3.018   2.644
 8905SOL    HW127614   2.165   3.118   2.636
 8905SOL    HW227615   2.190   2.991   2.736
 8906SOL     OW27616   1.495   5.941   0.807
 8906SOL    HW127617   1.590   5.963   0.832
 8906SOL    HW227618   1.451   6.022   0.769
 8907SOL     OW27619   3.444   2.677   5.471
 8907SOL    HW127620   3.444   2.766   5.517
 8907SOL    HW227621   3.400   2.609   5.530
 8908SOL     OW27622   1.817   5.773   6.852
 8908SOL    HW127623   1.886   5.735   6.914
 8908SOL    HW227624   1.745   5.817   6.905
 8909SOL     OW27625   2.791   1.286   6.277
 8909SOL    HW127626   2.818   1.296   6.181
 8909SOL    HW227627   2.746   1.370   6.307
 8910SOL     OW27628   0.566   2.529   5.423
 8910SOL    HW127629   0.613   2.519   5.335
 8910SOL    HW227630   0.523   2.443   5.448
 8911SOL     OW27631   5.208   3.502   4.865
 8911SOL    HW127632   5.160   3.511   4.952
 8911SOL    HW227633   5.289   3.561   4.865
 8912SOL     OW27634   2.307   3.136   6.395
 8912SOL    HW127635   2.263   3.197   6.329
 8912SOL    HW227636   2.266   3.045   6.390
 8913SOL     OW27637   4.135   5.157   6.482
 8913SOL    HW127638   4.222   5.191   6.517
 8913SOL    HW227639   4.143   5.060   6.461
 8914SOL     OW27640   4.979   6.962   4.514
 8914SOL    HW127641   4.947   6.977   4.608
 8914SOL    HW227642   4.939   0.009   4.453
 8915SOL     OW27643   1.153   1.971   4.272
 8915SOL    HW127644   1.177   1.947   4.366
 8915SOL    HW227645   1.171   2.068   4.256
 8916SOL     OW27646   6.405   2.683   6.855
 8916SOL    HW127647   6.394   2.772   6.811
 8916SOL    HW227648   6.462   2.624   6.797
 8917SOL     OW27649   5.495   2.769   1.406
 8917SOL    HW127650   5.397   2.750   1.397
 8917SOL    HW227651   5.536   2.703   1.469
 8918SOL     OW27652   1.067   5.046   0.443
 8918SOL    HW127653   1.048   4.949   0.433
 8918SOL    HW227654   1.031   5.079   0.531
 8919SOL     OW27655   5.296   4.299   6.651
 8919SOL    HW127656   5.320   4.324   6.745
 8919SOL    HW227657   5.310   4.377   6.591
 8920SOL     OW27658   0.647   2.405   0.478
 8920SOL    HW127659   0.567   2.458   0.507
 8920SOL    HW227660   0.707   2.463   0.422
 8921SOL     OW27661   1.805   3.298   2.067
 8921SOL    HW127662   1.707   3.291   2.047
 8921SOL    HW227663   1.828   3.234   2.140
 8922SOL     OW27664   4.328   5.967   1.978
 8922SOL    HW127665   4.284   6.043   1.929
 8922SOL    HW227666   4.290   5.961   2.071
 8923SOL     OW27667   1.728   0.943   6.476
 8923SOL    HW127668   1.691   0.851   6.467
 8923SOL    HW227669   1.808   0.953   6.418
 8924SOL     OW27670   4.517   5.339   5.168
 8924SOL    HW127671   4.494   5.247   5.137
 8924SOL    HW227672   4.435   5.396   5.172
 8925SOL     OW27673   7.019   0.400   2.860
 8925SOL    HW127674   0.081   0.449   2.835
 8925SOL    HW227675   6.954   0.404   2.784
 8926SOL     OW27676   0.127   3.208   5.138
 8926SOL    HW127677   0.029   3.195   5.122
 8926SOL    HW227678   0.161   3.132   5.194
 8927SOL     OW27679   5.981   1.533   4.707
 8927SOL    HW127680   5.918   1.457   4.689
 8927SOL    HW227681   6.000   1.539   4.805
 8928SOL     OW27682   1.703   0.233   6.096
 8928SOL    HW127683   1.801   0.246   6.082
 8928SOL    HW227684   1.685   0.214   6.192
 8929SOL     OW27685   6.351   1.979   5.286
 8929SOL    HW127686   6.290   2.050   5.319
 8929SOL    HW227687   6.386   1.926   5.363
 8930SOL     OW27688   0.695   2.664   2.887
 8930SOL    HW127689   0.621   2.615   2.934
 8930SOL    HW227690   0.664   2.691   2.796
 8931SOL     OW27691   3.062   3.929   1.565
 8931SOL    HW127692   2.994   3.893   1.630
 8931SOL    HW227693   3.018   3.945   1.477
 8932SOL     OW27694   6.407   1.857   2.378
 8932SOL    HW127695   6.334   1.837   2.313
 8932SOL    HW227696   6.495   1.856   2.331
 8933SOL     OW27697   2.952   2.370   6.468
 8933SOL    HW127698   3.047   2.352   6.441
 8933SOL    HW227699   2.934   2.468   6.466
 8934SOL     OW27700   3.568   4.956   5.023
 8934SOL    HW127701   3.470   4.944   5.006
 8934SOL    HW227702   3.596   4.894   5.096
 8935SOL     OW27703   0.137   4.075   0.389
 8935SOL    HW127704   0.111   4.078   0.486
 8935SOL    HW227705   0.172   3.984   0.367
 8936SOL     OW27706   1.661   4.061   1.710
 8936SOL    HW127707   1.682   4.042   1.614
 8936SOL    HW227708   1.672   4.159   1.728
 8937SOL     OW27709   0.205   0.440   5.434
 8937SOL    HW127710   0.187   0.344   5.453
 8937SOL    HW227711   0.255   0.449   5.349
 8938SOL     OW27712   0.536   5.441   0.865
 8938SOL    HW127713   0.475   5.491   0.927
 8938SOL    HW227714   0.561   5.354   0.906
 8939SOL     OW27715   4.845   2.958   4.274
 8939SOL    HW127716   4.851   2.910   4.362
 8939SOL    HW227717   4.790   2.904   4.210
 8940SOL     OW27718   0.255   1.245   3.277
 8940SOL    HW127719   0.293   1.236   3.369
 8940SOL    HW227720   0.176   1.306   3.279
 8941SOL     OW27721   6.382   2.500   5.419
 8941SOL    HW127722   6.469   2.520   5.465
 8941SOL    HW227723   6.309   2.493   5.487
 8942SOL     OW27724   0.004   4.632   5.184
 8942SOL    HW127725   0.059   4.549   5.183
 8942SOL    HW227726   6.928   4.608   5.186
 8943SOL     OW27727   4.024   4.687   6.949
 8943SOL    HW127728   3.990   4.711   0.019
 8943SOL    HW227729   4.023   4.588   6.938
 8944SOL     OW27730   5.431   4.551   5.163
 8944SOL    HW127731   5.405   4.469   5.214
 8944SOL    HW227732   5.416   4.536   5.065
 8945SOL     OW27733   1.297   0.777   3.635
 8945SOL    HW127734   1.256   0.861   3.600
 8945SOL    HW227735   1.229   0.703   3.632
 8946SOL     OW27736   3.044   1.156   5.129
 8946SOL    HW127737   3.115   1.094   5.161
 8946SOL    HW227738   3.076   1.251   5.137
 8947SOL     OW27739   1.826   3.507   4.705
 8947SOL    HW127740   1.906   3.475   4.755
 8947SOL    HW227741   1.746   3.451   4.730
 8948SOL     OW27742   6.520   6.434   3.919
 8948SOL    HW127743   6.580   6.478   3.986
 8948SOL    HW227744   6.509   6.494   3.840
 8949SOL     OW27745   2.386   6.746   0.946
 8949SOL    HW127746   2.470   6.800   0.951
 8949SOL    HW227747   2.408   6.653   0.916
 8950SOL     OW27748   4.881   3.874   6.020
 8950SOL    HW127749   4.806   3.817   5.985
 8950SOL    HW227750   4.963   3.858   5.965
 8951SOL     OW27751   0.479   1.975   5.014
 8951SOL    HW127752   0.488   1.923   5.099
 8951SOL    HW227753   0.393   1.952   4.969
 8952SOL     OW27754   1.617   6.948   2.477
 8952SOL    HW127755   1.703   6.898   2.471
 8952SOL    HW227756   1.579   6.939   2.568
 8953SOL     OW27757   1.111   3.971   6.747
 8953SOL    HW127758   1.102   4.035   6.671
 8953SOL    HW227759   1.184   3.905   6.727
 8954SOL     OW27760   1.335   6.870   5.976
 8954SOL    HW127761   1.422   6.880   5.928
 8954SOL    HW227762   1.326   6.942   6.045
 8955SOL     OW27763   0.673   5.073   2.143
 8955SOL    HW127764   0.607   5.007   2.107
 8955SOL    HW227765   0.734   5.103   2.070
 8956SOL     OW27766   0.483   1.510   6.707
 8956SOL    HW127767   0.570   1.528   6.754
 8956SOL    HW227768   0.467   1.411   6.703
 8957SOL     OW27769   3.091   4.446   1.650
 8957SOL    HW127770   3.000   4.442   1.690
 8957SOL    HW227771   3.140   4.360   1.669
 8958SOL     OW27772   1.129   0.270   4.605
 8958SOL    HW127773   1.145   0.173   4.624
 8958SOL    HW227774   1.077   0.310   4.680
 8959SOL     OW27775   1.606   4.653   1.708
 8959SOL    HW127776   1.556   4.568   1.720
 8959SOL    HW227777   1.542   4.727   1.686
 8960SOL     OW27778   4.608   5.463   2.853
 8960SOL    HW127779   4.660   5.545   2.877
 8960SOL    HW227780   4.561   5.478   2.766
 8961SOL     OW27781   2.471   2.169   4.381
 8961SOL    HW127782   2.538   2.200   4.449
 8961SOL    HW227783   2.382   2.210   4.400
 8962SOL     OW27784   6.727   6.602   2.350
 8962SOL    HW127785   6.632   6.588   2.323
 8962SOL    HW227786   6.783   6.526   2.317
 8963SOL     OW27787   5.155   6.702   4.161
 8963SOL    HW127788   5.078   6.638   4.161
 8963SOL    HW227789   5.180   6.724   4.066
 8964SOL     OW27790   5.471   3.614   3.257
 8964SOL    HW127791   5.434   3.694   3.303
 8964SOL    HW227792   5.403   3.540   3.259
 8965SOL     OW27793   2.343   4.724   0.663
 8965SOL    HW127794   2.316   4.737   0.758
 8965SOL    HW227795   2.388   4.635   0.653
 8966SOL     OW27796   0.509   4.467   5.664
 8966SOL    HW127797   0.526   4.421   5.577
 8966SOL    HW227798   0.490   4.399   5.735
 8967SOL     OW27799   3.569   6.475   2.104
 8967SOL    HW127800   3.494   6.505   2.163
 8967SOL    HW227801   3.619   6.401   2.149
 8968SOL     OW27802   5.102   4.706   3.075
 8968SOL    HW127803   5.067   4.796   3.102
 8968SOL    HW227804   5.171   4.676   3.140
 8969SOL     OW27805   6.719   0.423   4.107
 8969SOL    HW127806   6.811   0.448   4.078
 8969SOL    HW227807   6.655   0.436   4.031
 8970SOL     OW27808   2.282   2.919   0.221
 8970SOL    HW127809   2.347   2.888   0.290
 8970SOL    HW227810   2.332   2.941   0.137
 8971SOL     OW27811   4.866   5.382   1.896
 8971SOL    HW127812   4.797   5.328   1.945
 8971SOL    HW227813   4.922   5.322   1.839
 8972SOL     OW27814   5.045   4.875   6.689
 8972SOL    HW127815   5.087   4.800   6.638
 8972SOL    HW227816   5.069   4.866   6.786
 8973SOL     OW27817   1.101   3.384   2.122
 8973SOL    HW127818   1.091   3.365   2.220
 8973SOL    HW227819   1.160   3.463   2.109
 8974SOL     OW27820   1.578   4.615   5.555
 8974SOL    HW127821   1.667   4.657   5.575
 8974SOL    HW227822   1.508   4.652   5.616
 8975SOL     OW27823   2.336   0.302   6.667
 8975SOL    HW127824   2.391   0.384   6.654
 8975SOL    HW227825   2.387   0.236   6.722
 8976SOL     OW27826   7.004   4.898   5.051
 8976SOL    HW127827   6.997   4.867   4.956
 8976SOL    HW227828   6.984   4.821   5.113
 8977SOL     OW27829   5.450   1.674   6.998
 8977SOL    HW127830   5.478   1.669   6.902
 8977SOL    HW227831   5.373   1.613   7.014
 8978SOL     OW27832   5.578   0.004   5.952
 8978SOL    HW127833   5.655   6.971   5.921
 8978SOL    HW227834   5.504   6.965   5.981
 8979SOL     OW27835   1.380   2.930   4.841
 8979SOL    HW127836   1.307   2.879   4.796
 8979SOL    HW227837   1.399   2.890   4.930
 8980SOL     OW27838   2.219   2.925   5.267
 8980SOL    HW127839   2.212   2.826   5.252
 8980SOL    HW227840   2.301   2.960   5.222
 8981SOL     OW27841   4.666   1.880   5.326
 8981SOL    HW127842   4.734   1.890   5.399
 8981SOL    HW227843   4.712   1.884   5.237
 8982SOL     OW27844   1.978   1.767   0.734
 8982SOL    HW127845   2.075   1.741   0.732
 8982SOL    HW227846   1.954   1.798   0.826
 8983SOL     OW27847   1.711   6.168   6.652
 8983SOL    HW127848   1.763   6.253   6.662
 8983SOL    HW227849   1.650   6.175   6.573
 8984SOL     OW27850   0.500   6.932   4.172
 8984SOL    HW127851   0.568   6.859   4.172
 8984SOL    HW227852   0.450   6.931   4.086
 8985SOL     OW27853   2.600   3.396   0.715
 8985SOL    HW127854   2.633   3.401   0.620
 8985SOL    HW227855   2.549   3.311   0.728
 8986SOL     OW27856   4.393   5.658   2.352
 8986SOL    HW127857   4.330   5.704   2.415
 8986SOL    HW227858   4.347   5.578   2.312
 8987SOL     OW27859   4.524   6.967   1.668
 8987SOL    HW127860   4.536   7.020   1.585
 8987SOL    HW227861   4.461   7.015   1.730
 8988SOL     OW27862   1.078   4.366   4.966
 8988SOL    HW127863   1.069   4.378   4.867
 8988SOL    HW227864   0.991   4.389   5.010
 8989SOL     OW27865   5.132   3.484   0.543
 8989SOL    HW127866   5.100   3.415   0.478
 8989SOL    HW227867   5.198   3.544   0.498
 8990SOL     OW27868   1.601   5.829   4.556
 8990SOL    HW127869   1.528   5.761   4.547
 8990SOL    HW227870   1.667   5.798   4.623
 8991SOL     OW27871   1.381   2.609   5.533
 8991SOL    HW127872   1.434   2.586   5.451
 8991SOL    HW227873   1.441   2.612   5.612
 8992SOL     OW27874   5.009   1.173   0.188
 8992SOL    HW127875   5.036   1.077   0.190
 8992SOL    HW227876   4.934   1.188   0.253
 8993SOL     OW27877   4.958   2.652   1.764
 8993SOL    HW127878   4.939   2.705   1.681
 8993SOL    HW227879   5.012   2.708   1.828
 8994SOL     OW27880   0.739   3.961   4.653
 8994SOL    HW127881   0.822   3.932   4.701
 8994SOL    HW227882   0.749   4.056   4.624
 8995SOL     OW27883   1.951   2.418   0.102
 8995SOL    HW127884   1.893   2.496   0.126
 8995SOL    HW227885   1.944   2.399   0.004
 8996SOL     OW27886   5.276   4.762   0.295
 8996SOL    HW127887   5.236   4.851   0.319
 8996SOL    HW227888   5.205   4.692   0.302
 8997SOL     OW27889   5.036   1.727   5.904
 8997SOL    HW127890   5.116   1.769   5.948
 8997SOL    HW227891   4.963   1.718   5.972
 8998SOL     OW27892   6.441   3.241   3.529
 8998SOL    HW127893   6.344   3.249   3.550
 8998SOL    HW227894   6.480   3.331   3.512
 8999SOL     OW27895   4.601   6.222   6.539
 8999SOL    HW127896   4.626   6.148   6.601
 8999SOL    HW227897   4.664   6.299   6.551
 9000SOL     OW27898   1.427   3.386   1.559
 9000SOL    HW127899   1.393   3.426   1.644
 9000SOL    HW227900   1.372   3.306   1.536
 9001SOL     OW27901   1.020   5.469   2.423
 9001SOL    HW127902   1.097   5.530   2.438
 9001SOL    HW227903   1.052   5.374   2.419
 9002SOL     OW27904   1.371   5.151   5.314
 9002SOL    HW127905   1.330   5.196   5.235
 9002SOL    HW227906   1.387   5.055   5.292
 9003SOL     OW27907   5.832   3.174   1.875
 9003SOL    HW127908   5.840   3.153   1.973
 9003SOL    HW227909   5.828   3.273   1.862
 9004SOL     OW27910   4.040   6.012   1.211
 9004SOL    HW127911   4.053   6.018   1.310
 9004SOL    HW227912   4.104   5.945   1.173
 9005SOL     OW27913   6.022   2.415   4.639
 9005SOL    HW127914   6.118   2.441   4.642
 9005SOL    HW227915   5.965   2.496   4.627
 9006SOL     OW27916   2.182   5.510   0.978
 9006SOL    HW127917   2.238   5.475   0.903
 9006SOL    HW227918   2.222   5.481   1.065
 9007SOL     OW27919   3.504   0.839   3.390
 9007SOL    HW127920   3.514   0.937   3.378
 9007SOL    HW227921   3.432   0.821   3.456
 9008SOL     OW27922   1.401   5.513   3.706
 9008SOL    HW127923   1.433   5.471   3.791
 9008SOL    HW227924   1.447   5.469   3.629
 9009SOL     OW27925   3.032   6.474   0.530
 9009SOL    HW127926   3.122   6.474   0.574
 9009SOL    HW227927   2.961   6.478   0.601
 9010SOL     OW27928   1.439   6.630   3.916
 9010SOL    HW127929   1.524   6.621   3.864
 9010SOL    HW227930   1.460   6.633   4.014
 9011SOL     OW27931   5.075   1.690   1.633
 9011SOL    HW127932   5.011   1.613   1.626
 9011SOL    HW227933   5.160   1.667   1.586
 9012SOL     OW27934   1.898   4.340   0.322
 9012SOL    HW127935   1.876   4.358   0.227
 9012SOL    HW227936   1.996   4.325   0.332
 9013SOL     OW27937   0.413   6.574   5.436
 9013SOL    HW127938   0.509   6.578   5.465
 9013SOL    HW227939   0.367   6.659   5.463
 9014SOL     OW27940   6.881   2.344   0.732
 9014SOL    HW127941   6.789   2.330   0.769
 9014SOL    HW227942   6.879   2.418   0.665
 9015SOL     OW27943   4.637   2.120   1.724
 9015SOL    HW127944   4.543   2.090   1.742
 9015SOL    HW227945   4.690   2.043   1.688
 9016SOL     OW27946   0.005   6.889   6.338
 9016SOL    HW127947   6.941   6.936   6.316
 9016SOL    HW227948   0.046   6.853   6.254
 9017SOL     OW27949   4.562   1.948   3.837
 9017SOL    HW127950   4.566   1.863   3.786
 9017SOL    HW227951   4.595   2.023   3.780
 9018SOL     OW27952   3.371   2.972   6.837
 9018SOL    HW127953   3.318   2.981   6.921
 9018SOL    HW227954   3.419   3.058   6.818
 9019SOL     OW27955   1.523   5.388   2.542
 9019SOL    HW127956   1.465   5.455   2.589
 9019SOL    HW227957   1.550   5.424   2.453
 9020SOL     OW27958   6.766   4.132   0.720
 9020SOL    HW127959   6.842   4.184   0.758
 9020SOL    HW227960   6.747   4.053   0.779
 9021SOL     OW27961   7.004   0.137   3.917
 9021SOL    HW127962   0.018   0.109   4.005
 9021SOL    HW227963   6.974   0.233   3.922
 9022SOL     OW27964   3.250   1.399   6.566
 9022SOL    HW127965   3.250   1.499   6.573
 9022SOL    HW227966   3.186   1.361   6.633
 9023SOL     OW27967   3.631   2.926   2.404
 9023SOL    HW127968   3.563   2.865   2.444
 9023SOL    HW227969   3.600   3.020   2.410
 9024SOL     OW27970   0.797   3.812   5.016
 9024SOL    HW127971   0.764   3.848   5.104
 9024SOL    HW227972   0.851   3.729   5.032
 9025SOL     OW27973   1.200   5.557   0.969
 9025SOL    HW127974   1.151   5.620   1.029
 9025SOL    HW227975   1.195   5.589   0.874
 9026SOL     OW27976   3.832   2.709   0.871
 9026SOL    HW127977   3.749   2.763   0.888
 9026SOL    HW227978   3.807   2.615   0.848
 9027SOL     OW27979   1.464   2.622   3.424
 9027SOL    HW127980   1.509   2.690   3.366
 9027SOL    HW227981   1.529   2.551   3.450
 9028SOL     OW27982   2.872   3.355   5.263
 9028SOL    HW127983   2.962   3.336   5.301
 9028SOL    HW227984   2.845   3.449   5.285
 9029SOL     OW27985   4.050   6.762   4.804
 9029SOL    HW127986   4.074   6.735   4.711
 9029SOL    HW227987   4.108   6.838   4.833
 9030SOL     OW27988   2.871   1.796   3.335
 9030SOL    HW127989   2.943   1.727   3.347
 9030SOL    HW227990   2.902   1.884   3.373
 9031SOL     OW27991   4.317   6.112   4.510
 9031SOL    HW127992   4.319   6.067   4.420
 9031SOL    HW227993   4.312   6.211   4.497
 9032SOL     OW27994   3.624   3.552   1.001
 9032SOL    HW127995   3.630   3.472   0.941
 9032SOL    HW227996   3.585   3.525   1.090
 9033SOL     OW27997   0.081   4.408   3.252
 9033SOL    HW127998   0.074   4.505   3.275
 9033SOL    HW227999   0.174   4.387   3.223
 9034SOL     OW28000   3.001   6.398   4.571
 9034SOL    HW128001   2.997   6.497   4.578
 9034SOL    HW228002   3.096   6.368   4.569
 9035SOL     OW28003   2.512   4.237   0.082
 9035SOL    HW128004   2.499   4.318   0.025
 9035SOL    HW228005   2.598   4.244   0.131
 9036SOL     OW28006   2.216   2.409   5.291
 9036SOL    HW128007   2.236   2.504   5.269
 9036SOL    HW228008   2.118   2.391   5.278
 9037SOL     OW28009   0.940   3.884   4.791
 9037SOL    HW128010   0.897   3.868   4.880
 9037SOL    HW228011   1.037   3.860   4.796
 9038SOL     OW28012   4.106   0.796   6.309
 9038SOL    HW128013   4.015   0.808   6.269
 9038SOL    HW228014   4.174   0.786   6.236
 9039SOL     OW28015   2.189   5.479   5.772
 9039SOL    HW128016   2.239   5.566   5.768
 9039SOL    HW228017   2.254   5.404   5.780
 9040SOL     OW28018   3.223   2.069   2.760
 9040SOL    HW128019   3.179   2.094   2.674
 9040SOL    HW228020   3.319   2.049   2.744
 9041SOL     OW28021   1.103   1.872   1.619
 9041SOL    HW128022   1.163   1.825   1.684
 9041SOL    HW228023   1.141   1.865   1.527
 9042SOL     OW28024   4.273   6.639   5.065
 9042SOL    HW128025   4.193   6.648   5.125
 9042SOL    HW228026   4.306   6.545   5.066
 9043SOL     OW28027   1.157   0.406   0.024
 9043SOL    HW128028   1.122   0.330   0.080
 9043SOL    HW228029   1.249   0.384   7.015
 9044SOL     OW28030   6.295   0.390   0.717
 9044SOL    HW128031   6.290   0.290   0.718
 9044SOL    HW228032   6.289   0.423   0.623
 9045SOL     OW28033   3.254   1.921   2.393
 9045SOL    HW128034   3.302   1.835   2.408
 9045SOL    HW228035   3.241   1.934   2.295
 9046SOL     OW28036   3.515   3.760   2.849
 9046SOL    HW128037   3.482   3.691   2.785
 9046SOL    HW228038   3.572   3.717   2.919
 9047SOL     OW28039   1.794   3.823   5.301
 9047SOL    HW128040   1.858   3.885   5.347
 9047SOL    HW228041   1.794   3.735   5.347
 9048SOL     OW28042   5.755   3.385   5.515
 9048SOL    HW128043   5.683   3.430   5.569
 9048SOL    HW228044   5.715   3.311   5.462
 9049SOL     OW28045   3.551   6.938   6.044
 9049SOL    HW128046   3.531   6.854   5.993
 9049SOL    HW228047   3.575   7.010   5.979
 9050SOL     OW28048   1.096   3.349   0.829
 9050SOL    HW128049   1.157   3.407   0.775
 9050SOL    HW228050   1.003   3.353   0.791
 9051SOL     OW28051   3.874   0.122   1.254
 9051SOL    HW128052   3.917   0.118   1.164
 9051SOL    HW228053   3.908   0.202   1.303
 9052SOL     OW28054   2.458   2.114   3.675
 9052SOL    HW128055   2.473   2.065   3.589
 9052SOL    HW228056   2.393   2.188   3.661
 9053SOL     OW28057   1.853   1.086   2.708
 9053SOL    HW128058   1.781   1.051   2.647
 9053SOL    HW228059   1.942   1.055   2.674
 9054SOL     OW28060   2.966   5.852   3.909
 9054SOL    HW128061   2.879   5.848   3.861
 9054SOL    HW228062   3.030   5.909   3.857
 9055SOL     OW28063   5.958   2.856   4.473
 9055SOL    HW128064   5.960   2.955   4.463
 9055SOL    HW228065   5.912   2.815   4.394
 9056SOL     OW28066   0.572   2.428   1.840
 9056SOL    HW128067   0.612   2.489   1.772
 9056SOL    HW228068   0.477   2.407   1.815
 9057SOL     OW28069   5.007   3.370   5.952
 9057SOL    HW128070   5.098   3.348   5.916
 9057SOL    HW228071   4.981   3.462   5.922
 9058SOL     OW28072   2.126   0.923   1.891
 9058SOL    HW128073   2.043   0.954   1.843
 9058SOL    HW228074   2.199   0.990   1.876
 9059SOL     OW28075   1.808   1.580   3.208
 9059SOL    HW128076   1.848   1.580   3.117
 9059SOL    HW228077   1.708   1.586   3.200
 9060SOL     OW28078   6.404   2.865   4.237
 9060SOL    HW128079   6.503   2.872   4.225
 9060SOL    HW228080   6.381   2.772   4.266
 9061SOL     OW28081   2.188   5.509   1.978
 9061SOL    HW128082   2.232   5.473   1.896
 9061SOL    HW228083   2.202   5.607   1.983
 9062SOL     OW28084   1.526   6.634   2.205
 9062SOL    HW128085   1.490   6.639   2.112
 9062SOL    HW228086   1.621   6.665   2.206
 9063SOL     OW28087   3.252   0.623   3.983
 9063SOL    HW128088   3.320   0.589   4.048
 9063SOL    HW228089   3.299   0.662   3.903
 9064SOL     OW28090   6.240   2.562   5.821
 9064SOL    HW128091   6.235   2.631   5.893
 9064SOL    HW228092   6.335   2.548   5.795
 9065SOL     OW28093   3.774   0.959   6.660
 9065SOL    HW128094   3.779   0.927   6.754
 9065SOL    HW228095   3.863   0.950   6.616
 9066SOL     OW28096   5.215   6.859   0.561
 9066SOL    HW128097   5.168   6.905   0.486
 9066SOL    HW228098   5.241   6.766   0.533
 9067SOL     OW28099   1.015   0.447   4.312
 9067SOL    HW128100   1.021   0.495   4.225
 9067SOL    HW228101   1.082   0.373   4.314
 9068SOL     OW28102   1.849   6.235   4.271
 9068SOL    HW128103   1.946   6.213   4.261
 9068SOL    HW228104   1.794   6.157   4.241
 9069SOL     OW28105   1.398   2.876   1.633
 9069SOL    HW128106   1.429   2.843   1.544
 9069SOL    HW228107   1.475   2.874   1.698
 9070SOL     OW28108   1.439   3.151   5.109
 9070SOL    HW128109   1.430   3.171   5.206
 9070SOL    HW228110   1.409   3.229   5.055
 9071SOL     OW28111   6.357   6.930   1.789
 9071SOL    HW128112   6.301   6.889   1.860
 9071SOL    HW228113   6.316   6.913   1.699
 9072SOL     OW28114   0.445   2.287   0.809
 9072SOL    HW128115   0.409   2.364   0.757
 9072SOL    HW228116   0.536   2.310   0.844
 9073SOL     OW28117   2.702   6.590   2.581
 9073SOL    HW128118   2.699   6.505   2.529
 9073SOL    HW228119   2.777   6.586   2.648
 9074SOL     OW28120   1.249   0.663   2.354
 9074SOL    HW128121   1.333   0.667   2.301
 9074SOL    HW228122   1.172   0.641   2.293
 9075SOL     OW28123   0.050   0.686   2.174
 9075SOL    HW128124   0.031   0.722   2.083
 9075SOL    HW228125   0.149   0.683   2.188
 9076SOL     OW28126   0.083   2.277   5.891
 9076SOL    HW128127   0.116   2.216   5.963
 9076SOL    HW228128   0.041   2.224   5.818
 9077SOL     OW28129   4.900   0.476   0.539
 9077SOL    HW128130   4.972   0.508   0.477
 9077SOL    HW228131   4.849   0.403   0.494
 9078SOL     OW28132   3.718   3.624   5.045
 9078SOL    HW128133   3.797   3.565   5.063
 9078SOL    HW228134   3.714   3.645   4.948
 9079SOL     OW28135   2.580   0.809   4.417
 9079SOL    HW128136   2.501   0.802   4.478
 9079SOL    HW228137   2.639   0.729   4.430
 9080SOL     OW28138   4.981   2.594   6.374
 9080SOL    HW128139   5.021   2.602   6.465
 9080SOL    HW228140   4.975   2.684   6.332
 9081SOL     OW28141   4.098   6.907   2.262
 9081SOL    HW128142   4.148   6.844   2.203
 9081SOL    HW228143   4.065   6.984   2.207
 9082SOL     OW28144   2.507   0.172   5.479
 9082SOL    HW128145   2.551   0.149   5.392
 9082SOL    HW228146   2.412   0.141   5.478
 9083SOL     OW28147   3.685   5.344   5.970
 9083SOL    HW128148   3.748   5.336   6.047
 9083SOL    HW228149   3.598   5.300   5.993
 9084SOL     OW28150   3.293   3.802   3.162
 9084SOL    HW128151   3.260   3.885   3.117
 9084SOL    HW228152   3.351   3.750   3.099
 9085SOL     OW28153   2.228   0.429   1.032
 9085SOL    HW128154   2.200   0.452   1.125
 9085SOL    HW228155   2.155   0.455   0.968
 9086SOL     OW28156   0.724   4.398   0.335
 9086SOL    HW128157   0.776   4.372   0.253
 9086SOL    HW228158   0.710   4.497   0.336
 9087SOL     OW28159   4.733   2.383   1.250
 9087SOL    HW128160   4.791   2.463   1.265
 9087SOL    HW228161   4.645   2.397   1.295
 9088SOL     OW28162   6.650   6.784   1.141
 9088SOL    HW128163   6.597   6.787   1.056
 9088SOL    HW228164   6.599   6.830   1.213
 9089SOL     OW28165   5.367   6.083   5.604
 9089SOL    HW128166   5.415   6.123   5.526
 9089SOL    HW228167   5.269   6.080   5.585
 9090SOL     OW28168   6.224   0.930   5.235
 9090SOL    HW128169   6.217   0.837   5.269
 9090SOL    HW228170   6.140   0.956   5.187
 9091SOL     OW28171   2.904   3.959   0.042
 9091SOL    HW128172   2.833   3.917   0.099
 9091SOL    HW228173   2.896   4.058   0.046
 9092SOL     OW28174   6.560   0.789   6.841
 9092SOL    HW128175   6.511   0.702   6.841
 9092SOL    HW228176   6.609   0.801   6.755
 9093SOL     OW28177   1.464   6.075   4.980
 9093SOL    HW128178   1.483   6.135   5.058
 9093SOL    HW228179   1.538   6.082   4.914
 9094SOL     OW28180   6.261   4.684   2.834
 9094SOL    HW128181   6.176   4.697   2.783
 9094SOL    HW228182   6.277   4.763   2.893
 9095SOL     OW28183   4.745   4.938   6.650
 9095SOL    HW128184   4.841   4.908   6.649
 9095SOL    HW228185   4.706   4.927   6.559
 9096SOL     OW28186   6.456   5.306   2.905
 9096SOL    HW128187   6.483   5.365   2.982
 9096SOL    HW228188   6.394   5.234   2.938
 9097SOL     OW28189   2.181   2.262   0.505
 9097SOL    HW128190   2.099   2.313   0.529
 9097SOL    HW228191   2.156   2.172   0.469
 9098SOL     OW28192   2.865   1.874   4.800
 9098SOL    HW128193   2.844   1.828   4.714
 9098SOL    HW228194   2.900   1.966   4.781
 9099SOL     OW28195   2.804   3.168   6.176
 9099SOL    HW128196   2.816   3.262   6.206
 9099SOL    HW228197   2.720   3.130   6.217
 9100SOL     OW28198   0.770   3.530   3.123
 9100SOL    HW128199   0.734   3.440   3.147
 9100SOL    HW228200   0.861   3.520   3.083
 9101SOL     OW28201   2.771   1.456   2.319
 9101SOL    HW128202   2.720   1.527   2.268
 9101SOL    HW228203   2.746   1.461   2.416
 9102SOL     OW28204   3.176   6.284   2.005
 9102SOL    HW128205   3.100   6.221   2.024
 9102SOL    HW228206   3.219   6.258   1.919
 9103SOL     OW28207   5.798   1.707   0.400
 9103SOL    HW128208   5.783   1.783   0.463
 9103SOL    HW228209   5.741   1.720   0.319
 9104SOL     OW28210   0.137   6.899   1.624
 9104SOL    HW128211   0.209   6.966   1.644
 9104SOL    HW228212   0.169   6.837   1.552
 9105SOL     OW28213   1.245   0.238   5.228
 9105SOL    HW128214   1.209   0.276   5.313
 9105SOL    HW228215   1.337   0.203   5.243
 9106SOL     OW28216   6.968   2.880   0.658
 9106SOL    HW128217   6.903   2.899   0.585
 9106SOL    HW228218   6.918   2.864   0.743
 9107SOL     OW28219   1.893   0.701   0.112
 9107SOL    HW128220   1.901   0.795   0.143
 9107SOL    HW228221   1.871   0.699   0.015
 9108SOL     OW28222   4.515   4.069   5.843
 9108SOL    HW128223   4.545   3.975   5.856
 9108SOL    HW228224   4.422   4.079   5.880
 9109SOL     OW28225   4.866   3.220   3.136
 9109SOL    HW128226   4.805   3.279   3.189
 9109SOL    HW228227   4.852   3.237   3.038
 9110SOL     OW28228   1.453   5.441   3.992
 9110SOL    HW128229   1.529   5.379   3.976
 9110SOL    HW228230   1.487   5.524   4.038
 9111SOL     OW28231   4.428   3.153   6.897
 9111SOL    HW128232   4.478   3.097   6.962
 9111SOL    HW228233   4.397   3.237   6.942
 9112SOL     OW28234   1.498   5.128   2.625
 9112SOL    HW128235   1.518   5.225   2.609
 9112SOL    HW228236   1.503   5.078   2.539
 9113SOL     OW28237   5.116   2.441   3.289
 9113SOL    HW128238   5.099   2.348   3.257
 9113SOL    HW228239   5.207   2.470   3.260
 9114SOL     OW28240   0.773   5.578   4.023
 9114SOL    HW128241   0.730   5.508   3.966
 9114SOL    HW228242   0.719   5.662   4.020
 9115SOL     OW28243   5.933   5.487   4.628
 9115SOL    HW128244   5.883   5.473   4.713
 9115SOL    HW228245   6.023   5.525   4.649
 9116SOL     OW28246   6.859   0.048   3.013
 9116SOL    HW128247   6.840   7.009   2.936
 9116SOL    HW228248   6.821   0.139   2.994
 9117SOL     OW28249   4.478   2.303   6.610
 9117SOL    HW128250   4.421   2.382   6.631
 9117SOL    HW228251   4.497   2.301   6.512
 9118SOL     OW28252   6.418   3.385   0.212
 9118SOL    HW128253   6.360   3.430   0.144
 9118SOL    HW228254   6.366   3.313   0.257
 9119SOL     OW28255   4.180   0.849   1.665
 9119SOL    HW128256   4.257   0.873   1.606
 9119SOL    HW228257   4.105   0.813   1.610
 9120SOL     OW28258   6.638   2.570   5.495
 9120SOL    HW128259   6.707   2.499   5.505
 9120SOL    HW228260   6.667   2.635   5.425
 9121SOL     OW28261   4.129   6.618   5.289
 9121SOL    HW128262   4.116   6.520   5.299
 9121SOL    HW228263   4.151   6.658   5.378
 9122SOL     OW28264   2.202   3.993   2.078
 9122SOL    HW128265   2.229   4.049   2.157
 9122SOL    HW228266   2.170   3.904   2.110
 9123SOL     OW28267   1.527   0.370   4.338
 9123SOL    HW128268   1.573   0.442   4.287
 9123SOL    HW228269   1.490   0.407   4.423
 9124SOL     OW28270   3.934   5.459   1.784
 9124SOL    HW128271   3.901   5.424   1.872
 9124SOL    HW228272   3.975   5.549   1.798
 9125SOL     OW28273   3.585   4.024   0.962
 9125SOL    HW128274   3.543   4.077   1.036
 9125SOL    HW228275   3.649   4.083   0.912
 9126SOL     OW28276   4.744   3.922   0.919
 9126SOL    HW128277   4.662   3.924   0.976
 9126SOL    HW228278   4.825   3.913   0.977
 9127SOL     OW28279   6.378   2.739   5.061
 9127SOL    HW128280   6.367   2.742   4.962
 9127SOL    HW228281   6.404   2.647   5.089
 9128SOL     OW28282   6.308   2.445   4.570
 9128SOL    HW128283   6.323   2.346   4.566
 9128SOL    HW228284   6.391   2.493   4.541
 9129SOL     OW28285   1.176   2.583   0.689
 9129SOL    HW128286   1.161   2.557   0.594
 9129SOL    HW228287   1.270   2.616   0.700
 9130SOL     OW28288   0.843   4.590   5.844
 9130SOL    HW128289   0.795   4.650   5.779
 9130SOL    HW228290   0.890   4.518   5.794
 9131SOL     OW28291   5.513   3.009   0.190
 9131SOL    HW128292   5.491   3.051   0.102
 9131SOL    HW228293   5.539   2.913   0.176
 9132SOL     OW28294   0.649   4.827   4.187
 9132SOL    HW128295   0.625   4.730   4.194
 9132SOL    HW228296   0.719   4.839   4.116
 9133SOL     OW28297   3.438   1.264   1.139
 9133SOL    HW128298   3.411   1.333   1.072
 9133SOL    HW228299   3.503   1.305   1.204
 9134SOL     OW28300   4.248   5.639   0.709
 9134SOL    HW128301   4.252   5.640   0.609
 9134SOL    HW228302   4.209   5.552   0.740
 9135SOL     OW28303   1.485   6.421   1.704
 9135SOL    HW128304   1.448   6.511   1.680
 9135SOL    HW228305   1.573   6.433   1.750
 9136SOL     OW28306   4.474   5.885   5.482
 9136SOL    HW128307   4.423   5.882   5.396
 9136SOL    HW228308   4.498   5.979   5.503
 9137SOL     OW28309   4.464   6.656   5.519
 9137SOL    HW128310   4.490   6.709   5.439
 9137SOL    HW228311   4.366   6.637   5.516
 9138SOL     OW28312   1.834   3.434   0.652
 9138SOL    HW128313   1.873   3.423   0.560
 9138SOL    HW228314   1.887   3.502   0.702
 9139SOL     OW28315   0.756   1.292   1.660
 9139SOL    HW128316   0.822   1.222   1.632
 9139SOL    HW228317   0.802   1.361   1.716
 9140SOL     OW28318   0.512   4.888   2.020
 9140SOL    HW128319   0.558   4.841   1.945
 9140SOL    HW228320   0.460   4.823   2.074
 9141SOL     OW28321   6.878   6.087   6.766
 9141SOL    HW128322   6.835   6.029   6.697
 9141SOL    HW228323   6.976   6.071   6.766
 9142SOL     OW28324   0.508   2.556   3.036
 9142SOL    HW128325   0.456   2.598   3.111
 9142SOL    HW228326   0.530   2.462   3.059
 9143SOL     OW28327   0.022   3.859   1.277
 9143SOL    HW128328   0.070   3.925   1.335
 9143SOL    HW228329   0.068   3.770   1.282
 9144SOL     OW28330   2.785   4.757   4.789
 9144SOL    HW128331   2.804   4.690   4.861
 9144SOL    HW228332   2.704   4.810   4.814
 9145SOL     OW28333   1.329   6.916   6.611
 9145SOL    HW128334   1.418   6.933   6.652
 9145SOL    HW228335   1.264   6.888   6.682
 9146SOL     OW28336   5.523   2.292   3.604
 9146SOL    HW128337   5.612   2.316   3.643
 9146SOL    HW228338   5.488   2.368   3.550
 9147SOL     OW28339   5.664   0.454   5.376
 9147SOL    HW128340   5.747   0.494   5.415
 9147SOL    HW228341   5.680   0.427   5.282
 9148SOL     OW28342   6.050   0.201   2.021
 9148SOL    HW128343   6.133   0.248   1.990
 9148SOL    HW228344   6.013   0.147   1.946
 9149SOL     OW28345   5.654   2.825   2.126
 9149SOL    HW128346   5.670   2.726   2.123
 9149SOL    HW228347   5.556   2.842   2.143
 9150SOL     OW28348   2.989   4.585   6.942
 9150SOL    HW128349   3.014   4.617   6.850
 9150SOL    HW228350   3.065   4.532   6.980
 9151SOL     OW28351   2.235   4.196   4.049
 9151SOL    HW128352   2.226   4.097   4.055
 9151SOL    HW228353   2.316   4.226   4.101
 9152SOL     OW28354   1.673   4.198   4.425
 9152SOL    HW128355   1.704   4.140   4.500
 9152SOL    HW228356   1.699   4.157   4.338
 9153SOL     OW28357   0.787   2.896   6.360
 9153SOL    HW128358   0.777   2.881   6.262
 9153SOL    HW228359   0.697   2.896   6.404
 9154SOL     OW28360   4.838   4.980   2.972
 9154SOL    HW128361   4.855   4.916   2.898
 9154SOL    HW228362   4.788   5.059   2.937
 9155SOL     OW28363   1.831   4.525   2.288
 9155SOL    HW128364   1.731   4.522   2.290
 9155SOL    HW228365   1.863   4.519   2.193
 9156SOL     OW28366   6.886   2.811   1.184
 9156SOL    HW128367   6.794   2.836   1.215
 9156SOL    HW228368   6.953   2.845   1.249
 9157SOL     OW28369   3.280   4.233   6.195
 9157SOL    HW128370   3.185   4.253   6.218
 9157SOL    HW228371   3.283   4.149   6.140
 9158SOL     OW28372   6.147   4.107   3.965
 9158SOL    HW128373   6.143   4.206   3.952
 9158SOL    HW228374   6.149   4.061   3.876
 9159SOL     OW28375   2.641   0.045   3.240
 9159SOL    HW128376   2.714   0.044   3.309
 9159SOL    HW228377   2.679   0.020   3.151
 9160SOL     OW28378   0.228   5.061   6.839
 9160SOL    HW128379   0.143   5.008   6.845
 9160SOL    HW228380   0.213   5.143   6.784
 9161SOL     OW28381   5.940   4.166   2.571
 9161SOL    HW128382   5.857   4.132   2.616
 9161SOL    HW228383   5.968   4.102   2.500
 9162SOL     OW28384   3.858   1.372   3.019
 9162SOL    HW128385   3.789   1.412   3.078
 9162SOL    HW228386   3.922   1.317   3.074
 9163SOL     OW28387   6.947   2.282   1.789
 9163SOL    HW128388   6.866   2.313   1.839
 9163SOL    HW228389   6.929   2.283   1.691
 9164SOL     OW28390   2.512   0.555   0.111
 9164SOL    HW128391   2.448   0.479   0.101
 9164SOL    HW228392   2.570   0.561   0.030
 9165SOL     OW28393   4.987   2.226   5.701
 9165SOL    HW128394   5.065   2.178   5.661
 9165SOL    HW228395   4.908   2.216   5.640
 9166SOL     OW28396   4.151   5.623   1.339
 9166SOL    HW128397   4.208   5.541   1.342
 9166SOL    HW228398   4.179   5.680   1.261
 9167SOL     OW28399   0.881   1.617   6.736
 9167SOL    HW128400   0.967   1.629   6.785
 9167SOL    HW228401   0.805   1.622   6.801
 9168SOL     OW28402   6.153   4.629   6.255
 9168SOL    HW128403   6.223   4.684   6.210
 9168SOL    HW228404   6.078   4.612   6.191
 9169SOL     OW28405   6.888   6.412   6.445
 9169SOL    HW128406   6.833   6.410   6.361
 9169SOL    HW228407   6.856   6.340   6.507
 9170SOL     OW28408   1.954   1.645   6.144
 9170SOL    HW128409   1.899   1.686   6.071
 9170SOL    HW228410   2.041   1.614   6.107
 9171SOL     OW28411   2.834   5.054   1.088
 9171SOL    HW128412   2.906   5.069   1.020
 9171SOL    HW228413   2.774   5.134   1.091
 9172SOL     OW28414   5.025   1.414   5.052
 9172SOL    HW128415   5.053   1.321   5.027
 9172SOL    HW228416   5.030   1.473   4.972
 9173SOL     OW28417   6.908   2.788   4.150
 9173SOL    HW128418   6.995   2.809   4.194
 9173SOL    HW228419   6.925   2.758   4.056
 9174SOL     OW28420   0.494   6.039   0.209
 9174SOL    HW128421   0.420   6.093   0.171
 9174SOL    HW228422   0.582   6.082   0.186
 9175SOL     OW28423   1.575   6.520   0.410
 9175SOL    HW128424   1.482   6.487   0.426
 9175SOL    HW228425   1.633   6.495   0.487
 9176SOL     OW28426   2.274   0.739   2.685
 9176SOL    HW128427   2.345   0.763   2.750
 9176SOL    HW228428   2.270   0.807   2.612
 9177SOL     OW28429   1.098   3.168   3.467
 9177SOL    HW128430   1.026   3.101   3.482
 9177SOL    HW228431   1.115   3.220   3.551
 9178SOL     OW28432   2.051   6.283   6.621
 9178SOL    HW128433   1.989   6.361   6.633
 9178SOL    HW228434   2.038   6.244   6.530
 9179SOL     OW28435   3.642   6.066   5.052
 9179SOL    HW128436   3.597   6.080   4.964
 9179SOL    HW228437   3.690   5.978   5.052
 9180SOL     OW28438   6.362   2.041   4.324
 9180SOL    HW128439   6.408   1.971   4.378
 9180SOL    HW228440   6.422   2.071   4.249
 9181SOL     OW28441   4.876   2.435   3.892
 9181SOL    HW128442   4.860   2.439   3.991
 9181SOL    HW228443   4.840   2.518   3.849
 9182SOL     OW28444   2.140   1.043   2.704
 9182SOL    HW128445   2.128   1.041   2.804
 9182SOL    HW228446   2.227   0.998   2.681
 9183SOL     OW28447   4.743   3.155   6.782
 9183SOL    HW128448   4.791   3.068   6.788
 9183SOL    HW228449   4.657   3.143   6.732
 9184SOL     OW28450   3.077   2.637   1.316
 9184SOL    HW128451   3.067   2.727   1.273
 9184SOL    HW228452   2.997   2.581   1.294
 9185SOL     OW28453   6.899   0.161   6.033
 9185SOL    HW128454   6.997   0.161   6.012
 9185SOL    HW228455   6.859   0.249   6.007
 9186SOL     OW28456   4.633   0.459   6.080
 9186SOL    HW128457   4.702   0.517   6.123
 9186SOL    HW228458   4.678   0.384   6.033
 9187SOL     OW28459   4.678   2.025   6.902
 9187SOL    HW128460   4.669   2.116   6.862
 9187SOL    HW228461   4.772   2.009   6.929
 9188SOL     OW28462   1.404   0.331   1.070
 9188SOL    HW128463   1.382   0.424   1.099
 9188SOL    HW228464   1.351   0.308   0.988
 9189SOL     OW28465   2.967   1.338   3.037
 9189SOL    HW128466   3.014   1.312   2.953
 9189SOL    HW228467   2.961   1.259   3.098
 9190SOL     OW28468   5.860   3.690   5.226
 9190SOL    HW128469   5.772   3.724   5.258
 9190SOL    HW228470   5.863   3.591   5.235
 9191SOL     OW28471   5.274   6.364   6.915
 9191SOL    HW128472   5.291   6.453   6.873
 9191SOL    HW228473   5.198   6.319   6.868
 9192SOL     OW28474   6.450   4.046   5.312
 9192SOL    HW128475   6.432   4.135   5.270
 9192SOL    HW228476   6.369   4.016   5.363
 9193SOL     OW28477   3.139   3.017   3.989
 9193SOL    HW128478   3.059   3.003   3.931
 9193SOL    HW228479   3.110   3.047   4.080
 9194SOL     OW28480   3.466   5.971   2.124
 9194SOL    HW128481   3.502   6.036   2.057
 9194SOL    HW228482   3.518   5.886   2.120
 9195SOL     OW28483   0.894   2.970   3.554
 9195SOL    HW128484   0.864   2.926   3.469
 9195SOL    HW228485   0.871   2.911   3.631
 9196SOL     OW28486   3.979   0.025   3.871
 9196SOL    HW128487   3.957   0.059   3.963
 9196SOL    HW228488   3.897   7.010   3.828
 9197SOL     OW28489   2.535   3.498   0.209
 9197SOL    HW128490   2.512   3.425   0.144
 9197SOL    HW228491   2.603   3.559   0.167
 9198SOL     OW28492   5.699   4.083   6.078
 9198SOL    HW128493   5.647   4.109   5.997
 9198SOL    HW228494   5.669   3.993   6.109
 9199SOL     OW28495   0.946   3.872   5.924
 9199SOL    HW128496   0.968   3.965   5.895
 9199SOL    HW228497   1.006   3.807   5.876
 9200SOL     OW28498   0.457   6.057   0.695
 9200SOL    HW128499   0.380   6.098   0.744
 9200SOL    HW228500   0.428   5.972   0.651
 9201SOL     OW28501   0.242   4.468   1.809
 9201SOL    HW128502   0.206   4.511   1.891
 9201SOL    HW228503   0.325   4.516   1.780
 9202SOL     OW28504   2.140   5.188   4.595
 9202SOL    HW128505   2.097   5.183   4.505
 9202SOL    HW228506   2.128   5.101   4.643
 9203SOL     OW28507   5.176   1.507   6.484
 9203SOL    HW128508   5.241   1.500   6.408
 9203SOL    HW228509   5.111   1.431   6.479
 9204SOL     OW28510   5.605   3.891   2.853
 9204SOL    HW128511   5.600   3.970   2.914
 9204SOL    HW228512   5.699   3.857   2.849
 9205SOL     OW28513   5.228   3.404   2.606
 9205SOL    HW128514   5.134   3.427   2.584
 9205SOL    HW228515   5.230   3.318   2.657
 9206SOL     OW28516   2.578   6.290   4.913
 9206SOL    HW128517   2.503   6.274   4.849
 9206SOL    HW228518   2.663   6.303   4.862
 9207SOL     OW28519   3.499   6.256   6.128
 9207SOL    HW128520   3.458   6.206   6.052
 9207SOL    HW228521   3.571   6.316   6.094
 9208SOL     OW28522   5.045   3.324   2.175
 9208SOL    HW128523   5.024   3.237   2.131
 9208SOL    HW228524   5.144   3.334   2.183
 9209SOL     OW28525   4.085   0.851   2.440
 9209SOL    HW128526   4.165   0.846   2.501
 9209SOL    HW228527   4.043   0.761   2.433
 9210SOL     OW28528   2.144   6.512   1.614
 9210SOL    HW128529   2.044   6.511   1.612
 9210SOL    HW228530   2.179   6.440   1.553
 9211SOL     OW28531   5.818   1.674   6.103
 9211SOL    HW128532   5.899   1.620   6.126
 9211SOL    HW228533   5.739   1.636   6.151
 9212SOL     OW28534   4.619   4.311   4.601
 9212SOL    HW128535   4.565   4.373   4.658
 9212SOL    HW228536   4.650   4.234   4.656
 9213SOL     OW28537   5.746   6.994   4.511
 9213SOL    HW128538   5.755   6.930   4.435
 9213SOL    HW228539   5.822   0.037   4.511
 9214SOL     OW28540   1.383   2.016   5.096
 9214SOL    HW128541   1.388   2.077   5.017
 9214SOL    HW228542   1.310   1.949   5.081
 9215SOL     OW28543   0.057   4.431   2.525
 9215SOL    HW128544   0.041   4.525   2.495
 9215SOL    HW228545   0.126   4.430   2.597
 9216SOL     OW28546   2.648   6.247   4.473
 9216SOL    HW128547   2.629   6.176   4.542
 9216SOL    HW228548   2.593   6.328   4.493
 9217SOL     OW28549   4.814   1.180   6.317
 9217SOL    HW128550   4.790   1.230   6.234
 9217SOL    HW228551   4.731   1.143   6.358
 9218SOL     OW28552   4.684   0.098   6.532
 9218SOL    HW128553   4.588   0.075   6.520
 9218SOL    HW228554   4.697   0.196   6.514
 9219SOL     OW28555   3.822   3.422   5.398
 9219SOL    HW128556   3.873   3.485   5.457
 9219SOL    HW228557   3.803   3.337   5.447
 9220SOL     OW28558   2.352   6.261   3.055
 9220SOL    HW128559   2.443   6.293   3.026
 9220SOL    HW228560   2.302   6.337   3.096
 9221SOL     OW28561   2.638   0.442   6.013
 9221SOL    HW128562   2.721   0.443   5.958
 9221SOL    HW228563   2.656   0.486   6.101
 9222SOL     OW28564   2.703   4.714   4.223
 9222SOL    HW128565   2.771   4.686   4.291
 9222SOL    HW228566   2.615   4.671   4.244
 9223SOL     OW28567   0.922   3.858   4.100
 9223SOL    HW128568   0.966   3.947   4.112
 9223SOL    HW228569   0.829   3.862   4.136
 9224SOL     OW28570   1.005   4.109   4.106
 9224SOL    HW128571   1.101   4.139   4.103
 9224SOL    HW228572   0.967   4.109   4.013
 9225SOL     OW28573   3.598   6.496   5.776
 9225SOL    HW128574   3.658   6.471   5.700
 9225SOL    HW228575   3.640   6.468   5.862
 9226SOL     OW28576   0.757   0.329   1.252
 9226SOL    HW128577   0.771   0.262   1.325
 9226SOL    HW228578   0.734   0.281   1.167
 9227SOL     OW28579   1.690   5.493   1.105
 9227SOL    HW128580   1.626   5.470   1.032
 9227SOL    HW228581   1.784   5.477   1.074
 9228SOL     OW28582   2.158   2.490   5.784
 9228SOL    HW128583   2.150   2.518   5.880
 9228SOL    HW228584   2.251   2.506   5.753
 9229SOL     OW28585   0.782   4.745   6.511
 9229SOL    HW128586   0.821   4.830   6.546
 9229SOL    HW228587   0.719   4.707   6.579
 9230SOL     OW28588   4.986   2.618   4.565
 9230SOL    HW128589   4.894   2.639   4.599
 9230SOL    HW228590   4.979   2.586   4.471
 9231SOL     OW28591   0.513   5.104   5.631
 9231SOL    HW128592   0.450   5.128   5.558
 9231SOL    HW228593   0.595   5.159   5.624
 9232SOL     OW28594   1.939   5.380   1.681
 9232SOL    HW128595   2.038   5.369   1.670
 9232SOL    HW228596   1.908   5.329   1.761
 9233SOL     OW28597   0.700   6.343   0.507
 9233SOL    HW128598   0.742   6.380   0.424
 9233SOL    HW228599   0.684   6.245   0.495
 9234SOL     OW28600   2.466   5.242   1.284
 9234SOL    HW128601   2.408   5.183   1.340
 9234SOL    HW228602   2.562   5.221   1.303
 9235SOL     OW28603   2.293   2.320   3.329
 9235SOL    HW128604   2.267   2.384   3.257
 9235SOL    HW228605   2.393   2.316   3.335
 9236SOL     OW28606   2.059   4.246   6.984
 9236SOL    HW128607   1.977   4.220   6.933
 9236SOL    HW228608   2.132   4.180   6.964
 9237SOL     OW28609   6.795   5.710   2.758
 9237SOL    HW128610   6.798   5.613   2.782
 9237SOL    HW228611   6.845   5.726   2.674
 9238SOL     OW28612   2.034   3.092   5.363
 9238SOL    HW128613   2.105   3.030   5.329
 9238SOL    HW228614   2.030   3.173   5.305
 9239SOL     OW28615   6.822   4.177   0.139
 9239SOL    HW128616   6.814   4.081   0.113
 9239SOL    HW228617   6.792   4.234   0.063
 9240SOL     OW28618   5.220   3.226   3.067
 9240SOL    HW128619   5.128   3.261   3.082
 9240SOL    HW228620   5.226   3.186   2.976
 9241SOL     OW28621   0.148   5.791   6.928
 9241SOL    HW128622   0.102   5.755   7.009
 9241SOL    HW228623   0.242   5.814   6.952
 9242SOL     OW28624   1.806   2.371   1.848
 9242SOL    HW128625   1.853   2.417   1.923
 9242SOL    HW228626   1.873   2.345   1.778
 9243SOL     OW28627   0.759   6.582   1.760
 9243SOL    HW128628   0.819   6.592   1.840
 9243SOL    HW228629   0.665   6.573   1.791
 9244SOL     OW28630   3.292   6.569   5.682
 9244SOL    HW128631   3.356   6.614   5.744
 9244SOL    HW228632   3.222   6.522   5.736
 9245SOL     OW28633   0.891   4.109   3.833
 9245SOL    HW128634   0.924   4.196   3.796
 9245SOL    HW228635   0.836   4.063   3.764
 9246SOL     OW28636   5.993   0.053   4.640
 9246SOL    HW128637   6.060   7.001   4.632
 9246SOL    HW228638   6.032   0.138   4.605
 9247SOL     OW28639   3.320   5.505   2.956
 9247SOL    HW128640   3.252   5.561   2.908
 9247SOL    HW228641   3.335   5.543   3.048
 9248SOL     OW28642   2.840   1.157   4.920
 9248SOL    HW128643   2.771   1.087   4.937
 9248SOL    HW228644   2.920   1.140   4.978
 9249SOL     OW28645   3.738   4.733   1.621
 9249SOL    HW128646   3.678   4.742   1.542
 9249SOL    HW228647   3.688   4.688   1.696
 9250SOL     OW28648   6.620   4.507   3.816
 9250SOL    HW128649   6.715   4.532   3.796
 9250SOL    HW228650   6.578   4.467   3.735
 9251SOL     OW28651   3.730   2.627   1.489
 9251SOL    HW128652   3.653   2.594   1.434
 9251SOL    HW228653   3.731   2.578   1.576
 9252SOL     OW28654   4.194   0.353   5.069
 9252SOL    HW128655   4.193   0.265   5.117
 9252SOL    HW228656   4.165   0.339   4.974
 9253SOL     OW28657   6.116   4.827   5.811
 9253SOL    HW128658   6.117   4.745   5.869
 9253SOL    HW228659   6.203   4.876   5.819
 9254SOL     OW28660   5.676   4.782   2.594
 9254SOL    HW128661   5.737   4.739   2.527
 9254SOL    HW228662   5.583   4.787   2.557
 9255SOL     OW28663   6.159   3.752   6.905
 9255SOL    HW128664   6.148   3.851   6.910
 9255SOL    HW228665   6.090   3.714   6.844
 9256SOL     OW28666   1.956   6.995   1.713
 9256SOL    HW128667   1.998   0.063   1.707
 9256SOL    HW228668   2.000   6.942   1.786
 9257SOL     OW28669   6.056   5.586   3.297
 9257SOL    HW128670   6.043   5.606   3.200
 9257SOL    HW228671   6.064   5.672   3.348
 9258SOL     OW28672   3.430   3.824   0.221
 9258SOL    HW128673   3.443   3.725   0.228
 9258SOL    HW228674   3.393   3.859   0.308
 9259SOL     OW28675   2.026   1.707   0.157
 9259SOL    HW128676   2.008   1.805   0.160
 9259SOL    HW228677   2.047   1.674   0.249
 9260SOL     OW28678   6.537   2.952   5.488
 9260SOL    HW128679   6.481   2.989   5.414
 9260SOL    HW228680   6.632   2.981   5.476
 9261SOL     OW28681   4.392   1.430   0.503
 9261SOL    HW128682   4.428   1.347   0.461
 9261SOL    HW228683   4.355   1.491   0.433
 9262SOL     OW28684   0.307   6.406   4.479
 9262SOL    HW128685   0.375   6.394   4.407
 9262SOL    HW228686   0.220   6.367   4.450
 9263SOL     OW28687   3.007   5.441   2.734
 9263SOL    HW128688   3.062   5.503   2.790
 9263SOL    HW228689   2.947   5.494   2.674
 9264SOL     OW28690   5.498   3.771   6.570
 9264SOL    HW128691   5.510   3.678   6.604
 9264SOL    HW228692   5.534   3.836   6.638
 9265SOL     OW28693   3.450   2.167   6.542
 9265SOL    HW128694   3.521   2.183   6.611
 9265SOL    HW228695   3.493   2.140   6.455
 9266SOL     OW28696   0.687   4.967   1.507
 9266SOL    HW128697   0.683   5.067   1.515
 9266SOL    HW228698   0.685   4.926   1.599
 9267SOL     OW28699   0.420   1.811   4.006
 9267SOL    HW128700   0.363   1.767   3.937
 9267SOL    HW228701   0.404   1.910   4.005
 9268SOL     OW28702   0.579   6.587   2.008
 9268SOL    HW128703   0.610   6.496   2.037
 9268SOL    HW228704   0.501   6.578   1.946
 9269SOL     OW28705   4.676   0.879   6.856
 9269SOL    HW128706   4.711   0.934   6.779
 9269SOL    HW228707   4.589   0.837   6.830
 9270SOL     OW28708   3.512   1.450   5.619
 9270SOL    HW128709   3.529   1.548   5.617
 9270SOL    HW228710   3.427   1.430   5.569
 9271SOL     OW28711   1.145   0.551   0.463
 9271SOL    HW128712   1.106   0.579   0.375
 9271SOL    HW228713   1.218   0.485   0.447
 9272SOL     OW28714   0.703   6.604   5.541
 9272SOL    HW128715   0.728   6.608   5.638
 9272SOL    HW228716   0.748   6.677   5.491
 9273SOL     OW28717   5.337   5.975   4.180
 9273SOL    HW128718   5.320   5.979   4.082
 9273SOL    HW228719   5.361   6.066   4.214
 9274SOL     OW28720   0.259   3.319   0.378
 9274SOL    HW128721   0.178   3.362   0.417
 9274SOL    HW228722   0.295   3.374   0.303
 9275SOL     OW28723   0.960   6.688   1.136
 9275SOL    HW128724   1.019   6.726   1.208
 9275SOL    HW228725   0.897   6.622   1.177
 9276SOL     OW28726   3.339   4.822   6.610
 9276SOL    HW128727   3.285   4.796   6.529
 9276SOL    HW228728   3.436   4.812   6.590
 9277SOL     OW28729   3.936   4.915   2.496
 9277SOL    HW128730   3.937   4.963   2.584
 9277SOL    HW228731   3.844   4.916   2.458
 9278SOL     OW28732   0.416   0.137   4.750
 9278SOL    HW128733   0.488   0.080   4.789
 9278SOL    HW228734   0.366   0.085   4.681
 9279SOL     OW28735   3.415   5.932   1.526
 9279SOL    HW128736   3.404   5.932   1.626
 9279SOL    HW228737   3.512   5.924   1.504
 9280SOL     OW28738   2.026   1.746   2.416
 9280SOL    HW128739   1.981   1.833   2.436
 9280SOL    HW228740   2.049   1.700   2.502
 9281SOL     OW28741   3.306   3.911   6.221
 9281SOL    HW128742   3.295   3.812   6.212
 9281SOL    HW228743   3.289   3.954   6.132
 9282SOL     OW28744   3.797   0.711   4.339
 9282SOL    HW128745   3.842   0.630   4.301
 9282SOL    HW228746   3.767   0.771   4.264
 9283SOL     OW28747   5.521   6.942   6.378
 9283SOL    HW128748   5.434   6.990   6.364
 9283SOL    HW228749   5.540   6.883   6.300
 9284SOL     OW28750   3.391   3.777   5.233
 9284SOL    HW128751   3.292   3.792   5.233
 9284SOL    HW228752   3.411   3.691   5.185
 9285SOL     OW28753   5.423   3.089   1.996
 9285SOL    HW128754   5.364   3.100   1.916
 9285SOL    HW228755   5.485   3.167   2.003
 9286SOL     OW28756   5.140   6.200   0.384
 9286SOL    HW128757   5.184   6.224   0.298
 9286SOL    HW228758   5.195   6.234   0.461
 9287SOL     OW28759   2.308   4.344   5.937
 9287SOL    HW128760   2.383   4.390   5.890
 9287SOL    HW228761   2.315   4.361   6.036
 9288SOL     OW28762   4.591   2.490   3.545
 9288SOL    HW128763   4.519   2.424   3.566
 9288SOL    HW228764   4.611   2.488   3.447
 9289SOL     OW28765   4.180   0.276   5.975
 9289SOL    HW128766   4.230   0.294   6.060
 9289SOL    HW228767   4.232   0.211   5.919
 9290SOL     OW28768   5.391   0.867   4.452
 9290SOL    HW128769   5.353   0.940   4.509
 9290SOL    HW228770   5.371   0.887   4.355
 9291SOL     OW28771   1.451   6.471   5.610
 9291SOL    HW128772   1.391   6.550   5.617
 9291SOL    HW228773   1.507   6.465   5.693
 9292SOL     OW28774   1.844   1.242   6.011
 9292SOL    HW128775   1.749   1.253   6.039
 9292SOL    HW228776   1.851   1.167   5.945
 9293SOL     OW28777   4.706   2.635   6.514
 9293SOL    HW128778   4.768   2.557   6.516
 9293SOL    HW228779   4.724   2.691   6.433
 9294SOL     OW28780   4.890   1.333   0.615
 9294SOL    HW128781   4.851   1.425   0.602
 9294SOL    HW228782   4.818   1.271   0.645
 9295SOL     OW28783   1.113   0.551   5.026
 9295SOL    HW128784   1.095   0.625   4.961
 9295SOL    HW228785   1.030   0.532   5.078
 9296SOL     OW28786   2.431   3.741   1.296
 9296SOL    HW128787   2.365   3.815   1.308
 9296SOL    HW228788   2.469   3.744   1.203
 9297SOL     OW28789   0.499   5.607   2.928
 9297SOL    HW128790   0.580   5.552   2.950
 9297SOL    HW228791   0.446   5.624   3.011
 9298SOL     OW28792   1.114   6.918   5.850
 9298SOL    HW128793   1.060   6.876   5.922
 9298SOL    HW228794   1.211   6.899   5.866
 9299SOL     OW28795   2.036   1.473   4.212
 9299SOL    HW128796   1.938   1.465   4.231
 9299SOL    HW228797   2.081   1.514   4.292
 9300SOL     OW28798   1.062   6.183   4.991
 9300SOL    HW128799   1.082   6.245   5.067
 9300SOL    HW228800   1.103   6.093   5.009
 9301SOL     OW28801   6.930   4.379   4.526
 9301SOL    HW128802   6.899   4.409   4.616
 9301SOL    HW228803   6.959   4.283   4.532
 9302SOL     OW28804   1.865   3.007   4.925
 9302SOL    HW128805   1.945   2.948   4.928
 9302SOL    HW228806   1.866   3.062   4.841
 9303SOL     OW28807   2.948   4.197   6.762
 9303SOL    HW128808   2.926   4.160   6.852
 9303SOL    HW228809   3.045   4.219   6.757
 9304SOL     OW28810   4.801   5.235   0.517
 9304SOL    HW128811   4.766   5.176   0.444
 9304SOL    HW228812   4.839   5.318   0.477
 9305SOL     OW28813   3.021   1.627   1.009
 9305SOL    HW128814   3.068   1.624   1.097
 9305SOL    HW228815   3.058   1.701   0.954
 9306SOL     OW28816   0.020   4.092   4.407
 9306SOL    HW128817   0.101   4.078   4.351
 9306SOL    HW228818   6.960   4.075   4.351
 9307SOL     OW28819   1.875   4.062   0.657
 9307SOL    HW128820   1.871   4.149   0.608
 9307SOL    HW228821   1.781   4.031   0.675
 9308SOL     OW28822   1.389   4.841   1.668
 9308SOL    HW128823   1.450   4.897   1.612
 9308SOL    HW228824   1.298   4.882   1.669
 9309SOL     OW28825   5.155   6.257   5.870
 9309SOL    HW128826   5.141   6.169   5.914
 9309SOL    HW228827   5.140   6.331   5.936
 9310SOL     OW28828   4.811   5.672   5.820
 9310SOL    HW128829   4.724   5.630   5.848
 9310SOL    HW228830   4.875   5.671   5.897
 9311SOL     OW28831   4.585   3.433   1.378
 9311SOL    HW128832   4.650   3.357   1.385
 9311SOL    HW228833   4.539   3.445   1.466
 9312SOL     OW28834   1.429   1.994   0.890
 9312SOL    HW128835   1.357   1.992   0.959
 9312SOL    HW228836   1.502   1.932   0.917
 9313SOL     OW28837   1.526   0.681   1.881
 9313SOL    HW128838   1.568   0.593   1.857
 9313SOL    HW228839   1.562   0.753   1.821
 9314SOL     OW28840   5.498   3.069   0.738
 9314SOL    HW128841   5.533   2.994   0.793
 9314SOL    HW228842   5.463   3.141   0.797
 9315SOL     OW28843   6.003   0.909   6.296
 9315SOL    HW128844   5.951   0.823   6.298
 9315SOL    HW228845   6.031   0.933   6.389
 9316SOL     OW28846   5.542   0.021   5.179
 9316SOL    HW128847   5.504   7.018   5.268
 9316SOL    HW228848   5.493   0.100   5.142
 9317SOL     OW28849   3.277   5.241   3.287
 9317SOL    HW128850   3.311   5.249   3.381
 9317SOL    HW228851   3.355   5.233   3.225
 9318SOL     OW28852   5.453   5.900   0.194
 9318SOL    HW128853   5.510   5.976   0.165
 9318SOL    HW228854   5.407   5.860   0.114
 9319SOL     OW28855   2.600   3.838   1.023
 9319SOL    HW128856   2.605   3.771   0.949
 9319SOL    HW228857   2.693   3.864   1.051
 9320SOL     OW28858   5.100   0.509   6.194
 9320SOL    HW128859   5.026   0.455   6.235
 9320SOL    HW228860   5.183   0.454   6.189
 9321SOL     OW28861   0.655   2.075   5.771
 9321SOL    HW128862   0.588   2.134   5.816
 9321SOL    HW228863   0.607   2.000   5.724
 9322SOL     OW28864   6.321   4.415   6.037
 9322SOL    HW128865   6.404   4.457   6.071
 9322SOL    HW228866   6.326   4.404   5.938
 9323SOL     OW28867   2.016   2.808   4.180
 9323SOL    HW128868   2.025   2.752   4.262
 9323SOL    HW228869   2.011   2.904   4.205
 9324SOL     OW28870   1.132   4.011   0.590
 9324SOL    HW128871   1.093   4.027   0.499
 9324SOL    HW228872   1.095   4.079   0.654
 9325SOL     OW28873   2.108   5.984   1.798
 9325SOL    HW128874   2.157   5.924   1.735
 9325SOL    HW228875   2.090   5.936   1.883
 9326SOL     OW28876   3.835   4.966   0.737
 9326SOL    HW128877   3.865   5.033   0.804
 9326SOL    HW228878   3.906   4.954   0.667
 9327SOL     OW28879   4.473   0.514   3.132
 9327SOL    HW128880   4.509   0.579   3.065
 9327SOL    HW228881   4.546   0.452   3.162
 9328SOL     OW28882   2.901   6.656   4.882
 9328SOL    HW128883   2.925   6.623   4.973
 9328SOL    HW228884   2.810   6.698   4.885
 9329SOL     OW28885   0.156   5.855   6.514
 9329SOL    HW128886   0.141   5.920   6.588
 9329SOL    HW228887   0.102   5.882   6.434
 9330SOL     OW28888   0.226   0.035   6.333
 9330SOL    HW128889   0.317   7.016   6.323
 9330SOL    HW228890   0.158   6.983   6.346
 9331SOL     OW28891   1.672   2.830   5.012
 9331SOL    HW128892   1.663   2.832   5.111
 9331SOL    HW228893   1.735   2.903   4.983
 9332SOL     OW28894   4.210   5.835   0.222
 9332SOL    HW128895   4.294   5.880   0.251
 9332SOL    HW228896   4.138   5.854   0.289
 9333SOL     OW28897   3.579   5.370   0.714
 9333SOL    HW128898   3.488   5.332   0.694
 9333SOL    HW228899   3.613   5.330   0.799
 9334SOL     OW28900   4.776   6.825   4.364
 9334SOL    HW128901   4.809   6.735   4.338
 9334SOL    HW228902   4.845   6.871   4.421
 9335SOL     OW28903   1.660   2.553   0.930
 9335SOL    HW128904   1.633   2.634   0.981
 9335SOL    HW228905   1.592   2.481   0.945
 9336SOL     OW28906   5.861   0.155   4.918
 9336SOL    HW128907   5.898   0.154   4.825
 9336SOL    HW228908   5.767   0.122   4.917
 9337SOL     OW28909   4.507   0.061   6.821
 9337SOL    HW128910   4.570   7.005   6.831
 9337SOL    HW228911   4.478   0.068   6.725
 9338SOL     OW28912   0.254   6.130   0.092
 9338SOL    HW128913   0.215   6.195   0.157
 9338SOL    HW228914   0.238   6.163   7.020
 9339SOL     OW28915   5.492   5.168   6.645
 9339SOL    HW128916   5.432   5.100   6.602
 9339SOL    HW228917   5.473   5.258   6.607
 9340SOL     OW28918   3.608   5.975   2.552
 9340SOL    HW128919   3.567   5.897   2.505
 9340SOL    HW228920   3.542   6.015   2.616
 9341SOL     OW28921   6.430   4.481   6.312
 9341SOL    HW128922   6.444   4.466   6.410
 9341SOL    HW228923   6.333   4.491   6.293
 9342SOL     OW28924   3.033   0.328   4.655
 9342SOL    HW128925   3.053   0.262   4.728
 9342SOL    HW228926   2.959   0.388   4.684
 9343SOL     OW28927   4.726   3.881   1.775
 9343SOL    HW128928   4.748   3.921   1.864
 9343SOL    HW228929   4.782   3.799   1.761
 9344SOL     OW28930   5.557   5.130   6.344
 9344SOL    HW128931   5.646   5.097   6.311
 9344SOL    HW228932   5.557   5.130   6.444
 9345SOL     OW28933   6.727   6.167   6.974
 9345SOL    HW128934   6.791   6.134   6.905
 9345SOL    HW228935   6.690   6.256   6.945
 9346SOL     OW28936   4.981   6.280   2.606
 9346SOL    HW128937   4.989   6.368   2.653
 9346SOL    HW228938   5.005   6.206   2.669
 9347SOL     OW28939   3.628   5.688   0.945
 9347SOL    HW128940   3.720   5.651   0.931
 9347SOL    HW228941   3.570   5.661   0.868
 9348SOL     OW28942   2.724   5.758   3.308
 9348SOL    HW128943   2.707   5.856   3.307
 9348SOL    HW228944   2.822   5.740   3.317
 9349SOL     OW28945   6.979   5.769   2.169
 9349SOL    HW128946   0.030   5.826   2.209
 9349SOL    HW228947   6.945   5.813   2.086
 9350SOL     OW28948   0.008   1.153   4.412
 9350SOL    HW128949   6.993   1.101   4.335
 9350SOL    HW228950   0.080   1.215   4.378
 9351SOL     OW28951   2.097   1.133   5.379
 9351SOL    HW128952   2.009   1.133   5.426
 9351SOL    HW228953   2.149   1.053   5.407
 9352SOL     OW28954   1.220   2.786   5.392
 9352SOL    HW128955   1.300   2.759   5.445
 9352SOL    HW228956   1.249   2.835   5.310
 9353SOL     OW28957   1.324   4.178   1.949
 9353SOL    HW128958   1.286   4.114   1.882
 9353SOL    HW228959   1.388   4.130   2.008
 9354SOL     OW28960   6.650   1.967   1.075
 9354SOL    HW128961   6.665   1.912   0.992
 9354SOL    HW228962   6.738   2.001   1.108
 9355SOL     OW28963   6.210   1.188   4.166
 9355SOL    HW128964   6.302   1.186   4.126
 9355SOL    HW228965   6.150   1.245   4.109
 9356SOL     OW28966   4.876   5.027   1.941
 9356SOL    HW128967   4.974   5.034   1.956
 9356SOL    HW228968   4.827   5.080   2.010
 9357SOL     OW28969   2.363   4.099   0.334
 9357SOL    HW128970   2.396   4.168   0.270
 9357SOL    HW228971   2.370   4.009   0.291
 9358SOL     OW28972   5.624   3.639   2.116
 9358SOL    HW128973   5.561   3.711   2.145
 9358SOL    HW228974   5.650   3.584   2.195
 9359SOL     OW28975   6.794   3.772   5.742
 9359SOL    HW128976   6.850   3.759   5.660
 9359SOL    HW228977   6.852   3.805   5.816
 9360SOL     OW28978   1.641   7.001   5.925
 9360SOL    HW128979   1.604   7.017   5.833
 9360SOL    HW228980   1.648   0.066   5.973
 9361SOL     OW28981   2.996   6.712   3.026
 9361SOL    HW128982   2.940   6.640   3.068
 9361SOL    HW228983   3.036   6.769   3.098
 9362SOL     OW28984   1.742   1.143   2.025
 9362SOL    HW128985   1.681   1.101   1.958
 9362SOL    HW228986   1.832   1.159   1.983
 9363SOL     OW28987   3.695   5.892   1.519
 9363SOL    HW128988   3.767   5.944   1.564
 9363SOL    HW228989   3.709   5.794   1.534
 9364SOL     OW28990   3.522   3.181   6.125
 9364SOL    HW128991   3.601   3.207   6.180
 9364SOL    HW228992   3.499   3.085   6.143
 9365SOL     OW28993   2.405   2.551   4.678
 9365SOL    HW128994   2.325   2.492   4.691
 9365SOL    HW228995   2.486   2.505   4.713
 9366SOL     OW28996   3.074   2.040   0.063
 9366SOL    HW128997   3.087   2.139   0.053
 9366SOL    HW228998   3.038   2.002   6.999
 9367SOL     OW28999   6.848   5.931   3.965
 9367SOL    HW129000   6.765   5.889   3.929
 9367SOL    HW229001   6.900   5.863   4.016
 9368SOL     OW29002   3.550   1.894   2.968
 9368SOL    HW129003   3.586   1.853   3.051
 9368SOL    HW229004   3.545   1.994   2.979
 9369SOL     OW29005   0.236   1.138   5.900
 9369SOL    HW129006   0.190   1.050   5.890
 9369SOL    HW229007   0.175   1.204   5.944
 9370SOL     OW29008   5.538   0.516   2.467
 9370SOL    HW129009   5.551   0.463   2.551
 9370SOL    HW229010   5.531   0.613   2.490
 9371SOL     OW29011   1.970   5.529   6.970
 9371SOL    HW129012   2.001   5.568   0.035
 9371SOL    HW229013   1.933   5.438   6.985
 9372SOL     OW29014   6.036   6.279   2.775
 9372SOL    HW129015   5.951   6.249   2.733
 9372SOL    HW229016   6.110   6.217   2.750
 9373SOL     OW29017   4.365   1.999   2.987
 9373SOL    HW129018   4.343   2.091   2.954
 9373SOL    HW229019   4.350   1.995   3.086
 9374SOL     OW29020   6.189   3.045   6.807
 9374SOL    HW129021   6.189   3.128   6.752
 9374SOL    HW229022   6.263   2.985   6.778
 9375SOL     OW29023   6.855   1.688   3.538
 9375SOL    HW129024   6.797   1.614   3.573
 9375SOL    HW229025   6.941   1.651   3.506
 9376SOL     OW29026   2.879   3.749   0.758
 9376SOL    HW129027   2.951   3.763   0.825
 9376SOL    HW229028   2.801   3.702   0.800
 9377SOL     OW29029   0.872   4.914   3.657
 9377SOL    HW129030   0.854   4.919   3.559
 9377SOL    HW229031   0.847   5.001   3.700
 9378SOL     OW29032   1.547   0.337   5.484
 9378SOL    HW129033   1.560   0.258   5.544
 9378SOL    HW229034   1.526   0.306   5.391
 9379SOL     OW29035   4.899   4.707   5.050
 9379SOL    HW129036   4.906   4.732   4.954
 9379SOL    HW229037   4.989   4.712   5.093
 9380SOL     OW29038   6.206   5.283   4.874
 9380SOL    HW129039   6.268   5.352   4.837
 9380SOL    HW229040   6.249   5.239   4.953
 9381SOL     OW29041   2.760   3.091   5.926
 9381SOL    HW129042   2.808   3.112   6.011
 9381SOL    HW229043   2.676   3.040   5.948
 9382SOL     OW29044   3.532   1.328   2.622
 9382SOL    HW129045   3.588   1.278   2.688
 9382SOL    HW229046   3.519   1.422   2.653
 9383SOL     OW29047   3.327   6.306   4.859
 9383SOL    HW129048   3.248   6.249   4.837
 9383SOL    HW229049   3.316   6.345   4.950
 9384SOL     OW29050   4.064   6.624   1.114
 9384SOL    HW129051   4.149   6.672   1.091
 9384SOL    HW229052   4.086   6.540   1.165
 9385SOL     OW29053   4.019   1.538   2.014
 9385SOL    HW129054   4.102   1.593   2.028
 9385SOL    HW229055   4.026   1.453   2.066
 9386SOL     OW29056   2.184   6.239   5.077
 9386SOL    HW129057   2.160   6.238   5.174
 9386SOL    HW229058   2.274   6.281   5.066
 9387SOL     OW29059   4.323   0.290   0.073
 9387SOL    HW129060   4.376   0.237   0.140
 9387SOL    HW229061   4.237   0.243   0.056
 9388SOL     OW29062   1.884   6.153   2.421
 9388SOL    HW129063   1.962   6.090   2.428
 9388SOL    HW229064   1.841   6.162   2.511
 9389SOL     OW29065   2.490   0.407   5.744
 9389SOL    HW129066   2.545   0.324   5.733
 9389SOL    HW229067   2.488   0.433   5.841
 9390SOL     OW29068   3.906   6.261   4.266
 9390SOL    HW129069   3.966   6.182   4.251
 9390SOL    HW229070   3.863   6.287   4.179
 9391SOL     OW29071   2.311   0.940   5.536
 9391SOL    HW129072   2.357   0.958   5.623
 9391SOL    HW229073   2.247   0.863   5.548
 9392SOL     OW29074   0.091   0.056   4.874
 9392SOL    HW129075   0.165   0.113   4.910
 9392SOL    HW229076   0.128   6.989   4.845
 9393SOL     OW29077   3.566   1.058   4.628
 9393SOL    HW129078   3.639   1.117   4.664
 9393SOL    HW229079   3.512   1.109   4.561
 9394SOL     OW29080   6.307   1.356   2.814
 9394SOL    HW129081   6.264   1.266   2.813
 9394SOL    HW229082   6.299   1.398   2.723
 9395SOL     OW29083   2.865   2.507   0.039
 9395SOL    HW129084   2.814   2.428   0.074
 9395SOL    HW229085   2.861   2.507   6.961
 9396SOL     OW29086   0.380   5.725   4.196
 9396SOL    HW129087   0.420   5.723   4.287
 9396SOL    HW229088   0.338   5.814   4.180
 9397SOL     OW29089   2.861   0.378   0.013
 9397SOL    HW129090   2.939   0.334   0.058
 9397SOL    HW229091   2.780   0.320   0.022
 9398SOL     OW29092   2.042   0.420   5.762
 9398SOL    HW129093   2.101   0.409   5.682
 9398SOL    HW229094   2.096   0.411   5.845
 9399SOL     OW29095   0.572   1.386   7.003
 9399SOL    HW129096   0.657   1.372   0.033
 9399SOL    HW229097   0.536   1.298   6.974
 9400SOL     OW29098   5.243   3.090   1.488
 9400SOL    HW129099   5.230   3.067   1.392
 9400SOL    HW229100   5.341   3.103   1.506
 9401SOL     OW29101   3.752   6.260   3.169
 9401SOL    HW129102   3.700   6.178   3.192
 9401SOL    HW229103   3.837   6.261   3.223
 9402SOL     OW29104   1.142   5.338   4.436
 9402SOL    HW129105   1.213   5.288   4.487
 9402SOL    HW229106   1.056   5.332   4.486
 9403SOL     OW29107   5.088   1.982   2.999
 9403SOL    HW129108   5.150   1.974   2.920
 9403SOL    HW229109   5.140   1.966   3.083
 9404SOL     OW29110   0.697   4.264   6.197
 9404SOL    HW129111   0.783   4.298   6.158
 9404SOL    HW229112   0.620   4.296   6.141
 9405SOL     OW29113   0.126   6.976   2.805
 9405SOL    HW129114   0.163   6.953   2.895
 9405SOL    HW229115   0.196   7.021   2.750
 9406SOL     OW29116   6.836   2.278   5.949
 9406SOL    HW129117   6.924   2.317   5.924
 9406SOL    HW229118   6.851   2.193   6.000
 9407SOL     OW29119   2.424   5.371   3.342
 9407SOL    HW129120   2.345   5.391   3.401
 9407SOL    HW229121   2.508   5.400   3.388
 9408SOL     OW29122   3.874   1.701   6.344
 9408SOL    HW129123   3.828   1.612   6.335
 9408SOL    HW229124   3.870   1.730   6.440
 9409SOL     OW29125   5.642   4.641   5.742
 9409SOL    HW129126   5.602   4.614   5.830
 9409SOL    HW229127   5.595   4.721   5.707
 9410SOL     OW29128   4.247   5.750   1.537
 9410SOL    HW129129   4.271   5.691   1.614
 9410SOL    HW229130   4.219   5.693   1.459
 9411SOL     OW29131   3.881   4.064   1.071
 9411SOL    HW129132   3.944   3.994   1.040
 9411SOL    HW229133   3.863   4.128   0.997
 9412SOL     OW29134   0.152   3.493   1.860
 9412SOL    HW129135   0.079   3.452   1.807
 9412SOL    HW229136   0.229   3.514   1.800
 9413SOL     OW29137   4.052   5.615   4.638
 9413SOL    HW129138   3.975   5.664   4.678
 9413SOL    HW229139   4.058   5.637   4.541
 9414SOL     OW29140   3.232   1.074   3.594
 9414SOL    HW129141   3.235   0.976   3.610
 9414SOL    HW229142   3.313   1.117   3.634
 9415SOL     OW29143   2.495   6.796   2.690
 9415SOL    HW129144   2.416   6.741   2.664
 9415SOL    HW229145   2.545   6.824   2.608
 9416SOL     OW29146   0.607   1.617   1.679
 9416SOL    HW129147   0.701   1.641   1.656
 9416SOL    HW229148   0.575   1.545   1.618
 9417SOL     OW29149   3.949   0.360   5.790
 9417SOL    HW129150   3.910   0.288   5.733
 9417SOL    HW229151   4.024   0.321   5.845
 9418SOL     OW29152   3.240   6.522   0.744
 9418SOL    HW129153   3.227   6.434   0.789
 9418SOL    HW229154   3.316   6.571   0.787
 9419SOL     OW29155   3.315   5.213   5.824
 9419SOL    HW129156   3.281   5.282   5.761
 9419SOL    HW229157   3.301   5.122   5.785
 9420SOL     OW29158   0.245   2.370   4.412
 9420SOL    HW129159   0.218   2.330   4.324
 9420SOL    HW229160   0.298   2.454   4.395
 9421SOL     OW29161   2.408   6.373   5.108
 9421SOL    HW129162   2.427   6.342   5.202
 9421SOL    HW229163   2.474   6.331   5.046
 9422SOL     OW29164   4.722   6.258   2.935
 9422SOL    HW129165   4.634   6.253   2.888
 9422SOL    HW229166   4.709   6.297   3.026
 9423SOL     OW29167   3.725   0.417   3.606
 9423SOL    HW129168   3.796   0.391   3.542
 9423SOL    HW229169   3.767   0.452   3.690
 9424SOL     OW29170   4.752   0.733   4.938
 9424SOL    HW129171   4.843   0.760   4.969
 9424SOL    HW229172   4.726   0.789   4.859
 9425SOL     OW29173   6.967   3.877   5.917
 9425SOL    HW129174   6.925   3.829   5.994
 9425SOL    HW229175   6.952   3.975   5.927
 9426SOL     OW29176   2.961   1.923   0.298
 9426SOL    HW129177   2.873   1.971   0.288
 9426SOL    HW229178   3.028   1.963   0.235
 9427SOL     OW29179   3.045   5.428   4.961
 9427SOL    HW129180   3.104   5.483   5.020
 9427SOL    HW229181   2.963   5.403   5.012
 9428SOL     OW29182   5.395   1.071   1.418
 9428SOL    HW129183   5.326   1.106   1.481
 9428SOL    HW229184   5.403   0.972   1.428
 9429SOL     OW29185   1.499   4.996   1.975
 9429SOL    HW129186   1.506   5.067   2.046
 9429SOL    HW229187   1.548   5.026   1.893
 9430SOL     OW29188   0.684   5.523   1.799
 9430SOL    HW129189   0.676   5.622   1.812
 9430SOL    HW229190   0.688   5.478   1.888
 9431SOL     OW29191   5.652   4.860   1.080
 9431SOL    HW129192   5.684   4.953   1.096
 9431SOL    HW229193   5.593   4.832   1.156
 9432SOL     OW29194   5.967   0.641   3.000
 9432SOL    HW129195   6.037   0.619   3.069
 9432SOL    HW229196   5.941   0.557   2.951
 9433SOL     OW29197   3.278   5.201   3.777
 9433SOL    HW129198   3.189   5.185   3.734
 9433SOL    HW229199   3.279   5.291   3.820
 9434SOL     OW29200   5.623   4.748   2.847
 9434SOL    HW129201   5.663   4.766   2.758
 9434SOL    HW229202   5.535   4.795   2.855
 9435SOL     OW29203   0.655   1.661   4.023
 9435SOL    HW129204   0.712   1.693   3.947
 9435SOL    HW229205   0.562   1.694   4.010
 9436SOL     OW29206   0.838   4.532   2.822
 9436SOL    HW129207   0.749   4.491   2.800
 9436SOL    HW229208   0.881   4.481   2.895
 9437SOL     OW29209   1.471   6.315   3.658
 9437SOL    HW129210   1.513   6.260   3.730
 9437SOL    HW229211   1.399   6.373   3.697
 9438SOL     OW29212   1.111   6.870   1.285
 9438SOL    HW129213   1.071   6.912   1.203
 9438SOL    HW229214   1.051   6.887   1.363
 9439SOL     OW29215   7.016   3.069   2.263
 9439SOL    HW129216   6.953   3.008   2.311
 9439SOL    HW229217   0.087   3.030   2.266
 9440SOL     OW29218   4.260   6.050   4.245
 9440SOL    HW129219   4.171   6.006   4.245
 9440SOL    HW229220   4.250   6.147   4.221
 9441SOL     OW29221   1.266   4.197   4.789
 9441SOL    HW129222   1.190   4.166   4.732
 9441SOL    HW229223   1.314   4.117   4.827
 9442SOL     OW29224   5.685   3.210   0.277
 9442SOL    HW129225   5.631   3.132   0.245
 9442SOL    HW229226   5.736   3.183   0.359
 9443SOL     OW29227   2.727   5.255   1.411
 9443SOL    HW129228   2.692   5.234   1.502
 9443SOL    HW229229   2.777   5.342   1.414
 9444SOL     OW29230   0.945   4.030   6.250
 9444SOL    HW129231   0.894   3.961   6.301
 9444SOL    HW229232   1.035   3.995   6.226
 9445SOL     OW29233   5.533   3.235   2.476
 9445SOL    HW129234   5.593   3.304   2.516
 9445SOL    HW229235   5.461   3.279   2.422
 9446SOL     OW29236   6.246   6.591   4.142
 9446SOL    HW129237   6.211   6.623   4.230
 9446SOL    HW229238   6.175   6.537   4.096
 9447SOL     OW29239   5.986   3.303   3.265
 9447SOL    HW129240   5.957   3.371   3.333
 9447SOL    HW229241   5.922   3.303   3.189
 9448SOL     OW29242   6.637   6.522   5.874
 9448SOL    HW129243   6.653   6.585   5.798
 9448SOL    HW229244   6.639   6.572   5.960
 9449SOL     OW29245   0.432   5.949   6.476
 9449SOL    HW129246   0.340   5.975   6.506
 9449SOL    HW229247   0.455   5.859   6.512
 9450SOL     OW29248   3.524   4.995   4.570
 9450SOL    HW129249   3.429   4.967   4.580
 9450SOL    HW229250   3.551   5.050   4.649
 9451SOL     OW29251   3.720   5.966   6.087
 9451SOL    HW129252   3.657   6.007   6.153
 9451SOL    HW229253   3.814   5.977   6.120
 9452SOL     OW29254   0.542   3.444   0.664
 9452SOL    HW129255   0.542   3.369   0.598
 9452SOL    HW229256   0.477   3.514   0.636
 9453SOL     OW29257   1.981   4.761   3.439
 9453SOL    HW129258   2.069   4.718   3.460
 9453SOL    HW229259   1.920   4.752   3.517
 9454SOL     OW29260   1.744   3.284   5.746
 9454SOL    HW129261   1.841   3.303   5.764
 9454SOL    HW229262   1.736   3.204   5.687
 9455SOL     OW29263   3.561   1.564   2.751
 9455SOL    HW129264   3.510   1.634   2.702
 9455SOL    HW229265   3.543   1.571   2.849
 9456SOL     OW29266   1.080   3.692   6.506
 9456SOL    HW129267   1.109   3.696   6.601
 9456SOL    HW229268   1.026   3.609   6.491
 9457SOL     OW29269   2.012   3.947   5.898
 9457SOL    HW129270   2.038   4.039   5.869
 9457SOL    HW229271   1.972   3.898   5.820
 9458SOL     OW29272   1.139   3.047   5.940
 9458SOL    HW129273   1.170   2.983   6.010
 9458SOL    HW229274   1.040   3.059   5.947
 9459SOL     OW29275   5.629   4.388   2.564
 9459SOL    HW129276   5.626   4.288   2.567
 9459SOL    HW229277   5.586   4.425   2.647
 9460SOL     OW29278   6.948   1.384   4.238
 9460SOL    HW129279   6.954   1.360   4.335
 9460SOL    HW229280   6.887   1.320   4.192
 9461SOL     OW29281   6.274   1.490   3.342
 9461SOL    HW129282   6.289   1.419   3.274
 9461SOL    HW229283   6.210   1.558   3.306
 9462SOL     OW29284   2.140   3.644   3.547
 9462SOL    HW129285   2.233   3.635   3.512
 9462SOL    HW229286   2.140   3.636   3.646
 9463SOL     OW29287   6.826   1.028   1.475
 9463SOL    HW129288   6.848   1.121   1.445
 9463SOL    HW229289   6.746   1.029   1.534
 9464SOL     OW29290   5.778   6.485   0.294
 9464SOL    HW129291   5.809   6.411   0.354
 9464SOL    HW229292   5.805   6.573   0.332
 9465SOL     OW29293   0.285   6.450   3.452
 9465SOL    HW129294   0.245   6.360   3.468
 9465SOL    HW229295   0.214   6.514   3.425
 9466SOL     OW29296   3.956   4.164   5.272
 9466SOL    HW129297   4.037   4.223   5.275
 9466SOL    HW229298   3.957   4.101   5.349
 9467SOL     OW29299   1.115   2.690   2.043
 9467SOL    HW129300   1.065   2.728   1.965
 9467SOL    HW229301   1.144   2.597   2.023
 9468SOL     OW29302   5.934   2.464   6.214
 9468SOL    HW129303   5.928   2.505   6.123
 9468SOL    HW229304   6.029   2.466   6.245
 9469SOL     OW29305   5.895   5.895   1.208
 9469SOL    HW129306   5.934   5.820   1.262
 9469SOL    HW229307   5.826   5.857   1.145
 9470SOL     OW29308   4.913   3.761   5.519
 9470SOL    HW129309   4.931   3.842   5.574
 9470SOL    HW229310   4.833   3.776   5.462
 9471SOL     OW29311   5.757   1.869   4.830
 9471SOL    HW129312   5.828   1.869   4.760
 9471SOL    HW229313   5.793   1.913   4.913
 9472SOL     OW29314   6.108   3.212   4.299
 9472SOL    HW129315   6.028   3.154   4.313
 9472SOL    HW229316   6.158   3.183   4.218
 9473SOL     OW29317   2.823   5.586   6.203
 9473SOL    HW129318   2.908   5.639   6.196
 9473SOL    HW229319   2.844   5.489   6.211
 9474SOL     OW29320   6.753   3.058   0.066
 9474SOL    HW129321   6.781   3.049   6.991
 9474SOL    HW229322   6.723   3.151   0.083
 9475SOL     OW29323   2.677   3.449   0.472
 9475SOL    HW129324   2.658   3.426   0.376
 9475SOL    HW229325   2.736   3.530   0.475
 9476SOL     OW29326   3.308   3.399   5.143
 9476SOL    HW129327   3.212   3.417   5.121
 9476SOL    HW229328   3.367   3.458   5.088
 9477SOL     OW29329   0.291   3.226   2.414
 9477SOL    HW129330   0.285   3.301   2.348
 9477SOL    HW229331   0.277   3.139   2.367
 9478SOL     OW29332   5.015   3.309   6.221
 9478SOL    HW129333   4.992   3.335   6.127
 9478SOL    HW229334   5.021   3.391   6.278
 9479SOL     OW29335   5.805   6.545   6.649
 9479SOL    HW129336   5.782   6.448   6.644
 9479SOL    HW229337   5.746   6.590   6.716
 9480SOL     OW29338   5.009   4.289   0.235
 9480SOL    HW129339   5.008   4.195   0.268
 9480SOL    HW229340   4.962   4.294   0.146
 9481SOL     OW29341   5.890   3.096   1.152
 9481SOL    HW129342   5.866   3.024   1.218
 9481SOL    HW229343   5.909   3.181   1.201
 9482SOL     OW29344   5.874   1.258   2.870
 9482SOL    HW129345   5.906   1.196   2.942
 9482SOL    HW229346   5.887   1.353   2.899
 9483SOL     OW29347   1.574   2.001   0.636
 9483SOL    HW129348   1.480   2.026   0.613
 9483SOL    HW229349   1.581   1.901   0.642
 9484SOL     OW29350   4.516   1.617   3.187
 9484SOL    HW129351   4.526   1.523   3.218
 9484SOL    HW229352   4.595   1.643   3.131
 9485SOL     OW29353   0.937   0.131   2.311
 9485SOL    HW129354   1.016   0.069   2.309
 9485SOL    HW229355   0.960   0.212   2.365
 9486SOL     OW29356   2.312   4.767   1.585
 9486SOL    HW129357   2.403   4.765   1.542
 9486SOL    HW229358   2.318   4.813   1.674
 9487SOL     OW29359   2.855   3.614   2.723
 9487SOL    HW129360   2.882   3.651   2.634
 9487SOL    HW229361   2.827   3.519   2.713
 9488SOL     OW29362   2.681   6.277   0.966
 9488SOL    HW129363   2.761   6.329   0.936
 9488SOL    HW229364   2.670   6.196   0.907
 9489SOL     OW29365   3.914   4.070   1.611
 9489SOL    HW129366   3.893   4.000   1.543
 9489SOL    HW229367   3.969   4.030   1.684
 9490SOL     OW29368   6.404   6.279   0.533
 9490SOL    HW129369   6.354   6.248   0.613
 9490SOL    HW229370   6.486   6.328   0.561
 9491SOL     OW29371   0.056   4.336   3.553
 9491SOL    HW129372   0.110   4.253   3.539
 9491SOL    HW229373   0.117   4.414   3.563
 9492SOL     OW29374   3.432   3.508   2.722
 9492SOL    HW129375   3.461   3.446   2.795
 9492SOL    HW229376   3.337   3.487   2.698
 9493SOL     OW29377   4.047   5.027   3.876
 9493SOL    HW129378   4.027   4.965   3.801
 9493SOL    HW229379   3.967   5.085   3.894
 9494SOL     OW29380   4.315   4.134   1.326
 9494SOL    HW129381   4.311   4.041   1.365
 9494SOL    HW229382   4.308   4.129   1.227
 9495SOL     OW29383   5.318   1.753   4.442
 9495SOL    HW129384   5.347   1.782   4.351
 9495SOL    HW229385   5.225   1.786   4.460
 9496SOL     OW29386   5.055   5.036   0.680
 9496SOL    HW129387   5.007   4.993   0.757
 9496SOL    HW229388   5.009   5.010   0.594
 9497SOL     OW29389   5.500   4.713   0.416
 9497SOL    HW129390   5.552   4.658   0.350
 9497SOL    HW229391   5.412   4.737   0.377
 9498SOL     OW29392   5.447   1.244   5.703
 9498SOL    HW129393   5.352   1.212   5.707
 9498SOL    HW229394   5.467   1.298   5.784
 9499SOL     OW29395   2.388   3.734   5.816
 9499SOL    HW129396   2.449   3.659   5.793
 9499SOL    HW229397   2.381   3.797   5.737
 9500SOL     OW29398   3.691   6.990   1.400
 9500SOL    HW129399   3.640   0.032   1.458
 9500SOL    HW229400   3.748   0.021   1.336
 9501SOL     OW29401   2.716   0.822   4.769
 9501SOL    HW129402   2.674   0.753   4.710
 9501SOL    HW229403   2.782   0.875   4.716
 9502SOL     OW29404   0.114   1.683   4.293
 9502SOL    HW129405   0.203   1.638   4.284
 9502SOL    HW229406   0.056   1.659   4.215
 9503SOL     OW29407   0.911   1.442   1.848
 9503SOL    HW129408   0.977   1.371   1.872
 9503SOL    HW229409   0.923   1.520   1.908
 9504SOL     OW29410   0.773   1.763   1.121
 9504SOL    HW129411   0.681   1.798   1.104
 9504SOL    HW229412   0.832   1.786   1.043
 9505SOL     OW29413   5.685   4.160   3.615
 9505SOL    HW129414   5.660   4.065   3.637
 9505SOL    HW229415   5.602   4.211   3.592
 9506SOL     OW29416   0.137   3.365   6.460
 9506SOL    HW129417   0.137   3.282   6.403
 9506SOL    HW229418   0.216   3.362   6.522
 9507SOL     OW29419   1.246   1.160   3.287
 9507SOL    HW129420   1.165   1.180   3.233
 9507SOL    HW229421   1.261   1.234   3.354
 9508SOL     OW29422   5.905   2.845   0.712
 9508SOL    HW129423   5.888   2.819   0.807
 9508SOL    HW229424   5.954   2.933   0.709
 9509SOL     OW29425   1.222   0.223   5.725
 9509SOL    HW129426   1.241   0.265   5.636
 9509SOL    HW229427   1.123   0.225   5.742
 9510SOL     OW29428   0.840   4.393   1.531
 9510SOL    HW129429   0.850   4.352   1.440
 9510SOL    HW229430   0.928   4.391   1.579
 9511SOL     OW29431   0.882   1.200   0.325
 9511SOL    HW129432   0.869   1.156   0.414
 9511SOL    HW229433   0.868   1.134   0.252
 9512SOL     OW29434   5.787   1.406   2.318
 9512SOL    HW129435   5.734   1.324   2.342
 9512SOL    HW229436   5.829   1.443   2.401
 9513SOL     OW29437   1.445   3.560   4.924
 9513SOL    HW129438   1.472   3.615   4.844
 9513SOL    HW229439   1.461   3.612   5.007
 9514SOL     OW29440   1.939   4.005   6.771
 9514SOL    HW129441   2.028   3.962   6.758
 9514SOL    HW229442   1.869   3.955   6.721
 9515SOL     OW29443   1.520   5.469   0.163
 9515SOL    HW129444   1.539   5.374   0.139
 9515SOL    HW229445   1.579   5.498   0.237
 9516SOL     OW29446   5.128   3.644   4.613
 9516SOL    HW129447   5.046   3.638   4.671
 9516SOL    HW229448   5.209   3.650   4.670
 9517SOL     OW29449   1.738   4.996   0.162
 9517SOL    HW129450   1.740   4.896   0.165
 9517SOL    HW229451   1.825   5.030   0.126
 9518SOL     OW29452   0.654   2.123   6.746
 9518SOL    HW129453   0.735   2.095   6.694
 9518SOL    HW229454   0.594   2.176   6.687
 9519SOL     OW29455   4.090   3.521   3.820
 9519SOL    HW129456   4.016   3.507   3.886
 9519SOL    HW229457   4.163   3.455   3.837
 9520SOL     OW29458   6.666   0.521   3.461
 9520SOL    HW129459   6.581   0.570   3.481
 9520SOL    HW229460   6.718   0.508   3.545
 9521SOL     OW29461   3.303   4.134   1.240
 9521SOL    HW129462   3.355   4.056   1.277
 9521SOL    HW229463   3.331   4.218   1.286
 9522SOL     OW29464   4.072   6.185   2.826
 9522SOL    HW129465   4.062   6.216   2.920
 9522SOL    HW229466   3.990   6.136   2.798
 9523SOL     OW29467   2.657   4.779   5.191
 9523SOL    HW129468   2.681   4.729   5.108
 9523SOL    HW229469   2.709   4.743   5.268
 9524SOL     OW29470   1.830   2.608   0.715
 9524SOL    HW129471   1.836   2.511   0.691
 9524SOL    HW229472   1.761   2.621   0.786
 9525SOL     OW29473   1.941   2.411   5.226
 9525SOL    HW129474   1.955   2.502   5.187
 9525SOL    HW229475   1.935   2.344   5.152
 9526SOL     OW29476   6.253   4.495   1.409
 9526SOL    HW129477   6.281   4.495   1.313
 9526SOL    HW229478   6.310   4.430   1.460
 9527SOL     OW29479   2.837   0.296   5.201
 9527SOL    HW129480   2.896   0.236   5.254
 9527SOL    HW229481   2.765   0.333   5.261
 9528SOL     OW29482   6.569   1.572   0.869
 9528SOL    HW129483   6.610   1.567   0.960
 9528SOL    HW229484   6.585   1.486   0.821
 9529SOL     OW29485   5.803   3.577   0.062
 9529SOL    HW129486   5.849   3.490   0.043
 9529SOL    HW229487   5.870   3.647   0.084
 9530SOL     OW29488   1.003   3.421   3.315
 9530SOL    HW129489   1.062   3.368   3.376
 9530SOL    HW229490   0.921   3.367   3.293
 9531SOL     OW29491   5.043   4.016   2.197
 9531SOL    HW129492   4.958   4.017   2.145
 9531SOL    HW229493   5.108   3.953   2.155
 9532SOL     OW29494   0.353   5.305   0.616
 9532SOL    HW129495   0.293   5.385   0.609
 9532SOL    HW229496   0.355   5.273   0.711
 9533SOL     OW29497   1.120   5.528   4.003
 9533SOL    HW129498   1.029   5.500   3.973
 9533SOL    HW229499   1.148   5.472   4.080
 9534SOL     OW29500   5.770   4.178   4.907
 9534SOL    HW129501   5.795   4.232   4.826
 9534SOL    HW229502   5.784   4.232   4.989
 9535SOL     OW29503   2.017   0.643   5.960
 9535SOL    HW129504   2.086   0.571   5.953
 9535SOL    HW229505   1.979   0.661   5.870
 9536SOL     OW29506   3.131   3.715   5.210
 9536SOL    HW129507   3.084   3.635   5.172
 9536SOL    HW229508   3.067   3.792   5.215
 9537SOL     OW29509   2.142   0.811   4.160
 9537SOL    HW129510   2.211   0.860   4.107
 9537SOL    HW229511   2.119   0.864   4.241
 9538SOL     OW29512   5.031   0.765   4.507
 9538SOL    HW129513   5.017   0.668   4.530
 9538SOL    HW229514   4.943   0.810   4.497
 9539SOL     OW29515   3.069   4.023   4.535
 9539SOL    HW129516   3.106   4.072   4.614
 9539SOL    HW229517   3.031   3.935   4.565
 9540SOL     OW29518   5.425   4.776   4.411
 9540SOL    HW129519   5.450   4.712   4.484
 9540SOL    HW229520   5.505   4.797   4.355
 9541SOL     OW29521   2.842   0.618   6.288
 9541SOL    HW129522   2.778   0.636   6.214
 9541SOL    HW229523   2.929   0.585   6.249
 9542SOL     OW29524   5.164   4.637   4.986
 9542SOL    HW129525   5.160   4.691   4.901
 9542SOL    HW229526   5.234   4.674   5.046
 9543SOL     OW29527   3.692   1.080   6.339
 9543SOL    HW129528   3.749   1.135   6.400
 9543SOL    HW229529   3.630   1.024   6.393
 9544SOL     OW29530   5.881   3.002   3.640
 9544SOL    HW129531   5.918   3.021   3.549
 9544SOL    HW229532   5.797   3.054   3.653
 9545SOL     OW29533   5.693   5.385   2.725
 9545SOL    HW129534   5.604   5.376   2.680
 9545SOL    HW229535   5.708   5.480   2.750
 9546SOL     OW29536   4.080   1.797   6.119
 9546SOL    HW129537   4.095   1.774   6.216
 9546SOL    HW229538   4.116   1.888   6.101
 9547SOL     OW29539   2.606   5.573   4.169
 9547SOL    HW129540   2.593   5.672   4.166
 9547SOL    HW229541   2.691   5.549   4.123
 9548SOL     OW29542   6.967   4.812   4.789
 9548SOL    HW129543   6.896   4.793   4.721
 9548SOL    HW229544   0.032   4.830   4.742
 9549SOL     OW29545   3.444   1.894   1.565
 9549SOL    HW129546   3.509   1.847   1.625
 9549SOL    HW229547   3.384   1.826   1.522
 9550SOL     OW29548   6.970   1.125   0.288
 9550SOL    HW129549   0.013   1.049   0.281
 9550SOL    HW229550   7.017   1.211   0.267
 9551SOL     OW29551   5.966   3.114   5.783
 9551SOL    HW129552   6.037   3.099   5.852
 9551SOL    HW229553   6.010   3.130   5.694
 9552SOL     OW29554   2.477   5.836   5.057
 9552SOL    HW129555   2.542   5.767   5.025
 9552SOL    HW229556   2.464   5.827   5.156
 9553SOL     OW29557   6.008   2.221   0.021
 9553SOL    HW129558   5.966   2.305   0.055
 9553SOL    HW229559   5.961   2.192   6.959
 9554SOL     OW29560   2.132   6.374   2.816
 9554SOL    HW129561   2.102   6.397   2.724
 9554SOL    HW229562   2.221   6.415   2.833
 9555SOL     OW29563   0.545   1.341   2.822
 9555SOL    HW129564   0.573   1.424   2.775
 9555SOL    HW229565   0.450   1.350   2.853
 9556SOL     OW29566   1.480   4.380   1.823
 9556SOL    HW129567   1.446   4.293   1.858
 9556SOL    HW229568   1.447   4.455   1.880
 9557SOL     OW29569   6.331   6.261   1.479
 9557SOL    HW129570   6.240   6.285   1.515
 9557SOL    HW229571   6.327   6.258   1.379
 9558SOL     OW29572   6.118   5.911   5.910
 9558SOL    HW129573   6.136   5.813   5.905
 9558SOL    HW229574   6.149   5.955   5.825
 9559SOL     OW29575   0.721   5.094   0.701
 9559SOL    HW129576   0.701   5.164   0.632
 9559SOL    HW229577   0.678   5.008   0.673
 9560SOL     OW29578   2.741   1.313   2.773
 9560SOL    HW129579   2.784   1.360   2.851
 9560SOL    HW229580   2.805   1.248   2.734
 9561SOL     OW29581   1.477   0.809   1.646
 9561SOL    HW129582   1.415   0.733   1.664
 9561SOL    HW229583   1.529   0.791   1.562
 9562SOL     OW29584   3.228   0.387   5.090
 9562SOL    HW129585   3.247   0.484   5.108
 9562SOL    HW229586   3.139   0.379   5.046
 9563SOL     OW29587   0.167   6.847   0.731
 9563SOL    HW129588   0.117   6.831   0.817
 9563SOL    HW229589   0.163   6.944   0.708
 9564SOL     OW29590   2.976   1.338   0.559
 9564SOL    HW129591   2.929   1.353   0.472
 9564SOL    HW229592   2.960   1.417   0.619
 9565SOL     OW29593   4.227   0.499   4.716
 9565SOL    HW129594   4.145   0.503   4.773
 9565SOL    HW229595   4.216   0.560   4.638
 9566SOL     OW29596   3.294   5.580   6.698
 9566SOL    HW129597   3.274   5.489   6.662
 9566SOL    HW229598   3.363   5.624   6.641
 9567SOL     OW29599   4.943   4.800   0.546
 9567SOL    HW129600   4.887   4.767   0.470
 9567SOL    HW229601   4.895   4.785   0.632
 9568SOL     OW29602   4.286   2.690   6.432
 9568SOL    HW129603   4.203   2.724   6.387
 9568SOL    HW229604   4.364   2.701   6.371
 9569SOL     OW29605   6.706   0.873   2.709
 9569SOL    HW129606   6.621   0.881   2.656
 9569SOL    HW229607   6.723   0.960   2.757
 9570SOL     OW29608   0.332   3.268   1.543
 9570SOL    HW129609   0.289   3.178   1.549
 9570SOL    HW229610   0.347   3.304   1.636
 9571SOL     OW29611   3.329   3.673   6.453
 9571SOL    HW129612   3.397   3.725   6.504
 9571SOL    HW229613   3.364   3.581   6.436
 9572SOL     OW29614   2.347   4.932   1.803
 9572SOL    HW129615   2.440   4.943   1.769
 9572SOL    HW229616   2.344   4.857   1.869
 9573SOL     OW29617   0.944   2.186   6.803
 9573SOL    HW129618   1.012   2.153   6.868
 9573SOL    HW229619   0.901   2.269   6.839
 9574SOL     OW29620   4.042   3.521   3.245
 9574SOL    HW129621   3.950   3.482   3.248
 9574SOL    HW229622   4.075   3.533   3.339
 9575SOL     OW29623   0.597   1.057   1.669
 9575SOL    HW129624   0.662   0.998   1.717
 9575SOL    HW229625   0.639   1.088   1.583
 9576SOL     OW29626   2.181   1.590   0.719
 9576SOL    HW129627   2.206   1.597   0.816
 9576SOL    HW229628   2.238   1.652   0.665
 9577SOL     OW29629   1.233   0.360   5.981
 9577SOL    HW129630   1.197   0.439   5.931
 9577SOL    HW229631   1.247   0.284   5.917
 9578SOL     OW29632   0.670   4.062   2.801
 9578SOL    HW129633   0.607   4.069   2.878
 9578SOL    HW229634   0.731   3.984   2.815
 9579SOL     OW29635   0.657   4.617   3.244
 9579SOL    HW129636   0.619   4.536   3.200
 9579SOL    HW229637   0.673   4.598   3.341
 9580SOL     OW29638   4.365   3.471   0.678
 9580SOL    HW129639   4.444   3.499   0.622
 9580SOL    HW229640   4.366   3.523   0.764
 9581SOL     OW29641   0.471   7.020   5.821
 9581SOL    HW129642   0.553   7.013   5.765
 9581SOL    HW229643   0.416   0.076   5.791
 9582SOL     OW29644   4.812   4.779   5.320
 9582SOL    HW129645   4.737   4.842   5.341
 9582SOL    HW229646   4.823   4.771   5.221
 9583SOL     OW29647   3.441   3.917   1.310
 9583SOL    HW129648   3.428   3.826   1.350
 9583SOL    HW229649   3.519   3.916   1.247
 9584SOL     OW29650   0.255   4.653   6.274
 9584SOL    HW129651   0.282   4.557   6.287
 9584SOL    HW229652   0.177   4.673   6.333
 9585SOL     OW29653   6.511   6.647   4.226
 9585SOL    HW129654   6.419   6.628   4.191
 9585SOL    HW229655   6.556   6.561   4.249
 9586SOL     OW29656   5.272   4.763   2.287
 9586SOL    HW129657   5.279   4.686   2.224
 9586SOL    HW229658   5.358   4.814   2.287
 9587SOL     OW29659   1.060   0.604   1.454
 9587SOL    HW129660   1.050   0.595   1.355
 9587SOL    HW229661   1.018   0.525   1.499
 9588SOL     OW29662   6.472   0.444   1.545
 9588SOL    HW129663   6.414   0.363   1.554
 9588SOL    HW229664   6.470   0.476   1.450
 9589SOL     OW29665   2.164   4.808   6.756
 9589SOL    HW129666   2.235   4.745   6.786
 9589SOL    HW229667   2.189   4.847   6.667
 9590SOL     OW29668   6.263   2.863   2.084
 9590SOL    HW129669   6.255   2.827   2.177
 9590SOL    HW229670   6.222   2.799   2.020
 9591SOL     OW29671   3.160   5.703   5.439
 9591SOL    HW129672   3.187   5.766   5.512
 9591SOL    HW229673   3.238   5.687   5.378
 9592SOL     OW29674   3.150   4.464   0.254
 9592SOL    HW129675   3.211   4.443   0.177
 9592SOL    HW229676   3.128   4.380   0.302
 9593SOL     OW29677   0.433   0.762   5.702
 9593SOL    HW129678   0.452   0.664   5.697
 9593SOL    HW229679   0.460   0.806   5.617
 9594SOL     OW29680   1.745   5.130   2.989
 9594SOL    HW129681   1.818   5.151   3.055
 9594SOL    HW229682   1.677   5.203   2.990
 9595SOL     OW29683   0.490   3.116   5.080
 9595SOL    HW129684   0.557   3.059   5.031
 9595SOL    HW229685   0.428   3.159   5.014
 9596SOL     OW29686   0.548   5.413   5.870
 9596SOL    HW129687   0.563   5.485   5.938
 9596SOL    HW229688   0.557   5.323   5.914
 9597SOL     OW29689   0.985   4.426   1.009
 9597SOL    HW129690   0.956   4.499   1.070
 9597SOL    HW229691   1.016   4.465   0.922
 9598SOL     OW29692   1.008   4.349   3.813
 9598SOL    HW129693   1.101   4.350   3.775
 9598SOL    HW229694   0.995   4.427   3.874
 9599SOL     OW29695   3.036   0.096   4.478
 9599SOL    HW129696   3.110   0.029   4.488
 9599SOL    HW229697   3.048   0.169   4.545
 9600SOL     OW29698   2.507   6.482   6.766
 9600SOL    HW129699   2.489   6.508   6.672
 9600SOL    HW229700   2.473   6.389   6.782
 9601SOL     OW29701   4.622   3.688   0.700
 9601SOL    HW129702   4.587   3.681   0.606
 9601SOL    HW229703   4.652   3.597   0.731
 9602SOL     OW29704   6.349   4.406   5.778
 9602SOL    HW129705   6.371   4.335   5.711
 9602SOL    HW229706   6.310   4.485   5.732
 9603SOL     OW29707   4.038   1.651   4.680
 9603SOL    HW129708   3.945   1.665   4.715
 9603SOL    HW229709   4.084   1.739   4.670
 9604SOL     OW29710   4.865   0.254   6.812
 9604SOL    HW129711   4.787   0.262   6.750
 9604SOL    HW229712   4.846   0.184   6.881
 9605SOL     OW29713   0.481   5.796   3.753
 9605SOL    HW129714   0.549   5.808   3.826
 9605SOL    HW229715   0.472   5.699   3.731
 9606SOL     OW29716   1.825   6.431   6.656
 9606SOL    HW129717   1.742   6.469   6.616
 9606SOL    HW229718   1.840   6.470   6.747
 9607SOL     OW29719   1.720   1.924   0.124
 9607SOL    HW129720   1.686   1.913   0.218
 9607SOL    HW229721   1.813   1.960   0.126
 9608SOL     OW29722   6.799   5.424   2.822
 9608SOL    HW129723   6.898   5.420   2.835
 9608SOL    HW229724   6.754   5.360   2.885
 9609SOL     OW29725   2.462   3.779   7.011
 9609SOL    HW129726   2.512   3.797   6.927
 9609SOL    HW229727   2.414   3.692   7.004
 9610SOL     OW29728   1.337   4.352   3.766
 9610SOL    HW129729   1.390   4.436   3.775
 9610SOL    HW229730   1.351   4.314   3.674
 9611SOL     OW29731   0.785   6.634   6.827
 9611SOL    HW129732   0.870   6.605   6.871
 9611SOL    HW229733   0.795   6.628   6.728
 9612SOL     OW29734   0.395   4.225   1.404
 9612SOL    HW129735   0.299   4.220   1.430
 9612SOL    HW229736   0.414   4.158   1.332
 9613SOL     OW29737   5.444   0.014   3.299
 9613SOL    HW129738   5.497   0.012   3.214
 9613SOL    HW229739   5.408   0.106   3.314
 9614SOL     OW29740   3.380   2.333   1.137
 9614SOL    HW129741   3.455   2.298   1.193
 9614SOL    HW229742   3.372   2.432   1.150
 9615SOL     OW29743   1.974   6.952   6.938
 9615SOL    HW129744   1.899   6.972   7.002
 9615SOL    HW229745   1.942   6.889   6.867
 9616SOL     OW29746   4.260   3.872   1.400
 9616SOL    HW129747   4.332   3.871   1.469
 9616SOL    HW229748   4.174   3.841   1.440
 9617SOL     OW29749   1.625   2.748   3.224
 9617SOL    HW129750   1.672   2.818   3.170
 9617SOL    HW229751   1.626   2.661   3.174
 9618SOL     OW29752   4.022   6.820   5.730
 9618SOL    HW129753   4.054   6.914   5.741
 9618SOL    HW229754   3.941   6.819   5.671
 9619SOL     OW29755   1.126   6.756   0.392
 9619SOL    HW129756   1.057   6.829   0.397
 9619SOL    HW229757   1.103   6.684   0.456
 9620SOL     OW29758   4.800   1.443   6.569
 9620SOL    HW129759   4.779   1.521   6.628
 9620SOL    HW229760   4.723   1.426   6.507
 9621SOL     OW29761   0.823   1.240   2.124
 9621SOL    HW129762   0.735   1.194   2.117
 9621SOL    HW229763   0.811   1.327   2.172
 9622SOL     OW29764   6.726   1.042   0.267
 9622SOL    HW129765   6.675   1.083   0.342
 9622SOL    HW229766   6.821   1.027   0.296
 9623SOL     OW29767   2.794   4.478   5.816
 9623SOL    HW129768   2.801   4.451   5.720
 9623SOL    HW229769   2.800   4.397   5.874
 9624SOL     OW29770   0.015   4.695   2.496
 9624SOL    HW129771   6.942   4.694   2.464
 9624SOL    HW229772   0.029   4.773   2.558
 9625SOL     OW29773   5.346   5.280   6.919
 9625SOL    HW129774   5.291   5.251   6.997
 9625SOL    HW229775   5.370   5.201   6.863
 9626SOL     OW29776   3.365   5.662   0.048
 9626SOL    HW129777   3.285   5.622   0.004
 9626SOL    HW229778   3.396   5.602   0.121
 9627SOL     OW29779   6.495   6.234   3.611
 9627SOL    HW129780   6.555   6.232   3.691
 9627SOL    HW229781   6.542   6.278   3.535
 9628SOL     OW29782   5.272   4.600   0.050
 9628SOL    HW129783   5.349   4.661   0.066
 9628SOL    HW229784   5.240   4.562   0.137
 9629SOL     OW29785   0.319   6.846   2.339
 9629SOL    HW129786   0.413   6.877   2.352
 9629SOL    HW229787   0.300   6.834   2.242
 9630SOL     OW29788   6.413   6.576   5.466
 9630SOL    HW129789   6.341   6.507   5.474
 9630SOL    HW229790   6.498   6.533   5.438
 9631SOL     OW29791   6.861   6.959   6.806
 9631SOL    HW129792   6.921   6.906   6.746
 9631SOL    HW229793   6.798   7.014   6.750
 9632SOL     OW29794   1.592   6.461   2.744
 9632SOL    HW129795   1.540   6.480   2.827
 9632SOL    HW229796   1.575   6.367   2.714
 9633SOL     OW29797   5.314   5.001   6.512
 9633SOL    HW129798   5.234   5.047   6.473
 9633SOL    HW229799   5.350   4.935   6.447
 9634SOL     OW29800   1.398   6.023   3.726
 9634SOL    HW129801   1.329   6.002   3.795
 9634SOL    HW229802   1.353   6.051   3.642
 9635SOL     OW29803   1.648   4.945   5.654
 9635SOL    HW129804   1.650   4.987   5.563
 9635SOL    HW229805   1.681   4.851   5.648
 9636SOL     OW29806   3.786   1.390   6.221
 9636SOL    HW129807   3.754   1.390   6.316
 9636SOL    HW229808   3.830   1.302   6.201
 9637SOL     OW29809   2.848   2.264   5.916
 9637SOL    HW129810   2.836   2.168   5.889
 9637SOL    HW229811   2.944   2.289   5.908
 9638SOL     OW29812   6.601   3.419   6.635
 9638SOL    HW129813   6.588   3.332   6.682
 9638SOL    HW229814   6.568   3.412   6.541
 9639SOL     OW29815   3.748   1.568   1.996
 9639SOL    HW129816   3.848   1.561   1.999
 9639SOL    HW229817   3.720   1.660   2.020
 9640SOL     OW29818   2.519   2.116   3.156
 9640SOL    HW129819   2.563   2.204   3.171
 9640SOL    HW229820   2.585   2.042   3.175
 9641SOL     OW29821   5.136   6.432   0.618
 9641SOL    HW129822   5.053   6.431   0.562
 9641SOL    HW229823   5.206   6.487   0.572
 9642SOL     OW29824   3.332   6.405   5.162
 9642SOL    HW129825   3.332   6.505   5.153
 9642SOL    HW229826   3.268   6.379   5.234
 9643SOL     OW29827   5.776   5.346   4.248
 9643SOL    HW129828   5.853   5.354   4.185
 9643SOL    HW229829   5.693   5.383   4.204
 9644SOL     OW29830   0.987   4.450   5.603
 9644SOL    HW129831   1.086   4.459   5.608
 9644SOL    HW229832   0.948   4.528   5.554
 9645SOL     OW29833   4.023   4.948   3.239
 9645SOL    HW129834   4.090   4.875   3.250
 9645SOL    HW229835   3.941   4.912   3.196
 9646SOL     OW29836   2.794   4.731   2.164
 9646SOL    HW129837   2.789   4.669   2.085
 9646SOL    HW229838   2.793   4.826   2.132
 9647SOL     OW29839   6.327   5.404   1.301
 9647SOL    HW129840   6.307   5.352   1.218
 9647SOL    HW229841   6.380   5.486   1.277
 9648SOL     OW29842   3.958   1.979   6.738
 9648SOL    HW129843   4.039   1.956   6.684
 9648SOL    HW229844   3.980   1.974   6.835
 9649SOL     OW29845   2.968   5.774   6.882
 9649SOL    HW129846   2.884   5.721   6.869
 9649SOL    HW229847   2.948   5.854   6.939
 9650SOL     OW29848   5.390   4.989   2.568
 9650SOL    HW129849   5.434   5.052   2.632
 9650SOL    HW229850   5.302   4.959   2.606
 9651SOL     OW29851   0.139   0.846   6.404
 9651SOL    HW129852   0.158   0.773   6.470
 9651SOL    HW229853   0.196   0.833   6.323
 9652SOL     OW29854   2.390   4.992   0.632
 9652SOL    HW129855   2.360   4.899   0.653
 9652SOL    HW229856   2.355   5.055   0.701
 9653SOL     OW29857   3.849   5.287   4.861
 9653SOL    HW129858   3.884   5.194   4.861
 9653SOL    HW229859   3.838   5.319   4.767
 9654SOL     OW29860   3.512   3.061   1.161
 9654SOL    HW129861   3.612   3.056   1.161
 9654SOL    HW229862   3.475   2.999   1.230
 9655SOL     OW29863   0.049   1.732   6.961
 9655SOL    HW129864   7.021   1.673   0.002
 9655SOL    HW229865   7.009   1.801   6.922
 9656SOL     OW29866   2.781   2.550   1.316
 9656SOL    HW129867   2.714   2.609   1.361
 9656SOL    HW229868   2.753   2.455   1.324
 9657SOL     OW29869   6.433   1.075   3.803
 9657SOL    HW129870   6.354   1.121   3.842
 9657SOL    HW229871   6.477   1.134   3.736
 9658SOL     OW29872   6.014   1.956   3.182
 9658SOL    HW129873   6.061   1.936   3.096
 9658SOL    HW229874   5.971   2.046   3.176
 9659SOL     OW29875   6.779   4.265   6.899
 9659SOL    HW129876   6.711   4.330   6.864
 9659SOL    HW229877   6.765   4.176   6.854
 9660SOL     OW29878   0.293   6.131   1.087
 9660SOL    HW129879   0.336   6.218   1.062
 9660SOL    HW229880   0.315   6.062   1.018
 9661SOL     OW29881   4.008   6.077   2.311
 9661SOL    HW129882   4.096   6.041   2.280
 9661SOL    HW229883   4.023   6.163   2.360
 9662SOL     OW29884   4.958   2.649   5.149
 9662SOL    HW129885   4.868   2.629   5.110
 9662SOL    HW229886   4.974   2.748   5.147
 9663SOL     OW29887   0.896   5.550   4.268
 9663SOL    HW129888   0.851   5.560   4.180
 9663SOL    HW229889   0.983   5.599   4.267
 9664SOL     OW29890   6.092   6.806   3.660
 9664SOL    HW129891   6.154   6.761   3.597
 9664SOL    HW229892   5.999   6.775   3.644
 9665SOL     OW29893   5.576   6.155   6.205
 9665SOL    HW129894   5.517   6.208   6.144
 9665SOL    HW229895   5.520   6.107   6.272
 9666SOL     OW29896   6.194   4.135   1.647
 9666SOL    HW129897   6.170   4.083   1.565
 9666SOL    HW229898   6.283   4.180   1.633
 9667SOL     OW29899   2.983   3.815   4.018
 9667SOL    HW129900   3.002   3.719   4.038
 9667SOL    HW229901   2.957   3.862   4.102
 9668SOL     OW29902   5.736   1.426   6.988
 9668SOL    HW129903   5.835   1.436   7.000
 9668SOL    HW229904   5.716   1.386   6.899
 9669SOL     OW29905   0.942   0.035   2.034
 9669SOL    HW129906   0.904   0.120   1.998
 9669SOL    HW229907   0.920   0.027   2.132
 9670SOL     OW29908   5.261   4.572   6.503
 9670SOL    HW129909   5.314   4.620   6.433
 9670SOL    HW229910   5.280   4.611   6.593
 9671SOL     OW29911   6.831   5.421   6.465
 9671SOL    HW129912   6.765   5.415   6.540
 9671SOL    HW229913   6.866   5.329   6.446
 9672SOL     OW29914   1.058   5.851   4.487
 9672SOL    HW129915   0.969   5.810   4.508
 9672SOL    HW229916   1.101   5.801   4.412
 9673SOL     OW29917   5.603   4.229   0.069
 9673SOL    HW129918   5.623   4.133   0.049
 9673SOL    HW229919   5.532   4.262   0.006
 9674SOL     OW29920   2.691   6.001   3.413
 9674SOL    HW129921   2.762   6.022   3.481
 9674SOL    HW229922   2.604   5.983   3.459
 9675SOL     OW29923   6.271   2.009   1.127
 9675SOL    HW129924   6.321   2.054   1.053
 9675SOL    HW229925   6.185   2.057   1.144
 9676SOL     OW29926   1.254   3.705   5.277
 9676SOL    HW129927   1.190   3.653   5.221
 9676SOL    HW229928   1.344   3.707   5.233
 9677SOL     OW29929   1.931   5.868   5.526
 9677SOL    HW129930   2.029   5.881   5.512
 9677SOL    HW229931   1.895   5.806   5.456
 9678SOL     OW29932   3.155   3.475   2.702
 9678SOL    HW129933   3.121   3.566   2.678
 9678SOL    HW229934   3.109   3.444   2.785
 9679SOL     OW29935   2.358   0.940   2.506
 9679SOL    HW129936   2.286   0.894   2.454
 9679SOL    HW229937   2.415   0.993   2.444
 9680SOL     OW29938   5.990   0.229   3.985
 9680SOL    HW129939   5.922   0.159   4.006
 9680SOL    HW229940   5.944   0.317   3.972
 9681SOL     OW29941   3.349   1.000   0.670
 9681SOL    HW129942   3.324   1.096   0.660
 9681SOL    HW229943   3.332   0.951   0.585
 9682SOL     OW29944   5.028   4.953   3.724
 9682SOL    HW129945   5.039   4.880   3.792
 9682SOL    HW229946   5.118   4.994   3.705
 9683SOL     OW29947   2.706   5.632   0.837
 9683SOL    HW129948   2.768   5.692   0.887
 9683SOL    HW229949   2.619   5.679   0.823
 9684SOL     OW29950   0.241   1.977   4.881
 9684SOL    HW129951   0.148   1.941   4.883
 9684SOL    HW229952   0.241   2.068   4.837
 9685SOL     OW29953   1.910   3.632   0.819
 9685SOL    HW129954   1.997   3.665   0.855
 9685SOL    HW229955   1.835   3.686   0.858
 9686SOL     OW29956   6.420   2.391   0.774
 9686SOL    HW129957   6.392   2.380   0.869
 9686SOL    HW229958   6.361   2.334   0.715
 9687SOL     OW29959   2.009   1.336   3.686
 9687SOL    HW129960   1.963   1.411   3.638
 9687SOL    HW229961   1.987   1.250   3.641
 9688SOL     OW29962   6.630   2.146   3.174
 9688SOL    HW129963   6.559   2.087   3.136
 9688SOL    HW229964   6.618   2.152   3.273
 9689SOL     OW29965   1.517   5.937   0.496
 9689SOL    HW129966   1.568   5.860   0.457
 9689SOL    HW229967   1.482   5.911   0.586
 9690SOL     OW29968   5.671   5.708   6.419
 9690SOL    HW129969   5.573   5.693   6.409
 9690SOL    HW229970   5.687   5.793   6.469
 9691SOL     OW29971   2.948   4.927   1.585
 9691SOL    HW129972   3.035   4.881   1.568
 9691SOL    HW229973   2.925   4.919   1.682
 9692SOL     OW29974   2.965   5.423   2.185
 9692SOL    HW129975   3.026   5.454   2.258
 9692SOL    HW229976   2.929   5.333   2.208
 9693SOL     OW29977   6.285   5.589   1.013
 9693SOL    HW129978   6.351   5.619   0.944
 9693SOL    HW229979   6.256   5.668   1.068
 9694SOL     OW29980   2.165   0.882   6.308
 9694SOL    HW129981   2.261   0.890   6.280
 9694SOL    HW229982   2.151   0.933   6.393
 9695SOL     OW29983   6.916   4.063   1.706
 9695SOL    HW129984   6.872   4.054   1.616
 9695SOL    HW229985   6.987   3.993   1.715
 9696SOL     OW29986   5.208   2.806   1.073
 9696SOL    HW129987   5.208   2.735   1.144
 9696SOL    HW229988   5.157   2.886   1.105
 9697SOL     OW29989   6.924   6.094   0.320
 9697SOL    HW129990   6.952   6.046   0.237
 9697SOL    HW229991   7.005   6.126   0.370
 9698SOL     OW29992   5.508   1.946   6.292
 9698SOL    HW129993   5.570   1.967   6.367
 9698SOL    HW229994   5.560   1.917   6.212
 9699SOL     OW29995   0.259   4.378   6.929
 9699SOL    HW129996   0.259   4.407   0.003
 9699SOL    HW229997   0.353   4.361   6.900
 9700SOL     OW29998   4.371   5.091   4.954
 9700SOL    HW129999   4.368   4.993   4.935
 9700SOL    HW230000   4.377   5.141   4.868
 9701SOL     OW30001   3.812   5.005   4.904
 9701SOL    HW130002   3.719   4.985   4.936
 9701SOL    HW230003   3.866   5.043   4.980
 9702SOL     OW30004   4.674   0.809   0.128
 9702SOL    HW130005   4.719   0.720   0.142
 9702SOL    HW230006   4.677   0.833   0.031
 9703SOL     OW30007   3.871   5.201   3.993
 9703SOL    HW130008   3.774   5.175   3.987
 9703SOL    HW230009   3.901   5.195   4.088
 9704SOL     OW30010   2.959   1.181   2.660
 9704SOL    HW130011   2.968   1.089   2.699
 9704SOL    HW230012   2.919   1.176   2.569
 9705SOL     OW30013   4.993   5.886   6.651
 9705SOL    HW130014   5.069   5.938   6.691
 9705SOL    HW230015   4.953   5.826   6.719
 9706SOL     OW30016   0.691   2.671   0.738
 9706SOL    HW130017   0.654   2.579   0.730
 9706SOL    HW230018   0.621   2.731   0.778
 9707SOL     OW30019   6.809   4.363   1.687
 9707SOL    HW130020   6.847   4.285   1.638
 9707SOL    HW230021   6.861   4.379   1.770
 9708SOL     OW30022   1.119   2.306   2.552
 9708SOL    HW130023   1.161   2.230   2.502
 9708SOL    HW230024   1.124   2.389   2.497
 9709SOL     OW30025   5.641   5.833   2.121
 9709SOL    HW130026   5.624   5.884   2.037
 9709SOL    HW230027   5.617   5.737   2.107
 9710SOL     OW30028   0.581   1.595   2.515
 9710SOL    HW130029   0.582   1.673   2.578
 9710SOL    HW230030   0.669   1.548   2.519
 9711SOL     OW30031   1.517   3.207   6.120
 9711SOL    HW130032   1.519   3.249   6.029
 9711SOL    HW230033   1.456   3.259   6.179
 9712SOL     OW30034   5.888   4.220   5.511
 9712SOL    HW130035   5.965   4.204   5.572
 9712SOL    HW230036   5.808   4.247   5.565
 9713SOL     OW30037   1.270   4.984   3.538
 9713SOL    HW130038   1.368   4.990   3.557
 9713SOL    HW230039   1.239   4.889   3.547
 9714SOL     OW30040   2.765   1.777   1.792
 9714SOL    HW130041   2.723   1.868   1.783
 9714SOL    HW230042   2.725   1.730   1.871
 9715SOL     OW30043   5.366   5.072   6.116
 9715SOL    HW130044   5.359   5.127   6.033
 9715SOL    HW230045   5.452   5.095   6.163
 9716SOL     OW30046   4.042   2.480   6.588
 9716SOL    HW130047   3.944   2.461   6.602
 9716SOL    HW230048   4.081   2.516   6.672
 9717SOL     OW30049   5.866   5.424   5.407
 9717SOL    HW130050   5.861   5.511   5.456
 9717SOL    HW230051   5.855   5.440   5.309
 9718SOL     OW30052   4.646   2.748   1.843
 9718SOL    HW130053   4.674   2.838   1.878
 9718SOL    HW230054   4.658   2.680   1.914
 9719SOL     OW30055   0.425   2.045   0.075
 9719SOL    HW130056   0.413   1.950   0.103
 9719SOL    HW230057   0.522   2.062   0.056
 9720SOL     OW30058   0.207   5.849   1.677
 9720SOL    HW130059   0.290   5.883   1.632
 9720SOL    HW230060   0.178   5.914   1.748
 9721SOL     OW30061   0.812   3.408   0.850
 9721SOL    HW130062   0.759   3.451   0.777
 9721SOL    HW230063   0.754   3.341   0.898
 9722SOL     OW30064   0.323   0.328   3.534
 9722SOL    HW130065   0.347   0.239   3.496
 9722SOL    HW230066   0.388   0.397   3.503
 9723SOL     OW30067   2.033   6.068   3.920
 9723SOL    HW130068   2.087   6.116   3.851
 9723SOL    HW230069   2.069   5.975   3.931
 9724SOL     OW30070   2.320   3.583   0.372
 9724SOL    HW130071   2.288   3.493   0.403
 9724SOL    HW230072   2.417   3.578   0.350
 9725SOL     OW30073   4.062   4.423   6.942
 9725SOL    HW130074   4.107   4.427   6.853
 9725SOL    HW230075   4.039   4.328   6.963
 9726SOL     OW30076   4.463   6.868   4.041
 9726SOL    HW130077   4.552   6.895   4.077
 9726SOL    HW230078   4.415   6.813   4.110
 9727SOL     OW30079   0.488   3.250   5.343
 9727SOL    HW130080   0.483   3.335   5.290
 9727SOL    HW230081   0.550   3.186   5.297
 9728SOL     OW30082   0.608   0.266   5.961
 9728SOL    HW130083   0.678   0.203   5.996
 9728SOL    HW230084   0.586   0.242   5.866
 9729SOL     OW30085   1.041   4.469   3.006
 9729SOL    HW130086   1.076   4.549   3.056
 9729SOL    HW230087   1.085   4.386   3.041
 9730SOL     OW30088   0.144   3.394   2.687
 9730SOL    HW130089   0.202   3.376   2.607
 9730SOL    HW230090   0.193   3.451   2.752
 9731SOL     OW30091   4.432   3.887   0.807
 9731SOL    HW130092   4.357   3.953   0.794
 9731SOL    HW230093   4.399   3.795   0.786
 9732SOL     OW30094   5.107   5.838   3.112
 9732SOL    HW130095   5.202   5.814   3.131
 9732SOL    HW230096   5.092   5.934   3.134
 9733SOL     OW30097   5.260   5.030   6.803
 9733SOL    HW130098   5.354   4.996   6.801
 9733SOL    HW230099   5.220   5.022   6.712
 9734SOL     OW30100   5.500   2.030   3.504
 9734SOL    HW130101   5.579   1.984   3.462
 9734SOL    HW230102   5.531   2.112   3.551
 9735SOL     OW30103   1.642   4.610   2.759
 9735SOL    HW130104   1.711   4.542   2.782
 9735SOL    HW230105   1.608   4.653   2.843
 9736SOL     OW30106   5.880   1.866   6.330
 9736SOL    HW130107   5.870   1.832   6.237
 9736SOL    HW230108   5.947   1.941   6.331
 9737SOL     OW30109   6.894   3.177   5.051
 9737SOL    HW130110   6.805   3.208   5.086
 9737SOL    HW230111   6.915   3.225   4.966
 9738SOL     OW30112   2.148   6.823   2.788
 9738SOL    HW130113   2.217   6.790   2.852
 9738SOL    HW230114   2.078   6.753   2.776
 9739SOL     OW30115   6.709   5.522   1.902
 9739SOL    HW130116   6.637   5.454   1.890
 9739SOL    HW230117   6.795   5.476   1.925
 9740SOL     OW30118   6.513   2.897   3.914
 9740SOL    HW130119   6.544   2.909   4.008
 9740SOL    HW230120   6.435   2.834   3.912
 9741SOL     OW30121   4.605   1.571   2.730
 9741SOL    HW130122   4.548   1.529   2.660
 9741SOL    HW230123   4.701   1.563   2.705
 9742SOL     OW30124   3.991   0.108   2.109
 9742SOL    HW130125   4.077   0.155   2.087
 9742SOL    HW230126   3.944   0.083   2.024
 9743SOL     OW30127   1.420   1.706   4.573
 9743SOL    HW130128   1.327   1.669   4.572
 9743SOL    HW230129   1.485   1.632   4.595
 9744SOL     OW30130   0.600   0.318   3.143
 9744SOL    HW130131   0.525   0.376   3.113
 9744SOL    HW230132   0.575   0.270   3.227
 9745SOL     OW30133   6.769   2.838   6.223
 9745SOL    HW130134   6.750   2.761   6.162
 9745SOL    HW230135   6.867   2.860   6.218
 9746SOL     OW30136   6.291   0.947   6.198
 9746SOL    HW130137   6.197   0.914   6.204
 9746SOL    HW230138   6.296   1.039   6.236
 9747SOL     OW30139   2.252   0.317   1.944
 9747SOL    HW130140   2.252   0.417   1.939
 9747SOL    HW230141   2.215   0.288   2.032
 9748SOL     OW30142   1.307   1.521   3.316
 9748SOL    HW130143   1.305   1.619   3.332
 9748SOL    HW230144   1.290   1.473   3.402
 9749SOL     OW30145   2.242   2.034   4.693
 9749SOL    HW130146   2.290   1.988   4.767
 9749SOL    HW230147   2.293   2.025   4.608
 9750SOL     OW30148   5.431   4.742   3.223
 9750SOL    HW130149   5.474   4.669   3.170
 9750SOL    HW230150   5.501   4.789   3.278
 9751SOL     OW30151   2.035   1.373   0.977
 9751SOL    HW130152   2.081   1.355   0.891
 9751SOL    HW230153   2.021   1.472   0.988
 9752SOL     OW30154   5.415   1.107   0.071
 9752SOL    HW130155   5.344   1.037   0.074
 9752SOL    HW230156   5.505   1.064   0.079
 9753SOL     OW30157   5.611   5.164   5.185
 9753SOL    HW130158   5.709   5.144   5.180
 9753SOL    HW230159   5.559   5.089   5.144
 9754SOL     OW30160   0.849   1.436   0.199
 9754SOL    HW130161   0.943   1.469   0.195
 9754SOL    HW230162   0.848   1.342   0.233
 9755SOL     OW30163   4.175   3.741   5.209
 9755SOL    HW130164   4.098   3.747   5.145
 9755SOL    HW230165   4.207   3.647   5.214
 9756SOL     OW30166   6.203   3.208   0.359
 9756SOL    HW130167   6.121   3.163   0.395
 9756SOL    HW230168   6.192   3.223   0.261
 9757SOL     OW30169   5.675   3.382   3.351
 9757SOL    HW130170   5.696   3.445   3.276
 9757SOL    HW230171   5.616   3.427   3.417
 9758SOL     OW30172   2.635   0.172   0.015
 9758SOL    HW130173   2.641   0.095   0.079
 9758SOL    HW230174   2.540   0.183   7.007
 9759SOL     OW30175   2.389   0.145   6.937
 9759SOL    HW130176   2.378   0.050   6.908
 9759SOL    HW230177   2.299   0.183   6.960
 9760SOL     OW30178   4.558   3.473   5.361
 9760SOL    HW130179   4.604   3.525   5.290
 9760SOL    HW230180   4.590   3.379   5.360
 9761SOL     OW30181   5.868   6.813   1.735
 9761SOL    HW130182   5.925   6.765   1.667
 9761SOL    HW230183   5.865   6.759   1.819
 9762SOL     OW30184   2.531   2.496   4.316
 9762SOL    HW130185   2.580   2.508   4.230
 9762SOL    HW230186   2.571   2.419   4.366
 9763SOL     OW30187   4.496   2.531   1.403
 9763SOL    HW130188   4.573   2.580   1.443
 9763SOL    HW230189   4.463   2.462   1.467
 9764SOL     OW30190   1.109   2.873   2.797
 9764SOL    HW130191   1.109   2.828   2.707
 9764SOL    HW230192   1.019   2.862   2.839
 9765SOL     OW30193   6.565   1.832   3.108
 9765SOL    HW130194   6.484   1.890   3.099
 9765SOL    HW230195   6.539   1.736   3.097
 9766SOL     OW30196   2.878   0.515   3.148
 9766SOL    HW130197   2.975   0.489   3.146
 9766SOL    HW230198   2.862   0.577   3.225
 9767SOL     OW30199   4.996   2.063   4.868
 9767SOL    HW130200   5.048   2.148   4.877
 9767SOL    HW230201   5.032   2.010   4.791
 9768SOL     OW30202   4.292   1.640   2.054
 9768SOL    HW130203   4.292   1.655   1.955
 9768SOL    HW230204   4.372   1.685   2.094
 9769SOL     OW30205   2.247   1.225   2.111
 9769SOL    HW130206   2.324   1.282   2.139
 9769SOL    HW230207   2.213   1.256   2.022
 9770SOL     OW30208   5.306   0.058   6.977
 9770SOL    HW130209   5.404   0.071   6.963
 9770SOL    HW230210   5.259   0.146   6.965
 9771SOL     OW30211   3.836   5.135   1.468
 9771SOL    HW130212   3.858   5.232   1.479
 9771SOL    HW230213   3.792   5.101   1.551
 9772SOL     OW30214   1.070   6.373   2.585
 9772SOL    HW130215   1.001   6.423   2.639
 9772SOL    HW230216   1.158   6.377   2.632
 9773SOL     OW30217   5.550   6.807   4.254
 9773SOL    HW130218   5.500   6.723   4.274
 9773SOL    HW230219   5.645   6.797   4.284
 9774SOL     OW30220   6.423   5.038   2.072
 9774SOL    HW130221   6.333   5.043   2.029
 9774SOL    HW230222   6.477   4.967   2.028
 9775SOL     OW30223   3.265   1.402   3.504
 9775SOL    HW130224   3.268   1.500   3.487
 9775SOL    HW230225   3.277   1.383   3.601
 9776SOL     OW30226   6.920   5.418   4.446
 9776SOL    HW130227   6.833   5.439   4.492
 9776SOL    HW230228   6.964   5.503   4.419
 9777SOL     OW30229   5.820   5.006   6.248
 9777SOL    HW130230   5.908   5.005   6.296
 9777SOL    HW230231   5.833   5.036   6.154
 9778SOL     OW30232   6.808   0.677   3.669
 9778SOL    HW130233   6.717   0.717   3.662
 9778SOL    HW230234   6.858   0.691   3.584
 9779SOL     OW30235   2.344   1.714   4.639
 9779SOL    HW130236   2.420   1.770   4.606
 9779SOL    HW230237   2.330   1.732   4.737
 9780SOL     OW30238   2.253   1.907   1.029
 9780SOL    HW130239   2.275   1.810   1.014
 9780SOL    HW230240   2.206   1.943   0.949
 9781SOL     OW30241   1.397   3.925   3.690
 9781SOL    HW130242   1.474   3.862   3.694
 9781SOL    HW230243   1.357   3.936   3.781
 9782SOL     OW30244   6.989   0.798   1.424
 9782SOL    HW130245   6.972   0.782   1.326
 9782SOL    HW230246   6.936   0.878   1.454
 9783SOL     OW30247   4.638   1.964   2.060
 9783SOL    HW130248   4.553   1.996   2.019
 9783SOL    HW230249   4.687   1.907   1.994
 9784SOL     OW30250   4.521   1.351   3.786
 9784SOL    HW130251   4.506   1.420   3.715
 9784SOL    HW230252   4.619   1.343   3.804
 9785SOL     OW30253   0.177   4.101   4.963
 9785SOL    HW130254   0.128   4.184   4.937
 9785SOL    HW230255   0.159   4.029   4.896
 9786SOL     OW30256   2.205   4.945   6.495
 9786SOL    HW130257   2.178   5.032   6.538
 9786SOL    HW230258   2.232   4.962   6.401
 9787SOL     OW30259   5.126   3.592   1.568
 9787SOL    HW130260   5.156   3.547   1.652
 9787SOL    HW230261   5.057   3.661   1.591
 9788SOL     OW30262   0.762   0.477   4.039
 9788SOL    HW130263   0.755   0.411   4.113
 9788SOL    HW230264   0.858   0.483   4.009
 9789SOL     OW30265   1.531   5.845   6.430
 9789SOL    HW130266   1.507   5.863   6.525
 9789SOL    HW230267   1.489   5.759   6.400
 9790SOL     OW30268   5.865   3.891   5.648
 9790SOL    HW130269   5.919   3.973   5.671
 9790SOL    HW230270   5.775   3.919   5.615
 9791SOL     OW30271   0.436   0.987   3.232
 9791SOL    HW130272   0.499   1.001   3.308
 9791SOL    HW230273   0.390   1.073   3.211
 9792SOL     OW30274   5.271   5.029   1.170
 9792SOL    HW130275   5.176   5.047   1.197
 9792SOL    HW230276   5.329   5.029   1.251
 9793SOL     OW30277   5.315   5.628   3.487
 9793SOL    HW130278   5.227   5.660   3.521
 9793SOL    HW230279   5.301   5.544   3.434
 9794SOL     OW30280   6.364   3.719   6.273
 9794SOL    HW130281   6.303   3.777   6.219
 9794SOL    HW230282   6.423   3.666   6.211
 9795SOL     OW30283   1.335   1.957   4.476
 9795SOL    HW130284   1.332   1.861   4.503
 9795SOL    HW230285   1.429   1.982   4.451
 9796SOL     OW30286   3.441   3.617   0.740
 9796SOL    HW130287   3.476   3.611   0.833
 9796SOL    HW230288   3.353   3.570   0.734
 9797SOL     OW30289   3.503   4.247   6.435
 9797SOL    HW130290   3.459   4.303   6.365
 9797SOL    HW230291   3.512   4.153   6.402
 9798SOL     OW30292   2.348   0.838   0.909
 9798SOL    HW130293   2.251   0.849   0.934
 9798SOL    HW230294   2.405   0.884   0.977
 9799SOL     OW30295   3.503   3.484   3.133
 9799SOL    HW130296   3.578   3.551   3.131
 9799SOL    HW230297   3.507   3.426   3.051
 9800SOL     OW30298   3.188   6.167   5.631
 9800SOL    HW130299   3.257   6.224   5.674
 9800SOL    HW230300   3.154   6.211   5.548
 9801SOL     OW30301   4.647   4.960   0.573
 9801SOL    HW130302   4.739   4.995   0.557
 9801SOL    HW230303   4.581   5.036   0.574
 9802SOL     OW30304   6.933   2.524   2.314
 9802SOL    HW130305   6.978   2.439   2.286
 9802SOL    HW230306   6.937   2.533   2.414
 9803SOL     OW30307   6.266   1.041   0.228
 9803SOL    HW130308   6.228   1.032   0.320
 9803SOL    HW230309   6.280   1.138   0.207
 9804SOL     OW30310   0.422   5.711   3.314
 9804SOL    HW130311   0.354   5.748   3.377
 9804SOL    HW230312   0.496   5.670   3.366
 9805SOL     OW30313   1.214   5.848   6.203
 9805SOL    HW130314   1.191   5.796   6.121
 9805SOL    HW230315   1.255   5.787   6.271
 9806SOL     OW30316   1.157   1.684   0.818
 9806SOL    HW130317   1.176   1.592   0.783
 9806SOL    HW230318   1.238   1.720   0.864
 9807SOL     OW30319   2.335   2.587   6.758
 9807SOL    HW130320   2.364   2.605   6.853
 9807SOL    HW230321   2.352   2.669   6.703
 9808SOL     OW30322   5.452   0.660   5.729
 9808SOL    HW130323   5.452   0.642   5.828
 9808SOL    HW230324   5.534   0.711   5.704
 9809SOL     OW30325   0.474   1.507   6.045
 9809SOL    HW130326   0.500   1.507   6.142
 9809SOL    HW230327   0.375   1.520   6.037
 9810SOL     OW30328   2.537   2.409   3.095
 9810SOL    HW130329   2.605   2.436   3.027
 9810SOL    HW230330   2.452   2.382   3.049
 9811SOL     OW30331   5.852   5.324   3.816
 9811SOL    HW130332   5.897   5.344   3.903
 9811SOL    HW230333   5.918   5.333   3.742
 9812SOL     OW30334   3.356   2.291   6.125
 9812SOL    HW130335   3.324   2.379   6.092
 9812SOL    HW230336   3.443   2.268   6.081
 9813SOL     OW30337   5.634   6.331   6.896
 9813SOL    HW130338   5.544   6.287   6.901
 9813SOL    HW230339   5.656   6.351   6.801
 9814SOL     OW30340   0.975   0.789   5.957
 9814SOL    HW130341   1.023   0.819   6.039
 9814SOL    HW230342   1.024   0.712   5.915
 9815SOL     OW30343   0.003   2.051   2.136
 9815SOL    HW130344   6.982   2.137   2.108
 9815SOL    HW230345   6.991   1.977   2.077
 9816SOL     OW30346   6.509   1.336   6.983
 9816SOL    HW130347   6.519   1.236   6.980
 9816SOL    HW230348   6.583   1.375   0.016
 9817SOL     OW30349   2.917   5.403   1.712
 9817SOL    HW130350   2.931   5.394   1.613
 9817SOL    HW230351   2.906   5.500   1.735
 9818SOL     OW30352   1.540   1.403   3.243
 9818SOL    HW130353   1.464   1.467   3.249
 9818SOL    HW230354   1.510   1.311   3.269
 9819SOL     OW30355   5.072   3.571   5.090
 9819SOL    HW130356   5.086   3.604   5.184
 9819SOL    HW230357   4.977   3.586   5.063
 9820SOL     OW30358   3.004   2.119   6.686
 9820SOL    HW130359   2.936   2.124   6.613
 9820SOL    HW230360   3.065   2.042   6.669
 9821SOL     OW30361   4.151   1.929   0.801
 9821SOL    HW130362   4.147   2.007   0.862
 9821SOL    HW230363   4.058   1.898   0.780
 9822SOL     OW30364   3.787   5.589   3.984
 9822SOL    HW130365   3.740   5.667   4.026
 9822SOL    HW230366   3.869   5.568   4.036
 9823SOL     OW30367   1.304   0.168   2.225
 9823SOL    HW130368   1.260   0.089   2.268
 9823SOL    HW230369   1.390   0.139   2.184
 9824SOL     OW30370   2.400   6.060   5.639
 9824SOL    HW130371   2.366   6.015   5.722
 9824SOL    HW230372   2.499   6.071   5.646
 9825SOL     OW30373   5.908   5.483   4.911
 9825SOL    HW130374   5.971   5.542   4.861
 9825SOL    HW230375   5.956   5.442   4.989
 9826SOL     OW30376   3.614   6.329   5.123
 9826SOL    HW130377   3.621   6.229   5.119
 9826SOL    HW230378   3.519   6.355   5.139
 9827SOL     OW30379   1.917   4.690   3.158
 9827SOL    HW130380   2.008   4.692   3.200
 9827SOL    HW230381   1.847   4.698   3.229
 9828SOL     OW30382   3.255   1.957   5.147
 9828SOL    HW130383   3.204   2.035   5.110
 9828SOL    HW230384   3.292   1.981   5.236
 9829SOL     OW30385   4.813   6.437   6.583
 9829SOL    HW130386   4.851   6.346   6.599
 9829SOL    HW230387   4.799   6.450   6.484
 9830SOL     OW30388   5.508   1.272   1.961
 9830SOL    HW130389   5.573   1.196   1.966
 9830SOL    HW230390   5.535   1.343   2.026
 9831SOL     OW30391   0.461   4.629   1.735
 9831SOL    HW130392   0.532   4.699   1.736
 9831SOL    HW230393   0.490   4.553   1.678
 9832SOL     OW30394   4.848   5.261   3.913
 9832SOL    HW130395   4.814   5.351   3.941
 9832SOL    HW230396   4.888   5.268   3.821
 9833SOL     OW30397   3.519   3.171   3.434
 9833SOL    HW130398   3.582   3.206   3.503
 9833SOL    HW230399   3.454   3.242   3.409
 9834SOL     OW30400   1.860   4.963   6.168
 9834SOL    HW130401   1.952   4.929   6.147
 9834SOL    HW230402   1.810   4.977   6.083
 9835SOL     OW30403   3.830   3.171   3.865
 9835SOL    HW130404   3.775   3.254   3.861
 9835SOL    HW230405   3.912   3.188   3.920
 9836SOL     OW30406   0.420   4.563   4.925
 9836SOL    HW130407   0.416   4.472   4.967
 9836SOL    HW230408   0.353   4.623   4.969
 9837SOL     OW30409   5.578   1.648   2.554
 9837SOL    HW130410   5.590   1.697   2.468
 9837SOL    HW230411   5.541   1.557   2.537
 9838SOL     OW30412   1.264   6.903   0.933
 9838SOL    HW130413   1.223   6.959   1.006
 9838SOL    HW230414   1.196   6.886   0.862
 9839SOL     OW30415   4.691   0.546   3.457
 9839SOL    HW130416   4.686   0.603   3.538
 9839SOL    HW230417   4.608   0.491   3.449
 9840SOL     OW30418   4.499   1.849   6.978
 9840SOL    HW130419   4.425   1.900   6.933
 9840SOL    HW230420   4.587   1.891   6.957
 9841SOL     OW30421   0.710   4.705   3.516
 9841SOL    HW130422   0.688   4.740   3.607
 9841SOL    HW230423   0.759   4.774   3.464
 9842SOL     OW30424   3.506   3.588   0.330
 9842SOL    HW130425   3.498   3.504   0.383
 9842SOL    HW230426   3.543   3.660   0.388
 9843SOL     OW30427   0.021   0.412   2.087
 9843SOL    HW130428   0.013   0.504   2.126
 9843SOL    HW230429   6.959   0.360   2.106
 9844SOL     OW30430   6.150   0.261   4.525
 9844SOL    HW130431   6.190   0.259   4.434
 9844SOL    HW230432   6.218   0.292   4.592
 9845SOL     OW30433   0.909   2.564   2.657
 9845SOL    HW130434   0.983   2.626   2.629
 9845SOL    HW230435   0.931   2.524   2.746
 9846SOL     OW30436   4.792   1.578   0.624
 9846SOL    HW130437   4.832   1.669   0.612
 9846SOL    HW230438   4.697   1.588   0.654
 9847SOL     OW30439   4.024   3.414   1.975
 9847SOL    HW130440   3.927   3.436   1.967
 9847SOL    HW230441   4.048   3.404   2.071
 9848SOL     OW30442   3.595   4.520   5.295
 9848SOL    HW130443   3.519   4.514   5.360
 9848SOL    HW230444   3.655   4.441   5.307
 9849SOL     OW30445   0.536   6.877   6.586
 9849SOL    HW130446   0.550   6.932   6.504
 9849SOL    HW230447   0.538   6.936   6.666
 9850SOL     OW30448   0.179   0.392   4.220
 9850SOL    HW130449   0.242   0.469   4.224
 9850SOL    HW230450   0.088   0.423   4.194
 9851SOL     OW30451   2.678   6.042   4.680
 9851SOL    HW130452   2.738   6.055   4.759
 9851SOL    HW230453   2.614   5.968   4.698
 9852SOL     OW30454   1.200   1.790   5.072
 9852SOL    HW130455   1.181   1.844   5.154
 9852SOL    HW230456   1.254   1.710   5.096
 9853SOL     OW30457   0.190   3.461   5.176
 9853SOL    HW130458   0.277   3.488   5.216
 9853SOL    HW230459   0.190   3.362   5.160
 9854SOL     OW30460   0.852   5.474   4.967
 9854SOL    HW130461   0.772   5.499   5.021
 9854SOL    HW230462   0.828   5.399   4.905
 9855SOL     OW30463   1.208   3.622   1.012
 9855SOL    HW130464   1.221   3.547   1.077
 9855SOL    HW230465   1.112   3.627   0.984
 9856SOL     OW30466   5.632   4.607   4.254
 9856SOL    HW130467   5.676   4.689   4.290
 9856SOL    HW230468   5.661   4.593   4.159
 9857SOL     OW30469   5.899   2.575   2.850
 9857SOL    HW130470   5.856   2.602   2.936
 9857SOL    HW230471   5.889   2.649   2.783
 9858SOL     OW30472   0.898   6.543   1.998
 9858SOL    HW130473   0.917   6.617   2.063
 9858SOL    HW230474   0.981   6.519   1.949
 9859SOL     OW30475   6.521   4.928   4.844
 9859SOL    HW130476   6.576   5.011   4.836
 9859SOL    HW230477   6.518   4.899   4.940
 9860SOL     OW30478   1.939   2.221   5.045
 9860SOL    HW130479   1.993   2.171   4.977
 9860SOL    HW230480   1.848   2.241   5.008
 9861SOL     OW30481   3.332   1.394   3.789
 9861SOL    HW130482   3.277   1.429   3.864
 9861SOL    HW230483   3.425   1.431   3.796
 9862SOL     OW30484   2.664   4.282   1.010
 9862SOL    HW130485   2.695   4.310   1.101
 9862SOL    HW230486   2.589   4.217   1.020
 9863SOL     OW30487   3.147   5.798   1.032
 9863SOL    HW130488   3.171   5.851   0.951
 9863SOL    HW230489   3.208   5.719   1.040
 9864SOL     OW30490   3.012   6.850   5.449
 9864SOL    HW130491   2.998   6.916   5.376
 9864SOL    HW230492   2.930   6.793   5.458
 9865SOL     OW30493   0.561   6.678   5.023
 9865SOL    HW130494   0.589   6.584   5.002
 9865SOL    HW230495   0.469   6.677   5.061
 9866SOL     OW30496   6.176   4.233   4.925
 9866SOL    HW130497   6.114   4.300   4.967
 9866SOL    HW230498   6.168   4.238   4.826
 9867SOL     OW30499   5.152   2.412   2.977
 9867SOL    HW130500   5.154   2.504   3.016
 9867SOL    HW230501   5.132   2.346   3.050
 9868SOL     OW30502   0.691   3.663   3.601
 9868SOL    HW130503   0.694   3.691   3.505
 9868SOL    HW230504   0.780   3.625   3.628
 9869SOL     OW30505   0.370   2.682   1.390
 9869SOL    HW130506   0.435   2.753   1.362
 9869SOL    HW230507   0.410   2.592   1.374
 9870SOL     OW30508   4.192   1.145   1.949
 9870SOL    HW130509   4.215   1.225   2.005
 9870SOL    HW230510   4.211   1.062   2.001
 9871SOL     OW30511   6.764   2.622   5.777
 9871SOL    HW130512   6.764   2.722   5.773
 9871SOL    HW230513   6.726   2.585   5.692
 9872SOL     OW30514   2.283   5.374   5.409
 9872SOL    HW130515   2.308   5.280   5.433
 9872SOL    HW230516   2.360   5.418   5.362
 9873SOL     OW30517   1.956   2.165   5.379
 9873SOL    HW130518   1.876   2.209   5.419
 9873SOL    HW230519   1.930   2.076   5.342
 9874SOL     OW30520   0.724   2.943   4.717
 9874SOL    HW130521   0.630   2.917   4.738
 9874SOL    HW230522   0.741   3.037   4.748
 9875SOL     OW30523   0.142   6.136   1.315
 9875SOL    HW130524   0.195   6.136   1.231
 9875SOL    HW230525   0.177   6.205   1.378
 9876SOL     OW30526   3.968   6.979   3.438
 9876SOL    HW130527   3.905   6.908   3.406
 9876SOL    HW230528   4.049   6.981   3.379
 9877SOL     OW30529   6.885   3.946   3.815
 9877SOL    HW130530   6.891   3.856   3.772
 9877SOL    HW230531   6.885   4.016   3.744
 9878SOL     OW30532   1.786   3.150   6.876
 9878SOL    HW130533   1.701   3.152   6.823
 9878SOL    HW230534   1.778   3.084   6.950
 9879SOL     OW30535   1.093   4.748   5.913
 9879SOL    HW130536   1.068   4.845   5.909
 9879SOL    HW230537   1.019   4.693   5.876
 9880SOL     OW30538   2.810   1.030   7.017
 9880SOL    HW130539   2.758   0.959   6.970
 9880SOL    HW230540   2.755   1.114   0.000
 9881SOL     OW30541   5.521   0.455   4.537
 9881SOL    HW130542   5.589   0.496   4.599
 9881SOL    HW230543   5.541   0.358   4.526
 9882SOL     OW30544   3.360   3.419   4.422
 9882SOL    HW130545   3.367   3.345   4.488
 9882SOL    HW230546   3.358   3.507   4.470
 9883SOL     OW30547   1.729   6.169   1.757
 9883SOL    HW130548   1.705   6.077   1.787
 9883SOL    HW230549   1.808   6.165   1.695
 9884SOL     OW30550   2.203   3.072   6.845
 9884SOL    HW130551   2.127   3.035   6.898
 9884SOL    HW230552   2.264   3.123   6.905
 9885SOL     OW30553   0.600   3.239   4.039
 9885SOL    HW130554   0.567   3.265   3.948
 9885SOL    HW230555   0.683   3.292   4.060
 9886SOL     OW30556   6.033   6.603   1.853
 9886SOL    HW130557   6.088   6.669   1.903
 9886SOL    HW230558   6.090   6.554   1.787
 9887SOL     OW30559   3.658   0.022   0.492
 9887SOL    HW130560   3.659   0.117   0.523
 9887SOL    HW230561   3.681   0.019   0.394
 9888SOL     OW30562   5.821   5.897   3.129
 9888SOL    HW130563   5.848   5.957   3.204
 9888SOL    HW230564   5.737   5.848   3.155
 9889SOL     OW30565   0.695   4.858   3.125
 9889SOL    HW130566   0.665   4.776   3.172
 9889SOL    HW230567   0.734   4.834   3.036
 9890SOL     OW30568   6.436   3.065   0.951
 9890SOL    HW130569   6.531   3.063   0.982
 9890SOL    HW230570   6.389   3.143   0.993
 9891SOL     OW30571   5.405   5.040   1.477
 9891SOL    HW130572   5.436   5.135   1.485
 9891SOL    HW230573   5.481   4.979   1.499
 9892SOL     OW30574   2.064   4.760   3.786
 9892SOL    HW130575   1.966   4.744   3.776
 9892SOL    HW230576   2.108   4.679   3.823
 9893SOL     OW30577   6.274   5.691   2.992
 9893SOL    HW130578   6.217   5.772   2.978
 9893SOL    HW230579   6.362   5.718   3.031
 9894SOL     OW30580   3.132   2.328   5.842
 9894SOL    HW130581   3.190   2.273   5.782
 9894SOL    HW230582   3.189   2.376   5.909
 9895SOL     OW30583   5.881   2.200   6.445
 9895SOL    HW130584   5.785   2.175   6.452
 9895SOL    HW230585   5.890   2.300   6.450
 9896SOL     OW30586   3.688   3.339   0.822
 9896SOL    HW130587   3.603   3.290   0.802
 9896SOL    HW230588   3.750   3.330   0.744
 9897SOL     OW30589   5.313   1.382   2.982
 9897SOL    HW130590   5.318   1.458   3.047
 9897SOL    HW230591   5.285   1.299   3.029
 9898SOL     OW30592   1.028   4.880   5.477
 9898SOL    HW130593   1.016   4.892   5.378
 9898SOL    HW230594   0.975   4.949   5.525
 9899SOL     OW30595   5.902   4.414   2.258
 9899SOL    HW130596   5.910   4.509   2.285
 9899SOL    HW230597   5.993   4.373   2.250
 9900SOL     OW30598   1.221   1.825   2.953
 9900SOL    HW130599   1.125   1.821   2.927
 9900SOL    HW230600   1.247   1.920   2.970
 9901SOL     OW30601   1.506   1.559   6.677
 9901SOL    HW130602   1.413   1.522   6.686
 9901SOL    HW230603   1.524   1.623   6.752
 9902SOL     OW30604   3.794   3.215   0.607
 9902SOL    HW130605   3.747   3.163   0.536
 9902SOL    HW230606   3.874   3.164   0.637
 9903SOL     OW30607   4.906   0.544   2.288
 9903SOL    HW130608   4.966   0.480   2.239
 9903SOL    HW230609   4.833   0.574   2.226
 9904SOL     OW30610   0.172   3.634   6.619
 9904SOL    HW130611   0.086   3.593   6.589
 9904SOL    HW230612   0.247   3.593   6.568
 9905SOL     OW30613   1.686   6.506   0.173
 9905SOL    HW130614   1.672   6.510   0.272
 9905SOL    HW230615   1.774   6.549   0.150
 9906SOL     OW30616   1.517   3.112   6.449
 9906SOL    HW130617   1.443   3.063   6.403
 9906SOL    HW230618   1.530   3.201   6.406
 9907SOL     OW30619   2.743   6.281   3.645
 9907SOL    HW130620   2.658   6.293   3.594
 9907SOL    HW230621   2.788   6.196   3.616
 9908SOL     OW30622   0.557   3.046   6.422
 9908SOL    HW130623   0.599   3.132   6.450
 9908SOL    HW230624   0.521   3.056   6.329
 9909SOL     OW30625   3.505   1.073   3.000
 9909SOL    HW130626   3.551   0.996   3.045
 9909SOL    HW230627   3.439   1.114   3.064
 9910SOL     OW30628   0.304   4.860   1.113
 9910SOL    HW130629   0.285   4.783   1.051
 9910SOL    HW230630   0.402   4.879   1.113
 9911SOL     OW30631   5.145   4.994   2.750
 9911SOL    HW130632   5.142   5.066   2.819
 9911SOL    HW230633   5.059   4.943   2.752
 9912SOL     OW30634   3.707   0.633   2.600
 9912SOL    HW130635   3.626   0.641   2.659
 9912SOL    HW230636   3.770   0.708   2.619
 9913SOL     OW30637   5.623   2.623   2.525
 9913SOL    HW130638   5.546   2.562   2.547
 9913SOL    HW230639   5.644   2.617   2.428
 9914SOL     OW30640   1.455   0.701   5.814
 9914SOL    HW130641   1.530   0.644   5.847
 9914SOL    HW230642   1.426   0.669   5.725
 9915SOL     OW30643   5.751   3.731   3.952
 9915SOL    HW130644   5.814   3.803   3.982
 9915SOL    HW230645   5.785   3.691   3.867
 9916SOL     OW30646   2.467   2.638   3.270
 9916SOL    HW130647   2.466   2.602   3.363
 9916SOL    HW230648   2.473   2.562   3.205
 9917SOL     OW30649   3.697   3.786   4.777
 9917SOL    HW130650   3.609   3.790   4.825
 9917SOL    HW230651   3.685   3.812   4.682
 9918SOL     OW30652   1.882   1.353   6.877
 9918SOL    HW130653   1.898   1.447   6.909
 9918SOL    HW230654   1.881   1.353   6.777
 9919SOL     OW30655   2.136   5.356   2.455
 9919SOL    HW130656   2.164   5.426   2.520
 9919SOL    HW230657   2.036   5.350   2.452
 9920SOL     OW30658   3.718   6.933   2.122
 9920SOL    HW130659   3.767   6.894   2.200
 9920SOL    HW230660   3.669   6.860   2.074
 9921SOL     OW30661   6.260   6.475   3.822
 9921SOL    HW130662   6.259   6.427   3.735
 9921SOL    HW230663   6.311   6.421   3.889
 9922SOL     OW30664   4.606   4.308   0.978
 9922SOL    HW130665   4.506   4.300   0.975
 9922SOL    HW230666   4.636   4.304   1.073
 9923SOL     OW30667   6.762   2.415   6.980
 9923SOL    HW130668   6.811   2.497   7.008
 9923SOL    HW230669   6.805   2.335   0.001
 9924SOL     OW30670   5.592   1.603   1.890
 9924SOL    HW130671   5.607   1.545   1.970
 9924SOL    HW230672   5.532   1.555   1.825
 9925SOL     OW30673   2.151   3.833   5.448
 9925SOL    HW130674   2.083   3.788   5.505
 9925SOL    HW230675   2.107   3.872   5.367
 9926SOL     OW30676   2.498   1.973   1.114
 9926SOL    HW130677   2.497   1.970   1.214
 9926SOL    HW230678   2.405   1.955   1.079
 9927SOL     OW30679   1.101   2.400   1.989
 9927SOL    HW130680   1.054   2.326   1.941
 9927SOL    HW230681   1.186   2.364   2.029
 9928SOL     OW30682   6.673   4.643   2.081
 9928SOL    HW130683   6.763   4.604   2.099
 9928SOL    HW230684   6.603   4.574   2.099
 9929SOL     OW30685   3.173   4.324   5.525
 9929SOL    HW130686   3.137   4.345   5.434
 9929SOL    HW230687   3.257   4.271   5.516
 9930SOL     OW30688   0.014   0.625   5.493
 9930SOL    HW130689   0.063   0.673   5.565
 9930SOL    HW230690   0.079   0.578   5.433
 9931SOL     OW30691   0.669   6.126   4.629
 9931SOL    HW130692   0.610   6.050   4.654
 9931SOL    HW230693   0.755   6.119   4.679
 9932SOL     OW30694   1.760   2.145   0.748
 9932SOL    HW130695   1.741   2.153   0.846
 9932SOL    HW230696   1.686   2.094   0.704
 9933SOL     OW30697   2.675   1.106   3.456
 9933SOL    HW130698   2.616   1.109   3.375
 9933SOL    HW230699   2.724   1.019   3.458
 9934SOL     OW30700   5.762   1.950   0.533
 9934SOL    HW130701   5.673   1.991   0.551
 9934SOL    HW230702   5.816   2.010   0.474
 9935SOL     OW30703   2.663   2.611   1.078
 9935SOL    HW130704   2.609   2.531   1.053
 9935SOL    HW230705   2.719   2.590   1.158
 9936SOL     OW30706   5.184   4.891   6.203
 9936SOL    HW130707   5.250   4.959   6.171
 9936SOL    HW230708   5.230   4.803   6.216
 9937SOL     OW30709   0.170   0.261   3.183
 9937SOL    HW130710   0.147   0.357   3.170
 9937SOL    HW230711   0.122   0.205   3.116
 9938SOL     OW30712   5.936   0.817   4.255
 9938SOL    HW130713   5.986   0.832   4.340
 9938SOL    HW230714   5.984   0.864   4.180
 9939SOL     OW30715   1.274   3.581   0.754
 9939SOL    HW130716   1.240   3.610   0.843
 9939SOL    HW230717   1.373   3.571   0.757
 9940SOL     OW30718   0.181   0.025   3.468
 9940SOL    HW130719   0.090   0.060   3.444
 9940SOL    HW230720   0.194   0.033   3.567
 9941SOL     OW30721   3.693   4.983   5.695
 9941SOL    HW130722   3.704   4.966   5.597
 9941SOL    HW230723   3.728   5.074   5.718
 9942SOL     OW30724   4.858   5.087   2.228
 9942SOL    HW130725   4.944   5.051   2.263
 9942SOL    HW230726   4.782   5.030   2.259
 9943SOL     OW30727   1.558   3.919   6.045
 9943SOL    HW130728   1.544   3.907   6.144
 9943SOL    HW230729   1.477   3.960   6.004
 9944SOL     OW30730   0.615   5.046   6.224
 9944SOL    HW130731   0.676   4.969   6.243
 9944SOL    HW230732   0.639   5.122   6.284
 9945SOL     OW30733   5.826   4.096   6.830
 9945SOL    HW130734   5.887   4.051   6.764
 9945SOL    HW230735   5.879   4.160   6.886
 9946SOL     OW30736   5.913   0.187   3.066
 9946SOL    HW130737   5.914   0.240   3.151
 9946SOL    HW230738   5.883   0.094   3.086
 9947SOL     OW30739   1.110   1.811   4.049
 9947SOL    HW130740   1.126   1.880   4.120
 9947SOL    HW230741   1.089   1.723   4.091
 9948SOL     OW30742   6.709   6.170   4.724
 9948SOL    HW130743   6.758   6.230   4.660
 9948SOL    HW230744   6.613   6.197   4.728
 9949SOL     OW30745   6.852   4.472   4.279
 9949SOL    HW130746   6.889   4.564   4.266
 9949SOL    HW230747   6.879   4.437   4.369
 9950SOL     OW30748   6.374   4.957   6.396
 9950SOL    HW130749   6.329   4.900   6.465
 9950SOL    HW230750   6.465   4.983   6.427
 9951SOL     OW30751   1.289   3.021   2.908
 9951SOL    HW130752   1.228   2.975   2.843
 9951SOL    HW230753   1.290   2.972   2.995
 9952SOL     OW30754   0.824   3.794   1.655
 9952SOL    HW130755   0.845   3.700   1.685
 9952SOL    HW230756   0.813   3.795   1.556
 9953SOL     OW30757   6.512   2.541   3.694
 9953SOL    HW130758   6.528   2.445   3.673
 9953SOL    HW230759   6.422   2.568   3.660
 9954SOL     OW30760   2.446   1.733   5.043
 9954SOL    HW130761   2.403   1.710   5.130
 9954SOL    HW230762   2.486   1.651   5.003
 9955SOL     OW30763   4.355   3.396   0.011
 9955SOL    HW130764   4.428   3.440   0.063
 9955SOL    HW230765   4.288   3.464   7.004
 9956SOL     OW30766   0.333   4.691   2.114
 9956SOL    HW130767   0.279   4.624   2.065
 9956SOL    HW230768   0.285   4.720   2.197
 9957SOL     OW30769   5.686   6.776   1.280
 9957SOL    HW130770   5.707   6.793   1.376
 9957SOL    HW230771   5.587   6.780   1.266
 9958SOL     OW30772   3.379   5.242   6.390
 9958SOL    HW130773   3.461   5.192   6.363
 9958SOL    HW230774   3.397   5.340   6.386
 9959SOL     OW30775   4.208   3.650   1.581
 9959SOL    HW130776   4.302   3.670   1.554
 9959SOL    HW230777   4.204   3.634   1.679
 9960SOL     OW30778   6.662   6.121   1.130
 9960SOL    HW130779   6.756   6.089   1.141
 9960SOL    HW230780   6.617   6.124   1.220
 9961SOL     OW30781   1.388   4.552   2.042
 9961SOL    HW130782   1.297   4.521   2.015
 9961SOL    HW230783   1.406   4.523   2.137
 9962SOL     OW30784   3.547   0.296   1.798
 9962SOL    HW130785   3.629   0.329   1.844
 9962SOL    HW230786   3.496   0.373   1.761
 9963SOL     OW30787   2.938   2.442   0.608
 9963SOL    HW130788   2.877   2.364   0.595
 9963SOL    HW230789   2.964   2.479   0.519
 9964SOL     OW30790   3.939   5.060   5.950
 9964SOL    HW130791   3.884   5.089   5.871
 9964SOL    HW230792   3.993   4.980   5.925
 9965SOL     OW30793   3.930   5.439   5.069
 9965SOL    HW130794   3.837   5.465   5.096
 9965SOL    HW230795   3.926   5.372   4.995
 9966SOL     OW30796   2.792   4.989   2.104
 9966SOL    HW130797   2.741   5.023   2.183
 9966SOL    HW230798   2.835   5.066   2.057
 9967SOL     OW30799   6.164   5.939   2.972
 9967SOL    HW130800   6.179   5.991   3.057
 9967SOL    HW230801   6.239   5.959   2.908
 9968SOL     OW30802   4.382   5.765   0.015
 9968SOL    HW130803   4.365   5.681   6.984
 9968SOL    HW230804   4.320   5.768   0.093
 9969SOL     OW30805   0.829   4.149   4.426
 9969SOL    HW130806   0.924   4.124   4.445
 9969SOL    HW230807   0.802   4.226   4.484
 9970SOL     OW30808   5.783   4.779   1.751
 9970SOL    HW130809   5.861   4.720   1.733
 9970SOL    HW230810   5.804   4.872   1.720
 9971SOL     OW30811   1.009   2.587   1.653
 9971SOL    HW130812   1.071   2.627   1.585
 9971SOL    HW230813   1.031   2.623   1.743
 9972SOL     OW30814   2.840   3.877   1.351
 9972SOL    HW130815   2.858   3.866   1.253
 9972SOL    HW230816   2.875   3.797   1.400
 9973SOL     OW30817   4.647   2.848   4.986
 9973SOL    HW130818   4.714   2.776   4.968
 9973SOL    HW230819   4.563   2.829   4.935
 9974SOL     OW30820   6.878   1.741   3.041
 9974SOL    HW130821   6.884   1.776   3.135
 9974SOL    HW230822   6.818   1.800   2.988
 9975SOL     OW30823   0.538   5.012   6.632
 9975SOL    HW130824   0.483   4.947   6.684
 9975SOL    HW230825   0.478   5.072   6.579
 9976SOL     OW30826   0.887   5.068   5.622
 9976SOL    HW130827   0.844   5.154   5.594
 9976SOL    HW230828   0.847   5.037   5.708
 9977SOL     OW30829   5.118   4.800   5.602
 9977SOL    HW130830   5.082   4.707   5.593
 9977SOL    HW230831   5.047   4.859   5.643
 9978SOL     OW30832   0.178   1.990   5.762
 9978SOL    HW130833   0.129   2.047   5.696
 9978SOL    HW230834   0.112   1.945   5.823
 9979SOL     OW30835   5.596   4.139   5.826
 9979SOL    HW130836   5.510   4.190   5.820
 9979SOL    HW230837   5.612   4.090   5.741
 9980SOL     OW30838   2.116   0.583   0.730
 9980SOL    HW130839   2.032   0.591   0.784
 9980SOL    HW230840   2.099   0.524   0.651
 9981SOL     OW30841   1.509   2.261   1.092
 9981SOL    HW130842   1.462   2.173   1.087
 9981SOL    HW230843   1.443   2.333   1.115
 9982SOL     OW30844   2.062   0.918   4.394
 9982SOL    HW130845   2.023   0.875   4.475
 9982SOL    HW230846   2.027   1.012   4.386
 9983SOL     OW30847   6.671   2.140   2.515
 9983SOL    HW130848   6.763   2.134   2.475
 9983SOL    HW230849   6.675   2.195   2.598
 9984SOL     OW30850   0.094   6.129   0.518
 9984SOL    HW130851   0.027   6.165   0.583
 9984SOL    HW230852   0.091   6.029   0.517
 9985SOL     OW30853   2.985   5.125   0.872
 9985SOL    HW130854   3.077   5.161   0.883
 9985SOL    HW230855   2.923   5.200   0.847
 9986SOL     OW30856   6.188   4.702   0.519
 9986SOL    HW130857   6.115   4.667   0.460
 9986SOL    HW230858   6.225   4.786   0.480
 9987SOL     OW30859   5.047   2.900   1.882
 9987SOL    HW130860   5.132   2.918   1.834
 9987SOL    HW230861   4.995   2.985   1.890
 9988SOL     OW30862   0.094   5.054   4.271
 9988SOL    HW130863   0.160   4.986   4.305
 9988SOL    HW230864   0.095   5.054   4.171
 9989SOL     OW30865   5.911   3.715   2.027
 9989SOL    HW130866   5.979   3.737   2.097
 9989SOL    HW230867   5.821   3.706   2.070
 9990SOL     OW30868   1.602   6.174   3.163
 9990SOL    HW130869   1.689   6.126   3.158
 9990SOL    HW230870   1.600   6.230   3.246
 9991SOL     OW30871   2.005   3.275   4.036
 9991SOL    HW130872   2.063   3.211   3.987
 9991SOL    HW230873   1.984   3.238   4.127
 9992SOL     OW30874   3.227   3.463   0.842
 9992SOL    HW130875   3.148   3.446   0.782
 9992SOL    HW230876   3.278   3.378   0.854
 9993SOL     OW30877   3.239   6.207   4.078
 9993SOL    HW130878   3.157   6.163   4.114
 9993SOL    HW230879   3.251   6.296   4.123
 9994SOL     OW30880   0.064   3.943   3.448
 9994SOL    HW130881   0.002   3.865   3.436
 9994SOL    HW230882   0.050   4.008   3.373
 9995SOL     OW30883   3.551   1.100   3.348
 9995SOL    HW130884   3.640   1.067   3.319
 9995SOL    HW230885   3.561   1.189   3.393
 9996SOL     OW30886   2.887   3.899   1.064
 9996SOL    HW130887   2.864   3.959   0.987
 9996SOL    HW230888   2.977   3.859   1.050
 9997SOL     OW30889   5.172   1.282   3.243
 9997SOL    HW130890   5.197   1.374   3.274
 9997SOL    HW230891   5.176   1.219   3.321
 9998SOL     OW30892   4.937   3.684   2.328
 9998SOL    HW130893   4.935   3.784   2.319
 9998SOL    HW230894   5.001   3.659   2.401
 9999SOL     OW30895   0.531   6.353   4.324
 9999SOL    HW130896   0.578   6.291   4.386
 9999SOL    HW230897   0.589   6.433   4.307
10000SOL     OW30898   5.865   1.867   1.174
10000SOL    HW130899   5.902   1.777   1.150
10000SOL    HW230900   5.890   1.933   1.103
10001SOL     OW30901   3.214   6.789   2.072
10001SOL    HW130902   3.177   6.703   2.039
10001SOL    HW230903   3.143   6.840   2.120
10002SOL     OW30904   2.682   1.258   1.173
10002SOL    HW130905   2.611   1.328   1.172
10002SOL    HW230906   2.652   1.178   1.120
10003SOL     OW30907   3.205   1.618   2.228
10003SOL    HW130908   3.301   1.634   2.250
10003SOL    HW230909   3.165   1.556   2.295
10004SOL     OW30910   5.207   3.834   5.024
10004SOL    HW130911   5.199   3.737   5.047
10004SOL    HW230912   5.297   3.851   4.984
10005SOL     OW30913   3.490   5.273   2.880
10005SOL    HW130914   3.452   5.359   2.914
10005SOL    HW230915   3.416   5.207   2.868
10006SOL     OW30916   5.460   6.945   5.429
10006SOL    HW130917   5.366   6.967   5.456
10006SOL    HW230918   5.466   6.847   5.408
10007SOL     OW30919   0.739   3.479   4.743
10007SOL    HW130920   0.804   3.462   4.670
10007SOL    HW230921   0.697   3.570   4.731
10008SOL     OW30922   5.290   1.827   3.500
10008SOL    HW130923   5.337   1.751   3.455
10008SOL    HW230924   5.352   1.906   3.504
10009SOL     OW30925   2.120   4.633   1.724
10009SOL    HW130926   2.182   4.667   1.654
10009SOL    HW230927   2.026   4.640   1.691
10010SOL     OW30928   2.960   5.676   0.230
10010SOL    HW130929   3.005   5.593   0.261
10010SOL    HW230930   3.021   5.754   0.242
10011SOL     OW30931   0.223   4.129   6.784
10011SOL    HW130932   0.280   4.203   6.822
10011SOL    HW230933   0.252   4.110   6.690
10012SOL     OW30934   5.205   0.070   2.416
10012SOL    HW130935   5.157   7.014   2.456
10012SOL    HW230936   5.165   0.155   2.450
10013SOL     OW30937   1.256   3.649   3.713
10013SOL    HW130938   1.203   3.694   3.641
10013SOL    HW230939   1.333   3.706   3.738
10014SOL     OW30940   0.934   6.779   2.143
10014SOL    HW130941   1.032   6.767   2.126
10014SOL    HW230942   0.919   6.798   2.240
10015SOL     OW30943   4.260   5.406   0.223
10015SOL    HW130944   4.336   5.427   0.162
10015SOL    HW230945   4.197   5.484   0.227
10016SOL     OW30946   2.597   1.016   4.914
10016SOL    HW130947   2.607   0.932   4.861
10016SOL    HW230948   2.517   1.066   4.881
10017SOL     OW30949   1.526   1.361   2.486
10017SOL    HW130950   1.431   1.386   2.502
10017SOL    HW230951   1.579   1.376   2.569
10018SOL     OW30952   6.380   4.218   5.590
10018SOL    HW130953   6.452   4.253   5.529
10018SOL    HW230954   6.394   4.120   5.603
10019SOL     OW30955   0.126   1.632   3.134
10019SOL    HW130956   0.212   1.645   3.084
10019SOL    HW230957   0.054   1.688   3.094
10020SOL     OW30958   0.196   0.953   2.171
10020SOL    HW130959   0.270   0.991   2.117
10020SOL    HW230960   0.213   0.856   2.187
10021SOL     OW30961   0.713   3.124   2.524
10021SOL    HW130962   0.748   3.122   2.618
10021SOL    HW230963   0.780   3.081   2.464
10022SOL     OW30964   3.143   5.847   0.370
10022SOL    HW130965   3.067   5.903   0.403
10022SOL    HW230966   3.198   5.816   0.448
10023SOL     OW30967   2.092   5.262   4.909
10023SOL    HW130968   2.029   5.195   4.946
10023SOL    HW230969   2.093   5.256   4.809
10024SOL     OW30970   0.940   5.300   2.808
10024SOL    HW130971   0.983   5.390   2.809
10024SOL    HW230972   0.976   5.246   2.884
10025SOL     OW30973   1.502   3.071   2.054
10025SOL    HW130974   1.512   3.127   1.972
10025SOL    HW230975   1.436   2.998   2.038
10026SOL     OW30976   4.889   0.124   3.377
10026SOL    HW130977   4.974   0.170   3.402
10026SOL    HW230978   4.814   0.162   3.431
10027SOL     OW30979   0.794   2.051   5.370
10027SOL    HW130980   0.844   2.084   5.289
10027SOL    HW230981   0.859   2.013   5.435
10028SOL     OW30982   2.131   1.689   1.520
10028SOL    HW130983   2.168   1.782   1.517
10028SOL    HW230984   2.128   1.657   1.615
10029SOL     OW30985   1.748   2.983   3.453
10029SOL    HW130986   1.766   3.064   3.508
10029SOL    HW230987   1.654   2.987   3.418
10030SOL     OW30988   3.595   0.508   5.078
10030SOL    HW130989   3.498   0.533   5.075
10030SOL    HW230990   3.619   0.479   5.171
10031SOL     OW30991   5.086   5.095   4.365
10031SOL    HW130992   5.095   5.070   4.268
10031SOL    HW230993   5.172   5.135   4.397
10032SOL     OW30994   4.327   0.426   5.726
10032SOL    HW130995   4.264   0.467   5.660
10032SOL    HW230996   4.329   0.327   5.714
10033SOL     OW30997   4.304   2.090   4.513
10033SOL    HW130998   4.289   2.169   4.572
10033SOL    HW230999   4.384   2.039   4.546
10034SOL     OW31000   2.623   0.608   3.701
10034SOL    HW131001   2.575   0.613   3.614
10034SOL    HW231002   2.640   0.513   3.725
10035SOL     OW31003   6.133   4.049   0.745
10035SOL    HW131004   6.172   4.135   0.776
10035SOL    HW231005   6.059   4.068   0.679
10036SOL     OW31006   0.213   0.386   0.417
10036SOL    HW131007   0.222   0.307   0.478
10036SOL    HW231008   0.289   0.387   0.353
10037SOL     OW31009   6.251   0.485   0.190
10037SOL    HW131010   6.334   0.438   0.220
10037SOL    HW231011   6.233   0.465   0.094
10038SOL     OW31012   4.479   0.020   6.176
10038SOL    HW131013   4.481   6.951   6.219
10038SOL    HW231014   4.425   0.082   6.232
10039SOL     OW31015   5.195   6.689   5.564
10039SOL    HW131016   5.223   6.785   5.564
10039SOL    HW231017   5.109   6.679   5.515
10040SOL     OW31018   4.394   5.851   5.816
10040SOL    HW131019   4.313   5.908   5.826
10040SOL    HW231020   4.445   5.878   5.734
10041SOL     OW31021   5.408   5.708   6.331
10041SOL    HW131022   5.335   5.664   6.383
10041SOL    HW231023   5.379   5.720   6.236
10042SOL     OW31024   0.913   1.094   5.484
10042SOL    HW131025   1.001   1.056   5.455
10042SOL    HW231026   0.867   1.136   5.406
10043SOL     OW31027   0.413   1.277   3.876
10043SOL    HW131028   0.365   1.197   3.839
10043SOL    HW231029   0.448   1.332   3.801
10044SOL     OW31030   2.795   2.142   3.450
10044SOL    HW131031   2.796   2.223   3.509
10044SOL    HW231032   2.858   2.074   3.487
10045SOL     OW31033   4.986   0.140   3.809
10045SOL    HW131034   4.913   0.204   3.787
10045SOL    HW231035   4.950   0.066   3.865
10046SOL     OW31036   1.570   2.764   1.058
10046SOL    HW131037   1.530   2.777   1.149
10046SOL    HW231038   1.616   2.849   1.031
10047SOL     OW31039   5.576   3.358   5.039
10047SOL    HW131040   5.663   3.335   4.996
10047SOL    HW231041   5.503   3.302   5.001
10048SOL     OW31042   3.888   1.844   2.445
10048SOL    HW131043   3.904   1.942   2.433
10048SOL    HW231044   3.913   1.817   2.538
10049SOL     OW31045   0.253   0.428   6.507
10049SOL    HW131046   0.289   0.351   6.559
10049SOL    HW231047   0.309   0.442   6.425
10050SOL     OW31048   6.387   2.475   5.147
10050SOL    HW131049   6.399   2.481   5.247
10050SOL    HW231050   6.455   2.412   5.110
10051SOL     OW31051   6.333   2.007   5.021
10051SOL    HW131052   6.306   2.011   5.117
10051SOL    HW231053   6.266   1.954   4.969
10052SOL     OW31054   2.464   1.959   2.911
10052SOL    HW131055   2.481   2.006   2.998
10052SOL    HW231056   2.552   1.934   2.869
10053SOL     OW31057   3.692   5.653   1.673
10053SOL    HW131058   3.770   5.602   1.710
10053SOL    HW231059   3.607   5.602   1.692
10054SOL     OW31060   4.547   5.626   5.893
10054SOL    HW131061   4.501   5.708   5.860
10054SOL    HW231062   4.494   5.586   5.967
10055SOL     OW31063   5.854   2.309   5.514
10055SOL    HW131064   5.880   2.311   5.418
10055SOL    HW231065   5.756   2.295   5.522
10056SOL     OW31066   6.558   4.962   1.356
10056SOL    HW131067   6.484   4.926   1.299
10056SOL    HW231068   6.594   4.890   1.415
10057SOL     OW31069   3.760   2.011   4.744
10057SOL    HW131070   3.809   2.014   4.657
10057SOL    HW231071   3.819   2.044   4.817
10058SOL     OW31072   0.358   3.760   4.437
10058SOL    HW131073   0.313   3.673   4.458
10058SOL    HW231074   0.363   3.772   4.337
10059SOL     OW31075   5.491   6.359   0.837
10059SOL    HW131076   5.532   6.428   0.897
10059SOL    HW231077   5.536   6.271   0.850
10060SOL     OW31078   2.205   1.777   1.922
10060SOL    HW131079   2.277   1.709   1.934
10060SOL    HW231080   2.121   1.745   1.966
10061SOL     OW31081   5.377   1.165   4.714
10061SOL    HW131082   5.349   1.261   4.709
10061SOL    HW231083   5.314   1.109   4.659
10062SOL     OW31084   6.470   0.052   4.666
10062SOL    HW131085   6.537   0.056   4.740
10062SOL    HW231086   6.425   0.141   4.657
10063SOL     OW31087   1.608   1.722   3.951
10063SOL    HW131088   1.652   1.711   3.862
10063SOL    HW231089   1.509   1.722   3.939
10064SOL     OW31090   5.244   6.217   6.600
10064SOL    HW131091   5.196   6.305   6.598
10064SOL    HW231092   5.224   6.167   6.515
10065SOL     OW31093   2.286   0.212   2.769
10065SOL    HW131094   2.211   0.146   2.782
10065SOL    HW231095   2.248   0.304   2.760
10066SOL     OW31096   1.287   1.323   3.509
10066SOL    HW131097   1.371   1.272   3.528
10066SOL    HW231098   1.267   1.383   3.587
10067SOL     OW31099   6.349   3.964   4.783
10067SOL    HW131100   6.388   4.047   4.823
10067SOL    HW231101   6.403   3.937   4.704
10068SOL     OW31102   6.031   3.085   3.389
10068SOL    HW131103   6.019   3.169   3.337
10068SOL    HW231104   6.044   3.008   3.327
10069SOL     OW31105   1.765   5.204   3.713
10069SOL    HW131106   1.839   5.139   3.697
10069SOL    HW231107   1.782   5.288   3.662
10070SOL     OW31108   6.663   0.100   4.863
10070SOL    HW131109   6.744   0.153   4.887
10070SOL    HW231110   6.597   0.102   4.938
10071SOL     OW31111   5.651   5.470   3.674
10071SOL    HW131112   5.579   5.422   3.623
10071SOL    HW231113   5.699   5.405   3.733
10072SOL     OW31114   0.371   5.913   3.546
10072SOL    HW131115   0.286   5.861   3.550
10072SOL    HW231116   0.416   5.909   3.635
10073SOL     OW31117   6.000   4.818   4.872
10073SOL    HW131118   6.020   4.839   4.968
10073SOL    HW231119   6.085   4.813   4.820
10074SOL     OW31120   1.290   1.139   5.152
10074SOL    HW131121   1.287   1.227   5.106
10074SOL    HW231122   1.336   1.149   5.240
10075SOL     OW31123   1.068   2.438   3.187
10075SOL    HW131124   1.106   2.346   3.198
10075SOL    HW231125   1.103   2.496   3.261
10076SOL     OW31126   6.717   0.140   3.503
10076SOL    HW131127   6.620   0.145   3.480
10076SOL    HW231128   6.735   0.056   3.554
10077SOL     OW31129   3.673   3.244   5.884
10077SOL    HW131130   3.699   3.337   5.856
10077SOL    HW231131   3.601   3.248   5.953
10078SOL     OW31132   0.198   5.588   3.755
10078SOL    HW131133   0.248   5.639   3.826
10078SOL    HW231134   0.105   5.568   3.788
10079SOL     OW31135   0.403   3.921   2.257
10079SOL    HW131136   0.401   3.870   2.171
10079SOL    HW231137   0.381   4.017   2.240
10080SOL     OW31138   3.462   1.516   5.257
10080SOL    HW131139   3.407   1.434   5.243
10080SOL    HW231140   3.403   1.591   5.288
10081SOL     OW31141   0.481   0.528   0.525
10081SOL    HW131142   0.443   0.500   0.613
10081SOL    HW231143   0.414   0.585   0.477
10082SOL     OW31144   0.171   5.086   2.249
10082SOL    HW131145   0.178   5.001   2.198
10082SOL    HW231146   0.087   5.134   2.222
10083SOL     OW31147   4.840   0.943   3.039
10083SOL    HW131148   4.814   0.974   3.131
10083SOL    HW231149   4.763   0.954   2.977
10084SOL     OW31150   2.963   1.242   5.762
10084SOL    HW131151   2.892   1.291   5.710
10084SOL    HW231152   3.042   1.302   5.774
10085SOL     OW31153   0.950   6.677   2.424
10085SOL    HW131154   0.938   6.659   2.522
10085SOL    HW231155   0.934   6.593   2.372
10086SOL     OW31156   5.637   5.514   1.851
10086SOL    HW131157   5.556   5.523   1.793
10086SOL    HW231158   5.617   5.550   1.942
10087SOL     OW31159   0.086   6.697   3.648
10087SOL    HW131160   0.059   6.612   3.602
10087SOL    HW231161   0.045   6.775   3.600
10088SOL     OW31162   6.908   0.546   0.158
10088SOL    HW131163   6.925   0.478   0.087
10088SOL    HW231164   6.851   0.619   0.120
10089SOL     OW31165   2.817   2.146   2.632
10089SOL    HW131166   2.833   2.208   2.708
10089SOL    HW231167   2.904   2.114   2.596
10090SOL     OW31168   0.884   4.969   0.987
10090SOL    HW131169   0.887   4.987   1.086
10090SOL    HW231170   0.800   4.920   0.965
10091SOL     OW31171   1.278   3.873   5.658
10091SOL    HW131172   1.362   3.841   5.615
10091SOL    HW231173   1.219   3.795   5.677
10092SOL     OW31174   1.627   3.349   4.798
10092SOL    HW131175   1.618   3.435   4.847
10092SOL    HW231176   1.548   3.291   4.817
10093SOL     OW31177   0.120   3.980   4.705
10093SOL    HW131178   0.194   4.027   4.657
10093SOL    HW231179   0.032   4.020   4.678
10094SOL     OW31180   1.648   5.933   1.879
10094SOL    HW131181   1.666   5.909   1.974
10094SOL    HW231182   1.572   5.877   1.844
10095SOL     OW31183   6.178   1.724   4.877
10095SOL    HW131184   6.104   1.752   4.938
10095SOL    HW231185   6.214   1.804   4.830
10096SOL     OW31186   5.387   5.198   2.264
10096SOL    HW131187   5.425   5.106   2.256
10096SOL    HW231188   5.387   5.243   2.175
10097SOL     OW31189   1.126   0.857   0.422
10097SOL    HW131190   1.208   0.854   0.364
10097SOL    HW231191   1.146   0.811   0.509
10098SOL     OW31192   2.626   0.376   5.341
10098SOL    HW131193   2.573   0.401   5.260
10098SOL    HW231194   2.567   0.329   5.407
10099SOL     OW31195   6.939   4.976   0.721
10099SOL    HW131196   6.966   5.069   0.746
10099SOL    HW231197   6.951   4.963   0.622
10100SOL     OW31198   4.910   0.155   4.366
10100SOL    HW131199   4.830   0.165   4.307
10100SOL    HW231200   4.955   0.244   4.376
10101SOL     OW31201   5.967   3.725   1.326
10101SOL    HW131202   5.967   3.825   1.326
10101SOL    HW231203   6.000   3.692   1.237
10102SOL     OW31204   1.662   0.521   2.578
10102SOL    HW131205   1.720   0.507   2.498
10102SOL    HW231206   1.707   0.483   2.659
10103SOL     OW31207   2.404   1.692   6.184
10103SOL    HW131208   2.429   1.602   6.220
10103SOL    HW231209   2.441   1.764   6.242
10104SOL     OW31210   1.201   2.596   4.097
10104SOL    HW131211   1.193   2.677   4.039
10104SOL    HW231212   1.114   2.548   4.101
10105SOL     OW31213   0.886   0.655   0.826
10105SOL    HW131214   0.857   0.643   0.731
10105SOL    HW231215   0.892   0.753   0.846
10106SOL     OW31216   4.481   6.797   0.720
10106SOL    HW131217   4.526   6.852   0.650
10106SOL    HW231218   4.476   6.702   0.689
10107SOL     OW31219   0.727   0.962   6.553
10107SOL    HW131220   0.716   0.908   6.469
10107SOL    HW231221   0.687   1.052   6.540
10108SOL     OW31222   6.725   6.553   0.064
10108SOL    HW131223   6.739   6.508   0.153
10108SOL    HW231224   6.699   6.484   7.018
10109SOL     OW31225   4.522   0.292   0.937
10109SOL    HW131226   4.530   0.290   0.837
10109SOL    HW231227   4.426   0.302   0.962
10110SOL     OW31228   4.522   6.089   4.774
10110SOL    HW131229   4.585   6.134   4.711
10110SOL    HW231230   4.465   6.024   4.724
10111SOL     OW31231   5.314   3.725   3.656
10111SOL    HW131232   5.297   3.633   3.621
10111SOL    HW231233   5.347   3.783   3.581
10112SOL     OW31234   5.619   3.687   3.538
10112SOL    HW131235   5.582   3.749   3.468
10112SOL    HW231236   5.566   3.602   3.539
10113SOL     OW31237   4.335   0.137   5.692
10113SOL    HW131238   4.248   0.092   5.674
10113SOL    HW231239   4.390   0.139   5.609
10114SOL     OW31240   5.853   1.311   0.986
10114SOL    HW131241   5.819   1.405   0.987
10114SOL    HW231242   5.841   1.271   0.895
10115SOL     OW31243   3.427   1.540   4.159
10115SOL    HW131244   3.465   1.451   4.134
10115SOL    HW231245   3.431   1.552   4.258
10116SOL     OW31246   0.046   5.859   0.508
10116SOL    HW131247   6.974   5.825   0.509
10116SOL    HW231248   0.073   5.880   0.413
10117SOL     OW31249   0.128   6.375   4.785
10117SOL    HW131250   0.209   6.433   4.800
10117SOL    HW231251   0.089   6.349   4.874
10118SOL     OW31252   1.890   5.158   2.738
10118SOL    HW131253   1.826   5.122   2.806
10118SOL    HW231254   1.923   5.248   2.769
10119SOL     OW31255   0.629   5.781   4.682
10119SOL    HW131256   0.721   5.781   4.642
10119SOL    HW231257   0.633   5.812   4.777
10120SOL     OW31258   1.816   3.715   4.937
10120SOL    HW131259   1.810   3.625   4.981
10120SOL    HW231260   1.911   3.745   4.933
10121SOL     OW31261   6.259   3.872   6.667
10121SOL    HW131262   6.301   3.786   6.640
10121SOL    HW231263   6.166   3.877   6.631
10122SOL     OW31264   6.145   2.625   1.513
10122SOL    HW131265   6.167   2.533   1.480
10122SOL    HW231266   6.108   2.680   1.438
10123SOL     OW31267   5.889   0.096   0.278
10123SOL    HW131268   5.937   0.127   0.196
10123SOL    HW231269   5.952   0.093   0.355
10124SOL     OW31270   1.689   3.976   6.935
10124SOL    HW131271   1.780   4.004   6.905
10124SOL    HW231272   1.624   4.049   6.916
10125SOL     OW31273   1.965   1.314   2.445
10125SOL    HW131274   1.966   1.260   2.530
10125SOL    HW231275   1.982   1.254   2.367
10126SOL     OW31276   0.577   6.596   5.906
10126SOL    HW131277   0.540   6.685   5.930
10126SOL    HW231278   0.503   6.529   5.901
10127SOL     OW31279   2.408   4.609   6.578
10127SOL    HW131280   2.393   4.630   6.675
10127SOL    HW231281   2.468   4.678   6.538
10128SOL     OW31282   2.203   1.240   1.402
10128SOL    HW131283   2.186   1.146   1.433
10128SOL    HW231284   2.120   1.276   1.359
10129SOL     OW31285   5.643   2.189   2.879
10129SOL    HW131286   5.626   2.134   2.960
10129SOL    HW231287   5.581   2.268   2.878
10130SOL     OW31288   1.214   3.810   2.435
10130SOL    HW131289   1.264   3.730   2.401
10130SOL    HW231290   1.132   3.823   2.380
10131SOL     OW31291   1.109   0.268   3.827
10131SOL    HW131292   1.123   0.279   3.729
10131SOL    HW231293   1.093   0.172   3.848
10132SOL     OW31294   3.340   7.014   5.142
10132SOL    HW131295   3.328   0.090   5.157
10132SOL    HW231296   3.433   6.997   5.108
10133SOL     OW31297   4.333   6.422   1.006
10133SOL    HW131298   4.274   6.403   1.084
10133SOL    HW231299   4.369   6.515   1.012
10134SOL     OW31300   0.122   6.212   3.622
10134SOL    HW131301   0.199   6.170   3.670
10134SOL    HW231302   0.064   6.141   3.583
10135SOL     OW31303   4.895   3.309   3.528
10135SOL    HW131304   4.850   3.250   3.596
10135SOL    HW231305   4.944   3.252   3.462
10136SOL     OW31306   4.956   0.460   3.403
10136SOL    HW131307   4.864   0.479   3.438
10136SOL    HW231308   4.962   0.485   3.307
10137SOL     OW31309   5.831   4.341   3.778
10137SOL    HW131310   5.819   4.316   3.874
10137SOL    HW231311   5.761   4.296   3.723
10138SOL     OW31312   5.231   3.129   0.554
10138SOL    HW131313   5.162   3.119   0.626
10138SOL    HW231314   5.322   3.139   0.595
10139SOL     OW31315   3.709   3.959   3.318
10139SOL    HW131316   3.614   3.990   3.313
10139SOL    HW231317   3.750   3.991   3.403
10140SOL     OW31318   6.093   6.199   6.779
10140SOL    HW131319   6.022   6.202   6.850
10140SOL    HW231320   6.108   6.291   6.743
10141SOL     OW31321   4.192   1.819   5.005
10141SOL    HW131322   4.231   1.774   5.085
10141SOL    HW231323   4.265   1.858   4.949
10142SOL     OW31324   6.470   6.768   5.026
10142SOL    HW131325   6.477   6.672   5.052
10142SOL    HW231326   6.386   6.806   5.064
10143SOL     OW31327   4.413   1.225   6.651
10143SOL    HW131328   4.488   1.240   6.715
10143SOL    HW231329   4.330   1.269   6.686
10144SOL     OW31330   3.524   0.175   6.546
10144SOL    HW131331   3.446   0.235   6.530
10144SOL    HW231332   3.591   0.222   6.604
10145SOL     OW31333   2.942   5.691   4.790
10145SOL    HW131334   3.024   5.645   4.824
10145SOL    HW231335   2.906   5.641   4.711
10146SOL     OW31336   4.165   4.879   4.739
10146SOL    HW131337   4.205   4.893   4.648
10146SOL    HW231338   4.067   4.896   4.735
10147SOL     OW31339   5.393   3.921   5.359
10147SOL    HW131340   5.346   3.844   5.402
10147SOL    HW231341   5.373   4.005   5.409
10148SOL     OW31342   4.944   5.653   6.805
10148SOL    HW131343   4.924   5.692   6.895
10148SOL    HW231344   5.004   5.573   6.816
10149SOL     OW31345   6.086   3.078   0.741
10149SOL    HW131346   6.014   3.147   0.736
10149SOL    HW231347   6.174   3.120   0.722
10150SOL     OW31348   4.200   4.231   0.289
10150SOL    HW131349   4.180   4.193   0.199
10150SOL    HW231350   4.214   4.157   0.355
10151SOL     OW31351   0.568   6.989   6.852
10151SOL    HW131352   0.602   6.910   6.904
10151SOL    HW231353   0.480   7.018   6.890
10152SOL     OW31354   6.489   5.881   4.326
10152SOL    HW131355   6.497   5.827   4.242
10152SOL    HW231356   6.574   5.932   4.340
10153SOL     OW31357   4.809   6.549   4.231
10153SOL    HW131358   4.768   6.561   4.141
10153SOL    HW231359   4.863   6.465   4.232
10154SOL     OW31360   4.932   6.874   5.624
10154SOL    HW131361   5.027   6.904   5.610
10154SOL    HW231362   4.899   6.828   5.542
10155SOL     OW31363   3.896   2.760   5.929
10155SOL    HW131364   3.867   2.853   5.952
10155SOL    HW231365   3.861   2.697   5.998
10156SOL     OW31366   6.054   0.862   2.653
10156SOL    HW131367   5.993   0.847   2.576
10156SOL    HW231368   6.001   0.866   2.738
10157SOL     OW31369   0.216   2.513   0.710
10157SOL    HW131370   0.221   2.413   0.708
10157SOL    HW231371   0.142   2.541   0.771
10158SOL     OW31372   5.773   4.425   0.863
10158SOL    HW131373   5.830   4.345   0.884
10158SOL    HW231374   5.692   4.425   0.922
10159SOL     OW31375   2.753   3.588   0.062
10159SOL    HW131376   2.761   3.488   0.067
10159SOL    HW231377   2.735   3.616   6.990
10160SOL     OW31378   1.848   3.118   2.268
10160SOL    HW131379   1.916   3.061   2.314
10160SOL    HW231380   1.759   3.074   2.272
10161SOL     OW31381   2.616   2.923   6.804
10161SOL    HW131382   2.648   2.835   6.768
10161SOL    HW231383   2.538   2.954   6.750
10162SOL     OW31384   3.556   4.670   0.893
10162SOL    HW131385   3.478   4.618   0.859
10162SOL    HW231386   3.558   4.760   0.850
10163SOL     OW31387   5.739   4.337   6.214
10163SOL    HW131388   5.719   4.249   6.171
10163SOL    HW231389   5.657   4.372   6.260
10164SOL     OW31390   5.849   3.890   4.845
10164SOL    HW131391   5.821   3.986   4.844
10164SOL    HW231392   5.858   3.857   4.751
10165SOL     OW31393   6.932   2.107   3.210
10165SOL    HW131394   6.954   2.010   3.226
10165SOL    HW231395   6.834   2.120   3.217
10166SOL     OW31396   3.220   2.003   1.839
10166SOL    HW131397   3.127   2.032   1.863
10166SOL    HW231398   3.275   2.084   1.816
10167SOL     OW31399   2.331   3.537   7.019
10167SOL    HW131400   2.247   3.488   6.997
10167SOL    HW231401   2.363   3.508   0.089
10168SOL     OW31402   5.642   3.432   6.129
10168SOL    HW131403   5.660   3.520   6.172
10168SOL    HW231404   5.680   3.358   6.186
10169SOL     OW31405   6.559   4.117   3.663
10169SOL    HW131406   6.495   4.043   3.641
10169SOL    HW231407   6.560   4.131   3.762
10170SOL     OW31408   0.717   5.497   5.397
10170SOL    HW131409   0.695   5.591   5.372
10170SOL    HW231410   0.773   5.456   5.325
10171SOL     OW31411   6.843   2.249   4.824
10171SOL    HW131412   6.817   2.266   4.729
10171SOL    HW231413   6.908   2.319   4.855
10172SOL     OW31414   6.918   5.947   4.733
10172SOL    HW131415   6.826   5.980   4.711
10172SOL    HW231416   6.923   5.926   4.831
10173SOL     OW31417   1.176   3.442   1.216
10173SOL    HW131418   1.108   3.485   1.275
10173SOL    HW231419   1.145   3.350   1.191
10174SOL     OW31420   5.128   5.137   3.008
10174SOL    HW131421   5.038   5.126   3.052
10174SOL    HW231422   5.195   5.165   3.076
10175SOL     OW31423   5.572   1.419   3.674
10175SOL    HW131424   5.570   1.322   3.652
10175SOL    HW231425   5.535   1.434   3.765
10176SOL     OW31426   0.732   3.677   5.421
10176SOL    HW131427   0.793   3.719   5.488
10176SOL    HW231428   0.651   3.641   5.467
10177SOL     OW31429   2.504   0.436   1.109
10177SOL    HW131430   2.407   0.443   1.088
10177SOL    HW231431   2.554   0.509   1.063
10178SOL     OW31432   0.802   0.578   6.091
10178SOL    HW131433   0.785   0.618   6.000
10178SOL    HW231434   0.900   0.562   6.102
10179SOL     OW31435   0.693   2.130   7.011
10179SOL    HW131436   0.688   2.136   6.911
10179SOL    HW231437   0.782   2.094   0.016
10180SOL     OW31438   4.192   0.992   5.571
10180SOL    HW131439   4.147   1.079   5.592
10180SOL    HW231440   4.193   0.935   5.653
10181SOL     OW31441   6.374   3.689   1.216
10181SOL    HW131442   6.395   3.604   1.166
10181SOL    HW231443   6.330   3.666   1.302
10182SOL     OW31444   4.595   1.017   1.680
10182SOL    HW131445   4.576   1.024   1.778
10182SOL    HW231446   4.674   0.957   1.666
10183SOL     OW31447   6.874   2.252   6.515
10183SOL    HW131448   6.886   2.163   6.559
10183SOL    HW231449   6.918   2.323   6.570
10184SOL     OW31450   4.529   1.108   5.797
10184SOL    HW131451   4.583   1.024   5.790
10184SOL    HW231452   4.434   1.084   5.817
10185SOL     OW31453   6.076   5.934   2.432
10185SOL    HW131454   6.143   5.873   2.391
10185SOL    HW231455   6.122   6.014   2.470
10186SOL     OW31456   5.980   3.378   3.724
10186SOL    HW131457   5.892   3.394   3.769
10186SOL    HW231458   6.049   3.357   3.793
10187SOL     OW31459   0.878   3.598   0.627
10187SOL    HW131460   0.966   3.646   0.621
10187SOL    HW231461   0.890   3.505   0.593
10188SOL     OW31462   4.085   5.329   0.583
10188SOL    HW131463   4.111   5.327   0.486
10188SOL    HW231464   4.019   5.403   0.598
10189SOL     OW31465   1.317   1.455   6.287
10189SOL    HW131466   1.324   1.543   6.335
10189SOL    HW231467   1.265   1.468   6.202
10190SOL     OW31468   4.933   3.167   1.951
10190SOL    HW131469   4.858   3.103   1.935
10190SOL    HW231470   4.934   3.236   1.878
10191SOL     OW31471   5.315   5.805   6.098
10191SOL    HW131472   5.221   5.784   6.123
10191SOL    HW231473   5.333   5.771   6.005
10192SOL     OW31474   4.175   1.262   5.384
10192SOL    HW131475   4.078   1.237   5.376
10192SOL    HW231476   4.231   1.185   5.353
10193SOL     OW31477   3.780   3.481   1.906
10193SOL    HW131478   3.689   3.466   1.945
10193SOL    HW231479   3.777   3.466   1.807
10194SOL     OW31480   5.702   5.923   5.544
10194SOL    HW131481   5.780   5.983   5.562
10194SOL    HW231482   5.656   5.900   5.630
10195SOL     OW31483   5.791   5.804   0.717
10195SOL    HW131484   5.785   5.834   0.622
10195SOL    HW231485   5.837   5.715   0.721
10196SOL     OW31486   4.783   1.342   3.841
10196SOL    HW131487   4.779   1.441   3.827
10196SOL    HW231488   4.801   1.297   3.754
10197SOL     OW31489   5.743   1.905   5.119
10197SOL    HW131490   5.700   1.995   5.126
10197SOL    HW231491   5.727   1.854   5.204
10198SOL     OW31492   2.647   6.717   2.252
10198SOL    HW131493   2.553   6.707   2.284
10198SOL    HW231494   2.704   6.752   2.326
10199SOL     OW31495   2.030   3.618   0.161
10199SOL    HW131496   2.032   3.671   0.076
10199SOL    HW231497   2.078   3.668   0.233
10200SOL     OW31498   5.235   2.362   6.430
10200SOL    HW131499   5.168   2.299   6.471
10200SOL    HW231500   5.189   2.448   6.405
10201SOL     OW31501   1.525   4.725   0.935
10201SOL    HW131502   1.520   4.645   0.994
10201SOL    HW231503   1.564   4.699   0.846
10202SOL     OW31504   3.547   4.324   1.146
10202SOL    HW131505   3.461   4.348   1.191
10202SOL    HW231506   3.613   4.397   1.159
10203SOL     OW31507   6.263   2.667   3.183
10203SOL    HW131508   6.290   2.675   3.087
10203SOL    HW231509   6.343   2.642   3.238
10204SOL     OW31510   4.759   6.414   0.207
10204SOL    HW131511   4.690   6.372   0.149
10204SOL    HW231512   4.850   6.397   0.168
10205SOL     OW31513   1.691   0.017   1.655
10205SOL    HW131514   1.667   6.981   1.577
10205SOL    HW231515   1.789   0.010   1.673
10206SOL     OW31516   6.563   0.587   0.069
10206SOL    HW131517   6.560   0.513   0.135
10206SOL    HW231518   6.605   0.668   0.111
10207SOL     OW31519   1.086   1.874   0.319
10207SOL    HW131520   1.125   1.953   0.367
10207SOL    HW231521   0.986   1.886   0.313
10208SOL     OW31522   6.001   4.672   3.577
10208SOL    HW131523   6.032   4.759   3.614
10208SOL    HW231524   5.912   4.648   3.617
10209SOL     OW31525   0.427   6.891   0.645
10209SOL    HW131526   0.412   6.857   0.552
10209SOL    HW231527   0.341   6.889   0.695
10210SOL     OW31528   4.864   6.533   1.710
10210SOL    HW131529   4.849   6.601   1.638
10210SOL    HW231530   4.787   6.535   1.774
10211SOL     OW31531   4.391   6.317   4.859
10211SOL    HW131532   4.378   6.295   4.956
10211SOL    HW231533   4.439   6.242   4.814
10212SOL     OW31534   0.859   0.463   5.045
10212SOL    HW131535   0.811   0.540   5.003
10212SOL    HW231536   0.825   0.450   5.138
10213SOL     OW31537   5.965   2.709   1.725
10213SOL    HW131538   5.976   2.808   1.729
10213SOL    HW231539   6.033   2.671   1.663
10214SOL     OW31540   0.948   1.601   2.350
10214SOL    HW131541   0.975   1.689   2.312
10214SOL    HW231542   0.853   1.582   2.328
10215SOL     OW31543   4.008   3.260   3.530
10215SOL    HW131544   4.087   3.206   3.557
10215SOL    HW231545   4.035   3.331   3.466
10216SOL     OW31546   0.285   1.318   1.577
10216SOL    HW131547   0.265   1.386   1.506
10216SOL    HW231548   0.227   1.334   1.656
10217SOL     OW31549   3.263   1.368   2.925
10217SOL    HW131550   3.339   1.433   2.925
10217SOL    HW231551   3.263   1.317   3.012
10218SOL     OW31552   1.919   1.402   1.578
10218SOL    HW131553   1.938   1.457   1.659
10218SOL    HW231554   1.968   1.439   1.499
10219SOL     OW31555   0.825   1.721   3.150
10219SOL    HW131556   0.780   1.654   3.209
10219SOL    HW231557   0.894   1.675   3.094
10220SOL     OW31558   5.161   2.059   0.820
10220SOL    HW131559   5.223   2.138   0.827
10220SOL    HW231560   5.159   2.026   0.726
10221SOL     OW31561   1.064   4.682   3.690
10221SOL    HW131562   1.000   4.748   3.652
10221SOL    HW231563   1.017   4.624   3.757
10222SOL     OW31564   3.032   4.064   5.549
10222SOL    HW131565   3.058   4.161   5.551
10222SOL    HW231566   2.950   4.050   5.604
10223SOL     OW31567   1.556   4.917   1.465
10223SOL    HW131568   1.595   5.008   1.481
10223SOL    HW231569   1.482   4.923   1.399
10224SOL     OW31570   6.334   2.993   5.017
10224SOL    HW131571   6.360   2.898   5.032
10224SOL    HW231572   6.239   3.007   5.043
10225SOL     OW31573   1.169   5.252   5.786
10225SOL    HW131574   1.201   5.333   5.835
10225SOL    HW231575   1.079   5.269   5.746
10226SOL     OW31576   2.689   0.790   6.090
10226SOL    HW131577   2.751   0.830   6.022
10226SOL    HW231578   2.666   0.858   6.159
10227SOL     OW31579   5.801   5.073   1.032
10227SOL    HW131580   5.871   5.140   1.057
10227SOL    HW231581   5.811   5.048   0.936
10228SOL     OW31582   0.078   6.697   1.985
10228SOL    HW131583   0.026   6.754   1.921
10228SOL    HW231584   0.023   6.682   2.068
10229SOL     OW31585   1.422   3.197   4.820
10229SOL    HW131586   1.421   3.107   4.862
10229SOL    HW231587   1.333   3.217   4.781
10230SOL     OW31588   5.657   6.114   3.286
10230SOL    HW131589   5.649   6.203   3.330
10230SOL    HW231590   5.574   6.095   3.234
10231SOL     OW31591   6.904   5.034   5.426
10231SOL    HW131592   6.937   5.085   5.505
10231SOL    HW231593   6.885   4.940   5.452
10232SOL     OW31594   3.105   1.212   3.401
10232SOL    HW131595   3.150   1.300   3.418
10232SOL    HW231596   3.130   1.147   3.474
10233SOL     OW31597   3.835   3.994   4.866
10233SOL    HW131598   3.770   3.919   4.850
10233SOL    HW231599   3.792   4.081   4.840
10234SOL     OW31600   6.129   1.118   1.335
10234SOL    HW131601   6.056   1.124   1.267
10234SOL    HW231602   6.178   1.032   1.325
10235SOL     OW31603   2.210   2.693   1.693
10235SOL    HW131604   2.245   2.757   1.625
10235SOL    HW231605   2.134   2.642   1.655
10236SOL     OW31606   2.615   0.834   0.443
10236SOL    HW131607   2.702   0.866   0.405
10236SOL    HW231608   2.599   0.879   0.530
10237SOL     OW31609   0.549   3.710   6.717
10237SOL    HW131610   0.566   3.733   6.813
10237SOL    HW231611   0.560   3.792   6.661
10238SOL     OW31612   3.720   4.344   1.701
10238SOL    HW131613   3.670   4.424   1.735
10238SOL    HW231614   3.736   4.281   1.776
10239SOL     OW31615   1.375   3.235   5.388
10239SOL    HW131616   1.337   3.233   5.481
10239SOL    HW231617   1.474   3.249   5.393
10240SOL     OW31618   2.303   5.372   2.230
10240SOL    HW131619   2.250   5.414   2.156
10240SOL    HW231620   2.247   5.365   2.312
10241SOL     OW31621   6.425   6.738   2.456
10241SOL    HW131622   6.457   6.705   2.367
10241SOL    HW231623   6.450   6.671   2.527
10242SOL     OW31624   0.497   1.805   1.052
10242SOL    HW131625   0.489   1.902   1.076
10242SOL    HW231626   0.428   1.783   0.983
10243SOL     OW31627   2.256   4.427   2.510
10243SOL    HW131628   2.308   4.452   2.428
10243SOL    HW231629   2.163   4.400   2.483
10244SOL     OW31630   1.807   4.530   0.509
10244SOL    HW131631   1.838   4.465   0.440
10244SOL    HW231632   1.880   4.545   0.575
10245SOL     OW31633   3.296   3.757   1.548
10245SOL    HW131634   3.213   3.805   1.520
10245SOL    HW231635   3.281   3.714   1.637
10246SOL     OW31636   3.457   3.685   4.021
10246SOL    HW131637   3.397   3.615   3.983
10246SOL    HW231638   3.402   3.751   4.073
10247SOL     OW31639   6.678   3.913   5.423
10247SOL    HW131640   6.654   3.822   5.458
10247SOL    HW231641   6.597   3.956   5.384
10248SOL     OW31642   1.733   6.362   2.300
10248SOL    HW131643   1.799   6.290   2.321
10248SOL    HW231644   1.746   6.394   2.206
10249SOL     OW31645   3.766   5.996   6.464
10249SOL    HW131646   3.787   5.908   6.420
10249SOL    HW231647   3.680   6.032   6.425
10250SOL     OW31648   6.890   3.553   1.964
10250SOL    HW131649   6.940   3.506   2.037
10250SOL    HW231650   6.888   3.496   1.882
10251SOL     OW31651   2.089   1.866   4.916
10251SOL    HW131652   2.188   1.872   4.915
10251SOL    HW231653   2.050   1.956   4.895
10252SOL     OW31654   4.199   4.389   6.712
10252SOL    HW131655   4.290   4.349   6.721
10252SOL    HW231656   4.162   4.368   6.621
10253SOL     OW31657   2.876   5.684   0.522
10253SOL    HW131658   2.890   5.635   0.608
10253SOL    HW231659   2.900   5.625   0.445
10254SOL     OW31660   4.990   0.996   5.581
10254SOL    HW131661   5.081   0.971   5.613
10254SOL    HW231662   4.994   1.086   5.539
10255SOL     OW31663   2.512   6.168   1.407
10255SOL    HW131664   2.477   6.196   1.318
10255SOL    HW231665   2.469   6.223   1.479
10256SOL     OW31666   4.392   2.021   1.957
10256SOL    HW131667   4.328   1.969   2.013
10256SOL    HW231668   4.357   2.114   1.945
10257SOL     OW31669   2.190   5.156   3.974
10257SOL    HW131670   2.221   5.208   3.894
10257SOL    HW231671   2.231   5.195   4.056
10258SOL     OW31672   3.940   2.188   3.737
10258SOL    HW131673   3.943   2.273   3.790
10258SOL    HW231674   4.015   2.188   3.670
10259SOL     OW31675   0.678   4.140   2.538
10259SOL    HW131676   0.658   4.133   2.636
10259SOL    HW231677   0.657   4.053   2.494
10260SOL     OW31678   1.130   1.461   3.069
10260SOL    HW131679   1.181   1.481   3.152
10260SOL    HW231680   1.194   1.436   2.996
10261SOL     OW31681   6.698   5.509   1.471
10261SOL    HW131682   6.712   5.587   1.532
10261SOL    HW231683   6.661   5.432   1.524
10262SOL     OW31684   2.634   0.153   5.722
10262SOL    HW131685   2.673   0.076   5.772
10262SOL    HW231686   2.557   0.121   5.667
10263SOL     OW31687   5.601   0.297   0.480
10263SOL    HW131688   5.548   0.351   0.546
10263SOL    HW231689   5.589   0.200   0.499
10264SOL     OW31690   6.532   6.771   6.865
10264SOL    HW131691   6.478   6.693   6.894
10264SOL    HW231692   6.605   6.741   6.804
10265SOL     OW31693   2.832   2.778   1.676
10265SOL    HW131694   2.734   2.791   1.688
10265SOL    HW231695   2.854   2.681   1.677
10266SOL     OW31696   3.565   2.860   3.905
10266SOL    HW131697   3.545   2.926   3.833
10266SOL    HW231698   3.483   2.845   3.960
10267SOL     OW31699   5.602   2.330   0.184
10267SOL    HW131700   5.624   2.272   0.105
10267SOL    HW231701   5.547   2.407   0.154
10268SOL     OW31702   6.407   6.271   2.063
10268SOL    HW131703   6.417   6.349   2.000
10268SOL    HW231704   6.490   6.215   2.059
10269SOL     OW31705   0.302   4.084   6.505
10269SOL    HW131706   0.310   4.181   6.481
10269SOL    HW231707   0.232   4.041   6.447
10270SOL     OW31708   3.295   4.938   2.131
10270SOL    HW131709   3.274   4.906   2.224
10270SOL    HW231710   3.219   4.914   2.070
10271SOL     OW31711   3.527   2.735   6.920
10271SOL    HW131712   3.502   2.646   6.881
10271SOL    HW231713   3.460   2.803   6.892
10272SOL     OW31714   1.541   1.072   5.588
10272SOL    HW131715   1.481   1.048   5.664
10272SOL    HW231716   1.620   1.011   5.587
10273SOL     OW31717   2.801   5.693   2.823
10273SOL    HW131718   2.811   5.607   2.874
10273SOL    HW231719   2.809   5.675   2.725
10274SOL     OW31720   0.492   4.657   6.092
10274SOL    HW131721   0.412   4.656   6.153
10274SOL    HW231722   0.461   4.659   5.997
10275SOL     OW31723   0.591   6.299   2.108
10275SOL    HW131724   0.666   6.255   2.059
10275SOL    HW231725   0.511   6.303   2.048
10276SOL     OW31726   5.403   5.961   5.231
10276SOL    HW131727   5.328   5.921   5.283
10276SOL    HW231728   5.408   5.918   5.141
10277SOL     OW31729   1.840   6.229   5.225
10277SOL    HW131730   1.868   6.261   5.135
10277SOL    HW231731   1.743   6.248   5.238
10278SOL     OW31732   1.555   1.705   3.287
10278SOL    HW131733   1.566   1.785   3.347
10278SOL    HW231734   1.502   1.731   3.206
10279SOL     OW31735   1.386   4.703   4.249
10279SOL    HW131736   1.338   4.617   4.232
10279SOL    HW231737   1.449   4.722   4.173
10280SOL     OW31738   7.009   2.377   6.741
10280SOL    HW131739   0.045   2.435   6.799
10280SOL    HW231740   6.986   2.293   6.790
10281SOL     OW31741   5.724   1.439   3.217
10281SOL    HW131742   5.715   1.340   3.203
10281SOL    HW231743   5.799   1.474   3.162
10282SOL     OW31744   5.349   3.463   4.450
10282SOL    HW131745   5.290   3.383   4.460
10282SOL    HW231746   5.326   3.531   4.519
10283SOL     OW31747   1.802   3.207   1.220
10283SOL    HW131748   1.791   3.244   1.127
10283SOL    HW231749   1.890   3.235   1.257
10284SOL     OW31750   4.852   2.308   5.304
10284SOL    HW131751   4.933   2.271   5.259
10284SOL    HW231752   4.855   2.408   5.303
10285SOL     OW31753   5.460   6.514   3.179
10285SOL    HW131754   5.509   6.497   3.265
10285SOL    HW231755   5.364   6.490   3.189
10286SOL     OW31756   3.487   1.817   3.724
10286SOL    HW131757   3.410   1.879   3.739
10286SOL    HW231758   3.572   1.861   3.755
10287SOL     OW31759   3.152   5.766   1.696
10287SOL    HW131760   3.213   5.845   1.702
10287SOL    HW231761   3.194   5.687   1.742
10288SOL     OW31762   4.697   5.707   2.945
10288SOL    HW131763   4.743   5.779   2.893
10288SOL    HW231764   4.748   5.689   3.029
10289SOL     OW31765   2.825   6.062   6.659
10289SOL    HW131766   2.745   6.086   6.603
10289SOL    HW231767   2.830   6.125   6.737
10290SOL     OW31768   2.977   3.879   3.067
10290SOL    HW131769   2.958   3.813   3.140
10290SOL    HW231770   3.032   3.954   3.104
10291SOL     OW31771   4.059   1.650   2.338
10291SOL    HW131772   4.129   1.709   2.296
10291SOL    HW231773   3.984   1.706   2.372
10292SOL     OW31774   1.646   2.363   5.218
10292SOL    HW131775   1.739   2.328   5.230
10292SOL    HW231776   1.581   2.300   5.261
10293SOL     OW31777   1.407   3.629   2.354
10293SOL    HW131778   1.456   3.715   2.367
10293SOL    HW231779   1.457   3.555   2.399
10294SOL     OW31780   4.802   2.346   3.479
10294SOL    HW131781   4.736   2.372   3.549
10294SOL    HW231782   4.807   2.417   3.409
10295SOL     OW31783   0.492   3.137   6.171
10295SOL    HW131784   0.587   3.167   6.170
10295SOL    HW231785   0.444   3.175   6.091
10296SOL     OW31786   5.228   1.293   6.842
10296SOL    HW131787   5.307   1.235   6.862
10296SOL    HW231788   5.220   1.362   6.914
10297SOL     OW31789   1.885   0.873   6.285
10297SOL    HW131790   1.983   0.870   6.300
10297SOL    HW231791   1.844   0.789   6.320
10298SOL     OW31792   2.911   4.649   0.890
10298SOL    HW131793   3.007   4.624   0.873
10298SOL    HW231794   2.899   4.747   0.872
10299SOL     OW31795   4.203   4.876   2.972
10299SOL    HW131796   4.105   4.883   2.992
10299SOL    HW231797   4.221   4.913   2.881
10300SOL     OW31798   1.625   4.290   2.598
10300SOL    HW131799   1.676   4.362   2.644
10300SOL    HW231800   1.537   4.326   2.567
10301SOL     OW31801   4.894   1.998   4.503
10301SOL    HW131802   4.806   1.955   4.525
10301SOL    HW231803   4.930   1.957   4.419
10302SOL     OW31804   1.911   6.328   4.982
10302SOL    HW131805   1.905   6.356   4.886
10302SOL    HW231806   2.005   6.301   5.003
10303SOL     OW31807   1.756   6.172   2.660
10303SOL    HW131808   1.661   6.141   2.665
10303SOL    HW231809   1.778   6.224   2.743
10304SOL     OW31810   5.708   6.878   1.516
10304SOL    HW131811   5.623   6.910   1.559
10304SOL    HW231812   5.767   6.840   1.587
10305SOL     OW31813   1.201   4.439   6.202
10305SOL    HW131814   1.235   4.370   6.265
10305SOL    HW231815   1.105   4.459   6.223
10306SOL     OW31816   5.338   5.525   0.018
10306SOL    HW131817   5.320   5.454   6.971
10306SOL    HW231818   5.357   5.612   6.992
10307SOL     OW31819   2.937   2.245   5.204
10307SOL    HW131820   3.029   2.281   5.189
10307SOL    HW231821   2.881   2.313   5.252
10308SOL     OW31822   1.671   4.016   3.197
10308SOL    HW131823   1.675   4.087   3.267
10308SOL    HW231824   1.651   3.928   3.240
10309SOL     OW31825   6.962   1.993   6.707
10309SOL    HW131826   0.030   2.012   6.748
10309SOL    HW231827   6.896   1.974   6.779
10310SOL     OW31828   3.137   4.043   0.889
10310SOL    HW131829   3.180   3.995   0.966
10310SOL    HW231830   3.043   4.066   0.913
10311SOL     OW31831   6.506   5.744   0.365
10311SOL    HW131832   6.568   5.812   0.326
10311SOL    HW231833   6.411   5.772   0.349
10312SOL     OW31834   3.863   5.859   2.447
10312SOL    HW131835   3.765   5.881   2.442
10312SOL    HW231836   3.917   5.937   2.418
10313SOL     OW31837   4.508   6.336   1.805
10313SOL    HW131838   4.412   6.334   1.778
10313SOL    HW231839   4.538   6.430   1.816
10314SOL     OW31840   6.694   0.627   1.931
10314SOL    HW131841   6.788   0.659   1.917
10314SOL    HW231842   6.669   0.566   1.856
10315SOL     OW31843   5.283   5.357   5.181
10315SOL    HW131844   5.376   5.394   5.178
10315SOL    HW231845   5.279   5.271   5.130
10316SOL     OW31846   5.969   1.299   5.303
10316SOL    HW131847   5.903   1.325   5.233
10316SOL    HW231848   5.927   1.234   5.366
10317SOL     OW31849   4.938   5.786   5.614
10317SOL    HW131850   4.876   5.732   5.672
10317SOL    HW231851   4.930   5.754   5.519
10318SOL     OW31852   5.233   0.100   6.683
10318SOL    HW131853   5.256   0.044   6.762
10318SOL    HW231854   5.243   0.197   6.706
10319SOL     OW31855   0.772   2.343   5.722
10319SOL    HW131856   0.726   2.254   5.729
10319SOL    HW231857   0.858   2.340   5.771
10320SOL     OW31858   0.651   0.163   2.352
10320SOL    HW131859   0.598   0.165   2.267
10320SOL    HW231860   0.749   0.161   2.330
10321SOL     OW31861   4.087   1.925   1.842
10321SOL    HW131862   4.002   1.956   1.885
10321SOL    HW231863   4.077   1.927   1.743
10322SOL     OW31864   6.347   5.747   5.334
10322SOL    HW131865   6.288   5.742   5.254
10322SOL    HW231866   6.291   5.736   5.417
10323SOL     OW31867   5.892   3.417   5.216
10323SOL    HW131868   5.874   3.388   5.122
10323SOL    HW231869   5.888   3.338   5.277
10324SOL     OW31870   3.220   3.056   2.129
10324SOL    HW131871   3.250   3.122   2.060
10324SOL    HW231872   3.129   3.021   2.105
10325SOL     OW31873   6.506   4.434   2.204
10325SOL    HW131874   6.544   4.347   2.173
10325SOL    HW231875   6.460   4.421   2.292
10326SOL     OW31876   3.593   5.034   0.454
10326SOL    HW131877   3.592   4.981   0.370
10326SOL    HW231878   3.663   5.105   0.448
10327SOL     OW31879   2.346   1.656   0.967
10327SOL    HW131880   2.418   1.663   0.898
10327SOL    HW231881   2.375   1.594   1.040
10328SOL     OW31882   6.494   2.611   1.328
10328SOL    HW131883   6.422   2.557   1.371
10328SOL    HW231884   6.455   2.693   1.287
10329SOL     OW31885   3.397   0.846   3.872
10329SOL    HW131886   3.347   0.924   3.908
10329SOL    HW231887   3.456   0.809   3.943
10330SOL     OW31888   4.630   0.744   2.228
10330SOL    HW131889   4.601   0.743   2.323
10330SOL    HW231890   4.653   0.838   2.201
10331SOL     OW31891   6.392   0.491   6.003
10331SOL    HW131892   6.393   0.391   5.993
10331SOL    HW231893   6.427   0.516   6.093
10332SOL     OW31894   6.463   0.477   1.291
10332SOL    HW131895   6.517   0.509   1.214
10332SOL    HW231896   6.390   0.418   1.257
10333SOL     OW31897   6.755   4.578   5.131
10333SOL    HW131898   6.740   4.641   5.054
10333SOL    HW231899   6.714   4.617   5.214
10334SOL     OW31900   3.418   0.014   3.435
10334SOL    HW131901   3.406   0.110   3.412
10334SOL    HW231902   3.347   6.981   3.389
10335SOL     OW31903   2.545   4.381   6.585
10335SOL    HW131904   2.492   4.463   6.607
10335SOL    HW231905   2.619   4.406   6.522
10336SOL     OW31906   6.543   0.270   2.172
10336SOL    HW131907   6.551   0.220   2.085
10336SOL    HW231908   6.499   0.358   2.156
10337SOL     OW31909   0.202   6.548   5.660
10337SOL    HW131910   0.104   6.539   5.675
10337SOL    HW231911   0.223   6.534   5.563
10338SOL     OW31912   2.010   6.388   2.548
10338SOL    HW131913   2.047   6.332   2.474
10338SOL    HW231914   1.931   6.439   2.515
10339SOL     OW31915   3.718   4.032   6.691
10339SOL    HW131916   3.761   4.115   6.654
10339SOL    HW231917   3.768   3.952   6.659
10340SOL     OW31918   1.718   4.025   1.405
10340SOL    HW131919   1.798   4.077   1.433
10340SOL    HW231920   1.741   3.928   1.398
10341SOL     OW31921   2.147   3.295   2.612
10341SOL    HW131922   2.085   3.322   2.539
10341SOL    HW231923   2.171   3.375   2.666
10342SOL     OW31924   1.966   0.212   4.801
10342SOL    HW131925   1.961   0.276   4.877
10342SOL    HW231926   1.949   0.261   4.715
10343SOL     OW31927   3.610   6.092   0.081
10343SOL    HW131928   3.562   6.140   0.007
10343SOL    HW231929   3.677   6.029   0.043
10344SOL     OW31930   4.427   3.696   1.133
10344SOL    HW131931   4.346   3.701   1.191
10344SOL    HW231932   4.465   3.788   1.122
10345SOL     OW31933   1.666   1.399   6.514
10345SOL    HW131934   1.603   1.464   6.556
10345SOL    HW231935   1.626   1.308   6.517
10346SOL     OW31936   7.006   5.470   1.797
10346SOL    HW131937   7.008   5.556   1.745
10346SOL    HW231938   0.041   5.402   1.751
10347SOL     OW31939   4.298   1.832   3.612
10347SOL    HW131940   4.221   1.884   3.575
10347SOL    HW231941   4.367   1.820   3.541
10348SOL     OW31942   6.318   2.178   0.599
10348SOL    HW131943   6.375   2.211   0.524
10348SOL    HW231944   6.274   2.092   0.572
10349SOL     OW31945   0.896   0.929   0.821
10349SOL    HW131946   0.974   0.977   0.863
10349SOL    HW231947   0.811   0.970   0.854
10350SOL     OW31948   2.313   6.843   5.088
10350SOL    HW131949   2.305   6.940   5.062
10350SOL    HW231950   2.390   6.802   5.038
10351SOL     OW31951   4.430   4.694   6.224
10351SOL    HW131952   4.454   4.634   6.301
10351SOL    HW231953   4.340   4.668   6.188
10352SOL     OW31954   4.011   1.711   5.754
10352SOL    HW131955   4.046   1.781   5.693
10352SOL    HW231956   3.964   1.754   5.831
10353SOL     OW31957   6.583   2.234   5.376
10353SOL    HW131958   6.615   2.158   5.433
10353SOL    HW231959   6.484   2.232   5.370
10354SOL     OW31960   5.682   2.540   2.217
10354SOL    HW131961   5.748   2.464   2.217
10354SOL    HW231962   5.591   2.505   2.243
10355SOL     OW31963   1.549   0.027   2.197
10355SOL    HW131964   1.553   7.009   2.105
10355SOL    HW231965   1.580   6.981   2.264
10356SOL     OW31966   0.879   4.646   5.485
10356SOL    HW131967   0.808   4.670   5.551
10356SOL    HW231968   0.943   4.722   5.476
10357SOL     OW31969   1.787   3.226   6.182
10357SOL    HW131970   1.793   3.309   6.239
10357SOL    HW231971   1.691   3.209   6.159
10358SOL     OW31972   6.044   2.783   3.258
10358SOL    HW131973   6.011   2.851   3.193
10358SOL    HW231974   6.121   2.733   3.218
10359SOL     OW31975   0.426   1.706   1.872
10359SOL    HW131976   0.480   1.752   1.943
10359SOL    HW231977   0.485   1.687   1.793
10360SOL     OW31978   4.737   5.338   3.195
10360SOL    HW131979   4.671   5.369   3.264
10360SOL    HW231980   4.829   5.343   3.232
10361SOL     OW31981   3.134   6.706   3.377
10361SOL    HW131982   3.182   6.785   3.339
10361SOL    HW231983   3.129   6.715   3.476
10362SOL     OW31984   0.291   5.048   4.989
10362SOL    HW131985   0.212   5.006   4.945
10362SOL    HW231986   0.329   4.986   5.057
10363SOL     OW31987   5.304   1.535   2.005
10363SOL    HW131988   5.269   1.628   1.995
10363SOL    HW231989   5.372   1.533   2.078
10364SOL     OW31990   2.895   3.386   1.471
10364SOL    HW131991   2.821   3.322   1.494
10364SOL    HW231992   2.957   3.395   1.550
10365SOL     OW31993   4.459   4.457   6.414
10365SOL    HW131994   4.454   4.383   6.481
10365SOL    HW231995   4.511   4.534   6.452
10366SOL     OW31996   3.529   0.742   4.084
10366SOL    HW131997   3.502   0.647   4.104
10366SOL    HW231998   3.529   0.795   4.168
10367SOL     OW31999   6.695   1.499   2.685
10367SOL    HW132000   6.638   1.447   2.621
10367SOL    HW232001   6.725   1.439   2.759
10368SOL     OW32002   1.972   1.114   1.701
10368SOL    HW132003   2.058   1.098   1.654
10368SOL    HW232004   1.952   1.212   1.701
10369SOL     OW32005   4.136   1.024   5.173
10369SOL    HW132006   4.207   1.010   5.242
10369SOL    HW232007   4.089   1.110   5.190
10370SOL     OW32008   5.725   1.452   5.423
10370SOL    HW132009   5.718   1.354   5.405
10370SOL    HW232010   5.665   1.476   5.500
10371SOL     OW32011   3.065   6.122   4.904
10371SOL    HW132012   2.995   6.056   4.877
10371SOL    HW232013   3.023   6.210   4.923
10372SOL     OW32014   1.139   1.604   6.867
10372SOL    HW132015   1.177   1.528   6.814
10372SOL    HW232016   1.173   1.598   6.961
10373SOL     OW32017   2.100   5.961   4.945
10373SOL    HW132018   2.047   5.949   5.029
10373SOL    HW232019   2.132   6.056   4.939
10374SOL     OW32020   3.845   1.227   2.391
10374SOL    HW132021   3.802   1.139   2.375
10374SOL    HW232022   3.875   1.232   2.486
10375SOL     OW32023   3.121   1.743   5.887
10375SOL    HW132024   3.097   1.649   5.863
10375SOL    HW232025   3.136   1.796   5.804
10376SOL     OW32026   1.276   6.535   3.715
10376SOL    HW132027   1.191   6.585   3.706
10376SOL    HW232028   1.332   6.575   3.788
10377SOL     OW32029   0.377   0.584   4.226
10377SOL    HW132030   0.470   0.590   4.263
10377SOL    HW232031   0.370   0.642   4.145
10378SOL     OW32032   6.609   0.560   6.217
10378SOL    HW132033   6.687   0.511   6.178
10378SOL    HW232034   6.642   0.627   6.283
10379SOL     OW32035   3.479   6.779   4.881
10379SOL    HW132036   3.493   6.875   4.858
10379SOL    HW232037   3.391   6.767   4.926
10380SOL     OW32038   0.216   1.079   4.051
10380SOL    HW132039   0.256   1.167   4.078
10380SOL    HW232040   0.246   1.056   3.959
10381SOL     OW32041   4.042   5.744   6.252
10381SOL    HW132042   4.111   5.715   6.318
10381SOL    HW232043   4.066   5.835   6.217
10382SOL     OW32044   2.135   4.645   0.035
10382SOL    HW132045   2.132   4.600   6.967
10382SOL    HW232046   2.130   4.576   0.107
10383SOL     OW32047   0.471   3.750   0.938
10383SOL    HW132048   0.553   3.782   0.890
10383SOL    HW232049   0.398   3.817   0.929
10384SOL     OW32050   0.560   0.288   0.887
10384SOL    HW132051   0.610   0.239   0.959
10384SOL    HW232052   0.572   0.387   0.899
10385SOL     OW32053   4.268   0.205   6.757
10385SOL    HW132054   4.203   0.130   6.747
10385SOL    HW232055   4.340   0.178   6.822
10386SOL     OW32056   5.611   3.252   5.344
10386SOL    HW132057   5.552   3.181   5.304
10386SOL    HW232058   5.580   3.342   5.315
10387SOL     OW32059   3.849   2.127   2.237
10387SOL    HW132060   3.767   2.152   2.184
10387SOL    HW232061   3.931   2.156   2.187
10388SOL     OW32062   1.459   5.580   3.302
10388SOL    HW132063   1.502   5.528   3.376
10388SOL    HW232064   1.498   5.671   3.298
10389SOL     OW32065   0.363   6.916   1.399
10389SOL    HW132066   0.272   6.913   1.359
10389SOL    HW232067   0.412   6.996   1.363
10390SOL     OW32068   1.399   3.651   1.512
10390SOL    HW132069   1.498   3.660   1.527
10390SOL    HW232070   1.374   3.554   1.513
10391SOL     OW32071   1.182   5.953   5.046
10391SOL    HW132072   1.250   6.025   5.034
10391SOL    HW232073   1.208   5.874   4.990
10392SOL     OW32074   6.270   3.941   0.224
10392SOL    HW132075   6.298   3.851   0.258
10392SOL    HW232076   6.309   4.012   0.283
10393SOL     OW32077   1.997   1.905   2.794
10393SOL    HW132078   2.074   1.884   2.854
10393SOL    HW232079   1.922   1.841   2.813
10394SOL     OW32080   2.648   6.571   6.074
10394SOL    HW132081   2.566   6.520   6.047
10394SOL    HW232082   2.727   6.535   6.025
10395SOL     OW32083   6.211   0.414   4.002
10395SOL    HW132084   6.142   0.379   4.066
10395SOL    HW232085   6.178   0.500   3.962
10396SOL     OW32086   1.935   6.995   4.412
10396SOL    HW132087   2.019   0.027   4.403
10396SOL    HW232088   1.860   0.023   4.369
10397SOL     OW32089   3.316   1.684   3.469
10397SOL    HW132090   3.414   1.698   3.486
10397SOL    HW232091   3.285   1.743   3.395
10398SOL     OW32092   6.023   2.752   0.411
10398SOL    HW132093   6.020   2.852   0.417
10398SOL    HW232094   6.037   2.714   0.502
10399SOL     OW32095   4.426   1.245   4.951
10399SOL    HW132096   4.375   1.319   4.994
10399SOL    HW232097   4.446   1.174   5.018
10400SOL     OW32098   3.406   5.919   1.801
10400SOL    HW132099   3.340   5.859   1.845
10400SOL    HW232100   3.453   5.975   1.870
10401SOL     OW32101   6.827   0.265   2.162
10401SOL    HW132102   6.728   0.275   2.173
10401SOL    HW232103   6.862   0.199   2.228
10402SOL     OW32104   0.392   2.352   5.548
10402SOL    HW132105   0.411   2.262   5.508
10402SOL    HW232106   0.385   2.345   5.647
10403SOL     OW32107   5.098   1.295   2.476
10403SOL    HW132108   5.071   1.377   2.426
10403SOL    HW232109   5.150   1.321   2.557
10404SOL     OW32110   0.644   6.574   3.328
10404SOL    HW132111   0.685   6.623   3.406
10404SOL    HW232112   0.645   6.476   3.347
10405SOL     OW32113   1.281   5.341   5.134
10405SOL    HW132114   1.363   5.399   5.133
10405SOL    HW232115   1.201   5.396   5.157
10406SOL     OW32116   2.089   3.922   5.173
10406SOL    HW132117   2.166   3.982   5.148
10406SOL    HW232118   2.015   3.978   5.210
10407SOL     OW32119   2.100   0.839   6.638
10407SOL    HW132120   2.101   0.747   6.601
10407SOL    HW232121   2.021   0.851   6.698
10408SOL     OW32122   4.413   5.904   2.697
10408SOL    HW132123   4.383   5.987   2.744
10408SOL    HW232124   4.402   5.825   2.758
10409SOL     OW32125   1.083   4.768   0.977
10409SOL    HW132126   1.066   4.733   0.885
10409SOL    HW232127   1.030   4.852   0.991
10410SOL     OW32128   5.197   1.593   1.303
10410SOL    HW132129   5.180   1.652   1.225
10410SOL    HW232130   5.239   1.646   1.377
10411SOL     OW32131   3.017   5.303   4.027
10411SOL    HW132132   2.951   5.229   4.011
10411SOL    HW232133   3.094   5.268   4.080
10412SOL     OW32134   0.642   1.659   0.840
10412SOL    HW132135   0.661   1.756   0.828
10412SOL    HW232136   0.633   1.639   0.938
10413SOL     OW32137   0.788   2.162   0.954
10413SOL    HW132138   0.745   2.243   0.915
10413SOL    HW232139   0.887   2.176   0.959
10414SOL     OW32140   4.525   6.038   6.123
10414SOL    HW132141   4.555   5.953   6.080
10414SOL    HW232142   4.583   6.056   6.203
10415SOL     OW32143   2.381   4.852   4.440
10415SOL    HW132144   2.415   4.913   4.512
10415SOL    HW232145   2.320   4.784   4.479
10416SOL     OW32146   0.115   1.830   6.038
10416SOL    HW132147   0.203   1.819   6.085
10416SOL    HW232148   0.091   1.744   5.992
10417SOL     OW32149   4.469   4.547   3.595
10417SOL    HW132150   4.509   4.635   3.569
10417SOL    HW232151   4.508   4.475   3.538
10418SOL     OW32152   6.666   4.300   5.175
10418SOL    HW132153   6.668   4.400   5.165
10418SOL    HW232154   6.759   4.266   5.185
10419SOL     OW32155   2.928   0.680   4.990
10419SOL    HW132156   2.850   0.726   4.947
10419SOL    HW232157   3.012   0.728   4.968
10420SOL     OW32158   6.745   3.789   2.629
10420SOL    HW132159   6.672   3.803   2.695
10420SOL    HW232160   6.742   3.695   2.595
10421SOL     OW32161   1.270   3.909   3.993
10421SOL    HW132162   1.223   3.844   4.052
10421SOL    HW232163   1.355   3.937   4.037
10422SOL     OW32164   6.612   3.641   5.475
10422SOL    HW132165   6.648   3.560   5.521
10422SOL    HW232166   6.523   3.620   5.434
10423SOL     OW32167   3.896   4.854   4.709
10423SOL    HW132168   3.854   4.897   4.789
10423SOL    HW232169   3.871   4.758   4.706
10424SOL     OW32170   4.902   1.982   0.231
10424SOL    HW132171   4.956   1.968   0.314
10424SOL    HW232172   4.840   2.060   0.245
10425SOL     OW32173   0.993   6.409   1.699
10425SOL    HW132174   1.058   6.483   1.678
10425SOL    HW232175   0.901   6.446   1.705
10426SOL     OW32176   4.621   3.472   5.632
10426SOL    HW132177   4.719   3.469   5.616
10426SOL    HW232178   4.573   3.484   5.545
10427SOL     OW32179   5.246   5.369   5.743
10427SOL    HW132180   5.252   5.469   5.750
10427SOL    HW232181   5.152   5.344   5.721
10428SOL     OW32182   1.204   1.913   3.694
10428SOL    HW132183   1.120   1.866   3.720
10428SOL    HW232184   1.195   2.010   3.717
10429SOL     OW32185   1.447   4.041   3.035
10429SOL    HW132186   1.451   4.116   2.969
10429SOL    HW232187   1.531   4.040   3.089
10430SOL     OW32188   3.602   5.726   4.487
10430SOL    HW132189   3.530   5.752   4.423
10430SOL    HW232190   3.691   5.754   4.450
10431SOL     OW32191   2.706   1.045   4.292
10431SOL    HW132192   2.671   0.959   4.331
10431SOL    HW232193   2.665   1.060   4.203
10432SOL     OW32194   0.885   0.840   5.204
10432SOL    HW132195   0.895   0.746   5.235
10432SOL    HW232196   0.962   0.895   5.238
10433SOL     OW32197   0.753   6.308   1.476
10433SOL    HW132198   0.745   6.221   1.525
10433SOL    HW232199   0.847   6.319   1.443
10434SOL     OW32200   4.974   6.228   4.742
10434SOL    HW132201   4.989   6.300   4.811
10434SOL    HW232202   4.932   6.149   4.785
10435SOL     OW32203   1.243   2.274   6.348
10435SOL    HW132204   1.342   2.287   6.345
10435SOL    HW232205   1.204   2.331   6.421
10436SOL     OW32206   6.276   3.360   4.451
10436SOL    HW132207   6.208   3.316   4.392
10436SOL    HW232208   6.316   3.293   4.513
10437SOL     OW32209   5.117   5.132   5.516
10437SOL    HW132210   5.086   5.209   5.572
10437SOL    HW232211   5.216   5.138   5.502
10438SOL     OW32212   6.819   6.245   5.324
10438SOL    HW132213   6.765   6.277   5.247
10438SOL    HW232214   6.856   6.154   5.304
10439SOL     OW32215   6.358   0.309   4.708
10439SOL    HW132216   6.428   0.362   4.659
10439SOL    HW232217   6.346   0.348   4.800
10440SOL     OW32218   0.184   0.754   6.956
10440SOL    HW132219   0.155   0.849   6.941
10440SOL    HW232220   0.281   0.745   6.936
10441SOL     OW32221   3.230   1.811   0.917
10441SOL    HW132222   3.262   1.900   0.884
10441SOL    HW232223   3.202   1.755   0.839
10442SOL     OW32224   3.598   0.840   5.257
10442SOL    HW132225   3.685   0.868   5.218
10442SOL    HW232226   3.600   0.855   5.356
10443SOL     OW32227   6.937   2.058   2.753
10443SOL    HW132228   6.856   2.031   2.806
10443SOL    HW232229   6.974   1.979   2.705
10444SOL     OW32230   3.359   4.936   3.513
10444SOL    HW132231   3.401   4.900   3.596
10444SOL    HW232232   3.348   5.035   3.521
10445SOL     OW32233   0.445   3.567   2.299
10445SOL    HW132234   0.386   3.630   2.249
10445SOL    HW232235   0.507   3.521   2.236
10446SOL     OW32236   1.955   4.342   6.033
10446SOL    HW132237   2.041   4.319   6.078
10446SOL    HW232238   1.952   4.440   6.014
10447SOL     OW32239   6.257   1.087   1.960
10447SOL    HW132240   6.243   0.990   1.945
10447SOL    HW232241   6.189   1.140   1.910
10448SOL     OW32242   2.896   0.781   3.530
10448SOL    HW132243   2.871   0.732   3.447
10448SOL    HW232244   2.816   0.829   3.566
10449SOL     OW32245   3.558   5.409   6.772
10449SOL    HW132246   3.641   5.393   6.719
10449SOL    HW232247   3.540   5.507   6.776
10450SOL     OW32248   6.414   0.762   6.377
10450SOL    HW132249   6.386   0.832   6.311
10450SOL    HW232250   6.514   0.761   6.384
10451SOL     OW32251   2.703   0.857   3.718
10451SOL    HW132252   2.755   0.888   3.798
10451SOL    HW232253   2.679   0.761   3.728
10452SOL     OW32254   0.045   2.535   2.933
10452SOL    HW132255   7.010   2.581   2.865
10452SOL    HW232256   0.076   2.601   3.001
10453SOL     OW32257   4.731   6.009   3.229
10453SOL    HW132258   4.774   6.024   3.140
10453SOL    HW232259   4.785   6.055   3.300
10454SOL     OW32260   6.352   0.831   0.071
10454SOL    HW132261   6.406   0.791   7.018
10454SOL    HW232262   6.353   0.930   0.063
10455SOL     OW32263   6.172   5.911   4.235
10455SOL    HW132264   6.268   5.902   4.208
10455SOL    HW232265   6.162   5.986   4.299
10456SOL     OW32266   6.982   5.710   0.081
10456SOL    HW132267   6.958   5.807   0.072
10456SOL    HW232268   6.953   5.677   0.171
10457SOL     OW32269   4.568   3.491   6.712
10457SOL    HW132270   4.598   3.409   6.761
10457SOL    HW232271   4.539   3.561   6.778
10458SOL     OW32272   6.901   0.884   6.087
10458SOL    HW132273   6.996   0.900   6.059
10458SOL    HW232274   6.846   0.860   6.006
10459SOL     OW32275   6.423   4.941   0.668
10459SOL    HW132276   6.348   4.975   0.611
10459SOL    HW232277   6.386   4.901   0.751
10460SOL     OW32278   6.683   4.005   1.838
10460SOL    HW132279   6.705   3.921   1.887
10460SOL    HW232280   6.767   4.048   1.805
10461SOL     OW32281   6.539   4.316   5.394
10461SOL    HW132282   6.597   4.299   5.313
10461SOL    HW232283   6.596   4.347   5.470
10462SOL     OW32284   4.813   1.497   2.140
10462SOL    HW132285   4.764   1.479   2.056
10462SOL    HW232286   4.852   1.589   2.137
10463SOL     OW32287   4.819   1.726   6.081
10463SOL    HW132288   4.749   1.790   6.051
10463SOL    HW232289   4.806   1.705   6.178
10464SOL     OW32290   5.616   6.139   2.148
10464SOL    HW132291   5.600   6.090   2.063
10464SOL    HW232292   5.675   6.085   2.208
10465SOL     OW32293   5.234   4.670   2.823
10465SOL    HW132294   5.252   4.758   2.868
10465SOL    HW232295   5.314   4.611   2.833
10466SOL     OW32296   4.973   4.464   6.689
10466SOL    HW132297   4.951   4.474   6.786
10466SOL    HW232298   5.072   4.465   6.677
10467SOL     OW32299   1.426   2.614   6.874
10467SOL    HW132300   1.443   2.613   6.775
10467SOL    HW232301   1.478   2.541   6.917
10468SOL     OW32302   3.734   5.240   3.379
10468SOL    HW132303   3.743   5.175   3.456
10468SOL    HW232304   3.825   5.261   3.343
10469SOL     OW32305   4.567   4.172   6.087
10469SOL    HW132306   4.656   4.138   6.118
10469SOL    HW232307   4.547   4.136   5.996
10470SOL     OW32308   2.438   1.952   3.448
10470SOL    HW132309   2.360   1.891   3.454
10470SOL    HW232310   2.513   1.906   3.399
10471SOL     OW32311   3.120   0.532   6.952
10471SOL    HW132312   3.182   0.501   0.002
10471SOL    HW232313   3.045   0.466   6.941
10472SOL     OW32314   2.763   5.331   1.111
10472SOL    HW132315   2.844   5.371   1.068
10472SOL    HW232316   2.782   5.315   1.208
10473SOL     OW32317   5.784   6.375   5.707
10473SOL    HW132318   5.777   6.289   5.758
10473SOL    HW232319   5.880   6.395   5.687
10474SOL     OW32320   4.753   1.035   4.029
10474SOL    HW132321   4.676   1.040   3.965
10474SOL    HW232322   4.786   0.941   4.034
10475SOL     OW32323   2.327   6.436   1.816
10475SOL    HW132324   2.268   6.488   1.755
10475SOL    HW232325   2.423   6.452   1.793
10476SOL     OW32326   4.846   6.370   6.059
10476SOL    HW132327   4.777   6.331   5.998
10476SOL    HW232328   4.919   6.412   6.005
10477SOL     OW32329   0.138   0.242   4.556
10477SOL    HW132330   0.044   0.210   4.562
10477SOL    HW232331   0.200   0.165   4.570
10478SOL     OW32332   6.741   6.892   0.411
10478SOL    HW132333   6.707   6.985   0.413
10478SOL    HW232334   6.726   6.852   0.321
10479SOL     OW32335   6.653   1.604   1.990
10479SOL    HW132336   6.680   1.624   1.895
10479SOL    HW232337   6.731   1.619   2.050
10480SOL     OW32338   1.154   0.309   2.008
10480SOL    HW132339   1.062   0.284   1.976
10480SOL    HW232340   1.179   0.252   2.086
10481SOL     OW32341   1.489   6.214   2.636
10481SOL    HW132342   1.474   6.235   2.539
10481SOL    HW232343   1.433   6.135   2.662
10482SOL     OW32344   6.275   4.840   4.786
10482SOL    HW132345   6.241   4.922   4.739
10482SOL    HW232346   6.374   4.845   4.793
10483SOL     OW32347   5.488   5.986   0.510
10483SOL    HW132348   5.461   5.989   0.413
10483SOL    HW232349   5.409   6.009   0.567
10484SOL     OW32350   4.614   1.566   1.505
10484SOL    HW132351   4.535   1.508   1.523
10484SOL    HW232352   4.663   1.533   1.424
10485SOL     OW32353   3.270   4.330   6.772
10485SOL    HW132354   3.273   4.379   6.685
10485SOL    HW232355   3.322   4.245   6.763
10486SOL     OW32356   6.676   1.312   0.749
10486SOL    HW132357   6.746   1.324   0.820
10486SOL    HW232358   6.619   1.232   0.772
10487SOL     OW32359   5.234   6.634   2.446
10487SOL    HW132360   5.281   6.640   2.358
10487SOL    HW232361   5.300   6.614   2.518
10488SOL     OW32362   2.708   2.499   6.155
10488SOL    HW132363   2.645   2.522   6.080
10488SOL    HW232364   2.778   2.570   6.163
10489SOL     OW32365   0.347   6.811   5.567
10489SOL    HW132366   0.247   6.819   5.565
10489SOL    HW232367   0.382   6.846   5.654
10490SOL     OW32368   6.236   1.408   1.912
10490SOL    HW132369   6.245   1.376   2.007
10490SOL    HW232370   6.184   1.341   1.859
10491SOL     OW32371   1.655   3.536   0.271
10491SOL    HW132372   1.573   3.542   0.328
10491SOL    HW232373   1.679   3.627   0.237
10492SOL     OW32374   5.810   3.647   5.863
10492SOL    HW132375   5.834   3.551   5.848
10492SOL    HW232376   5.813   3.696   5.776
10493SOL     OW32377   3.316   1.020   1.747
10493SOL    HW132378   3.370   1.104   1.756
10493SOL    HW232379   3.218   1.044   1.746
10494SOL     OW32380   4.684   3.157   5.672
10494SOL    HW132381   4.713   3.168   5.767
10494SOL    HW232382   4.686   3.246   5.626
10495SOL     OW32383   2.085   6.858   0.295
10495SOL    HW132384   2.101   6.854   0.394
10495SOL    HW232385   2.166   6.893   0.249
10496SOL     OW32386   0.673   5.876   0.707
10496SOL    HW132387   0.762   5.921   0.708
10496SOL    HW232388   0.603   5.942   0.679
10497SOL     OW32389   2.004   6.505   1.886
10497SOL    HW132390   2.045   6.590   1.919
10497SOL    HW232391   1.937   6.525   1.815
10498SOL     OW32392   3.020   6.525   1.474
10498SOL    HW132393   3.070   6.541   1.389
10498SOL    HW232394   2.923   6.544   1.460
10499SOL     OW32395   3.244   6.335   2.268
10499SOL    HW132396   3.241   6.305   2.173
10499SOL    HW232397   3.158   6.310   2.314
10500SOL     OW32398   0.265   0.852   6.147
10500SOL    HW132399   0.315   0.765   6.153
10500SOL    HW232400   0.317   0.917   6.093
10501SOL     OW32401   1.949   5.192   3.162
10501SOL    HW132402   1.975   5.140   3.244
10501SOL    HW232403   1.951   5.289   3.183
10502SOL     OW32404   2.963   0.610   1.079
10502SOL    HW132405   3.055   0.649   1.073
10502SOL    HW232406   2.900   0.679   1.115
10503SOL     OW32407   4.151   2.965   0.357
10503SOL    HW132408   4.200   2.997   0.276
10503SOL    HW232409   4.056   2.944   0.332
10504SOL     OW32410   2.301   2.074   0.214
10504SOL    HW132411   2.234   2.056   0.285
10504SOL    HW232412   2.265   2.042   0.126
10505SOL     OW32413   6.180   5.320   0.911
10505SOL    HW132414   6.184   5.411   0.953
10505SOL    HW232415   6.273   5.289   0.892
10506SOL     OW32416   0.188   4.945   5.995
10506SOL    HW132417   0.199   5.006   5.916
10506SOL    HW232418   0.260   4.964   6.062
10507SOL     OW32419   2.665   6.747   6.936
10507SOL    HW132420   2.619   6.685   6.873
10507SOL    HW232421   2.622   6.742   0.005
10508SOL     OW32422   5.907   5.918   5.038
10508SOL    HW132423   5.840   5.871   4.979
10508SOL    HW232424   5.867   6.002   5.074
10509SOL     OW32425   1.018   6.327   5.600
10509SOL    HW132426   1.038   6.421   5.626
10509SOL    HW232427   0.928   6.322   5.557
10510SOL     OW32428   4.996   5.627   6.025
10510SOL    HW132429   5.017   5.639   6.122
10510SOL    HW232430   5.034   5.703   5.973
10511SOL     OW32431   4.944   2.568   1.237
10511SOL    HW132432   4.942   2.547   1.139
10511SOL    HW232433   5.031   2.538   1.275
10512SOL     OW32434   3.715   0.492   5.849
10512SOL    HW132435   3.796   0.435   5.833
10512SOL    HW232436   3.744   0.580   5.886
10513SOL     OW32437   0.158   2.480   4.952
10513SOL    HW132438   0.258   2.482   4.960
10513SOL    HW232439   0.118   2.463   5.042
10514SOL     OW32440   6.975   3.822   0.152
10514SOL    HW132441   6.883   3.838   0.115
10514SOL    HW232442   0.021   3.851   0.084
10515SOL     OW32443   6.518   2.467   2.981
10515SOL    HW132444   6.506   2.491   2.885
10515SOL    HW232445   6.606   2.419   2.992
10516SOL     OW32446   4.434   1.060   6.423
10516SOL    HW132447   4.519   1.011   6.442
10516SOL    HW232448   4.404   1.108   6.505
10517SOL     OW32449   0.098   2.083   2.994
10517SOL    HW132450   0.065   2.135   2.915
10517SOL    HW232451   0.043   2.106   3.074
10518SOL     OW32452   0.927   4.492   6.498
10518SOL    HW132453   0.958   4.424   6.565
10518SOL    HW232454   0.925   4.582   6.541
10519SOL     OW32455   2.258   2.538   6.339
10519SOL    HW132456   2.272   2.556   6.242
10519SOL    HW232457   2.169   2.494   6.352
10520SOL     OW32458   2.026   2.414   6.425
10520SOL    HW132459   1.960   2.370   6.364
10520SOL    HW232460   2.036   2.359   6.508
10521SOL     OW32461   6.242   5.375   1.730
10521SOL    HW132462   6.196   5.331   1.653
10521SOL    HW232463   6.235   5.474   1.722
10522SOL     OW32464   5.973   0.738   0.206
10522SOL    HW132465   5.967   0.827   0.161
10522SOL    HW232466   6.054   0.737   0.265
10523SOL     OW32467   0.624   5.869   4.934
10523SOL    HW132468   0.563   5.835   5.005
10523SOL    HW232469   0.716   5.832   4.948
10524SOL     OW32470   2.364   1.177   4.843
10524SOL    HW132471   2.361   1.232   4.927
10524SOL    HW232472   2.372   1.239   4.764
10525SOL     OW32473   3.136   0.085   5.784
10525SOL    HW132474   3.187   7.021   5.794
10525SOL    HW232475   3.149   0.120   5.691
10526SOL     OW32476   0.785   6.927   2.672
10526SOL    HW132477   0.782   6.995   2.745
10526SOL    HW232478   0.856   6.859   2.692
10527SOL     OW32479   6.770   2.649   4.615
10527SOL    HW132480   6.809   2.741   4.621
10527SOL    HW232481   6.706   2.635   4.691
10528SOL     OW32482   0.583   3.466   6.067
10528SOL    HW132483   0.519   3.390   6.057
10528SOL    HW232484   0.587   3.518   5.981
10529SOL     OW32485   2.395   6.205   3.935
10529SOL    HW132486   2.412   6.257   4.019
10529SOL    HW232487   2.467   6.136   3.924
10530SOL     OW32488   1.977   1.253   6.251
10530SOL    HW132489   1.912   1.252   6.175
10530SOL    HW232490   2.056   1.310   6.227
10531SOL     OW32491   1.291   2.683   4.471
10531SOL    HW132492   1.264   2.674   4.567
10531SOL    HW232493   1.378   2.636   4.456
10532SOL     OW32494   2.108   4.060   0.394
10532SOL    HW132495   2.200   4.082   0.360
10532SOL    HW232496   2.116   3.996   0.471
10533SOL     OW32497   3.245   1.723   4.509
10533SOL    HW132498   3.205   1.790   4.571
10533SOL    HW232499   3.293   1.771   4.435
10534SOL     OW32500   6.106   5.644   1.710
10534SOL    HW132501   6.186   5.701   1.692
10534SOL    HW232502   6.051   5.636   1.627
10535SOL     OW32503   0.189   2.184   0.998
10535SOL    HW132504   0.233   2.212   0.912
10535SOL    HW232505   0.095   2.157   0.979
10536SOL     OW32506   3.607   0.812   3.049
10536SOL    HW132507   3.706   0.817   3.061
10536SOL    HW232508   3.570   0.737   3.105
10537SOL     OW32509   3.614   5.426   3.839
10537SOL    HW132510   3.605   5.334   3.877
10537SOL    HW232511   3.688   5.475   3.884
10538SOL     OW32512   4.552   3.015   0.074
10538SOL    HW132513   4.483   3.060   0.132
10538SOL    HW232514   4.643   3.035   0.110
10539SOL     OW32515   0.482   4.262   6.853
10539SOL    HW132516   0.538   4.188   6.815
10539SOL    HW232517   0.473   4.334   6.785
10540SOL     OW32518   1.478   2.184   5.288
10540SOL    HW132519   1.456   2.112   5.222
10540SOL    HW232520   1.397   2.203   5.343
10541SOL     OW32521   3.504   3.458   1.949
10541SOL    HW132522   3.511   3.362   1.922
10541SOL    HW232523   3.426   3.500   1.901
10542SOL     OW32524   6.648   1.658   6.823
10542SOL    HW132525   6.573   1.677   6.887
10542SOL    HW232526   6.611   1.616   6.740
10543SOL     OW32527   0.040   1.414   5.349
10543SOL    HW132528   0.049   1.510   5.326
10543SOL    HW232529   0.078   1.358   5.276
10544SOL     OW32530   1.487   6.863   2.769
10544SOL    HW132531   1.448   6.773   2.752
10544SOL    HW232532   1.420   6.933   2.747
10545SOL     OW32533   5.561   1.385   2.804
10545SOL    HW132534   5.543   1.287   2.807
10545SOL    HW232535   5.489   1.434   2.854
10546SOL     OW32536   0.655   1.048   6.155
10546SOL    HW132537   0.626   1.016   6.065
10546SOL    HW232538   0.583   1.106   6.194
10547SOL     OW32539   4.770   1.788   1.841
10547SOL    HW132540   4.807   1.813   1.752
10547SOL    HW232541   4.678   1.750   1.830
10548SOL     OW32542   5.065   3.917   4.785
10548SOL    HW132543   5.133   3.938   4.714
10548SOL    HW232544   5.112   3.888   4.869
10549SOL     OW32545   6.515   0.455   2.431
10549SOL    HW132546   6.540   0.361   2.456
10549SOL    HW232547   6.598   0.511   2.427
10550SOL     OW32548   4.746   6.437   4.615
10550SOL    HW132549   4.699   6.351   4.633
10550SOL    HW232550   4.760   6.486   4.701
10551SOL     OW32551   1.605   2.726   5.657
10551SOL    HW132552   1.693   2.760   5.692
10551SOL    HW232553   1.566   2.793   5.595
10552SOL     OW32554   3.841   2.334   5.949
10552SOL    HW132555   3.773   2.265   5.924
10552SOL    HW232556   3.890   2.364   5.867
10553SOL     OW32557   1.156   5.070   1.788
10553SOL    HW132558   1.120   5.046   1.698
10553SOL    HW232559   1.210   5.154   1.781
10554SOL     OW32560   5.143   5.334   6.624
10554SOL    HW132561   5.238   5.364   6.618
10554SOL    HW232562   5.130   5.252   6.569
10555SOL     OW32563   2.568   3.252   1.020
10555SOL    HW132564   2.584   3.311   1.098
10555SOL    HW232565   2.641   3.264   0.953
10556SOL     OW32566   2.217   2.668   5.187
10556SOL    HW132567   2.153   2.651   5.113
10556SOL    HW232568   2.298   2.714   5.152
10557SOL     OW32569   1.685   2.461   3.444
10557SOL    HW132570   1.770   2.479   3.494
10557SOL    HW232571   1.704   2.458   3.346
10558SOL     OW32572   4.048   0.327   4.048
10558SOL    HW132573   4.007   0.243   4.081
10558SOL    HW232574   4.023   0.403   4.109
10559SOL     OW32575   4.330   0.788   1.147
10559SOL    HW132576   4.293   0.773   1.055
10559SOL    HW232577   4.407   0.852   1.142
10560SOL     OW32578   2.505   7.011   3.886
10560SOL    HW132579   2.556   6.979   3.806
10560SOL    HW232580   2.484   0.087   3.875
10561SOL     OW32581   2.651   4.956   0.625
10561SOL    HW132582   2.660   4.877   0.565
10561SOL    HW232583   2.554   4.981   0.633
10562SOL     OW32584   5.324   6.233   0.632
10562SOL    HW132585   5.404   6.287   0.659
10562SOL    HW232586   5.241   6.288   0.643
10563SOL     OW32587   1.294   0.591   4.185
10563SOL    HW132588   1.335   0.503   4.161
10563SOL    HW232589   1.244   0.581   4.271
10564SOL     OW32590   5.987   6.486   2.380
10564SOL    HW132591   5.956   6.392   2.390
10564SOL    HW232592   5.918   6.540   2.331
10565SOL     OW32593   0.304   0.522   5.186
10565SOL    HW132594   0.348   0.609   5.205
10565SOL    HW232595   0.227   0.536   5.123
10566SOL     OW32596   3.956   2.924   0.058
10566SOL    HW132597   3.856   2.911   0.054
10566SOL    HW232598   3.977   3.021   0.051
10567SOL     OW32599   2.379   2.181   4.125
10567SOL    HW132600   2.443   2.199   4.051
10567SOL    HW232601   2.426   2.189   4.213
10568SOL     OW32602   5.659   1.367   1.509
10568SOL    HW132603   5.654   1.324   1.599
10568SOL    HW232604   5.586   1.435   1.500
10569SOL     OW32605   6.407   2.337   1.503
10569SOL    HW132606   6.451   2.269   1.443
10569SOL    HW232607   6.478   2.389   1.550
10570SOL     OW32608   1.686   4.905   3.108
10570SOL    HW132609   1.700   4.975   3.037
10570SOL    HW232610   1.650   4.822   3.065
10571SOL     OW32611   0.190   4.606   4.611
10571SOL    HW132612   0.255   4.655   4.669
10571SOL    HW232613   0.097   4.624   4.643
10572SOL     OW32614   6.902   3.768   3.332
10572SOL    HW132615   6.828   3.702   3.315
10572SOL    HW232616   6.964   3.769   3.254
10573SOL     OW32617   4.808   6.058   4.291
10573SOL    HW132618   4.837   6.048   4.196
10573SOL    HW232619   4.860   5.996   4.349
10574SOL     OW32620   1.754   1.741   4.465
10574SOL    HW132621   1.693   1.726   4.387
10574SOL    HW232622   1.779   1.653   4.506
10575SOL     OW32623   0.148   1.027   3.166
10575SOL    HW132624   0.170   1.117   3.204
10575SOL    HW232625   0.091   1.039   3.085
10576SOL     OW32626   0.036   6.535   5.419
10576SOL    HW132627   0.020   6.439   5.443
10576SOL    HW232628   0.044   6.543   5.320
10577SOL     OW32629   1.478   2.430   6.597
10577SOL    HW132630   1.380   2.423   6.615
10577SOL    HW232631   1.526   2.356   6.643
10578SOL     OW32632   6.457   0.158   3.602
10578SOL    HW132633   6.380   0.094   3.593
10578SOL    HW232634   6.474   0.174   3.699
10579SOL     OW32635   3.422   1.742   0.552
10579SOL    HW132636   3.330   1.720   0.583
10579SOL    HW232637   3.485   1.741   0.630
10580SOL     OW32638   0.162   0.654   0.173
10580SOL    HW132639   0.158   0.670   0.074
10580SOL    HW232640   0.074   0.618   0.204
10581SOL     OW32641   6.024   6.907   2.930
10581SOL    HW132642   6.039   6.816   2.969
10581SOL    HW232643   6.061   6.977   2.992
10582SOL     OW32644   4.371   4.930   0.133
10582SOL    HW132645   4.377   4.836   0.167
10582SOL    HW232646   4.285   4.971   0.162
10583SOL     OW32647   3.906   0.923   5.479
10583SOL    HW132648   3.863   0.986   5.414
10583SOL    HW232649   3.995   0.960   5.507
10584SOL     OW32650   6.468   6.481   1.395
10584SOL    HW132651   6.414   6.520   1.320
10584SOL    HW232652   6.421   6.401   1.431
10585SOL     OW32653   1.502   3.494   5.537
10585SOL    HW132654   1.580   3.452   5.492
10585SOL    HW232655   1.468   3.434   5.609
10586SOL     OW32656   1.030   5.758   5.293
10586SOL    HW132657   1.128   5.752   5.313
10586SOL    HW232658   0.992   5.839   5.338
10587SOL     OW32659   6.056   4.595   6.960
10587SOL    HW132660   5.975   4.633   7.005
10587SOL    HW232661   6.112   4.670   6.926
10588SOL     OW32662   0.953   4.025   2.332
10588SOL    HW132663   0.913   4.033   2.423
10588SOL    HW232664   0.897   4.074   2.266
10589SOL     OW32665   5.748   1.519   4.486
10589SOL    HW132666   5.780   1.443   4.542
10589SOL    HW232667   5.697   1.584   4.542
10590SOL     OW32668   0.732   0.349   1.710
10590SOL    HW132669   0.698   0.292   1.635
10590SOL    HW232670   0.655   0.381   1.765
10591SOL     OW32671   1.144   1.323   6.456
10591SOL    HW132672   1.170   1.227   6.468
10591SOL    HW232673   1.212   1.370   6.400
10592SOL     OW32674   6.011   2.361   0.309
10592SOL    HW132675   5.934   2.424   0.320
10592SOL    HW232676   6.070   2.367   0.389
10593SOL     OW32677   2.796   5.196   0.645
10593SOL    HW132678   2.733   5.245   0.706
10593SOL    HW232679   2.757   5.107   0.621
10594SOL     OW32680   5.735   0.774   2.867
10594SOL    HW132681   5.807   0.730   2.919
10594SOL    HW232682   5.753   0.872   2.861
10595SOL     OW32683   3.085   0.538   6.175
10595SOL    HW132684   3.118   0.578   6.089
10595SOL    HW232685   3.099   0.439   6.173
10596SOL     OW32686   4.671   0.400   1.177
10596SOL    HW132687   4.622   0.332   1.122
10596SOL    HW232688   4.763   0.413   1.139
10597SOL     OW32689   3.168   0.892   5.153
10597SOL    HW132690   3.124   0.819   5.206
10597SOL    HW232691   3.158   0.872   5.055
10598SOL     OW32692   2.713   2.710   6.715
10598SOL    HW132693   2.694   2.685   6.620
10598SOL    HW232694   2.759   2.634   6.761
10599SOL     OW32695   5.142   2.172   6.872
10599SOL    HW132696   5.215   2.146   6.809
10599SOL    HW232697   5.072   2.224   6.822
10600SOL     OW32698   1.912   3.467   0.376
10600SOL    HW132699   1.974   3.485   0.300
10600SOL    HW232700   1.821   3.444   0.340
10601SOL     OW32701   1.944   4.843   6.446
10601SOL    HW132702   1.927   4.843   6.348
10601SOL    HW232703   2.031   4.887   6.465
10602SOL     OW32704   5.204   1.522   3.409
10602SOL    HW132705   5.159   1.604   3.443
10602SOL    HW232706   5.299   1.520   3.441
10603SOL     OW32707   2.122   5.804   3.825
10603SOL    HW132708   2.022   5.802   3.827
10603SOL    HW232709   2.154   5.764   3.739
10604SOL     OW32710   6.212   4.119   5.167
10604SOL    HW132711   6.156   4.036   5.178
10604SOL    HW232712   6.203   4.152   5.074
10605SOL     OW32713   1.884   4.748   0.822
10605SOL    HW132714   1.957   4.738   0.755
10605SOL    HW232715   1.849   4.841   0.820
10606SOL     OW32716   6.125   6.713   2.501
10606SOL    HW132717   6.080   6.637   2.453
10606SOL    HW232718   6.224   6.703   2.494
10607SOL     OW32719   4.258   3.887   5.576
10607SOL    HW132720   4.165   3.877   5.613
10607SOL    HW232721   4.254   3.933   5.488
10608SOL     OW32722   5.590   2.043   5.379
10608SOL    HW132723   5.679   2.003   5.403
10608SOL    HW232724   5.519   2.004   5.437
10609SOL     OW32725   3.517   6.645   1.682
10609SOL    HW132726   3.572   6.592   1.747
10609SOL    HW232727   3.436   6.593   1.657
10610SOL     OW32728   0.047   3.592   6.353
10610SOL    HW132729   0.064   3.498   6.382
10610SOL    HW232730   0.100   3.612   6.271
10611SOL     OW32731   4.321   3.288   6.131
10611SOL    HW132732   4.363   3.204   6.164
10611SOL    HW232733   4.317   3.286   6.031
10612SOL     OW32734   2.610   6.839   6.011
10612SOL    HW132735   2.693   6.886   5.983
10612SOL    HW232736   2.629   6.742   6.028
10613SOL     OW32737   0.362   6.989   5.130
10613SOL    HW132738   0.280   6.942   5.164
10613SOL    HW232739   0.353   0.066   5.144
10614SOL     OW32740   6.580   2.169   4.135
10614SOL    HW132741   6.500   2.198   4.082
10614SOL    HW232742   6.619   2.247   4.183
10615SOL     OW32743   3.670   5.665   5.805
10615SOL    HW132744   3.747   5.633   5.861
10615SOL    HW232745   3.613   5.587   5.779
10616SOL     OW32746   3.167   6.259   0.805
10616SOL    HW132747   3.067   6.261   0.798
10616SOL    HW232748   3.205   6.218   0.722
10617SOL     OW32749   2.539   3.050   0.552
10617SOL    HW132750   2.484   3.126   0.587
10617SOL    HW232751   2.480   2.971   0.536
10618SOL     OW32752   5.677   3.718   6.908
10618SOL    HW132753   5.710   3.665   6.986
10618SOL    HW232754   5.664   3.813   6.936
10619SOL     OW32755   0.274   3.668   1.602
10619SOL    HW132756   0.302   3.599   1.535
10619SOL    HW232757   0.355   3.714   1.639
10620SOL     OW32758   1.386   5.653   5.780
10620SOL    HW132759   1.415   5.743   5.812
10620SOL    HW232760   1.294   5.634   5.814
10621SOL     OW32761   1.309   5.891   1.083
10621SOL    HW132762   1.372   5.834   1.135
10621SOL    HW232763   1.361   5.959   1.031
10622SOL     OW32764   5.145   1.342   1.419
10622SOL    HW132765   5.176   1.425   1.371
10622SOL    HW232766   5.045   1.341   1.421
10623SOL     OW32767   6.497   4.112   3.947
10623SOL    HW132768   6.434   4.036   3.965
10623SOL    HW232769   6.545   4.136   4.031
10624SOL     OW32770   0.861   1.370   4.732
10624SOL    HW132771   0.911   1.432   4.792
10624SOL    HW232772   0.787   1.420   4.686
10625SOL     OW32773   0.566   4.661   0.135
10625SOL    HW132774   0.624   4.581   0.120
10625SOL    HW232775   0.587   4.731   0.067
10626SOL     OW32776   0.920   2.592   1.353
10626SOL    HW132777   0.911   2.496   1.326
10626SOL    HW232778   0.952   2.598   1.447
10627SOL     OW32779   5.214   5.799   2.160
10627SOL    HW132780   5.290   5.851   2.198
10627SOL    HW232781   5.231   5.701   2.172
10628SOL     OW32782   5.587   5.418   6.057
10628SOL    HW132783   5.542   5.401   6.145
10628SOL    HW232784   5.649   5.496   6.066
10629SOL     OW32785   2.493   4.548   4.975
10629SOL    HW132786   2.593   4.541   4.983
10629SOL    HW232787   2.466   4.520   4.883
10630SOL     OW32788   6.319   0.825   3.811
10630SOL    HW132789   6.332   0.822   3.911
10630SOL    HW232790   6.364   0.906   3.774
10631SOL     OW32791   1.908   5.036   4.844
10631SOL    HW132792   1.978   5.001   4.782
10631SOL    HW232793   1.838   4.965   4.858
10632SOL     OW32794   5.421   1.799   4.188
10632SOL    HW132795   5.437   1.830   4.094
10632SOL    HW232796   5.428   1.877   4.250
10633SOL     OW32797   2.589   4.085   1.393
10633SOL    HW132798   2.596   4.075   1.493
10633SOL    HW232799   2.620   4.001   1.349
10634SOL     OW32800   3.253   5.205   0.936
10634SOL    HW132801   3.303   5.207   1.023
10634SOL    HW232802   3.318   5.201   0.860
10635SOL     OW32803   3.610   1.384   1.320
10635SOL    HW132804   3.702   1.349   1.338
10635SOL    HW232805   3.562   1.398   1.407
10636SOL     OW32806   1.386   1.984   1.906
10636SOL    HW132807   1.376   2.043   1.826
10636SOL    HW232808   1.481   1.953   1.913
10637SOL     OW32809   3.405   4.584   5.488
10637SOL    HW132810   3.359   4.614   5.404
10637SOL    HW232811   3.402   4.658   5.555
10638SOL     OW32812   6.958   5.588   2.519
10638SOL    HW132813   0.025   5.613   2.482
10638SOL    HW232814   6.922   5.508   2.471
10639SOL     OW32815   0.316   2.178   3.132
10639SOL    HW132816   0.237   2.133   3.090
10639SOL    HW232817   0.399   2.153   3.082
10640SOL     OW32818   4.279   0.234   6.413
10640SOL    HW132819   4.182   0.255   6.425
10640SOL    HW232820   4.316   0.290   6.339
10641SOL     OW32821   3.199   1.953   0.425
10641SOL    HW132822   3.269   1.912   0.366
10641SOL    HW232823   3.110   1.912   0.404
10642SOL     OW32824   0.304   2.568   1.809
10642SOL    HW132825   0.272   2.520   1.728
10642SOL    HW232826   0.228   2.579   1.874
10643SOL     OW32827   2.009   4.926   5.595
10643SOL    HW132828   1.977   5.002   5.538
10643SOL    HW232829   2.041   4.961   5.683
10644SOL     OW32830   5.256   2.144   3.464
10644SOL    HW132831   5.350   2.124   3.495
10644SOL    HW232832   5.260   2.185   3.373
10645SOL     OW32833   0.652   1.042   4.318
10645SOL    HW132834   0.697   0.984   4.385
10645SOL    HW232835   0.631   1.131   4.359
10646SOL     OW32836   0.552   1.743   5.182
10646SOL    HW132837   0.560   1.709   5.088
10646SOL    HW232838   0.604   1.683   5.243
10647SOL     OW32839   4.934   6.214   6.634
10647SOL    HW132840   4.967   6.130   6.592
10647SOL    HW232841   4.873   6.191   6.710
10648SOL     OW32842   5.097   3.059   6.286
10648SOL    HW132843   5.191   3.041   6.257
10648SOL    HW232844   5.073   3.154   6.265
10649SOL     OW32845   0.312   4.462   3.772
10649SOL    HW132846   0.301   4.518   3.690
10649SOL    HW232847   0.377   4.507   3.834
10650SOL     OW32848   1.390   6.165   2.965
10650SOL    HW132849   1.387   6.264   2.973
10650SOL    HW232850   1.476   6.131   3.002
10651SOL     OW32851   5.045   0.299   5.953
10651SOL    HW132852   5.107   0.238   6.001
10651SOL    HW232853   4.952   0.286   5.987
10652SOL     OW32854   3.508   0.428   6.860
10652SOL    HW132855   3.481   0.338   6.893
10652SOL    HW232856   3.431   0.470   6.813
10653SOL     OW32857   4.974   4.805   3.970
10653SOL    HW132858   5.035   4.764   4.038
10653SOL    HW232859   4.945   4.895   4.001
10654SOL     OW32860   4.589   1.333   0.873
10654SOL    HW132861   4.634   1.381   0.949
10654SOL    HW232862   4.643   1.253   0.848
10655SOL     OW32863   3.403   5.425   1.481
10655SOL    HW132864   3.463   5.441   1.560
10655SOL    HW232865   3.355   5.338   1.495
10656SOL     OW32866   6.143   2.387   0.528
10656SOL    HW132867   6.150   2.458   0.598
10656SOL    HW232868   6.217   2.320   0.540
10657SOL     OW32869   6.394   6.562   0.330
10657SOL    HW132870   6.304   6.521   0.336
10657SOL    HW232871   6.385   6.662   0.325
10658SOL     OW32872   6.936   3.779   4.776
10658SOL    HW132873   6.979   3.867   4.757
10658SOL    HW232874   6.844   3.795   4.814
10659SOL     OW32875   6.902   6.320   0.836
10659SOL    HW132876   6.918   6.354   0.929
10659SOL    HW232877   6.939   6.228   0.827
10660SOL     OW32878   4.985   4.274   6.453
10660SOL    HW132879   4.917   4.201   6.451
10660SOL    HW232880   4.967   4.334   6.531
10661SOL     OW32881   0.081   6.517   2.490
10661SOL    HW132882   0.160   6.484   2.541
10661SOL    HW232883   0.014   6.555   2.553
10662SOL     OW32884   5.686   0.954   2.490
10662SOL    HW132885   5.698   0.996   2.581
10662SOL    HW232886   5.770   0.906   2.465
10663SOL     OW32887   0.614   6.758   1.195
10663SOL    HW132888   0.600   6.746   1.097
10663SOL    HW232889   0.616   6.856   1.216
10664SOL     OW32890   2.091   4.322   6.403
10664SOL    HW132891   2.104   4.266   6.321
10664SOL    HW232892   2.149   4.287   6.476
10665SOL     OW32893   1.438   0.842   0.411
10665SOL    HW132894   1.470   0.747   0.408
10665SOL    HW232895   1.509   0.903   0.376
10666SOL     OW32896   3.950   4.754   0.208
10666SOL    HW132897   3.857   4.761   0.243
10666SOL    HW232898   3.994   4.672   0.246
10667SOL     OW32899   3.784   2.412   5.601
10667SOL    HW132900   3.802   2.314   5.603
10667SOL    HW232901   3.804   2.448   5.510
10668SOL     OW32902   1.207   1.352   4.982
10668SOL    HW132903   1.117   1.392   4.962
10668SOL    HW232904   1.274   1.424   4.995
10669SOL     OW32905   6.483   7.012   0.546
10669SOL    HW132906   6.527   6.939   0.598
10669SOL    HW232907   6.551   0.059   0.520
10670SOL     OW32908   4.930   4.578   5.563
10670SOL    HW132909   4.852   4.617   5.612
10670SOL    HW232910   4.918   4.592   5.465
10671SOL     OW32911   2.162   3.215   2.954
10671SOL    HW132912   2.120   3.260   2.876
10671SOL    HW232913   2.099   3.216   3.032
10672SOL     OW32914   6.769   2.886   0.426
10672SOL    HW132915   6.748   2.800   0.471
10672SOL    HW232916   6.684   2.931   0.398
10673SOL     OW32917   2.380   1.998   5.341
10673SOL    HW132918   2.318   1.940   5.289
10673SOL    HW232919   2.327   2.062   5.396
10674SOL     OW32920   3.909   3.762   0.328
10674SOL    HW132921   3.844   3.759   0.405
10674SOL    HW232922   3.988   3.704   0.349
10675SOL     OW32923   2.160   1.063   6.510
10675SOL    HW132924   2.134   0.988   6.571
10675SOL    HW232925   2.089   1.133   6.512
10676SOL     OW32926   6.069   0.131   6.412
10676SOL    HW132927   6.009   0.071   6.465
10676SOL    HW232928   6.035   0.139   6.319
10677SOL     OW32929   0.819   0.871   2.259
10677SOL    HW132930   0.849   0.951   2.310
10677SOL    HW232931   0.760   0.900   2.183
10678SOL     OW32932   3.539   5.172   3.174
10678SOL    HW132933   3.601   5.194   3.249
10678SOL    HW232934   3.563   5.082   3.137
10679SOL     OW32935   5.373   5.293   5.953
10679SOL    HW132936   5.452   5.353   5.960
10679SOL    HW232937   5.319   5.318   5.872
10680SOL     OW32938   2.085   2.604   3.988
10680SOL    HW132939   2.086   2.684   4.048
10680SOL    HW232940   2.151   2.537   4.023
10681SOL     OW32941   7.001   3.961   6.589
10681SOL    HW132942   6.951   3.947   6.674
10681SOL    HW232943   0.067   3.913   6.592
10682SOL     OW32944   1.752   2.145   3.465
10682SOL    HW132945   1.846   2.115   3.450
10682SOL    HW232946   1.748   2.245   3.459
10683SOL     OW32947   2.816   2.356   3.631
10683SOL    HW132948   2.748   2.410   3.681
10683SOL    HW232949   2.846   2.406   3.551
10684SOL     OW32950   4.421   4.341   0.150
10684SOL    HW132951   4.415   4.385   0.060
10684SOL    HW232952   4.329   4.329   0.187
10685SOL     OW32953   0.226   4.204   2.923
10685SOL    HW132954   0.210   4.172   2.830
10685SOL    HW232955   0.188   4.138   2.988
10686SOL     OW32956   4.093   6.011   6.201
10686SOL    HW132957   4.080   6.055   6.290
10686SOL    HW232958   4.154   6.067   6.145
10687SOL     OW32959   0.230   5.494   1.997
10687SOL    HW132960   0.203   5.543   2.079
10687SOL    HW232961   0.292   5.419   2.021
10688SOL     OW32962   6.164   4.160   2.345
10688SOL    HW132963   6.195   4.243   2.298
10688SOL    HW232964   6.242   4.109   2.379
10689SOL     OW32965   0.097   6.611   3.325
10689SOL    HW132966   0.021   6.668   3.354
10689SOL    HW232967   0.167   6.668   3.281
10690SOL     OW32968   5.293   5.389   3.326
10690SOL    HW132969   5.316   5.366   3.231
10690SOL    HW232970   5.373   5.373   3.384
10691SOL     OW32971   0.180   1.719   2.109
10691SOL    HW132972   0.214   1.677   2.025
10691SOL    HW232973   0.180   1.818   2.100
10692SOL     OW32974   3.066   5.739   4.119
10692SOL    HW132975   3.129   5.663   4.099
10692SOL    HW232976   3.027   5.773   4.034
10693SOL     OW32977   1.933   0.994   1.318
10693SOL    HW132978   1.922   1.012   1.220
10693SOL    HW232979   1.868   1.050   1.370
10694SOL     OW32980   3.510   6.469   0.618
10694SOL    HW132981   3.505   6.401   0.691
10694SOL    HW232982   3.505   6.561   0.658
10695SOL     OW32983   6.255   2.043   3.744
10695SOL    HW132984   6.231   2.011   3.836
10695SOL    HW232985   6.244   2.142   3.739
10696SOL     OW32986   6.937   4.794   1.446
10696SOL    HW132987   6.945   4.812   1.348
10696SOL    HW232988   6.946   4.879   1.497
10697SOL     OW32989   0.555   6.172   3.733
10697SOL    HW132990   0.635   6.169   3.793
10697SOL    HW232991   0.538   6.266   3.705
10698SOL     OW32992   3.171   7.011   3.838
10698SOL    HW132993   3.268   6.988   3.825
10698SOL    HW232994   3.119   6.928   3.857
10699SOL     OW32995   4.534   1.954   2.531
10699SOL    HW132996   4.489   1.871   2.563
10699SOL    HW232997   4.535   2.022   2.605
10700SOL     OW32998   0.931   0.130   0.549
10700SOL    HW132999   0.900   0.225   0.554
10700SOL    HW233000   1.030   0.126   0.567
10701SOL     OW33001   4.247   6.209   6.950
10701SOL    HW133002   4.220   6.296   6.993
10701SOL    HW233003   4.170   6.171   6.899
10702SOL     OW33004   5.541   2.351   1.536
10702SOL    HW133005   5.459   2.392   1.494
10702SOL    HW233006   5.520   2.323   1.629
10703SOL     OW33007   3.685   3.421   3.875
10703SOL    HW133008   3.742   3.501   3.891
10703SOL    HW233009   3.607   3.447   3.818
10704SOL     OW33010   4.774   6.585   2.306
10704SOL    HW133011   4.837   6.650   2.265
10704SOL    HW233012   4.717   6.631   2.373
10705SOL     OW33013   1.339   3.691   0.207
10705SOL    HW133014   1.382   3.782   0.207
10705SOL    HW233015   1.378   3.636   0.280
10706SOL     OW33016   4.882   0.435   1.835
10706SOL    HW133017   4.945   0.357   1.838
10706SOL    HW233018   4.799   0.413   1.886
10707SOL     OW33019   0.079   6.807   5.445
10707SOL    HW133020   0.039   6.874   5.506
10707SOL    HW233021   0.038   6.717   5.462
10708SOL     OW33022   4.944   1.017   1.316
10708SOL    HW133023   5.040   1.012   1.341
10708SOL    HW233024   4.889   0.966   1.383
10709SOL     OW33025   5.925   0.685   5.898
10709SOL    HW133026   6.000   0.625   5.927
10709SOL    HW233027   5.838   0.639   5.914
10710SOL     OW33028   0.079   6.294   4.363
10710SOL    HW133029   7.008   6.322   4.391
10710SOL    HW233030   0.074   6.246   4.276
10711SOL     OW33031   2.226   0.356   3.762
10711SOL    HW133032   2.135   0.320   3.782
10711SOL    HW233033   2.239   0.442   3.812
10712SOL     OW33034   3.771   1.614   4.259
10712SOL    HW133035   3.868   1.634   4.272
10712SOL    HW233036   3.731   1.586   4.346
10713SOL     OW33037   1.914   5.530   2.072
10713SOL    HW133038   2.006   5.505   2.043
10713SOL    HW233039   1.878   5.601   2.012
10714SOL     OW33040   0.194   4.317   4.643
10714SOL    HW133041   0.169   4.413   4.646
10714SOL    HW233042   0.148   4.268   4.717
10715SOL     OW33043   5.633   0.897   4.236
10715SOL    HW133044   5.724   0.875   4.269
10715SOL    HW233045   5.613   0.843   4.154
10716SOL     OW33046   6.491   1.154   3.525
10716SOL    HW133047   6.443   1.076   3.485
10716SOL    HW233048   6.426   1.227   3.544
10717SOL     OW33049   0.551   1.394   1.228
10717SOL    HW133050   0.521   1.381   1.322
10717SOL    HW233051   0.480   1.361   1.165
10718SOL     OW33052   6.718   5.367   0.375
10718SOL    HW133053   6.742   5.289   0.433
10718SOL    HW233054   6.800   5.401   0.329
10719SOL     OW33055   4.788   0.039   2.507
10719SOL    HW133056   4.784   0.047   2.407
10719SOL    HW233057   4.834   6.975   2.532
10720SOL     OW33058   0.034   3.215   6.108
10720SOL    HW133059   7.008   3.299   6.134
10720SOL    HW233060   0.025   3.200   6.010
10721SOL     OW33061   5.953   2.021   4.162
10721SOL    HW133062   5.988   1.947   4.219
10721SOL    HW233063   5.867   2.056   4.201
10722SOL     OW33064   6.833   3.564   0.001
10722SOL    HW133065   6.830   3.543   6.925
10722SOL    HW233066   6.926   3.588   0.028
10723SOL     OW33067   5.349   3.996   0.009
10723SOL    HW133068   5.325   3.909   0.051
10723SOL    HW233069   5.307   4.071   0.060
10724SOL     OW33070   4.042   6.618   5.921
10724SOL    HW133071   4.034   6.687   5.849
10724SOL    HW233072   4.030   6.527   5.882
10725SOL     OW33073   0.420   5.389   4.271
10725SOL    HW133074   0.413   5.429   4.179
10725SOL    HW233075   0.355   5.313   4.278
10726SOL     OW33076   5.332   0.519   5.238
10726SOL    HW133077   5.359   0.609   5.204
10726SOL    HW233078   5.357   0.511   5.335
10727SOL     OW33079   1.839   4.727   5.227
10727SOL    HW133080   1.784   4.790   5.173
10727SOL    HW233081   1.933   4.760   5.233
10728SOL     OW33082   5.125   6.642   3.395
10728SOL    HW133083   5.149   6.617   3.301
10728SOL    HW233084   5.165   6.731   3.417
10729SOL     OW33085   6.774   1.741   2.622
10729SOL    HW133086   6.700   1.808   2.621
10729SOL    HW233087   6.743   1.658   2.668
10730SOL     OW33088   2.380   5.716   2.113
10730SOL    HW133089   2.308   5.782   2.095
10730SOL    HW233090   2.362   5.669   2.200
10731SOL     OW33091   3.074   5.431   0.364
10731SOL    HW133092   3.174   5.431   0.352
10731SOL    HW233093   3.033   5.372   0.294
10732SOL     OW33094   6.158   6.601   3.228
10732SOL    HW133095   6.080   6.542   3.205
10732SOL    HW233096   6.212   6.619   3.146
10733SOL     OW33097   6.043   1.613   0.284
10733SOL    HW133098   6.115   1.631   0.351
10733SOL    HW233099   5.961   1.663   0.309
10734SOL     OW33100   0.796   0.101   6.051
10734SOL    HW133101   0.785   0.002   6.057
10734SOL    HW233102   0.893   0.124   6.059
10735SOL     OW33103   0.789   5.580   2.592
10735SOL    HW133104   0.860   5.594   2.523
10735SOL    HW233105   0.796   5.487   2.628
10736SOL     OW33106   0.568   0.649   3.943
10736SOL    HW133107   0.635   0.578   3.965
10736SOL    HW233108   0.592   0.733   3.991
10737SOL     OW33109   0.623   2.467   1.199
10737SOL    HW133110   0.570   2.428   1.275
10737SOL    HW233111   0.561   2.487   1.123
10738SOL     OW33112   2.710   0.989   2.575
10738SOL    HW133113   2.667   0.985   2.665
10738SOL    HW233114   2.733   0.896   2.545
10739SOL     OW33115   5.883   1.802   2.109
10739SOL    HW133116   5.961   1.740   2.113
10739SOL    HW233117   5.908   1.890   2.150
10740SOL     OW33118   1.751   6.398   5.460
10740SOL    HW133119   1.655   6.423   5.446
10740SOL    HW233120   1.757   6.304   5.491
10741SOL     OW33121   1.903   2.523   3.776
10741SOL    HW133122   1.832   2.584   3.811
10741SOL    HW233123   1.989   2.542   3.823
10742SOL     OW33124   5.602   5.996   1.900
10742SOL    HW133125   5.559   5.943   1.827
10742SOL    HW233126   5.701   5.999   1.887
10743SOL     OW33127   3.790   1.142   5.052
10743SOL    HW133128   3.791   1.042   5.054
10743SOL    HW233129   3.878   1.176   5.017
10744SOL     OW33130   3.148   0.558   1.791
10744SOL    HW133131   3.063   0.510   1.768
10744SOL    HW233132   3.146   0.584   1.888
10745SOL     OW33133   2.873   4.905   0.776
10745SOL    HW133134   2.898   5.002   0.775
10745SOL    HW233135   2.799   4.889   0.710
10746SOL     OW33136   2.394   5.922   1.280
10746SOL    HW133137   2.422   5.927   1.184
10746SOL    HW233138   2.389   6.014   1.319
10747SOL     OW33139   5.463   1.936   3.950
10747SOL    HW133140   5.441   2.030   3.923
10747SOL    HW233141   5.500   1.886   3.872
10748SOL     OW33142   5.120   5.629   1.084
10748SOL    HW133143   5.132   5.650   1.181
10748SOL    HW233144   5.206   5.646   1.036
10749SOL     OW33145   5.798   4.738   3.159
10749SOL    HW133146   5.726   4.674   3.131
10749SOL    HW233147   5.868   4.688   3.211
10750SOL     OW33148   5.002   4.260   4.191
10750SOL    HW133149   4.949   4.344   4.181
10750SOL    HW233150   5.075   4.274   4.258
10751SOL     OW33151   0.914   3.330   5.027
10751SOL    HW133152   0.900   3.401   5.097
10751SOL    HW233153   1.004   3.342   4.985
10752SOL     OW33154   5.824   4.957   6.910
10752SOL    HW133155   5.872   5.040   6.881
10752SOL    HW233156   5.866   4.923   6.994
10753SOL     OW33157   4.462   0.231   4.305
10753SOL    HW133158   4.391   0.251   4.238
10753SOL    HW233159   4.438   0.273   4.393
10754SOL     OW33160   0.676   3.318   1.706
10754SOL    HW133161   0.627   3.334   1.620
10754SOL    HW233162   0.624   3.253   1.762
10755SOL     OW33163   0.067   1.779   1.208
10755SOL    HW133164   0.160   1.747   1.190
10755SOL    HW233165   0.019   1.712   1.265
10756SOL     OW33166   6.262   2.498   7.001
10756SOL    HW133167   6.317   2.579   6.982
10756SOL    HW233168   6.293   2.456   0.064
10757SOL     OW33169   0.106   4.120   0.663
10757SOL    HW133170   0.032   4.134   0.730
10757SOL    HW233171   0.145   4.209   0.638
10758SOL     OW33172   0.557   5.640   6.039
10758SOL    HW133173   0.532   5.690   6.122
10758SOL    HW233174   0.600   5.702   5.974
10759SOL     OW33175   1.588   2.954   6.135
10759SOL    HW133176   1.568   3.052   6.125
10759SOL    HW233177   1.530   2.903   6.072
10760SOL     OW33178   1.257   5.967   0.576
10760SOL    HW133179   1.262   6.052   0.628
10760SOL    HW233180   1.162   5.948   0.551
10761SOL     OW33181   0.773   2.596   6.348
10761SOL    HW133182   0.799   2.577   6.254
10761SOL    HW233183   0.807   2.686   6.375
10762SOL     OW33184   3.893   0.689   5.967
10762SOL    HW133185   3.857   0.730   6.051
10762SOL    HW233186   3.967   0.625   5.990
10763SOL     OW33187   5.130   0.530   2.553
10763SOL    HW133188   5.194   0.601   2.521
10763SOL    HW233189   5.107   0.548   2.649
10764SOL     OW33190   4.741   0.940   5.699
10764SOL    HW133191   4.822   0.969   5.649
10764SOL    HW233192   4.701   0.859   5.655
10765SOL     OW33193   5.488   1.419   2.492
10765SOL    HW133194   5.534   1.349   2.438
10765SOL    HW233195   5.494   1.395   2.589
10766SOL     OW33196   1.977   4.836   0.532
10766SOL    HW133197   2.041   4.851   0.457
10766SOL    HW233198   1.984   4.741   0.563
10767SOL     OW33199   1.804   6.276   0.606
10767SOL    HW133200   1.806   6.346   0.678
10767SOL    HW233201   1.711   6.239   0.598
10768SOL     OW33202   4.914   5.442   0.382
10768SOL    HW133203   4.959   5.494   0.310
10768SOL    HW233204   4.950   5.470   0.471
10769SOL     OW33205   3.023   4.387   5.291
10769SOL    HW133206   3.008   4.460   5.225
10769SOL    HW233207   2.972   4.305   5.263
10770SOL     OW33208   5.536   0.169   4.528
10770SOL    HW133209   5.444   0.131   4.539
10770SOL    HW233210   5.603   0.096   4.530
10771SOL     OW33211   4.183   0.126   5.241
10771SOL    HW133212   4.106   0.080   5.197
10771SOL    HW233213   4.244   0.057   5.282
10772SOL     OW33214   6.186   6.882   4.595
10772SOL    HW133215   6.245   6.962   4.600
10772SOL    HW233216   6.213   6.816   4.665
10773SOL     OW33217   6.933   4.247   6.575
10773SOL    HW133218   6.964   4.152   6.576
10773SOL    HW233219   6.995   4.303   6.630
10774SOL     OW33220   1.228   2.407   0.878
10774SOL    HW133221   1.188   2.473   0.815
10774SOL    HW233222   1.244   2.451   0.967
10775SOL     OW33223   1.729   4.325   1.736
10775SOL    HW133224   1.633   4.347   1.753
10775SOL    HW233225   1.786   4.406   1.754
10776SOL     OW33226   6.740   0.625   2.840
10776SOL    HW133227   6.731   0.708   2.785
10776SOL    HW233228   6.762   0.548   2.780
10777SOL     OW33229   3.491   0.531   3.674
10777SOL    HW133230   3.466   0.465   3.744
10777SOL    HW233231   3.574   0.501   3.627
10778SOL     OW33232   6.175   5.988   4.843
10778SOL    HW133233   6.182   5.890   4.862
10778SOL    HW233234   6.244   6.037   4.897
10779SOL     OW33235   5.975   4.773   2.951
10779SOL    HW133236   5.909   4.748   3.022
10779SOL    HW233237   5.961   4.714   2.871
10780SOL     OW33238   6.887   5.215   4.291
10780SOL    HW133239   6.894   5.300   4.343
10780SOL    HW233240   6.972   5.164   4.299
10781SOL     OW33241   5.825   0.657   4.510
10781SOL    HW133242   5.895   0.590   4.537
10781SOL    HW233243   5.842   0.688   4.417
10782SOL     OW33244   6.529   3.156   4.876
10782SOL    HW133245   6.588   3.094   4.824
10782SOL    HW233246   6.453   3.105   4.916
10783SOL     OW33247   1.875   2.738   2.665
10783SOL    HW133248   1.811   2.661   2.671
10783SOL    HW233249   1.966   2.707   2.691
10784SOL     OW33250   2.582   5.892   2.002
10784SOL    HW133251   2.513   5.828   2.033
10784SOL    HW233252   2.613   5.867   1.911
10785SOL     OW33253   1.623   5.107   1.765
10785SOL    HW133254   1.576   5.188   1.730
10785SOL    HW233255   1.707   5.093   1.713
10786SOL     OW33256   3.914   2.143   2.564
10786SOL    HW133257   3.888   2.156   2.468
10786SOL    HW233258   3.831   2.137   2.620
10787SOL     OW33259   3.182   1.280   4.239
10787SOL    HW133260   3.083   1.272   4.240
10787SOL    HW233261   3.215   1.300   4.332
10788SOL     OW33262   1.537   4.335   0.166
10788SOL    HW133263   1.510   4.300   0.076
10788SOL    HW233264   1.540   4.259   0.231
10789SOL     OW33265   6.180   0.976   0.466
10789SOL    HW133266   6.134   0.958   0.553
10789SOL    HW233267   6.203   0.889   0.422
10790SOL     OW33268   0.173   1.437   5.634
10790SOL    HW133269   0.238   1.361   5.633
10790SOL    HW233270   0.092   1.413   5.581
10791SOL     OW33271   1.834   1.649   2.227
10791SOL    HW133272   1.796   1.566   2.266
10791SOL    HW233273   1.891   1.695   2.295
10792SOL     OW33274   3.480   2.562   1.430
10792SOL    HW133275   3.445   2.613   1.508
10792SOL    HW233276   3.436   2.472   1.427
10793SOL     OW33277   5.084   1.861   4.635
10793SOL    HW133278   5.014   1.901   4.575
10793SOL    HW233279   5.060   1.766   4.655
10794SOL     OW33280   3.713   3.308   1.664
10794SOL    HW133281   3.795   3.252   1.651
10794SOL    HW233282   3.656   3.269   1.736
10795SOL     OW33283   6.982   4.133   2.716
10795SOL    HW133284   0.027   4.154   2.645
10795SOL    HW233285   6.963   4.214   2.770
10796SOL     OW33286   5.176   6.949   6.322
10796SOL    HW133287   5.122   6.870   6.292
10796SOL    HW233288   5.119   7.011   6.374
10797SOL     OW33289   3.684   2.934   0.026
10797SOL    HW133290   3.664   3.027   0.057
10797SOL    HW233291   3.598   2.885   0.010
10798SOL     OW33292   2.413   6.804   6.347
10798SOL    HW133293   2.347   6.851   6.406
10798SOL    HW233294   2.382   6.711   6.330
10799SOL     OW33295   3.106   2.115   2.511
10799SOL    HW133296   3.054   2.162   2.440
10799SOL    HW233297   3.169   2.050   2.469
10800SOL     OW33298   2.456   6.479   0.908
10800SOL    HW133299   2.529   6.418   0.879
10800SOL    HW233300   2.439   6.468   1.006
10801SOL     OW33301   2.000   6.463   5.412
10801SOL    HW133302   2.077   6.413   5.373
10801SOL    HW233303   1.948   6.403   5.473
10802SOL     OW33304   1.818   2.946   3.987
10802SOL    HW133305   1.876   2.877   4.030
10802SOL    HW233306   1.840   2.953   3.890
10803SOL     OW33307   5.360   4.603   5.616
10803SOL    HW133308   5.330   4.697   5.604
10803SOL    HW233309   5.460   4.599   5.609
10804SOL     OW33310   6.212   3.966   1.405
10804SOL    HW133311   6.249   3.876   1.428
10804SOL    HW233312   6.131   3.955   1.347
10805SOL     OW33313   3.842   6.888   0.012
10805SOL    HW133314   3.923   6.851   0.057
10805SOL    HW233315   3.766   6.823   0.021
10806SOL     OW33316   5.594   3.524   0.481
10806SOL    HW133317   5.685   3.486   0.494
10806SOL    HW233318   5.537   3.502   0.560
10807SOL     OW33319   3.430   6.264   3.824
10807SOL    HW133320   3.502   6.301   3.883
10807SOL    HW233321   3.343   6.265   3.872
10808SOL     OW33322   0.844   3.943   6.810
10808SOL    HW133323   0.936   3.983   6.806
10808SOL    HW233324   0.788   3.980   6.736
10809SOL     OW33325   2.906   1.412   4.044
10809SOL    HW133326   2.896   1.357   4.127
10809SOL    HW233327   3.004   1.422   4.023
10810SOL     OW33328   0.759   1.049   5.790
10810SOL    HW133329   0.669   1.018   5.821
10810SOL    HW233330   0.791   1.123   5.849
10811SOL     OW33331   3.966   4.878   5.644
10811SOL    HW133332   3.992   4.834   5.558
10811SOL    HW233333   3.882   4.932   5.630
10812SOL     OW33334   7.005   2.499   2.571
10812SOL    HW133335   6.965   2.430   2.632
10812SOL    HW233336   0.077   2.473   2.548
10813SOL     OW33337   2.635   6.213   1.877
10813SOL    HW133338   2.593   6.283   1.818
10813SOL    HW233339   2.702   6.161   1.825
10814SOL     OW33340   1.786   0.013   5.538
10814SOL    HW133341   1.874   0.012   5.490
10814SOL    HW233342   1.774   0.102   5.583
10815SOL     OW33343   4.806   3.978   3.089
10815SOL    HW133344   4.904   3.988   3.106
10815SOL    HW233345   4.784   4.017   2.999
10816SOL     OW33346   1.760   1.010   2.312
10816SOL    HW133347   1.855   1.042   2.304
10816SOL    HW233348   1.713   1.024   2.225
10817SOL     OW33349   5.363   0.137   2.860
10817SOL    HW133350   5.445   0.095   2.822
10817SOL    HW233351   5.384   0.231   2.889
10818SOL     OW33352   5.686   2.857   6.556
10818SOL    HW133353   5.725   2.847   6.647
10818SOL    HW233354   5.691   2.769   6.508
10819SOL     OW33355   0.379   3.829   6.315
10819SOL    HW133356   0.289   3.871   6.330
10819SOL    HW233357   0.411   3.851   6.223
10820SOL     OW33358   0.350   6.986   3.941
10820SOL    HW133359   0.304   6.994   3.852
10820SOL    HW233360   0.320   0.038   4.001
10821SOL     OW33361   6.969   6.482   1.597
10821SOL    HW133362   6.891   6.425   1.574
10821SOL    HW233363   6.937   6.565   1.643
10822SOL     OW33364   1.096   3.349   2.455
10822SOL    HW133365   1.173   3.395   2.500
10822SOL    HW233366   1.080   3.261   2.499
10823SOL     OW33367   2.598   5.645   1.713
10823SOL    HW133368   2.692   5.613   1.698
10823SOL    HW233369   2.538   5.602   1.645
10824SOL     OW33370   5.117   0.251   3.488
10824SOL    HW133371   5.072   0.340   3.477
10824SOL    HW233372   5.174   0.252   3.570
10825SOL     OW33373   2.525   1.509   1.182
10825SOL    HW133374   2.448   1.501   1.245
10825SOL    HW233375   2.584   1.584   1.210
10826SOL     OW33376   6.951   3.938   2.144
10826SOL    HW133377   7.009   3.896   2.213
10826SOL    HW233378   6.855   3.923   2.167
10827SOL     OW33379   6.104   3.632   4.089
10827SOL    HW133380   6.118   3.684   4.173
10827SOL    HW233381   6.048   3.551   4.109
10828SOL     OW33382   1.031   5.932   1.109
10828SOL    HW133383   1.128   5.941   1.089
10828SOL    HW233384   1.004   5.836   1.106
10829SOL     OW33385   2.606   3.550   1.455
10829SOL    HW133386   2.553   3.501   1.524
10829SOL    HW233387   2.546   3.613   1.405
10830SOL     OW33388   5.881   3.158   4.506
10830SOL    HW133389   5.827   3.093   4.560
10830SOL    HW233390   5.819   3.218   4.455
10831SOL     OW33391   5.004   0.709   2.797
10831SOL    HW133392   5.004   0.674   2.891
10831SOL    HW233393   4.937   0.659   2.743
10832SOL     OW33394   0.914   2.411   0.699
10832SOL    HW133395   0.963   2.490   0.660
10832SOL    HW233396   0.891   2.347   0.626
10833SOL     OW33397   2.445   0.807   3.980
10833SOL    HW133398   2.389   0.888   3.995
10833SOL    HW233399   2.444   0.783   3.883
10834SOL     OW33400   0.117   1.460   4.963
10834SOL    HW133401   0.065   1.444   4.879
10834SOL    HW233402   0.071   1.530   5.018
10835SOL     OW33403   6.878   1.658   2.158
10835SOL    HW133404   6.896   1.612   2.245
10835SOL    HW233405   6.965   1.684   2.116
10836SOL     OW33406   0.522   1.376   5.318
10836SOL    HW133407   0.527   1.359   5.220
10836SOL    HW233408   0.597   1.328   5.364
10837SOL     OW33409   6.921   4.688   0.218
10837SOL    HW133410   6.904   4.656   0.312
10837SOL    HW233411   6.844   4.662   0.160
10838SOL     OW33412   5.623   0.780   6.190
10838SOL    HW133413   5.717   0.747   6.201
10838SOL    HW233414   5.569   0.709   6.145
10839SOL     OW33415   2.788   2.135   0.278
10839SOL    HW133416   2.693   2.163   0.284
10839SOL    HW233417   2.828   2.170   0.193
10840SOL     OW33418   3.320   6.156   1.386
10840SOL    HW133419   3.221   6.161   1.374
10840SOL    HW233420   3.342   6.087   1.455
10841SOL     OW33421   3.628   6.085   5.686
10841SOL    HW133422   3.580   6.020   5.745
10841SOL    HW233423   3.573   6.167   5.674
10842SOL     OW33424   6.623   2.911   1.267
10842SOL    HW133425   6.591   2.915   1.362
10842SOL    HW233426   6.544   2.909   1.206
10843SOL     OW33427   0.970   1.684   1.989
10843SOL    HW133428   1.003   1.709   2.080
10843SOL    HW233429   1.039   1.709   1.921
10844SOL     OW33430   6.560   5.903   4.693
10844SOL    HW133431   6.596   5.871   4.781
10844SOL    HW233432   6.501   5.832   4.654
10845SOL     OW33433   1.100   1.265   1.895
10845SOL    HW133434   1.060   1.173   1.904
10845SOL    HW233435   1.198   1.260   1.912
10846SOL     OW33436   4.865   1.987   0.809
10846SOL    HW133437   4.798   2.033   0.867
10846SOL    HW233438   4.947   2.043   0.803
10847SOL     OW33439   2.343   1.505   5.828
10847SOL    HW133440   2.414   1.569   5.797
10847SOL    HW233441   2.360   1.415   5.789
10848SOL     OW33442   2.793   1.406   0.312
10848SOL    HW133443   2.854   1.366   0.243
10848SOL    HW233444   2.809   1.505   0.316
10849SOL     OW33445   2.991   4.852   3.772
10849SOL    HW133446   2.962   4.796   3.694
10849SOL    HW233447   3.091   4.861   3.770
10850SOL     OW33448   3.784   6.491   6.996
10850SOL    HW133449   3.722   6.566   7.018
10850SOL    HW233450   3.856   6.486   0.044
10851SOL     OW33451   2.991   3.083   6.395
10851SOL    HW133452   2.923   3.100   6.324
10851SOL    HW233453   3.006   2.984   6.405
10852SOL     OW33454   0.491   0.987   5.891
10852SOL    HW133455   0.449   0.906   5.850
10852SOL    HW233456   0.419   1.054   5.913
10853SOL     OW33457   2.969   1.668   4.357
10853SOL    HW133458   3.052   1.718   4.379
10853SOL    HW233459   2.892   1.706   4.408
10854SOL     OW33460   5.618   0.419   6.960
10854SOL    HW133461   5.692   0.475   6.996
10854SOL    HW233462   5.535   0.474   6.952
10855SOL     OW33463   2.601   6.162   2.822
10855SOL    HW133464   2.542   6.082   2.824
10855SOL    HW233465   2.585   6.213   2.738
10856SOL     OW33466   6.356   6.532   0.814
10856SOL    HW133467   6.416   6.534   0.894
10856SOL    HW233468   6.322   6.439   0.801
10857SOL     OW33469   6.325   2.281   3.294
10857SOL    HW133470   6.354   2.314   3.203
10857SOL    HW233471   6.282   2.192   3.285
10858SOL     OW33472   1.581   3.880   0.411
10858SOL    HW133473   1.617   3.853   0.500
10858SOL    HW233474   1.643   3.849   0.338
10859SOL     OW33475   1.351   3.714   3.392
10859SOL    HW133476   1.324   3.737   3.299
10859SOL    HW233477   1.282   3.747   3.456
10860SOL     OW33478   6.608   1.171   0.468
10860SOL    HW133479   6.531   1.148   0.528
10860SOL    HW233480   6.632   1.267   0.480
10861SOL     OW33481   3.653   2.699   1.853
10861SOL    HW133482   3.637   2.678   1.950
10861SOL    HW233483   3.681   2.795   1.844
10862SOL     OW33484   2.594   2.293   5.943
10862SOL    HW133485   2.693   2.276   5.941
10862SOL    HW233486   2.575   2.386   5.909
10863SOL     OW33487   2.739   7.006   2.995
10863SOL    HW133488   2.664   0.009   2.935
10863SOL    HW233489   2.773   6.915   2.971
10864SOL     OW33490   2.801   4.574   1.409
10864SOL    HW133491   2.890   4.528   1.398
10864SOL    HW233492   2.787   4.636   1.332
10865SOL     OW33493   5.286   2.937   3.658
10865SOL    HW133494   5.279   2.950   3.756
10865SOL    HW233495   5.200   2.964   3.614
10866SOL     OW33496   6.706   3.056   1.018
10866SOL    HW133497   6.693   3.015   1.108
10866SOL    HW233498   6.756   2.993   0.959
10867SOL     OW33499   2.704   3.003   0.328
10867SOL    HW133500   2.649   2.963   0.255
10867SOL    HW233501   2.643   3.044   0.396
10868SOL     OW33502   0.857   2.114   3.383
10868SOL    HW133503   0.770   2.105   3.432
10868SOL    HW233504   0.855   2.197   3.327
10869NA      NA33505   0.628   1.604   5.890
10870NA      NA33506   4.544   4.427   5.110
10871NA      NA33507   1.969   4.980   2.627
10872NA      NA33508   5.127   4.114   3.699
10873NA      NA33509   4.302   2.428   5.321
10874NA      NA33510   2.989   4.925   1.229
10875NA      NA33511   1.325   5.091   0.409
10876NA      NA33512   3.878   4.283   1.513
10877NA      NA33513   4.644   3.931   0.693
10878NA      NA33514   3.646   1.371   5.797
10879NA      NA33515   5.013   5.926   2.245
10880NA      NA33516   1.765   0.434   5.522
10881NA      NA33517   4.837   4.959   1.703
10882NA      NA33518   3.033   3.574   0.121
   7.02149   7.02149   7.02149
