Generated by trjconv : CNT in water t= 124.00000
33518
    1C        C    1   2.846   2.771   4.750
    1C        C    2   2.902   2.721   4.870
    1C        C    3   2.844   2.773   4.986
    1C        C    4   2.851   2.777   4.261
    1C        C    5   2.901   2.727   4.383
    1C        C    6   2.845   2.771   4.505
    1C        C    7   3.010   2.640   4.628
    1C        C    8   2.894   2.720   4.628
    1C        C    9   3.080   2.611   4.748
    1C        C   10   3.011   2.631   4.869
    1C        C   11   3.186   2.496   4.981
    1C        C   12   3.064   2.565   4.981
    1C        C   13   2.852   2.773   3.773
    1C        C   14   2.905   2.728   3.896
    1C        C   15   2.851   2.778   4.017
    1C        C   16   3.021   2.651   4.141
    1C        C   17   2.905   2.730   4.138
    1C        C   18   3.082   2.614   4.263
    1C        C   19   3.022   2.654   4.385
    1C        C   20   3.208   2.557   4.506
    1C        C   21   3.077   2.610   4.507
    1C        C   22   3.280   2.542   4.627
    1C        C   23   3.211   2.556   4.750
    1C        C   24   3.414   2.485   4.865
    1C        C   25   3.273   2.510   4.869
    1C        C   26   3.494   2.477   4.980
    1C        C   27   2.853   2.770   3.282
    1C        C   28   2.907   2.726   3.405
    1C        C   29   2.857   2.775   3.528
    1C        C   30   3.020   2.643   3.651
    1C        C   31   2.906   2.727   3.651
    1C        C   32   3.080   2.608   3.774
    1C        C   33   3.019   2.645   3.896
    1C        C   34   3.212   2.559   4.018
    1C        C   35   3.081   2.613   4.019
    1C        C   36   3.280   2.543   4.141
    1C        C   37   3.214   2.564   4.264
    1C        C   38   3.418   2.511   4.382
    1C        C   39   3.279   2.536   4.386
    1C        C   40   3.490   2.503   4.504
    1C        C   41   3.418   2.512   4.625
    1C        C   42   3.630   2.481   4.743
    1C        C   43   3.488   2.484   4.744
    1C        C   44   3.707   2.487   4.861
    1C        C   45   3.633   2.482   4.980
    1C        C   46   2.839   2.753   2.794
    1C        C   47   2.896   2.711   2.916
    1C        C   48   2.847   2.764   3.037
    1C        C   49   3.019   2.640   3.162
    1C        C   50   2.904   2.722   3.159
    1C        C   51   3.082   2.605   3.284
    1C        C   52   3.021   2.643   3.406
    1C        C   53   3.211   2.552   3.528
    1C        C   54   3.083   2.611   3.529
    1C        C   55   3.279   2.529   3.650
    1C        C   56   3.212   2.558   3.771
    1C        C   57   3.414   2.507   3.896
    1C        C   58   3.276   2.534   3.895
    1C        C   59   3.488   2.502   4.016
    1C        C   60   3.419   2.515   4.139
    1C        C   61   3.630   2.496   4.259
    1C        C   62   3.489   2.504   4.261
    1C        C   63   3.702   2.496   4.381
    1C        C   64   3.631   2.493   4.503
    1C        C   65   3.839   2.538   4.622
    1C        C   66   3.704   2.495   4.624
    1C        C   67   3.906   2.560   4.744
    1C        C   68   3.843   2.523   4.865
    1C        C   69   4.054   2.585   4.978
    1C        C   70   3.927   2.527   4.978
    1C        C   71   2.827   2.737   2.310
    1C        C   72   2.887   2.695   2.431
    1C        C   73   2.830   2.745   2.551
    1C        C   74   3.006   2.623   2.673
    1C        C   75   2.889   2.703   2.672
    1C        C   76   3.073   2.594   2.794
    1C        C   77   3.013   2.632   2.916
    1C        C   78   3.208   2.551   3.037
    1C        C   79   3.076   2.601   3.039
    1C        C   80   3.279   2.534   3.158
    1C        C   81   3.213   2.552   3.281
    1C        C   82   3.415   2.501   3.403
    1C        C   83   3.277   2.530   3.405
    1C        C   84   3.484   2.494   3.526
    1C        C   85   3.417   2.502   3.650
    1C        C   86   3.626   2.496   3.770
    1C        C   87   3.485   2.494   3.774
    1C        C   88   3.697   2.506   3.892
    1C        C   89   3.629   2.501   4.016
    1C        C   90   3.838   2.539   4.136
    1C        C   91   3.700   2.508   4.137
    1C        C   92   3.905   2.563   4.259
    1C        C   93   3.837   2.537   4.380
    1C        C   94   4.031   2.628   4.497
    1C        C   95   3.907   2.561   4.501
    1C        C   96   4.090   2.669   4.619
    1C        C   97   4.032   2.627   4.741
    1C        C   98   4.184   2.772   4.862
    1C        C   99   4.095   2.659   4.864
    1C        C  100   4.214   2.841   4.980
    1C        C  101   2.822   2.731   2.072
    1C        C  102   2.990   2.593   2.193
    1C        C  103   2.878   2.681   2.190
    1C        C  104   3.067   2.578   2.311
    1C        C  105   3.004   2.617   2.432
    1C        C  106   3.202   2.535   2.550
    1C        C  107   3.071   2.588   2.553
    1C        C  108   3.273   2.517   2.671
    1C        C  109   3.205   2.543   2.792
    1C        C  110   3.412   2.502   2.914
    1C        C  111   3.273   2.525   2.915
    1C        C  112   3.486   2.496   3.035
    1C        C  113   3.417   2.502   3.158
    1C        C  114   3.627   2.497   3.281
    1C        C  115   3.486   2.492   3.281
    1C        C  116   3.696   2.506   3.404
    1C        C  117   3.625   2.496   3.526
    1C        C  118   3.834   2.534   3.646
    1C        C  119   3.696   2.505   3.648
    1C        C  120   3.899   2.564   3.768
    1C        C  121   3.835   2.536   3.891
    1C        C  122   4.024   2.634   4.011
    1C        C  123   3.904   2.558   4.013
    1C        C  124   4.087   2.670   4.132
    1C        C  125   4.026   2.634   4.255
    1C        C  126   4.189   2.772   4.374
    1C        C  127   4.088   2.673   4.376
    1C        C  128   4.237   2.821   4.497
    1C        C  129   4.195   2.763   4.618
    1C        C  130   4.323   2.934   4.739
    1C        C  131   4.239   2.820   4.740
    1C        C  132   4.349   3.005   4.859
    1C        C  133   4.276   2.966   4.972
    1C        C  134   3.171   2.473   2.081
    1C        C  135   3.037   2.514   2.083
    1C        C  136   3.260   2.474   2.189
    1C        C  137   3.197   2.521   2.307
    1C        C  138   3.408   2.483   2.426
    1C        C  139   3.269   2.511   2.428
    1C        C  140   3.482   2.482   2.546
    1C        C  141   3.413   2.495   2.668
    1C        C  142   3.622   2.493   2.791
    1C        C  143   3.481   2.487   2.792
    1C        C  144   3.696   2.498   2.911
    1C        C  145   3.627   2.492   3.034
    1C        C  146   3.833   2.533   3.155
    1C        C  147   3.696   2.499   3.157
    1C        C  148   3.899   2.557   3.278
    1C        C  149   3.833   2.538   3.401
    1C        C  150   4.027   2.621   3.523
    1C        C  151   3.901   2.557   3.524
    1C        C  152   4.085   2.664   3.645
    1C        C  153   4.022   2.634   3.768
    1C        C  154   4.192   2.763   3.888
    1C        C  155   4.080   2.677   3.889
    1C        C  156   4.246   2.812   4.009
    1C        C  157   4.194   2.762   4.130
    1C        C  158   4.333   2.924   4.251
    1C        C  159   4.241   2.817   4.251
    1C        C  160   4.369   2.985   4.374
    1C        C  161   4.324   2.933   4.497
    1C        C  162   4.431   3.118   4.614
    1C        C  163   4.362   2.995   4.618
    1C        C  164   4.458   3.187   4.734
    1C        C  165   4.429   3.121   4.856
    1C        C  166   4.520   3.318   4.972
    1C        C  167   4.479   3.185   4.970
    1C        C  168   3.477   2.435   2.072
    1C        C  169   3.399   2.450   2.188
    1C        C  170   3.619   2.470   2.303
    1C        C  171   3.478   2.460   2.305
    1C        C  172   3.692   2.479   2.424
    1C        C  173   3.623   2.486   2.547
    1C        C  174   3.830   2.532   2.667
    1C        C  175   3.694   2.497   2.669
    1C        C  176   3.899   2.553   2.789
    1C        C  177   3.833   2.534   2.912
    1C        C  178   4.025   2.625   3.032
    1C        C  179   3.901   2.557   3.034
    1C        C  180   4.083   2.662   3.155
    1C        C  181   4.026   2.620   3.277
    1C        C  182   4.194   2.747   3.401
    1C        C  183   4.086   2.656   3.400
    1C        C  184   4.242   2.805   3.521
    1C        C  185   4.193   2.755   3.643
    1C        C  186   4.334   2.917   3.764
    1C        C  187   4.243   2.809   3.764
    1C        C  188   4.374   2.978   3.885
    1C        C  189   4.336   2.921   4.009
    1C        C  190   4.439   3.109   4.128
    1C        C  191   4.376   2.982   4.130
    1C        C  192   4.463   3.176   4.250
    1C        C  193   4.436   3.110   4.371
    1C        C  194   4.506   3.315   4.490
    1C        C  195   4.462   3.181   4.491
    1C        C  196   4.521   3.387   4.611
    1C        C  197   4.504   3.322   4.736
    1C        C  198   4.555   3.535   4.850
    1C        C  199   4.536   3.393   4.854
    1C        C  200   4.583   3.619   4.963
    1C        C  201   3.615   2.415   2.072
    1C        C  202   3.829   2.508   2.184
    1C        C  203   3.693   2.465   2.181
    1C        C  204   3.899   2.538   2.304
    1C        C  205   3.829   2.514   2.424
    1C        C  206   4.020   2.617   2.543
    1C        C  207   3.897   2.546   2.543
    1C        C  208   4.084   2.652   2.663
    1C        C  209   4.025   2.617   2.787
    1C        C  210   4.195   2.747   2.909
    1C        C  211   4.084   2.659   2.908
    1C        C  212   4.243   2.797   3.032
    1C        C  213   4.193   2.751   3.156
    1C        C  214   4.328   2.912   3.273
    1C        C  215   4.241   2.801   3.279
    1C        C  216   4.363   2.974   3.395
    1C        C  217   4.327   2.918   3.520
    1C        C  218   4.433   3.103   3.638
    1C        C  219   4.371   2.975   3.641
    1C        C  220   4.460   3.169   3.760
    1C        C  221   4.438   3.104   3.884
    1C        C  222   4.504   3.309   4.002
    1C        C  223   4.467   3.172   4.005
    1C        C  224   4.514   3.380   4.123
    1C        C  225   4.503   3.311   4.246
    1C        C  226   4.516   3.524   4.366
    1C        C  227   4.518   3.383   4.367
    1C        C  228   4.523   3.597   4.487
    1C        C  229   4.532   3.527   4.609
    1C        C  230   4.508   3.744   4.726
    1C        C  231   4.537   3.604   4.728
    1C        C  232   4.499   3.822   4.843
    1C        C  233   4.549   3.754   4.955
    1C        C  234   4.018   2.607   2.063
    1C        C  235   3.895   2.543   2.065
    1C        C  236   4.084   2.649   2.180
    1C        C  237   4.024   2.606   2.300
    1C        C  238   4.194   2.739   2.423
    1C        C  239   4.083   2.650   2.421
    1C        C  240   4.246   2.790   2.544
    1C        C  241   4.193   2.742   2.666
    1C        C  242   4.336   2.903   2.783
    1C        C  243   4.247   2.793   2.786
    1C        C  244   4.373   2.961   2.906
    1C        C  245   4.331   2.907   3.030
    1C        C  246   4.430   3.097   3.148
    1C        C  247   4.370   2.969   3.151
    1C        C  248   4.450   3.163   3.271
    1C        C  249   4.422   3.102   3.396
    1C        C  250   4.489   3.307   3.515
    1C        C  251   4.449   3.172   3.516
    1C        C  252   4.503   3.377   3.637
    1C        C  253   4.492   3.306   3.759
    1C        C  254   4.525   3.518   3.880
    1C        C  255   4.513   3.378   3.879
    1C        C  256   4.522   3.592   4.001
    1C        C  257   4.516   3.522   4.123
    1C        C  258   4.498   3.735   4.240
    1C        C  259   4.510   3.594   4.244
    1C        C  260   4.477   3.804   4.362
    1C        C  261   4.493   3.735   4.484
    1C        C  262   4.428   3.940   4.600
    1C        C  263   4.482   3.809   4.604
    1C        C  264   4.400   4.010   4.720
    1C        C  265   4.431   3.946   4.842
    1C        C  266   4.320   4.129   4.956
    1C        C  267   4.396   4.013   4.960
    1C        C  268   4.264   2.770   2.063
    1C        C  269   4.198   2.731   2.181
    1C        C  270   4.342   2.893   2.299
    1C        C  271   4.248   2.786   2.301
    1C        C  272   4.375   2.958   2.419
    1C        C  273   4.338   2.897   2.541
    1C        C  274   4.440   3.087   2.660
    1C        C  275   4.380   2.958   2.661
    1C        C  276   4.465   3.152   2.783
    1C        C  277   4.438   3.086   2.905
    1C        C  278   4.502   3.294   3.025
    1C        C  279   4.461   3.158   3.024
    1C        C  280   4.507   3.365   3.146
    1C        C  281   4.493   3.298   3.270
    1C        C  282   4.522   3.511   3.389
    1C        C  283   4.507   3.371   3.390
    1C        C  284   4.521   3.584   3.510
    1C        C  285   4.518   3.517   3.634
    1C        C  286   4.494   3.726   3.752
    1C        C  287   4.518   3.587   3.757
    1C        C  288   4.481   3.797   3.874
    1C        C  289   4.501   3.732   3.998
    1C        C  290   4.434   3.936   4.116
    1C        C  291   4.486   3.805   4.118
    1C        C  292   4.403   4.002   4.237
    1C        C  293   4.426   3.936   4.359
    1C        C  294   4.324   4.127   4.480
    1C        C  295   4.395   4.005   4.479
    1C        C  296   4.284   4.188   4.600
    1C        C  297   4.330   4.133   4.722
    1C        C  298   4.197   4.312   4.839
    1C        C  299   4.284   4.199   4.839
    1C        C  300   4.169   4.402   4.947
    1C        C  301   4.347   2.881   2.063
    1C        C  302   4.470   3.067   2.176
    1C        C  303   4.396   2.945   2.178
    1C        C  304   4.483   3.143   2.296
    1C        C  305   4.450   3.078   2.417
    1C        C  306   4.507   3.285   2.536
    1C        C  307   4.470   3.149   2.537
    1C        C  308   4.518   3.355   2.658
    1C        C  309   4.496   3.290   2.782
    1C        C  310   4.521   3.503   2.897
    1C        C  311   4.512   3.363   2.902
    1C        C  312   4.522   3.574   3.019
    1C        C  313   4.515   3.506   3.143
    1C        C  314   4.494   3.718   3.262
    1C        C  315   4.514   3.578   3.264
    1C        C  316   4.479   3.790   3.383
    1C        C  317   4.498   3.724   3.506
    1C        C  318   4.430   3.924   3.626
    1C        C  319   4.481   3.792   3.628
    1C        C  320   4.396   3.986   3.749
    1C        C  321   4.425   3.927   3.874
    1C        C  322   4.320   4.115   3.990
    1C        C  323   4.396   3.996   3.993
    1C        C  324   4.282   4.175   4.112
    1C        C  325   4.329   4.123   4.234
    1C        C  326   4.188   4.284   4.352
    1C        C  327   4.283   4.180   4.355
    1C        C  328   4.137   4.339   4.472
    1C        C  329   4.190   4.294   4.595
    1C        C  330   4.025   4.434   4.710
    1C        C  331   4.140   4.350   4.715
    1C        C  332   3.972   4.490   4.828
    1C        C  333   4.049   4.473   4.944
    1C        C  334   4.557   3.266   2.065
    1C        C  335   4.540   3.127   2.066
    1C        C  336   4.541   3.351   2.175
    1C        C  337   4.516   3.281   2.295
    1C        C  338   4.529   3.497   2.413
    1C        C  339   4.524   3.355   2.415
    1C        C  340   4.526   3.569   2.534
    1C        C  341   4.525   3.497   2.656
    1C        C  342   4.495   3.712   2.771
    1C        C  343   4.523   3.573   2.774
    1C        C  344   4.481   3.780   2.894
    1C        C  345   4.499   3.714   3.017
    1C        C  346   4.434   3.918   3.138
    1C        C  347   4.475   3.783   3.138
    1C        C  348   4.399   3.984   3.258
    1C        C  349   4.430   3.922   3.381
    1C        C  350   4.325   4.106   3.501
    1C        C  351   4.399   3.987   3.503
    1C        C  352   4.279   4.162   3.622
    1C        C  353   4.326   4.109   3.744
    1C        C  354   4.179   4.265   3.866
    1C        C  355   4.281   4.167   3.865
    1C        C  356   4.124   4.314   3.986
    1C        C  357   4.182   4.274   4.109
    1C        C  358   4.013   4.402   4.231
    1C        C  359   4.135   4.331   4.230
    1C        C  360   3.949   4.440   4.351
    1C        C  361   4.016   4.412   4.473
    1C        C  362   3.824   4.513   4.592
    1C        C  363   3.955   4.460   4.591
    1C        C  364   3.763   4.547   4.714
    1C        C  365   3.840   4.541   4.832
    1C        C  366   3.632   4.591   4.950
    1C        C  367   3.770   4.573   4.949
    1C        C  368   4.510   3.565   2.054
    1C        C  369   4.525   3.491   2.172
    1C        C  370   4.504   3.707   2.286
    1C        C  371   4.521   3.567   2.291
    1C        C  372   4.490   3.777   2.408
    1C        C  373   4.507   3.708   2.530
    1C        C  374   4.434   3.913   2.650
    1C        C  375   4.484   3.781   2.649
    1C        C  376   4.399   3.977   2.772
    1C        C  377   4.430   3.912   2.894
    1C        C  378   4.325   4.097   3.010
    1C        C  379   4.405   3.981   3.015
    1C        C  380   4.275   4.153   3.130
    1C        C  381   4.317   4.099   3.253
    1C        C  382   4.177   4.253   3.376
    1C        C  383   4.281   4.158   3.377
    1C        C  384   4.121   4.301   3.497
    1C        C  385   4.178   4.261   3.620
    1C        C  386   4.007   4.385   3.741
    1C        C  387   4.125   4.308   3.742
    1C        C  388   3.943   4.424   3.861
    1C        C  389   4.003   4.387   3.983
    1C        C  390   3.818   4.480   4.106
    1C        C  391   3.947   4.423   4.108
    1C        C  392   3.752   4.508   4.227
    1C        C  393   3.821   4.500   4.350
    1C        C  394   3.616   4.558   4.473
    1C        C  395   3.755   4.532   4.470
    1C        C  396   3.547   4.562   4.596
    1C        C  397   3.622   4.564   4.716
    1C        C  398   3.411   4.557   4.841
    1C        C  399   3.550   4.577   4.836
    1C        C  400   3.341   4.527   4.959
    1C        C  401   4.503   3.704   2.051
    1C        C  402   4.453   3.919   2.166
    1C        C  403   4.491   3.783   2.167
    1C        C  404   4.413   3.977   2.287
    1C        C  405   4.443   3.910   2.408
    1C        C  406   4.331   4.096   2.526
    1C        C  407   4.402   3.974   2.527
    1C        C  408   4.281   4.152   2.646
    1C        C  409   4.321   4.094   2.769
    1C        C  410   4.175   4.250   2.889
    1C        C  411   4.279   4.154   2.889
    1C        C  412   4.120   4.295   3.011
    1C        C  413   4.177   4.255   3.133
    1C        C  414   4.000   4.372   3.252
    1C        C  415   4.121   4.299   3.255
    1C        C  416   3.941   4.409   3.375
    1C        C  417   4.004   4.380   3.498
    1C        C  418   3.810   4.467   3.620
    1C        C  419   3.942   4.416   3.620
    1C        C  420   3.745   4.496   3.742
    1C        C  421   3.814   4.480   3.864
    1C        C  422   3.611   4.543   3.986
    1C        C  423   3.748   4.507   3.986
    1C        C  424   3.541   4.550   4.108
    1C        C  425   3.614   4.541   4.229
    1C        C  426   3.404   4.545   4.356
    1C        C  427   3.545   4.559   4.351
    1C        C  428   3.334   4.543   4.478
    1C        C  429   3.406   4.556   4.599
    1C        C  430   3.198   4.517   4.720
    1C        C  431   3.337   4.548   4.722
    1C        C  432   3.127   4.493   4.841
    1C        C  433   3.206   4.493   4.957
    1C        C  434   4.386   4.124   2.052
    1C        C  435   4.450   4.000   2.051
    1C        C  436   4.307   4.166   2.164
    1C        C  437   4.338   4.098   2.285
    1C        C  438   4.184   4.248   2.404
    1C        C  439   4.291   4.156   2.405
    1C        C  440   4.124   4.294   2.523
    1C        C  441   4.181   4.252   2.645
    1C        C  442   4.007   4.377   2.765
    1C        C  443   4.124   4.298   2.766
    1C        C  444   3.942   4.411   2.886
    1C        C  445   4.002   4.373   3.009
    1C        C  446   3.809   4.467   3.132
    1C        C  447   3.936   4.405   3.130
    1C        C  448   3.744   4.493   3.255
    1C        C  449   3.812   4.467   3.376
    1C        C  450   3.607   4.528   3.499
    1C        C  451   3.744   4.490   3.498
    1C        C  452   3.537   4.539   3.621
    1C        C  453   3.608   4.533   3.744
    1C        C  454   3.397   4.549   3.865
    1C        C  455   3.538   4.549   3.865
    1C        C  456   3.330   4.534   3.989
    1C        C  457   3.401   4.539   4.111
    1C        C  458   3.193   4.511   4.236
    1C        C  459   3.332   4.536   4.235
    1C        C  460   3.128   4.487   4.359
    1C        C  461   3.195   4.515   4.480
    1C        C  462   2.997   4.435   4.602
    1C        C  463   3.125   4.495   4.601
    1C        C  464   2.934   4.403   4.723
    1C        C  465   2.991   4.450   4.845
    1C        C  466   2.801   4.345   4.956
    1C        C  467   2.910   4.432   4.962
    1C        C  468   4.128   4.288   2.041
    1C        C  469   4.193   4.252   2.160
    1C        C  470   4.010   4.368   2.280
    1C        C  471   4.133   4.296   2.282
    1C        C  472   3.942   4.403   2.398
    1C        C  473   4.005   4.371   2.520
    1C        C  474   3.816   4.467   2.645
    1C        C  475   3.946   4.410   2.642
    1C        C  476   3.745   4.483   2.766
    1C        C  477   3.813   4.468   2.889
    1C        C  478   3.606   4.522   3.009
    1C        C  479   3.744   4.493   3.010
    1C        C  480   3.536   4.531   3.132
    1C        C  481   3.607   4.525   3.254
    1C        C  482   3.397   4.539   3.376
    1C        C  483   3.538   4.539   3.377
    1C        C  484   3.326   4.533   3.498
    1C        C  485   3.396   4.542   3.621
    1C        C  486   3.191   4.496   3.745
    1C        C  487   3.325   4.539   3.743
    1C        C  488   3.127   4.478   3.870
    1C        C  489   3.193   4.500   3.992
    1C        C  490   3.004   4.410   4.114
    1C        C  491   3.126   4.481   4.115
    1C        C  492   2.946   4.378   4.239
    1C        C  493   3.000   4.427   4.360
    1C        C  494   2.832   4.299   4.485
    1C        C  495   2.936   4.394   4.481
    1C        C  496   2.777   4.253   4.607
    1C        C  497   2.821   4.317   4.725
    1C        C  498   2.666   4.166   4.843
    1C        C  499   2.755   4.276   4.843
    1C        C  500   2.600   4.115   4.955
    1C        C  501   4.007   4.355   2.045
    1C        C  502   3.818   4.467   2.159
    1C        C  503   3.945   4.405   2.160
    1C        C  504   3.745   4.480   2.280
    1C        C  505   3.809   4.452   2.403
    1C        C  506   3.606   4.509   2.519
    1C        C  507   3.745   4.483   2.525
    1C        C  508   3.537   4.511   2.642
    1C        C  509   3.606   4.508   2.765
    1C        C  510   3.395   4.528   2.887
    1C        C  511   3.536   4.526   2.886
    1C        C  512   3.324   4.522   3.009
    1C        C  513   3.395   4.532   3.130
    1C        C  514   3.190   4.491   3.257
    1C        C  515   3.326   4.527   3.254
    1C        C  516   3.122   4.467   3.378
    1C        C  517   3.190   4.497   3.498
    1C        C  518   2.998   4.413   3.625
    1C        C  519   3.125   4.475   3.622
    1C        C  520   2.942   4.374   3.749
    1C        C  521   3.001   4.413   3.871
    1C        C  522   2.836   4.279   3.996
    1C        C  523   2.943   4.371   3.993
    1C        C  524   2.789   4.232   4.121
    1C        C  525   2.837   4.287   4.242
    1C        C  526   2.696   4.132   4.365
    1C        C  527   2.783   4.244   4.365
    1C        C  528   2.649   4.078   4.487
    1C        C  529   2.685   4.145   4.605
    1C        C  530   2.579   3.962   4.732
    1C        C  531   2.638   4.091   4.727
    1C        C  532   2.542   3.900   4.854
    1C        C  533   2.534   3.992   4.964
    1C        C  534   3.619   4.549   2.041
    1C        C  535   3.752   4.504   2.041
    1C        C  536   3.537   4.541   2.158
    1C        C  537   3.608   4.515   2.279
    1C        C  538   3.391   4.516   2.400
    1C        C  539   3.533   4.515   2.398
    1C        C  540   3.325   4.506   2.525
    1C        C  541   3.396   4.517   2.647
    1C        C  542   3.183   4.488   2.766
    1C        C  543   3.322   4.514   2.767
    1C        C  544   3.119   4.464   2.890
    1C        C  545   3.187   4.485   3.012
    1C        C  546   2.996   4.402   3.136
    1C        C  547   3.122   4.466   3.135
    1C        C  548   2.939   4.361   3.259
    1C        C  549   2.998   4.399   3.382
    1C        C  550   2.832   4.276   3.507
    1C        C  551   2.936   4.371   3.506
    1C        C  552   2.782   4.228   3.631
    1C        C  553   2.833   4.284   3.750
    1C        C  554   2.703   4.118   3.877
    1C        C  555   2.786   4.232   3.873
    1C        C  556   2.662   4.060   3.999
    1C        C  557   2.701   4.122   4.120
    1C        C  558   2.591   3.946   4.247
    1C        C  559   2.659   4.070   4.244
    1C        C  560   2.563   3.881   4.370
    1C        C  561   2.589   3.950   4.490
    1C        C  562   2.527   3.750   4.615
    1C        C  563   2.559   3.887   4.613
    1C        C  564   2.520   3.680   4.738
    1C        C  565   2.525   3.758   4.857
    1C        C  566   2.531   3.547   4.978
    1C        C  567   2.532   3.686   4.976
    1C        C  568   3.328   4.467   2.044
    1C        C  569   3.398   4.511   2.157
    1C        C  570   3.185   4.472   2.282
    1C        C  571   3.322   4.508   2.277
    1C        C  572   3.116   4.455   2.404
    1C        C  573   3.186   4.480   2.524
    1C        C  574   2.987   4.406   2.648
    1C        C  575   3.114   4.469   2.645
    1C        C  576   2.934   4.357   2.770
    1C        C  577   2.996   4.394   2.891
    1C        C  578   2.826   4.273   3.016
    1C        C  579   2.936   4.362   3.015
    1C        C  580   2.775   4.226   3.139
    1C        C  581   2.827   4.275   3.261
    1C        C  582   2.696   4.113   3.386
    1C        C  583   2.780   4.226   3.385
    1C        C  584   2.661   4.054   3.510
    1C        C  585   2.698   4.115   3.632
    1C        C  586   2.597   3.931   3.757
    1C        C  587   2.662   4.057   3.756
    1C        C  588   2.572   3.867   3.880
    1C        C  589   2.599   3.934   4.002
    1C        C  590   2.526   3.741   4.132
    1C        C  591   2.568   3.876   4.127
    1C        C  592   2.511   3.671   4.253
    1C        C  593   2.525   3.745   4.373
    1C        C  594   2.506   3.535   4.497
    1C        C  595   2.517   3.676   4.496
    1C        C  596   2.514   3.464   4.619
    1C        C  597   2.517   3.538   4.739
    1C        C  598   2.539   3.327   4.864
    1C        C  599   2.525   3.468   4.862
    1C        C  600   2.528   3.249   4.979
    1C        C  601   3.195   4.431   2.043
    1C        C  602   2.983   4.394   2.162
    1C        C  603   3.119   4.439   2.160
    1C        C  604   2.924   4.356   2.286
    1C        C  605   2.989   4.393   2.406
    1C        C  606   2.819   4.272   2.529
    1C        C  607   2.925   4.365   2.528
    1C        C  608   2.772   4.216   2.651
    1C        C  609   2.825   4.267   2.771
    1C        C  610   2.690   4.107   2.897
    1C        C  611   2.777   4.219   2.895
    1C        C  612   2.649   4.052   3.020
    1C        C  613   2.689   4.114   3.141
    1C        C  614   2.592   3.928   3.268
    1C        C  615   2.655   4.054   3.264
    1C        C  616   2.566   3.863   3.391
    1C        C  617   2.594   3.930   3.512
    1C        C  618   2.529   3.730   3.638
    1C        C  619   2.567   3.866   3.636
    1C        C  620   2.516   3.662   3.762
    1C        C  621   2.530   3.732   3.884
    1C        C  622   2.504   3.529   4.010
    1C        C  623   2.515   3.670   4.010
    1C        C  624   2.509   3.458   4.132
    1C        C  625   2.512   3.529   4.253
    1C        C  626   2.538   3.322   4.379
    1C        C  627   2.510   3.461   4.377
    1C        C  628   2.560   3.255   4.501
    1C        C  629   2.539   3.325   4.622
    1C        C  630   2.595   3.118   4.745
    1C        C  631   2.552   3.254   4.744
    1C        C  632   2.618   3.050   4.867
    1C        C  633   2.559   3.112   4.982
    1C        C  634   2.774   4.306   2.057
    1C        C  635   2.891   4.384   2.053
    1C        C  636   2.742   4.232   2.172
    1C        C  637   2.809   4.273   2.289
    1C        C  638   2.675   4.108   2.410
    1C        C  639   2.764   4.218   2.411
    1C        C  640   2.638   4.047   2.532
    1C        C  641   2.687   4.104   2.652
    1C        C  642   2.585   3.921   2.779
    1C        C  643   2.650   4.047   2.776
    1C        C  644   2.567   3.854   2.902
    1C        C  645   2.593   3.922   3.023
    1C        C  646   2.526   3.725   3.149
    1C        C  647   2.564   3.861   3.146
    1C        C  648   2.517   3.655   3.272
    1C        C  649   2.524   3.728   3.393
    1C        C  650   2.508   3.519   3.519
    1C        C  651   2.516   3.660   3.516
    1C        C  652   2.505   3.452   3.643
    1C        C  653   2.502   3.522   3.766
    1C        C  654   2.537   3.316   3.889
    1C        C  655   2.506   3.454   3.890
    1C        C  656   2.553   3.250   4.013
    1C        C  657   2.533   3.319   4.135
    1C        C  658   2.602   3.119   4.259
    1C        C  659   2.554   3.252   4.258
    1C        C  660   2.638   3.058   4.382
    1C        C  661   2.606   3.121   4.504
    1C        C  662   2.717   2.941   4.628
    1C        C  663   2.633   3.054   4.625
    1C        C  664   2.752   2.878   4.750
    1C        C  665   2.696   2.930   4.869
    1C        C  666   2.744   2.870   4.986
    1C        C  667   2.679   4.026   2.054
    1C        C  668   2.676   4.108   2.168
    1C        C  669   2.584   3.914   2.289
    1C        C  670   2.639   4.045   2.289
    1C        C  671   2.556   3.849   2.412
    1C        C  672   2.585   3.917   2.533
    1C        C  673   2.518   3.720   2.660
    1C        C  674   2.556   3.856   2.657
    1C        C  675   2.508   3.650   2.782
    1C        C  676   2.528   3.719   2.904
    1C        C  677   2.501   3.511   3.029
    1C        C  678   2.516   3.652   3.028
    1C        C  679   2.505   3.443   3.153
    1C        C  680   2.506   3.515   3.275
    1C        C  681   2.525   3.306   3.401
    1C        C  682   2.507   3.446   3.398
    1C        C  683   2.543   3.241   3.525
    1C        C  684   2.528   3.313   3.645
    1C        C  685   2.606   3.115   3.769
    1C        C  686   2.553   3.246   3.767
    1C        C  687   2.642   3.058   3.893
    1C        C  688   2.607   3.120   4.014
    1C        C  689   2.712   2.937   4.141
    1C        C  690   2.636   3.056   4.137
    1C        C  691   2.758   2.883   4.263
    1C        C  692   2.716   2.941   4.385
    1C        C  693   2.755   2.879   4.506
    1C        C  694   2.627   3.896   2.054
    1C        C  695   2.532   3.704   2.178
    1C        C  696   2.575   3.838   2.170
    1C        C  697   2.505   3.638   2.299
    1C        C  698   2.514   3.715   2.417
    1C        C  699   2.493   3.505   2.542
    1C        C  700   2.506   3.645   2.540
    1C        C  701   2.500   3.437   2.666
    1C        C  702   2.498   3.509   2.787
    1C        C  703   2.523   3.298   2.911
    1C        C  704   2.500   3.437   2.909
    1C        C  705   2.541   3.232   3.035
    1C        C  706   2.528   3.304   3.156
    1C        C  707   2.598   3.106   3.280
    1C        C  708   2.547   3.238   3.279
    1C        C  709   2.632   3.046   3.404
    1C        C  710   2.602   3.112   3.525
    1C        C  711   2.713   2.932   3.648
    1C        C  712   2.634   3.049   3.647
    1C        C  713   2.759   2.881   3.771
    1C        C  714   2.721   2.940   3.893
    1C        C  715   2.760   2.886   4.018
    1C        C  716   2.447   3.503   2.061
    1C        C  717   2.496   3.634   2.062
    1C        C  718   2.461   3.425   2.180
    1C        C  719   2.484   3.497   2.300
    1C        C  720   2.516   3.290   2.426
    1C        C  721   2.486   3.428   2.424
    1C        C  722   2.530   3.222   2.549
    1C        C  723   2.523   3.298   2.668
    1C        C  724   2.596   3.098   2.789
    1C        C  725   2.543   3.229   2.789
    1C        C  726   2.629   3.039   2.913
    1C        C  727   2.593   3.101   3.035
    1C        C  728   2.712   2.927   3.160
    1C        C  729   2.630   3.042   3.158
    1C        C  730   2.758   2.875   3.283
    1C        C  731   2.714   2.931   3.404
    1C        C  732   2.757   2.875   3.526
    1C        C  733   2.489   3.198   2.075
    1C        C  734   2.488   3.284   2.185
    1C        C  735   2.582   3.087   2.306
    1C        C  736   2.528   3.219   2.304
    1C        C  737   2.614   3.022   2.427
    1C        C  738   2.582   3.091   2.547
    1C        C  739   2.700   2.914   2.672
    1C        C  740   2.618   3.028   2.668
    1C        C  741   2.743   2.856   2.794
    1C        C  742   2.708   2.922   2.914
    1C        C  743   2.755   2.872   3.037
    1C        C  744   2.536   3.067   2.075
    1C        C  745   2.684   2.899   2.187
    1C        C  746   2.601   3.013   2.187
    1C        C  747   2.732   2.843   2.307
    1C        C  748   2.689   2.903   2.428
    1C        C  749   2.739   2.853   2.550
    1C        C  750   2.733   2.838   2.071
    1C        C  751   3.660   2.287   2.013
    1C        O  752   3.635   2.176   2.068
    1C        O  753   3.702   2.278   1.879
    1C        C  754   4.633   3.057   1.974
    1C        O  755   4.630   3.054   1.848
    1C        O  756   4.729   2.963   2.014
    1C        C  757   4.445   4.229   1.965
    1C        O  758   4.541   4.302   2.001
    1C        O  759   4.404   4.247   1.833
    1C        C  760   3.596   4.668   1.957
    1C        O  761   3.621   4.782   2.003
    1C        O  762   3.580   4.652   1.818
    1C        C  763   2.879   4.500   1.962
    1C        O  764   2.913   4.492   1.841
    1C        O  765   2.788   4.606   1.972
    1C        C  766   2.322   3.510   1.982
    1C        O  767   2.323   3.452   1.870
    1C        O  768   2.194   3.549   2.021
    1C        C  769   4.681   3.591   5.070
    1C        O  770   4.646   3.576   5.190
    1C        O  771   4.815   3.624   5.049
    1C        C  772   4.277   4.491   4.996
    1C        O  773   4.323   4.471   5.111
    1C        O  774   4.373   4.561   4.921
    1C        C  775   4.151   2.508   5.060
    1C        O  776   4.196   2.392   5.039
    1C        O  777   4.154   2.541   5.196
    1C        C  778   2.919   4.524   5.078
    1C        O  779   2.847   4.627   5.080
    1C        O  780   2.931   4.474   5.208
    1C        C  781   2.474   3.040   5.080
    1C        O  782   2.371   2.981   5.039
    1C        O  783   2.473   3.048   5.219
    1C        C  784   2.421   3.980   5.058
    1C        O  785   2.333   4.070   5.047
    1C        O  786   2.458   3.947   5.189
    1C        C  787   2.952   2.418   2.009
    1C        O  788   2.929   2.423   1.886
    1C        O  789   2.911   2.293   2.056
    1C        C  790   3.197   2.397   5.091
    1C        O  791   3.175   2.275   5.069
    1C        O  792   3.214   2.441   5.223
    1C        H  793   4.269   3.034   5.054
    1C        H  794   4.230   2.793   5.074
    1C        H  795   4.491   3.119   5.054
    1C        H  796   4.564   3.354   5.062
    1C        H  797   4.535   3.801   5.050
    1C        H  798   4.388   3.958   5.051
    1C        H  799   4.246   4.135   5.033
    1C        H  800   4.014   4.498   5.042
    1C        H  801   3.826   4.605   5.034
    1C        H  802   3.595   4.659   5.024
    1C        H  803   3.397   4.483   5.039
    1C        H  804   3.161   4.462   5.049
    1C        H  805   3.908   2.457   5.058
    1C        H  806   3.678   2.519   5.070
    1C        H  807   3.039   2.605   5.078
    1C        H  808   3.454   2.506   5.075
    1C        H  809   2.888   2.750   5.081
    1C        H  810   2.679   2.865   5.071
    1C        H  811   2.460   3.284   5.054
    1C        H  812   2.506   3.506   5.074
    1C        H  813   2.606   3.726   5.043
    1C        H  814   2.569   4.187   5.029
    1C        H  815   2.739   4.344   5.043
    1C        H  816   2.721   2.880   1.973
    1C        H  817   2.833   2.677   1.980
    1C        H  818   3.203   2.421   1.993
    1C        H  819   3.433   2.445   1.975
    1C        H  820   3.837   2.557   1.976
    1C        H  821   4.054   2.634   1.966
    1C        H  822   4.251   2.715   1.972
    1C        H  823   4.346   2.942   1.975
    1C        H  824   4.606   3.302   1.977
    1C        H  825   4.560   3.526   1.968
    1C        H  826   4.548   3.747   1.964
    1C        H  827   3.772   4.448   1.953
    1C        H  828   3.965   4.375   1.948
    1C        H  829   4.167   4.258   1.946
    1C        H  830   4.523   3.982   1.975
    1C        H  831   2.678   3.833   1.984
    1C        H  832   2.748   4.044   1.974
    1C        H  833   2.717   4.298   1.967
    1C        H  834   3.386   4.436   1.960
    1C        H  835   3.162   4.371   1.960
    1C        H  836   2.496   3.003   1.999
    1C        H  837   2.443   3.231   1.984
    1C        H  838   2.541   3.663   1.969
    2V3OU   H29  839   2.792   3.545   1.566
    2V3OU   C27  840   2.781   3.498   1.668
    2V3OU   H27  841   2.725   3.565   1.738
    2V3OU   H28  842   2.723   3.403   1.667
    2V3OU   O11  843   2.911   3.467   1.719
    2V3OU   C15  844   2.924   3.399   1.838
    2V3OU   C13  845   3.054   3.372   1.885
    2V3OU   C14  846   3.075   3.266   1.973
    2V3OU   C16  847   2.971   3.188   2.022
    2V3OU    H6  848   2.992   3.108   2.095
    2V3OU   C12  849   3.214   3.229   2.011
    2V3OU    O2  850   3.236   3.128   2.082
    2V3OU   C10  851   3.326   3.305   1.954
    2V3OU    C8  852   3.459   3.270   1.979
    2V3OU   O10  853   3.488   3.152   2.040
    2V3OU   H26  854   3.402   3.115   2.066
    2V3OU    C6  855   3.567   3.351   1.934
    2V3OU    C5  856   3.538   3.466   1.860
    2V3OU    C4  857   3.703   3.292   1.938
    2V3OU    H4  858   3.722   3.230   2.031
    2V3OU    H5  859   3.712   3.219   1.852
    2V3OU    C2  860   3.816   3.394   1.928
    2V3OU    O6  861   3.811   3.472   2.048
    2V3OU   H21  862   3.768   3.555   2.020
    2V3OU    C3  863   3.783   3.495   1.818
    2V3OU    H2  864   3.861   3.575   1.812
    2V3OU    H3  865   3.775   3.438   1.722
    2V3OU   C25  866   3.952   3.326   1.912
    2V3OU    O7  867   4.000   3.293   1.803
    2V3OU   C26  868   4.033   3.290   2.035
    2V3OU   H22  869   4.074   3.386   2.075
    2V3OU   H23  870   4.122   3.229   2.005
    2V3OU    O8  871   3.969   3.212   2.134
    2V3OU   H24  872   3.922   3.270   2.196
    2V3OU    C1  873   3.650   3.564   1.839
    2V3OU    H1  874   3.625   3.622   1.745
    2V3OU    O3  875   3.657   3.650   1.953
    2V3OU   C19  876   3.620   3.787   1.939
    2V3OU    H9  877   3.526   3.795   1.878
    2V3OU    O4  878   3.715   3.847   1.854
    2V3OU   C20  879   3.846   3.876   1.905
    2V3OU   H10  880   3.889   3.772   1.919
    2V3OU   C24  881   3.609   3.858   2.074
    2V3OU   H16  882   3.544   3.795   2.140
    2V3OU   H17  883   3.567   3.962   2.068
    2V3OU   C23  884   3.748   3.876   2.135
    2V3OU   H15  885   3.789   3.772   2.156
    2V3OU    N1  886   3.735   3.957   2.255
    2V3OU   H19  887   3.808   3.925   2.315
    2V3OU   H20  888   3.645   3.936   2.292
    2V3OU   C21  889   3.847   3.949   2.039
    2V3OU   H11  890   3.946   3.923   2.088
    2V3OU    O5  891   3.828   4.089   2.036
    2V3OU   H18  892   3.784   4.103   2.122
    2V3OU   C22  893   3.911   3.953   1.791
    2V3OU   H12  894   3.859   4.052   1.777
    2V3OU   H13  895   3.907   3.892   1.697
    2V3OU   H14  896   4.020   3.967   1.810
    2V3OU   C11  897   3.160   3.471   1.859
    2V3OU    O1  898   3.132   3.583   1.813
    2V3OU    C9  899   3.298   3.423   1.881
    2V3OU    C7  900   3.402   3.501   1.832
    2V3OU    O9  901   3.389   3.613   1.753
    2V3OU   H25  902   3.294   3.633   1.753
    2V3OU   C17  903   2.822   3.318   1.892
    2V3OU    H7  904   2.716   3.342   1.878
    2V3OU   C18  905   2.841   3.213   1.981
    2V3OU    H8  906   2.751   3.150   1.992
    3SOL     OW  907   2.157   4.476   1.256
    3SOL    HW1  908   2.212   4.392   1.251
    3SOL    HW2  909   2.118   4.496   1.167
    4SOL     OW  910   6.500   6.850   1.507
    4SOL    HW1  911   6.415   6.900   1.525
    4SOL    HW2  912   6.508   6.774   1.572
    5SOL     OW  913   4.143   1.266   1.815
    5SOL    HW1  914   4.107   1.360   1.814
    5SOL    HW2  915   4.151   1.232   1.722
    6SOL     OW  916   3.611   2.125   2.347
    6SOL    HW1  917   3.642   2.128   2.252
    6SOL    HW2  918   3.528   2.180   2.357
    7SOL     OW  919   6.013   2.240   1.793
    7SOL    HW1  920   6.001   2.144   1.770
    7SOL    HW2  921   6.081   2.249   1.866
    8SOL     OW  922   2.505   6.633   4.755
    8SOL    HW1  923   2.407   6.637   4.776
    8SOL    HW2  924   2.557   6.640   4.840
    9SOL     OW  925   1.613   5.786   5.898
    9SOL    HW1  926   1.641   5.870   5.944
    9SOL    HW2  927   1.560   5.808   5.817
   10SOL     OW  928   0.495   4.697   6.085
   10SOL    HW1  929   0.465   4.779   6.134
   10SOL    HW2  930   0.501   4.621   6.149
   11SOL     OW  931   3.219   0.231   0.560
   11SOL    HW1  932   3.273   0.147   0.557
   11SOL    HW2  933   3.170   0.236   0.647
   12SOL     OW  934   4.817   6.149   3.312
   12SOL    HW1  935   4.903   6.104   3.287
   12SOL    HW2  936   4.740   6.090   3.287
   13SOL     OW  937   2.876   6.433   4.305
   13SOL    HW1  938   2.817   6.434   4.225
   13SOL    HW2  939   2.821   6.444   4.388
   14SOL     OW  940   3.625   5.721   6.302
   14SOL    HW1  941   3.553   5.653   6.288
   14SOL    HW2  942   3.599   5.782   6.377
   15SOL     OW  943   1.275   6.352   0.244
   15SOL    HW1  944   1.314   6.261   0.257
   15SOL    HW2  945   1.280   6.376   0.147
   16SOL     OW  946   6.496   2.262   5.878
   16SOL    HW1  947   6.586   2.219   5.881
   16SOL    HW2  948   6.484   2.309   5.791
   17SOL     OW  949   5.059   6.094   4.381
   17SOL    HW1  950   5.114   6.011   4.387
   17SOL    HW2  951   5.105   6.168   4.429
   18SOL     OW  952   2.745   2.428   6.168
   18SOL    HW1  953   2.719   2.426   6.071
   18SOL    HW2  954   2.830   2.375   6.180
   19SOL     OW  955   0.075   7.008   3.571
   19SOL    HW1  956   0.046   0.064   3.623
   19SOL    HW2  957   0.017   6.930   3.594
   20SOL     OW  958   3.579   0.892   4.163
   20SOL    HW1  959   3.611   0.799   4.146
   20SOL    HW2  960   3.576   0.909   4.262
   21SOL     OW  961   3.171   1.742   2.220
   21SOL    HW1  962   3.152   1.645   2.236
   21SOL    HW2  963   3.089   1.796   2.239
   22SOL     OW  964   1.823   6.984   6.816
   22SOL    HW1  965   1.869   0.046   6.791
   22SOL    HW2  966   1.888   6.909   6.815
   23SOL     OW  967   4.591   6.794   3.671
   23SOL    HW1  968   4.493   6.814   3.674
   23SOL    HW2  969   4.606   6.701   3.704
   24SOL     OW  970   5.341   1.278   4.549
   24SOL    HW1  971   5.358   1.181   4.562
   24SOL    HW2  972   5.324   1.297   4.453
   25SOL     OW  973   2.942   6.058   0.212
   25SOL    HW1  974   2.992   6.039   0.296
   25SOL    HW2  975   2.983   6.136   0.165
   26SOL     OW  976   6.552   1.014   1.687
   26SOL    HW1  977   6.479   1.010   1.755
   26SOL    HW2  978   6.513   1.015   1.595
   27SOL     OW  979   0.056   0.541   2.433
   27SOL    HW1  980   6.998   0.501   2.392
   27SOL    HW2  981   0.078   0.493   2.518
   28SOL     OW  982   4.366   0.379   6.491
   28SOL    HW1  983   4.268   0.394   6.477
   28SOL    HW2  984   4.415   0.464   6.473
   29SOL     OW  985   4.978   2.313   2.044
   29SOL    HW1  986   4.982   2.298   1.945
   29SOL    HW2  987   4.909   2.253   2.084
   30SOL     OW  988   2.802   6.868   5.765
   30SOL    HW1  989   2.861   6.867   5.846
   30SOL    HW2  990   2.764   6.776   5.751
   31SOL     OW  991   0.629   0.743   5.921
   31SOL    HW1  992   0.609   0.770   5.826
   31SOL    HW2  993   0.676   0.655   5.921
   32SOL     OW  994   0.795   2.306   2.819
   32SOL    HW1  995   0.830   2.339   2.907
   32SOL    HW2  996   0.850   2.345   2.745
   33SOL     OW  997   1.701   2.773   6.277
   33SOL    HW1  998   1.775   2.722   6.321
   33SOL    HW2  999   1.643   2.710   6.226
   34SOL     OW 1000   1.765   0.164   5.104
   34SOL    HW1 1001   1.833   0.232   5.075
   34SOL    HW2 1002   1.723   0.123   5.023
   35SOL     OW 1003   4.325   2.202   6.195
   35SOL    HW1 1004   4.274   2.117   6.181
   35SOL    HW2 1005   4.385   2.192   6.275
   36SOL     OW 1006   0.880   0.804   6.608
   36SOL    HW1 1007   0.879   0.902   6.628
   36SOL    HW2 1008   0.786   0.770   6.606
   37SOL     OW 1009   2.076   6.601   1.408
   37SOL    HW1 1010   2.152   6.597   1.344
   37SOL    HW2 1011   2.084   6.683   1.465
   38SOL     OW 1012   6.810   6.033   2.712
   38SOL    HW1 1013   6.717   6.042   2.674
   38SOL    HW2 1014   6.876   6.074   2.649
   39SOL     OW 1015   6.446   4.039   5.891
   39SOL    HW1 1016   6.444   4.050   5.990
   39SOL    HW2 1017   6.538   4.012   5.862
   40SOL     OW 1018   6.213   2.279   1.992
   40SOL    HW1 1019   6.196   2.369   2.033
   40SOL    HW2 1020   6.311   2.259   1.992
   41SOL     OW 1021   2.238   6.314   4.430
   41SOL    HW1 1022   2.182   6.360   4.361
   41SOL    HW2 1023   2.179   6.274   4.500
   42SOL     OW 1024   3.437   6.931   5.987
   42SOL    HW1 1025   3.402   6.888   6.070
   42SOL    HW2 1026   3.537   6.926   5.987
   43SOL     OW 1027   5.674   5.966   5.732
   43SOL    HW1 1028   5.727   5.937   5.812
   43SOL    HW2 1029   5.576   5.952   5.750
   44SOL     OW 1030   7.015   2.808   6.232
   44SOL    HW1 1031   7.017   2.823   6.331
   44SOL    HW2 1032   0.080   2.834   6.193
   45SOL     OW 1033   3.373   0.472   2.796
   45SOL    HW1 1034   3.442   0.423   2.848
   45SOL    HW2 1035   3.352   0.559   2.841
   46SOL     OW 1036   0.640   3.843   4.520
   46SOL    HW1 1037   0.720   3.783   4.523
   46SOL    HW2 1038   0.670   3.938   4.529
   47SOL     OW 1039   6.599   3.361   3.824
   47SOL    HW1 1040   6.638   3.423   3.756
   47SOL    HW2 1041   6.565   3.414   3.902
   48SOL     OW 1042   0.517   2.336   5.099
   48SOL    HW1 1043   0.451   2.410   5.100
   48SOL    HW2 1044   0.525   2.299   5.007
   49SOL     OW 1045   4.863   4.206   1.331
   49SOL    HW1 1046   4.855   4.212   1.231
   49SOL    HW2 1047   4.781   4.245   1.373
   50SOL     OW 1048   6.972   3.333   4.690
   50SOL    HW1 1049   7.022   3.306   4.772
   50SOL    HW2 1050   0.013   3.356   4.617
   51SOL     OW 1051   3.051   5.297   2.621
   51SOL    HW1 1052   2.991   5.305   2.701
   51SOL    HW2 1053   3.130   5.358   2.633
   52SOL     OW 1054   3.104   1.873   3.092
   52SOL    HW1 1055   3.066   1.822   3.015
   52SOL    HW2 1056   3.100   1.816   3.174
   53SOL     OW 1057   4.512   0.232   3.746
   53SOL    HW1 1058   4.552   0.320   3.721
   53SOL    HW2 1059   4.553   0.160   3.689
   54SOL     OW 1060   3.022   4.932   6.371
   54SOL    HW1 1061   3.033   5.018   6.419
   54SOL    HW2 1062   2.967   4.869   6.425
   55SOL     OW 1063   3.869   1.284   5.969
   55SOL    HW1 1064   3.793   1.341   6.001
   55SOL    HW2 1065   3.838   1.189   5.959
   56SOL     OW 1066   1.925   0.290   1.996
   56SOL    HW1 1067   1.970   0.343   2.068
   56SOL    HW2 1068   1.826   0.289   2.013
   57SOL     OW 1069   5.161   0.266   0.625
   57SOL    HW1 1070   5.115   0.196   0.570
   57SOL    HW2 1071   5.100   0.297   0.698
   58SOL     OW 1072   0.025   5.940   6.712
   58SOL    HW1 1073   6.966   5.884   6.714
   58SOL    HW2 1074   0.106   5.881   6.713
   59SOL     OW 1075   1.523   0.640   6.480
   59SOL    HW1 1076   1.557   0.659   6.388
   59SOL    HW2 1077   1.587   0.579   6.527
   60SOL     OW 1078   4.936   0.644   5.843
   60SOL    HW1 1079   5.024   0.662   5.887
   60SOL    HW2 1080   4.891   0.567   5.888
   61SOL     OW 1081   4.858   0.222   4.242
   61SOL    HW1 1082   4.889   0.303   4.191
   61SOL    HW2 1083   4.814   0.158   4.179
   62SOL     OW 1084   0.741   0.650   4.185
   62SOL    HW1 1085   0.766   0.561   4.221
   62SOL    HW2 1086   0.702   0.640   4.093
   63SOL     OW 1087   6.436   2.360   3.287
   63SOL    HW1 1088   6.352   2.347   3.340
   63SOL    HW2 1089   6.461   2.273   3.244
   64SOL     OW 1090   6.814   4.030   6.121
   64SOL    HW1 1091   6.793   4.038   6.218
   64SOL    HW2 1092   6.799   3.936   6.091
   65SOL     OW 1093   6.321   3.979   5.055
   65SOL    HW1 1094   6.359   4.054   5.109
   65SOL    HW2 1095   6.387   3.904   5.051
   66SOL     OW 1096   3.424   0.662   6.758
   66SOL    HW1 1097   3.374   0.599   6.817
   66SOL    HW2 1098   3.518   0.629   6.745
   67SOL     OW 1099   5.717   6.252   5.247
   67SOL    HW1 1100   5.706   6.155   5.270
   67SOL    HW2 1101   5.702   6.265   5.149
   68SOL     OW 1102   6.127   1.603   6.793
   68SOL    HW1 1103   6.119   1.518   6.846
   68SOL    HW2 1104   6.108   1.585   6.697
   69SOL     OW 1105   1.362   4.175   6.503
   69SOL    HW1 1106   1.439   4.208   6.448
   69SOL    HW2 1107   1.318   4.253   6.548
   70SOL     OW 1108   6.577   5.623   2.659
   70SOL    HW1 1109   6.598   5.593   2.752
   70SOL    HW2 1110   6.500   5.686   2.661
   71SOL     OW 1111   3.039   2.184   3.786
   71SOL    HW1 1112   2.961   2.235   3.824
   71SOL    HW2 1113   3.124   2.228   3.814
   72SOL     OW 1114   2.750   5.952   3.946
   72SOL    HW1 1115   2.812   5.874   3.956
   72SOL    HW2 1116   2.727   5.987   4.037
   73SOL     OW 1117   3.474   2.418   6.861
   73SOL    HW1 1118   3.480   2.515   6.887
   73SOL    HW2 1119   3.389   2.380   6.897
   74SOL     OW 1120   5.506   6.683   0.352
   74SOL    HW1 1121   5.505   6.697   0.253
   74SOL    HW2 1122   5.444   6.748   0.395
   75SOL     OW 1123   3.291   5.246   5.115
   75SOL    HW1 1124   3.316   5.343   5.110
   75SOL    HW2 1125   3.233   5.222   5.037
   76SOL     OW 1126   2.036   2.641   1.391
   76SOL    HW1 1127   2.056   2.549   1.357
   76SOL    HW2 1128   2.053   2.644   1.490
   77SOL     OW 1129   5.197   5.761   4.666
   77SOL    HW1 1130   5.263   5.695   4.704
   77SOL    HW2 1131   5.142   5.716   4.596
   78SOL     OW 1132   6.748   6.713   6.292
   78SOL    HW1 1133   6.650   6.732   6.290
   78SOL    HW2 1134   6.790   6.764   6.367
   79SOL     OW 1135   2.890   0.069   0.617
   79SOL    HW1 1136   2.969   0.010   0.632
   79SOL    HW2 1137   2.838   0.037   0.538
   80SOL     OW 1138   6.324   0.799   4.997
   80SOL    HW1 1139   6.416   0.788   5.036
   80SOL    HW2 1140   6.270   0.717   5.014
   81SOL     OW 1141   2.480   0.696   2.828
   81SOL    HW1 1142   2.462   0.599   2.815
   81SOL    HW2 1143   2.468   0.744   2.742
   82SOL     OW 1144   6.721   5.399   0.160
   82SOL    HW1 1145   6.719   5.369   0.064
   82SOL    HW2 1146   6.679   5.329   0.218
   83SOL     OW 1147   6.923   6.899   0.676
   83SOL    HW1 1148   6.885   6.973   0.620
   83SOL    HW2 1149   6.920   6.925   0.772
   84SOL     OW 1150   5.299   3.853   2.517
   84SOL    HW1 1151   5.246   3.770   2.497
   84SOL    HW2 1152   5.237   3.925   2.548
   85SOL     OW 1153   0.808   1.296   5.035
   85SOL    HW1 1154   0.719   1.331   5.005
   85SOL    HW2 1155   0.859   1.264   4.956
   86SOL     OW 1156   0.696   0.212   5.931
   86SOL    HW1 1157   0.628   0.139   5.933
   86SOL    HW2 1158   0.781   0.177   5.892
   87SOL     OW 1159   4.696   2.810   0.248
   87SOL    HW1 1160   4.620   2.852   0.197
   87SOL    HW2 1161   4.734   2.735   0.195
   88SOL     OW 1162   4.869   1.613   0.144
   88SOL    HW1 1163   4.851   1.516   0.130
   88SOL    HW2 1164   4.782   1.661   0.157
   89SOL     OW 1165   1.851   2.847   6.914
   89SOL    HW1 1166   1.810   2.905   6.984
   89SOL    HW2 1167   1.934   2.890   6.879
   90SOL     OW 1168   4.985   6.978   3.977
   90SOL    HW1 1169   5.011   6.917   3.902
   90SOL    HW2 1170   4.888   6.969   3.995
   91SOL     OW 1171   4.768   4.812   3.947
   91SOL    HW1 1172   4.862   4.824   3.918
   91SOL    HW2 1173   4.707   4.814   3.868
   92SOL     OW 1174   3.041   5.611   0.586
   92SOL    HW1 1175   3.002   5.641   0.673
   92SOL    HW2 1176   2.983   5.641   0.511
   93SOL     OW 1177   2.807   4.683   6.069
   93SOL    HW1 1178   2.821   4.585   6.076
   93SOL    HW2 1179   2.842   4.717   5.982
   94SOL     OW 1180   3.165   5.376   6.797
   94SOL    HW1 1181   3.206   5.459   6.835
   94SOL    HW2 1182   3.112   5.400   6.716
   95SOL     OW 1183   0.615   1.770   4.124
   95SOL    HW1 1184   0.630   1.755   4.026
   95SOL    HW2 1185   0.632   1.684   4.173
   96SOL     OW 1186   2.642   0.059   5.860
   96SOL    HW1 1187   2.569   7.016   5.870
   96SOL    HW2 1188   2.729   0.012   5.842
   97SOL     OW 1189   6.963   3.932   4.833
   97SOL    HW1 1190   6.946   3.836   4.812
   97SOL    HW2 1191   0.027   3.942   4.880
   98SOL     OW 1192   6.061   3.430   6.658
   98SOL    HW1 1193   6.085   3.524   6.683
   98SOL    HW2 1194   5.995   3.394   6.724
   99SOL     OW 1195   4.252   3.021   1.119
   99SOL    HW1 1196   4.201   2.990   1.199
   99SOL    HW2 1197   4.350   3.023   1.141
  100SOL     OW 1198   0.410   6.873   6.598
  100SOL    HW1 1199   0.392   6.891   6.501
  100SOL    HW2 1200   0.509   6.868   6.613
  101SOL     OW 1201   0.698   5.788   2.670
  101SOL    HW1 1202   0.775   5.833   2.624
  101SOL    HW2 1203   0.731   5.735   2.747
  102SOL     OW 1204   4.329   1.096   2.997
  102SOL    HW1 1205   4.411   1.145   2.967
  102SOL    HW2 1206   4.353   1.001   3.018
  103SOL     OW 1207   4.417   1.357   1.440
  103SOL    HW1 1208   4.451   1.419   1.512
  103SOL    HW2 1209   4.394   1.410   1.359
  104SOL     OW 1210   6.708   5.591   2.923
  104SOL    HW1 1211   6.695   5.578   3.022
  104SOL    HW2 1212   6.735   5.504   2.882
  105SOL     OW 1213   6.479   1.252   6.902
  105SOL    HW1 1214   6.562   1.294   6.939
  105SOL    HW2 1215   6.399   1.300   6.937
  106SOL     OW 1216   3.040   6.706   6.435
  106SOL    HW1 1217   3.122   6.714   6.492
  106SOL    HW2 1218   2.965   6.758   6.476
  107SOL     OW 1219   1.740   2.591   1.705
  107SOL    HW1 1220   1.699   2.617   1.618
  107SOL    HW2 1221   1.778   2.499   1.698
  108SOL     OW 1222   4.650   4.449   6.924
  108SOL    HW1 1223   4.608   4.396   6.851
  108SOL    HW2 1224   4.582   4.512   6.962
  109SOL     OW 1225   0.788   0.478   1.453
  109SOL    HW1 1226   0.852   0.482   1.530
  109SOL    HW2 1227   0.801   0.558   1.395
  110SOL     OW 1228   4.307   5.904   5.286
  110SOL    HW1 1229   4.268   5.990   5.317
  110SOL    HW2 1230   4.292   5.834   5.356
  111SOL     OW 1231   4.098   0.508   3.951
  111SOL    HW1 1232   4.021   0.444   3.940
  111SOL    HW2 1233   4.173   0.462   3.998
  112SOL     OW 1234   5.627   5.564   5.869
  112SOL    HW1 1235   5.690   5.586   5.795
  112SOL    HW2 1236   5.596   5.648   5.912
  113SOL     OW 1237   6.408   4.644   3.355
  113SOL    HW1 1238   6.362   4.557   3.340
  113SOL    HW2 1239   6.434   4.684   3.267
  114SOL     OW 1240   1.102   0.444   0.850
  114SOL    HW1 1241   1.092   0.510   0.775
  114SOL    HW2 1242   1.111   0.493   0.936
  115SOL     OW 1243   4.653   0.909   4.081
  115SOL    HW1 1244   4.705   0.909   3.995
  115SOL    HW2 1245   4.673   0.993   4.131
  116SOL     OW 1246   5.840   5.028   2.135
  116SOL    HW1 1247   5.903   5.101   2.109
  116SOL    HW2 1248   5.749   5.050   2.100
  117SOL     OW 1249   0.625   1.341   6.490
  117SOL    HW1 1250   0.610   1.246   6.464
  117SOL    HW2 1251   0.723   1.360   6.488
  118SOL     OW 1252   0.086   1.188   1.880
  118SOL    HW1 1253   7.016   1.160   1.863
  118SOL    HW2 1254   0.087   1.265   1.944
  119SOL     OW 1255   0.123   2.462   6.415
  119SOL    HW1 1256   0.128   2.367   6.446
  119SOL    HW2 1257   0.048   2.508   6.462
  120SOL     OW 1258   6.702   6.850   1.282
  120SOL    HW1 1259   6.628   6.868   1.346
  120SOL    HW2 1260   6.762   6.779   1.318
  121SOL     OW 1261   2.412   3.920   6.933
  121SOL    HW1 1262   2.319   3.906   6.901
  121SOL    HW2 1263   2.442   3.839   6.983
  122SOL     OW 1264   1.546   3.765   5.919
  122SOL    HW1 1265   1.546   3.751   6.019
  122SOL    HW2 1266   1.504   3.685   5.875
  123SOL     OW 1267   0.196   2.082   1.140
  123SOL    HW1 1268   0.155   1.991   1.135
  123SOL    HW2 1269   0.294   2.075   1.120
  124SOL     OW 1270   5.560   3.292   0.024
  124SOL    HW1 1271   5.581   3.196   0.044
  124SOL    HW2 1272   5.630   3.350   0.066
  125SOL     OW 1273   2.308   1.856   2.731
  125SOL    HW1 1274   2.387   1.909   2.764
  125SOL    HW2 1275   2.340   1.778   2.678
  126SOL     OW 1276   3.069   5.051   1.025
  126SOL    HW1 1277   3.155   5.001   1.031
  126SOL    HW2 1278   3.070   5.108   0.943
  127SOL     OW 1279   6.954   4.779   6.112
  127SOL    HW1 1280   6.887   4.728   6.165
  127SOL    HW2 1281   0.020   4.774   6.157
  128SOL     OW 1282   4.345   2.773   1.694
  128SOL    HW1 1283   4.431   2.726   1.713
  128SOL    HW2 1284   4.360   2.872   1.693
  129SOL     OW 1285   4.307   3.329   5.834
  129SOL    HW1 1286   4.386   3.305   5.777
  129SOL    HW2 1287   4.337   3.338   5.929
  130SOL     OW 1288   0.641   0.806   4.423
  130SOL    HW1 1289   0.559   0.762   4.387
  130SOL    HW2 1290   0.698   0.839   4.348
  131SOL     OW 1291   4.861   1.275   2.675
  131SOL    HW1 1292   4.927   1.255   2.747
  131SOL    HW2 1293   4.882   1.364   2.634
  132SOL     OW 1294   1.325   3.164   0.681
  132SOL    HW1 1295   1.323   3.064   0.672
  132SOL    HW2 1296   1.412   3.198   0.646
  133SOL     OW 1297   5.753   6.682   3.464
  133SOL    HW1 1298   5.695   6.696   3.384
  133SOL    HW2 1299   5.830   6.623   3.440
  134SOL     OW 1300   5.694   2.597   2.720
  134SOL    HW1 1301   5.620   2.547   2.765
  134SOL    HW2 1302   5.778   2.586   2.773
  135SOL     OW 1303   4.874   2.074   2.977
  135SOL    HW1 1304   4.915   2.110   2.894
  135SOL    HW2 1305   4.914   2.119   3.057
  136SOL     OW 1306   4.683   4.345   6.348
  136SOL    HW1 1307   4.627   4.412   6.396
  136SOL    HW2 1308   4.711   4.384   6.260
  137SOL     OW 1309   4.110   0.204   5.700
  137SOL    HW1 1310   4.158   0.116   5.704
  137SOL    HW2 1311   4.021   0.196   5.744
  138SOL     OW 1312   0.241   4.826   3.985
  138SOL    HW1 1313   0.306   4.885   3.937
  138SOL    HW2 1314   0.215   4.750   3.924
  139SOL     OW 1315   2.285   6.120   5.449
  139SOL    HW1 1316   2.274   6.022   5.465
  139SOL    HW2 1317   2.378   6.148   5.474
  140SOL     OW 1318   6.623   5.242   4.491
  140SOL    HW1 1319   6.676   5.167   4.451
  140SOL    HW2 1320   6.543   5.206   4.539
  141SOL     OW 1321   0.433   1.751   5.317
  141SOL    HW1 1322   0.392   1.731   5.228
  141SOL    HW2 1323   0.396   1.687   5.385
  142SOL     OW 1324   2.036   6.302   1.218
  142SOL    HW1 1325   2.069   6.344   1.133
  142SOL    HW2 1326   1.994   6.372   1.275
  143SOL     OW 1327   5.567   4.366   2.186
  143SOL    HW1 1328   5.532   4.458   2.172
  143SOL    HW2 1329   5.491   4.301   2.184
  144SOL     OW 1330   1.659   6.618   6.092
  144SOL    HW1 1331   1.753   6.586   6.089
  144SOL    HW2 1332   1.611   6.572   6.167
  145SOL     OW 1333   1.250   5.327   0.861
  145SOL    HW1 1334   1.158   5.317   0.899
  145SOL    HW2 1335   1.311   5.366   0.929
  146SOL     OW 1336   4.356   6.112   6.442
  146SOL    HW1 1337   4.428   6.170   6.403
  146SOL    HW2 1338   4.308   6.163   6.513
  147SOL     OW 1339   6.292   2.833   0.584
  147SOL    HW1 1340   6.341   2.750   0.557
  147SOL    HW2 1341   6.323   2.862   0.675
  148SOL     OW 1342   0.291   4.747   5.624
  148SOL    HW1 1343   0.331   4.697   5.701
  148SOL    HW2 1344   0.359   4.755   5.551
  149SOL     OW 1345   2.858   1.219   4.152
  149SOL    HW1 1346   2.894   1.305   4.115
  149SOL    HW2 1347   2.868   1.218   4.251
  150SOL     OW 1348   6.718   4.948   6.058
  150SOL    HW1 1349   6.685   5.021   5.999
  150SOL    HW2 1350   6.808   4.917   6.026
  151SOL     OW 1351   3.636   2.416   1.365
  151SOL    HW1 1352   3.734   2.414   1.342
  151SOL    HW2 1353   3.613   2.333   1.416
  152SOL     OW 1354   2.062   0.909   4.565
  152SOL    HW1 1355   2.018   0.821   4.585
  152SOL    HW2 1356   2.004   0.984   4.598
  153SOL     OW 1357   2.439   0.016   2.034
  153SOL    HW1 1358   2.531   7.001   2.043
  153SOL    HW2 1359   2.438   0.109   2.070
  154SOL     OW 1360   6.791   2.843   1.976
  154SOL    HW1 1361   6.823   2.900   2.052
  154SOL    HW2 1362   6.782   2.900   1.894
  155SOL     OW 1363   0.339   1.263   3.659
  155SOL    HW1 1364   0.310   1.326   3.587
  155SOL    HW2 1365   0.423   1.216   3.631
  156SOL     OW 1366   6.704   1.480   1.567
  156SOL    HW1 1367   6.794   1.461   1.528
  156SOL    HW2 1368   6.665   1.396   1.605
  157SOL     OW 1369   6.192   3.545   2.086
  157SOL    HW1 1370   6.207   3.623   2.026
  157SOL    HW2 1371   6.247   3.468   2.055
  158SOL     OW 1372   2.958   0.287   2.097
  158SOL    HW1 1373   3.028   0.291   2.168
  158SOL    HW2 1374   2.915   0.197   2.096
  159SOL     OW 1375   4.885   4.719   1.290
  159SOL    HW1 1376   4.846   4.731   1.381
  159SOL    HW2 1377   4.844   4.785   1.227
  160SOL     OW 1378   6.697   4.663   6.555
  160SOL    HW1 1379   6.701   4.744   6.613
  160SOL    HW2 1380   6.645   4.591   6.601
  161SOL     OW 1381   1.820   5.170   4.950
  161SOL    HW1 1382   1.896   5.105   4.938
  161SOL    HW2 1383   1.832   5.247   4.887
  162SOL     OW 1384   4.002   6.598   0.277
  162SOL    HW1 1385   4.055   6.643   0.349
  162SOL    HW2 1386   4.059   6.587   0.195
  163SOL     OW 1387   4.483   6.101   1.419
  163SOL    HW1 1388   4.436   6.035   1.479
  163SOL    HW2 1389   4.581   6.083   1.420
  164SOL     OW 1390   6.973   3.907   1.415
  164SOL    HW1 1391   6.906   3.980   1.432
  164SOL    HW2 1392   6.924   3.823   1.392
  165SOL     OW 1393   5.020   2.952   0.938
  165SOL    HW1 1394   5.044   3.048   0.928
  165SOL    HW2 1395   4.936   2.933   0.887
  166SOL     OW 1396   0.095   5.443   3.733
  166SOL    HW1 1397   0.045   5.357   3.734
  166SOL    HW2 1398   0.159   5.443   3.656
  167SOL     OW 1399   5.803   2.112   0.241
  167SOL    HW1 1400   5.723   2.171   0.253
  167SOL    HW2 1401   5.777   2.017   0.258
  168SOL     OW 1402   2.729   4.052   0.709
  168SOL    HW1 1403   2.638   4.013   0.697
  168SOL    HW2 1404   2.791   3.983   0.745
  169SOL     OW 1405   3.324   0.149   1.715
  169SOL    HW1 1406   3.337   0.071   1.653
  169SOL    HW2 1407   3.297   0.229   1.662
  170SOL     OW 1408   0.871   1.937   4.408
  170SOL    HW1 1409   0.774   1.940   4.435
  170SOL    HW2 1410   0.892   1.847   4.370
  171SOL     OW 1411   3.457   3.971   0.039
  171SOL    HW1 1412   3.417   3.910   0.108
  171SOL    HW2 1413   3.466   4.063   0.077
  172SOL     OW 1414   6.137   1.563   4.551
  172SOL    HW1 1415   6.177   1.649   4.519
  172SOL    HW2 1416   6.051   1.546   4.503
  173SOL     OW 1417   6.859   0.377   4.252
  173SOL    HW1 1418   6.851   0.458   4.194
  173SOL    HW2 1419   6.926   0.395   4.325
  174SOL     OW 1420   3.072   5.315   3.674
  174SOL    HW1 1421   3.004   5.278   3.738
  174SOL    HW2 1422   3.057   5.414   3.663
  175SOL     OW 1423   1.810   6.781   1.870
  175SOL    HW1 1424   1.878   6.773   1.943
  175SOL    HW2 1425   1.732   6.722   1.891
  176SOL     OW 1426   2.398   4.142   1.027
  176SOL    HW1 1427   2.355   4.053   1.016
  176SOL    HW2 1428   2.498   4.132   1.024
  177SOL     OW 1429   5.772   2.728   3.434
  177SOL    HW1 1430   5.753   2.721   3.336
  177SOL    HW2 1431   5.814   2.816   3.454
  178SOL     OW 1432   4.649   3.984   6.148
  178SOL    HW1 1433   4.649   4.032   6.236
  178SOL    HW2 1434   4.715   3.910   6.150
  179SOL     OW 1435   2.865   1.396   6.338
  179SOL    HW1 1436   2.780   1.420   6.386
  179SOL    HW2 1437   2.940   1.451   6.374
  180SOL     OW 1438   1.098   1.196   6.567
  180SOL    HW1 1439   1.158   1.140   6.511
  180SOL    HW2 1440   1.021   1.141   6.599
  181SOL     OW 1441   3.443   2.009   6.986
  181SOL    HW1 1442   3.451   2.071   0.041
  181SOL    HW2 1443   3.379   1.935   7.008
  182SOL     OW 1444   4.337   2.335   4.327
  182SOL    HW1 1445   4.314   2.352   4.423
  182SOL    HW2 1446   4.418   2.387   4.302
  183SOL     OW 1447   3.693   0.202   2.292
  183SOL    HW1 1448   3.619   0.152   2.246
  183SOL    HW2 1449   3.663   0.231   2.383
  184SOL     OW 1450   1.580   5.809   3.594
  184SOL    HW1 1451   1.500   5.799   3.653
  184SOL    HW2 1452   1.617   5.901   3.603
  185SOL     OW 1453   1.371   2.950   6.601
  185SOL    HW1 1454   1.415   2.867   6.568
  185SOL    HW2 1455   1.424   2.987   6.678
  186SOL     OW 1456   6.648   0.863   3.329
  186SOL    HW1 1457   6.614   0.917   3.406
  186SOL    HW2 1458   6.734   0.819   3.356
  187SOL     OW 1459   5.253   0.906   3.737
  187SOL    HW1 1460   5.311   0.949   3.669
  187SOL    HW2 1461   5.273   0.808   3.741
  188SOL     OW 1462   6.003   2.596   3.400
  188SOL    HW1 1463   5.916   2.640   3.422
  188SOL    HW2 1464   6.038   2.633   3.314
  189SOL     OW 1465   1.606   5.723   2.705
  189SOL    HW1 1466   1.628   5.818   2.683
  189SOL    HW2 1467   1.657   5.695   2.786
  190SOL     OW 1468   3.708   1.227   4.874
  190SOL    HW1 1469   3.739   1.229   4.969
  190SOL    HW2 1470   3.608   1.237   4.871
  191SOL     OW 1471   5.718   5.072   6.119
  191SOL    HW1 1472   5.628   5.113   6.130
  191SOL    HW2 1473   5.772   5.089   6.202
  192SOL     OW 1474   0.185   6.714   1.848
  192SOL    HW1 1475   0.210   6.632   1.797
  192SOL    HW2 1476   0.188   6.793   1.787
  193SOL     OW 1477   4.891   2.910   6.682
  193SOL    HW1 1478   4.955   2.985   6.667
  193SOL    HW2 1479   4.939   2.833   6.725
  194SOL     OW 1480   3.645   0.892   2.931
  194SOL    HW1 1481   3.734   0.863   2.968
  194SOL    HW2 1482   3.649   0.895   2.832
  195SOL     OW 1483   1.581   6.062   3.781
  195SOL    HW1 1484   1.491   6.074   3.737
  195SOL    HW2 1485   1.577   6.098   3.874
  196SOL     OW 1486   2.283   2.480   0.199
  196SOL    HW1 1487   2.375   2.459   0.232
  196SOL    HW2 1488   2.270   2.579   0.197
  197SOL     OW 1489   2.134   2.033   1.146
  197SOL    HW1 1490   2.212   2.006   1.089
  197SOL    HW2 1491   2.143   2.130   1.170
  198SOL     OW 1492   4.353   0.813   3.392
  198SOL    HW1 1493   4.272   0.850   3.345
  198SOL    HW2 1494   4.413   0.889   3.419
  199SOL     OW 1495   1.638   2.807   4.104
  199SOL    HW1 1496   1.661   2.793   4.008
  199SOL    HW2 1497   1.545   2.843   4.111
  200SOL     OW 1498   0.683   2.054   1.037
  200SOL    HW1 1499   0.773   2.023   1.066
  200SOL    HW2 1500   0.693   2.135   0.979
  201SOL     OW 1501   0.276   0.901   5.709
  201SOL    HW1 1502   0.256   0.816   5.757
  201SOL    HW2 1503   0.370   0.900   5.674
  202SOL     OW 1504   4.704   0.797   6.464
  202SOL    HW1 1505   4.627   0.759   6.514
  202SOL    HW2 1506   4.687   0.894   6.444
  203SOL     OW 1507   5.781   2.586   5.325
  203SOL    HW1 1508   5.798   2.487   5.319
  203SOL    HW2 1509   5.749   2.609   5.417
  204SOL     OW 1510   0.493   0.030   5.926
  204SOL    HW1 1511   0.494   6.970   5.981
  204SOL    HW2 1512   0.420   0.025   5.859
  205SOL     OW 1513   1.146   2.277   2.687
  205SOL    HW1 1514   1.229   2.299   2.738
  205SOL    HW2 1515   1.141   2.178   2.671
  206SOL     OW 1516   0.415   3.089   1.551
  206SOL    HW1 1517   0.484   3.086   1.623
  206SOL    HW2 1518   0.367   3.002   1.546
  207SOL     OW 1519   5.005   1.571   3.159
  207SOL    HW1 1520   4.934   1.630   3.123
  207SOL    HW2 1521   5.070   1.548   3.087
  208SOL     OW 1522   6.966   4.059   5.367
  208SOL    HW1 1523   6.987   4.107   5.453
  208SOL    HW2 1524   6.946   4.127   5.296
  209SOL     OW 1525   6.506   4.540   2.361
  209SOL    HW1 1526   6.508   4.586   2.450
  209SOL    HW2 1527   6.540   4.602   2.290
  210SOL     OW 1528   4.193   2.371   0.330
  210SOL    HW1 1529   4.167   2.323   0.414
  210SOL    HW2 1530   4.270   2.432   0.349
  211SOL     OW 1531   1.789   0.443   2.875
  211SOL    HW1 1532   1.734   0.507   2.929
  211SOL    HW2 1533   1.883   0.442   2.910
  212SOL     OW 1534   1.308   3.743   2.372
  212SOL    HW1 1535   1.279   3.648   2.382
  212SOL    HW2 1536   1.399   3.746   2.330
  213SOL     OW 1537   1.607   6.351   1.217
  213SOL    HW1 1538   1.547   6.420   1.178
  213SOL    HW2 1539   1.630   6.376   1.311
  214SOL     OW 1540   4.106   5.222   2.275
  214SOL    HW1 1541   4.093   5.220   2.374
  214SOL    HW2 1542   4.189   5.273   2.254
  215SOL     OW 1543   2.685   4.695   1.240
  215SOL    HW1 1544   2.602   4.733   1.280
  215SOL    HW2 1545   2.764   4.723   1.294
  216SOL     OW 1546   1.203   0.565   2.894
  216SOL    HW1 1547   1.220   0.474   2.855
  216SOL    HW2 1548   1.255   0.576   2.978
  217SOL     OW 1549   1.144   2.741   5.692
  217SOL    HW1 1550   1.181   2.714   5.603
  217SOL    HW2 1551   1.207   2.712   5.764
  218SOL     OW 1552   1.029   1.769   5.205
  218SOL    HW1 1553   1.000   1.842   5.144
  218SOL    HW2 1554   0.956   1.702   5.214
  219SOL     OW 1555   3.918   0.755   0.126
  219SOL    HW1 1556   3.966   0.696   0.191
  219SOL    HW2 1557   3.895   0.842   0.170
  220SOL     OW 1558   3.145   0.625   0.848
  220SOL    HW1 1559   3.199   0.636   0.765
  220SOL    HW2 1560   3.163   0.702   0.909
  221SOL     OW 1561   6.070   4.855   1.138
  221SOL    HW1 1562   6.078   4.813   1.047
  221SOL    HW2 1563   5.987   4.912   1.140
  222SOL     OW 1564   1.286   4.483   6.694
  222SOL    HW1 1565   1.307   4.464   6.598
  222SOL    HW2 1566   1.187   4.496   6.705
  223SOL     OW 1567   0.031   2.841   5.447
  223SOL    HW1 1568   7.011   2.838   5.357
  223SOL    HW2 1569   0.043   2.936   5.475
  224SOL     OW 1570   3.477   2.183   5.826
  224SOL    HW1 1571   3.405   2.117   5.849
  224SOL    HW2 1572   3.452   2.273   5.862
  225SOL     OW 1573   4.687   3.727   5.889
  225SOL    HW1 1574   4.742   3.793   5.941
  225SOL    HW2 1575   4.676   3.760   5.795
  226SOL     OW 1576   0.955   1.653   6.589
  226SOL    HW1 1577   0.896   1.717   6.540
  226SOL    HW2 1578   0.930   1.653   6.686
  227SOL     OW 1579   2.177   4.091   2.873
  227SOL    HW1 1580   2.085   4.124   2.851
  227SOL    HW2 1581   2.182   3.992   2.855
  228SOL     OW 1582   2.059   0.843   3.339
  228SOL    HW1 1583   1.998   0.785   3.394
  228SOL    HW2 1584   2.023   0.852   3.247
  229SOL     OW 1585   5.062   4.779   6.595
  229SOL    HW1 1586   5.029   4.686   6.610
  229SOL    HW2 1587   5.099   4.816   6.680
  230SOL     OW 1588   4.593   6.099   4.500
  230SOL    HW1 1589   4.652   6.127   4.424
  230SOL    HW2 1590   4.648   6.085   4.582
  231SOL     OW 1591   5.547   1.293   0.240
  231SOL    HW1 1592   5.509   1.356   0.173
  231SOL    HW2 1593   5.474   1.238   0.280
  232SOL     OW 1594   0.158   2.896   6.696
  232SOL    HW1 1595   0.075   2.854   6.659
  232SOL    HW2 1596   0.159   2.993   6.672
  233SOL     OW 1597   3.034   2.056   3.545
  233SOL    HW1 1598   3.025   2.125   3.617
  233SOL    HW2 1599   2.959   1.990   3.553
  234SOL     OW 1600   5.729   1.136   6.058
  234SOL    HW1 1601   5.774   1.207   6.003
  234SOL    HW2 1602   5.738   1.158   6.155
  235SOL     OW 1603   5.078   2.856   2.726
  235SOL    HW1 1604   4.992   2.847   2.776
  235SOL    HW2 1605   5.130   2.932   2.763
  236SOL     OW 1606   4.683   3.673   6.771
  236SOL    HW1 1607   4.684   3.573   6.778
  236SOL    HW2 1608   4.776   3.708   6.768
  237SOL     OW 1609   0.049   4.495   2.401
  237SOL    HW1 1610   7.016   4.577   2.409
  237SOL    HW2 1611   7.023   4.416   2.438
  238SOL     OW 1612   6.492   1.180   0.668
  238SOL    HW1 1613   6.443   1.114   0.612
  238SOL    HW2 1614   6.469   1.167   0.765
  239SOL     OW 1615   0.846   4.134   0.350
  239SOL    HW1 1616   0.760   4.138   0.401
  239SOL    HW2 1617   0.837   4.069   0.274
  240SOL     OW 1618   0.011   3.319   3.343
  240SOL    HW1 1619   0.014   3.226   3.378
  240SOL    HW2 1620   0.047   3.382   3.412
  241SOL     OW 1621   2.724   2.280   4.320
  241SOL    HW1 1622   2.757   2.190   4.348
  241SOL    HW2 1623   2.692   2.329   4.401
  242SOL     OW 1624   3.504   3.681   3.583
  242SOL    HW1 1625   3.519   3.779   3.572
  242SOL    HW2 1626   3.578   3.642   3.638
  243SOL     OW 1627   4.613   1.686   6.872
  243SOL    HW1 1628   4.683   1.615   6.867
  243SOL    HW2 1629   4.532   1.655   6.821
  244SOL     OW 1630   6.062   3.333   6.319
  244SOL    HW1 1631   6.092   3.424   6.348
  244SOL    HW2 1632   6.036   3.280   6.400
  245SOL     OW 1633   3.581   1.798   3.917
  245SOL    HW1 1634   3.584   1.892   3.882
  245SOL    HW2 1635   3.674   1.764   3.931
  246SOL     OW 1636   5.023   1.919   3.503
  246SOL    HW1 1637   5.068   1.839   3.543
  246SOL    HW2 1638   5.072   2.001   3.531
  247SOL     OW 1639   2.807   1.889   0.792
  247SOL    HW1 1640   2.717   1.904   0.834
  247SOL    HW2 1641   2.812   1.796   0.757
  248SOL     OW 1642   2.563   1.193   2.850
  248SOL    HW1 1643   2.505   1.116   2.878
  248SOL    HW2 1644   2.636   1.160   2.791
  249SOL     OW 1645   5.090   6.679   5.281
  249SOL    HW1 1646   5.137   6.709   5.198
  249SOL    HW2 1647   5.025   6.606   5.258
  250SOL     OW 1648   3.946   3.512   0.702
  250SOL    HW1 1649   3.958   3.495   0.799
  250SOL    HW2 1650   3.970   3.430   0.650
  251SOL     OW 1651   4.743   3.389   5.350
  251SOL    HW1 1652   4.677   3.330   5.304
  251SOL    HW2 1653   4.744   3.479   5.305
  252SOL     OW 1654   6.393   0.113   5.476
  252SOL    HW1 1655   6.462   0.133   5.544
  252SOL    HW2 1656   6.336   0.193   5.461
  253SOL     OW 1657   3.771   4.803   5.731
  253SOL    HW1 1658   3.861   4.764   5.712
  253SOL    HW2 1659   3.710   4.732   5.766
  254SOL     OW 1660   6.777   2.229   3.650
  254SOL    HW1 1661   6.777   2.256   3.746
  254SOL    HW2 1662   6.721   2.293   3.597
  255SOL     OW 1663   1.420   4.874   5.783
  255SOL    HW1 1664   1.342   4.837   5.833
  255SOL    HW2 1665   1.503   4.824   5.807
  256SOL     OW 1666   5.737   3.041   5.994
  256SOL    HW1 1667   5.735   3.118   5.931
  256SOL    HW2 1668   5.783   3.068   6.078
  257SOL     OW 1669   5.474   6.908   3.119
  257SOL    HW1 1670   5.439   6.814   3.125
  257SOL    HW2 1671   5.465   6.952   3.208
  258SOL     OW 1672   2.222   4.212   5.609
  258SOL    HW1 1673   2.246   4.141   5.675
  258SOL    HW2 1674   2.251   4.183   5.517
  259SOL     OW 1675   5.291   0.876   1.939
  259SOL    HW1 1676   5.343   0.926   2.008
  259SOL    HW2 1677   5.291   0.778   1.961
  260SOL     OW 1678   3.799   5.068   3.367
  260SOL    HW1 1679   3.731   5.116   3.312
  260SOL    HW2 1680   3.753   5.001   3.425
  261SOL     OW 1681   5.598   4.870   1.330
  261SOL    HW1 1682   5.662   4.854   1.405
  261SOL    HW2 1683   5.506   4.842   1.358
  262SOL     OW 1684   1.769   4.110   0.974
  262SOL    HW1 1685   1.832   4.187   0.975
  262SOL    HW2 1686   1.698   4.123   1.043
  263SOL     OW 1687   1.172   0.335   4.279
  263SOL    HW1 1688   1.076   0.365   4.284
  263SOL    HW2 1689   1.210   0.332   4.372
  264SOL     OW 1690   6.573   2.962   0.603
  264SOL    HW1 1691   6.635   2.924   0.535
  264SOL    HW2 1692   6.481   2.923   0.591
  265SOL     OW 1693   6.010   6.591   3.079
  265SOL    HW1 1694   5.913   6.573   3.089
  265SOL    HW2 1695   6.033   6.679   3.119
  266SOL     OW 1696   4.627   3.199   5.944
  266SOL    HW1 1697   4.705   3.136   5.950
  266SOL    HW2 1698   4.614   3.228   5.849
  267SOL     OW 1699   1.122   0.929   5.375
  267SOL    HW1 1700   1.051   0.986   5.416
  267SOL    HW2 1701   1.206   0.936   5.429
  268SOL     OW 1702   3.235   1.192   6.046
  268SOL    HW1 1703   3.247   1.257   6.120
  268SOL    HW2 1704   3.270   1.231   5.961
  269SOL     OW 1705   3.403   2.580   0.457
  269SOL    HW1 1706   3.358   2.557   0.370
  269SOL    HW2 1707   3.502   2.575   0.445
  270SOL     OW 1708   0.586   6.493   0.258
  270SOL    HW1 1709   0.572   6.454   0.349
  270SOL    HW2 1710   0.683   6.512   0.245
  271SOL     OW 1711   0.216   1.692   6.497
  271SOL    HW1 1712   0.276   1.631   6.549
  271SOL    HW2 1713   0.138   1.640   6.463
  272SOL     OW 1714   3.543   6.318   3.728
  272SOL    HW1 1715   3.575   6.226   3.703
  272SOL    HW2 1716   3.443   6.317   3.737
  273SOL     OW 1717   1.594   5.101   5.326
  273SOL    HW1 1718   1.622   5.077   5.233
  273SOL    HW2 1719   1.536   5.028   5.363
  274SOL     OW 1720   3.650   0.918   3.587
  274SOL    HW1 1721   3.705   0.856   3.532
  274SOL    HW2 1722   3.553   0.895   3.576
  275SOL     OW 1723   0.118   6.476   2.580
  275SOL    HW1 1724   0.196   6.534   2.556
  275SOL    HW2 1725   0.098   6.415   2.503
  276SOL     OW 1726   0.650   6.750   3.794
  276SOL    HW1 1727   0.702   6.827   3.760
  276SOL    HW2 1728   0.571   6.734   3.734
  277SOL     OW 1729   1.637   3.578   6.891
  277SOL    HW1 1730   1.706   3.610   6.956
  277SOL    HW2 1731   1.599   3.492   6.923
  278SOL     OW 1732   0.289   3.286   2.643
  278SOL    HW1 1733   0.240   3.252   2.723
  278SOL    HW2 1734   0.385   3.256   2.647
  279SOL     OW 1735   5.225   2.900   4.419
  279SOL    HW1 1736   5.322   2.876   4.418
  279SOL    HW2 1737   5.211   2.984   4.471
  280SOL     OW 1738   2.274   5.503   1.433
  280SOL    HW1 1739   2.258   5.412   1.393
  280SOL    HW2 1740   2.291   5.569   1.359
  281SOL     OW 1741   2.233   4.544   1.718
  281SOL    HW1 1742   2.223   4.464   1.777
  281SOL    HW2 1743   2.305   4.604   1.754
  282SOL     OW 1744   3.118   1.158   5.047
  282SOL    HW1 1745   3.050   1.210   4.995
  282SOL    HW2 1746   3.193   1.130   4.987
  283SOL     OW 1747   5.793   2.728   6.726
  283SOL    HW1 1748   5.714   2.695   6.673
  283SOL    HW2 1749   5.762   2.761   6.815
  284SOL     OW 1750   0.787   3.639   3.828
  284SOL    HW1 1751   0.690   3.633   3.854
  284SOL    HW2 1752   0.827   3.548   3.827
  285SOL     OW 1753   5.593   4.736   3.942
  285SOL    HW1 1754   5.617   4.754   4.038
  285SOL    HW2 1755   5.673   4.753   3.884
  286SOL     OW 1756   3.260   4.153   6.751
  286SOL    HW1 1757   3.236   4.106   6.836
  286SOL    HW2 1758   3.333   4.103   6.705
  287SOL     OW 1759   1.472   3.455   1.294
  287SOL    HW1 1760   1.559   3.485   1.331
  287SOL    HW2 1761   1.453   3.505   1.209
  288SOL     OW 1762   3.777   1.454   6.389
  288SOL    HW1 1763   3.854   1.392   6.402
  288SOL    HW2 1764   3.804   1.528   6.328
  289SOL     OW 1765   1.714   4.606   5.462
  289SOL    HW1 1766   1.772   4.534   5.499
  289SOL    HW2 1767   1.633   4.617   5.519
  290SOL     OW 1768   0.062   1.765   5.276
  290SOL    HW1 1769   0.034   1.676   5.311
  290SOL    HW2 1770   0.053   1.766   5.176
  291SOL     OW 1771   1.081   1.560   3.892
  291SOL    HW1 1772   1.137   1.509   3.958
  291SOL    HW2 1773   0.995   1.588   3.936
  292SOL     OW 1774   2.150   0.583   3.440
  292SOL    HW1 1775   2.051   0.586   3.429
  292SOL    HW2 1776   2.174   0.611   3.533
  293SOL     OW 1777   4.961   5.825   4.109
  293SOL    HW1 1778   4.958   5.733   4.069
  293SOL    HW2 1779   4.897   5.828   4.187
  294SOL     OW 1780   5.045   6.105   6.723
  294SOL    HW1 1781   5.118   6.125   6.657
  294SOL    HW2 1782   4.968   6.063   6.676
  295SOL     OW 1783   4.862   0.773   3.288
  295SOL    HW1 1784   4.768   0.747   3.312
  295SOL    HW2 1785   4.885   0.735   3.198
  296SOL     OW 1786   3.386   1.378   2.946
  296SOL    HW1 1787   3.363   1.301   2.887
  296SOL    HW2 1788   3.365   1.354   3.041
  297SOL     OW 1789   1.723   3.963   2.938
  297SOL    HW1 1790   1.643   3.971   2.998
  297SOL    HW2 1791   1.805   3.950   2.994
  298SOL     OW 1792   6.206   5.652   0.939
  298SOL    HW1 1793   6.135   5.707   0.896
  298SOL    HW2 1794   6.257   5.603   0.868
  299SOL     OW 1795   6.345   2.378   4.719
  299SOL    HW1 1796   6.250   2.367   4.687
  299SOL    HW2 1797   6.401   2.415   4.644
  300SOL     OW 1798   6.216   0.498   3.030
  300SOL    HW1 1799   6.289   0.453   2.978
  300SOL    HW2 1800   6.247   0.588   3.060
  301SOL     OW 1801   5.759   3.673   7.023
  301SOL    HW1 1802   5.677   3.655   6.969
  301SOL    HW2 1803   5.828   3.717   6.966
  302SOL     OW 1804   0.849   0.451   3.811
  302SOL    HW1 1805   0.781   0.420   3.744
  302SOL    HW2 1806   0.803   0.484   3.893
  303SOL     OW 1807   5.065   0.897   2.890
  303SOL    HW1 1808   5.164   0.904   2.898
  303SOL    HW2 1809   5.032   0.817   2.941
  304SOL     OW 1810   2.544   0.122   3.402
  304SOL    HW1 1811   2.560   0.206   3.454
  304SOL    HW2 1812   2.589   0.129   3.313
  305SOL     OW 1813   0.989   4.150   6.881
  305SOL    HW1 1814   0.930   4.073   6.854
  305SOL    HW2 1815   0.998   4.153   6.980
  306SOL     OW 1816   2.505   0.932   3.741
  306SOL    HW1 1817   2.589   0.984   3.730
  306SOL    HW2 1818   2.473   0.939   3.836
  307SOL     OW 1819   4.432   0.301   0.860
  307SOL    HW1 1820   4.425   0.264   0.767
  307SOL    HW2 1821   4.342   0.303   0.903
  308SOL     OW 1822   1.192   6.205   3.272
  308SOL    HW1 1823   1.282   6.248   3.262
  308SOL    HW2 1824   1.162   6.170   3.183
  309SOL     OW 1825   3.554   4.463   5.453
  309SOL    HW1 1826   3.637   4.493   5.404
  309SOL    HW2 1827   3.479   4.524   5.431
  310SOL     OW 1828   0.290   6.529   5.554
  310SOL    HW1 1829   0.338   6.607   5.595
  310SOL    HW2 1830   0.203   6.516   5.600
  311SOL     OW 1831   0.131   5.944   1.491
  311SOL    HW1 1832   0.141   5.854   1.450
  311SOL    HW2 1833   0.075   6.002   1.433
  312SOL     OW 1834   5.178   1.408   5.076
  312SOL    HW1 1835   5.218   1.440   5.162
  312SOL    HW2 1836   5.251   1.396   5.008
  313SOL     OW 1837   2.060   4.364   1.996
  313SOL    HW1 1838   2.071   4.350   2.094
  313SOL    HW2 1839   1.986   4.430   1.980
  314SOL     OW 1840   3.392   5.501   0.385
  314SOL    HW1 1841   3.324   5.479   0.315
  314SOL    HW2 1842   3.428   5.593   0.369
  315SOL     OW 1843   0.540   2.503   3.349
  315SOL    HW1 1844   0.522   2.538   3.257
  315SOL    HW2 1845   0.549   2.579   3.413
  316SOL     OW 1846   2.349   2.809   3.752
  316SOL    HW1 1847   2.340   2.719   3.794
  316SOL    HW2 1848   2.421   2.861   3.798
  317SOL     OW 1849   6.773   1.602   0.122
  317SOL    HW1 1850   6.866   1.636   0.110
  317SOL    HW2 1851   6.763   1.515   0.074
  318SOL     OW 1852   1.478   4.313   0.540
  318SOL    HW1 1853   1.512   4.306   0.633
  318SOL    HW2 1854   1.513   4.397   0.498
  319SOL     OW 1855   1.435   0.324   1.038
  319SOL    HW1 1856   1.521   0.309   1.085
  319SOL    HW2 1857   1.363   0.269   1.081
  320SOL     OW 1858   6.517   3.160   1.030
  320SOL    HW1 1859   6.569   3.233   0.984
  320SOL    HW2 1860   6.562   3.072   1.013
  321SOL     OW 1861   1.715   2.247   2.030
  321SOL    HW1 1862   1.798   2.195   2.052
  321SOL    HW2 1863   1.730   2.343   2.053
  322SOL     OW 1864   3.637   2.849   5.084
  322SOL    HW1 1865   3.625   2.865   4.986
  322SOL    HW2 1866   3.562   2.791   5.118
  323SOL     OW 1867   6.857   4.192   0.837
  323SOL    HW1 1868   6.906   4.107   0.817
  323SOL    HW2 1869   6.796   4.178   0.915
  324SOL     OW 1870   0.885   3.233   4.588
  324SOL    HW1 1871   0.867   3.234   4.686
  324SOL    HW2 1872   0.958   3.168   4.568
  325SOL     OW 1873   2.116   2.820   1.967
  325SOL    HW1 1874   2.111   2.721   1.953
  325SOL    HW2 1875   2.025   2.859   1.953
  326SOL     OW 1876   1.748   6.278   6.758
  326SOL    HW1 1877   1.738   6.288   6.857
  326SOL    HW2 1878   1.826   6.334   6.727
  327SOL     OW 1879   6.308   4.761   5.204
  327SOL    HW1 1880   6.251   4.690   5.246
  327SOL    HW2 1881   6.253   4.843   5.189
  328SOL     OW 1882   4.686   4.771   1.939
  328SOL    HW1 1883   4.702   4.819   1.852
  328SOL    HW2 1884   4.630   4.689   1.921
  329SOL     OW 1885   3.391   3.728   3.268
  329SOL    HW1 1886   3.396   3.713   3.367
  329SOL    HW2 1887   3.393   3.640   3.221
  330SOL     OW 1888   3.414   6.837   1.416
  330SOL    HW1 1889   3.407   6.743   1.384
  330SOL    HW2 1890   3.329   6.862   1.463
  331SOL     OW 1891   4.774   5.114   5.963
  331SOL    HW1 1892   4.725   5.178   5.904
  331SOL    HW2 1893   4.766   5.021   5.925
  332SOL     OW 1894   3.045   1.614   3.861
  332SOL    HW1 1895   3.090   1.663   3.935
  332SOL    HW2 1896   3.031   1.676   3.783
  333SOL     OW 1897   3.965   6.196   5.750
  333SOL    HW1 1898   4.062   6.209   5.772
  333SOL    HW2 1899   3.922   6.285   5.735
  334SOL     OW 1900   3.468   0.014   2.252
  334SOL    HW1 1901   3.369   0.012   2.243
  334SOL    HW2 1902   3.510   7.004   2.168
  335SOL     OW 1903   3.459   5.613   3.470
  335SOL    HW1 1904   3.366   5.622   3.436
  335SOL    HW2 1905   3.507   5.700   3.460
  336SOL     OW 1906   3.260   1.124   3.390
  336SOL    HW1 1907   3.211   1.193   3.338
  336SOL    HW2 1908   3.221   1.117   3.482
  337SOL     OW 1909   0.324   3.609   1.754
  337SOL    HW1 1910   0.233   3.607   1.796
  337SOL    HW2 1911   0.393   3.584   1.822
  338SOL     OW 1912   2.536   2.867   1.711
  338SOL    HW1 1913   2.444   2.830   1.696
  338SOL    HW2 1914   2.535   2.965   1.693
  339SOL     OW 1915   4.092   6.619   2.878
  339SOL    HW1 1916   4.118   6.711   2.907
  339SOL    HW2 1917   4.014   6.587   2.933
  340SOL     OW 1918   4.885   3.750   4.555
  340SOL    HW1 1919   4.846   3.748   4.648
  340SOL    HW2 1920   4.876   3.842   4.518
  341SOL     OW 1921   5.688   5.512   4.045
  341SOL    HW1 1922   5.782   5.546   4.040
  341SOL    HW2 1923   5.641   5.554   4.123
  342SOL     OW 1924   5.794   5.165   0.565
  342SOL    HW1 1925   5.698   5.161   0.538
  342SOL    HW2 1926   5.850   5.190   0.486
  343SOL     OW 1927   3.665   6.639   1.767
  343SOL    HW1 1928   3.692   6.712   1.705
  343SOL    HW2 1929   3.740   6.573   1.775
  344SOL     OW 1930   1.944   5.354   0.538
  344SOL    HW1 1931   1.975   5.435   0.587
  344SOL    HW2 1932   1.861   5.318   0.581
  345SOL     OW 1933   1.091   0.570   5.386
  345SOL    HW1 1934   1.032   0.648   5.364
  345SOL    HW2 1935   1.099   0.511   5.306
  346SOL     OW 1936   1.469   0.239   3.330
  346SOL    HW1 1937   1.519   0.160   3.294
  346SOL    HW2 1938   1.455   0.227   3.428
  347SOL     OW 1939   5.491   6.902   6.574
  347SOL    HW1 1940   5.586   6.900   6.604
  347SOL    HW2 1941   5.476   6.835   6.502
  348SOL     OW 1942   3.820   5.257   1.113
  348SOL    HW1 1943   3.839   5.193   1.038
  348SOL    HW2 1944   3.738   5.227   1.162
  349SOL     OW 1945   0.380   4.874   2.317
  349SOL    HW1 1946   0.317   4.950   2.336
  349SOL    HW2 1947   0.352   4.828   2.232
  350SOL     OW 1948   3.681   3.530   1.257
  350SOL    HW1 1949   3.618   3.457   1.282
  350SOL    HW2 1950   3.671   3.606   1.321
  351SOL     OW 1951   2.628   1.736   0.144
  351SOL    HW1 1952   2.551   1.746   0.081
  351SOL    HW2 1953   2.659   1.827   0.173
  352SOL     OW 1954   3.372   0.274   5.787
  352SOL    HW1 1955   3.298   0.255   5.851
  352SOL    HW2 1956   3.433   0.343   5.825
  353SOL     OW 1957   1.537   5.901   0.960
  353SOL    HW1 1958   1.602   5.954   1.014
  353SOL    HW2 1959   1.558   5.912   0.863
  354SOL     OW 1960   4.345   1.375   0.212
  354SOL    HW1 1961   4.359   1.289   0.261
  354SOL    HW2 1962   4.259   1.370   0.160
  355SOL     OW 1963   7.008   3.369   2.282
  355SOL    HW1 1964   7.005   3.464   2.253
  355SOL    HW2 1965   6.946   3.356   2.360
  356SOL     OW 1966   4.044   5.034   3.733
  356SOL    HW1 1967   4.095   4.956   3.696
  356SOL    HW2 1968   4.101   5.085   3.796
  357SOL     OW 1969   0.403   5.701   5.266
  357SOL    HW1 1970   0.479   5.752   5.304
  357SOL    HW2 1971   0.329   5.695   5.333
  358SOL     OW 1972   5.566   0.452   1.791
  358SOL    HW1 1973   5.504   0.471   1.715
  358SOL    HW2 1974   5.659   0.441   1.757
  359SOL     OW 1975   1.607   2.135   2.442
  359SOL    HW1 1976   1.553   2.201   2.390
  359SOL    HW2 1977   1.589   2.148   2.540
  360SOL     OW 1978   4.706   6.837   7.001
  360SOL    HW1 1979   4.696   6.752   0.030
  360SOL    HW2 1980   4.616   6.870   6.973
  361SOL     OW 1981   5.332   6.319   2.757
  361SOL    HW1 1982   5.360   6.223   2.769
  361SOL    HW2 1983   5.290   6.330   2.667
  362SOL     OW 1984   3.407   3.786   0.961
  362SOL    HW1 1985   3.453   3.714   0.908
  362SOL    HW2 1986   3.321   3.751   0.998
  363SOL     OW 1987   4.427   5.304   3.992
  363SOL    HW1 1988   4.422   5.270   4.086
  363SOL    HW2 1989   4.397   5.400   3.990
  364SOL     OW 1990   1.523   5.390   6.087
  364SOL    HW1 1991   1.461   5.350   6.019
  364SOL    HW2 1992   1.591   5.321   6.114
  365SOL     OW 1993   5.233   6.481   1.777
  365SOL    HW1 1994   5.329   6.481   1.751
  365SOL    HW2 1995   5.182   6.417   1.719
  366SOL     OW 1996   5.783   1.005   6.878
  366SOL    HW1 1997   5.863   1.019   6.820
  366SOL    HW2 1998   5.777   0.908   6.904
  367SOL     OW 1999   5.420   3.152   1.285
  367SOL    HW1 2000   5.404   3.242   1.325
  367SOL    HW2 2001   5.512   3.148   1.245
  368SOL     OW 2002   1.369   4.637   5.294
  368SOL    HW1 2003   1.366   4.579   5.213
  368SOL    HW2 2004   1.408   4.586   5.371
  369SOL     OW 2005   0.667   4.298   1.945
  369SOL    HW1 2006   0.656   4.312   1.846
  369SOL    HW2 2007   0.580   4.265   1.983
  370SOL     OW 2008   2.948   1.474   5.471
  370SOL    HW1 2009   2.857   1.515   5.477
  370SOL    HW2 2010   2.940   1.375   5.465
  371SOL     OW 2011   2.992   3.675   6.968
  371SOL    HW1 2012   3.005   3.667   6.869
  371SOL    HW2 2013   3.079   3.657   7.014
  372SOL     OW 2014   0.163   6.751   5.957
  372SOL    HW1 2015   0.151   6.688   6.034
  372SOL    HW2 2016   0.145   6.703   5.871
  373SOL     OW 2017   0.349   6.207   0.538
  373SOL    HW1 2018   0.265   6.201   0.593
  373SOL    HW2 2019   0.324   6.217   0.441
  374SOL     OW 2020   3.365   0.589   1.786
  374SOL    HW1 2021   3.430   0.514   1.800
  374SOL    HW2 2022   3.313   0.572   1.702
  375SOL     OW 2023   6.810   5.086   3.545
  375SOL    HW1 2024   6.713   5.071   3.566
  375SOL    HW2 2025   6.862   5.003   3.565
  376SOL     OW 2026   2.033   2.818   4.111
  376SOL    HW1 2027   2.066   2.727   4.135
  376SOL    HW2 2028   2.034   2.876   4.192
  377SOL     OW 2029   4.994   2.215   3.177
  377SOL    HW1 2030   4.923   2.183   3.240
  377SOL    HW2 2031   5.077   2.236   3.228
  378SOL     OW 2032   4.513   3.235   5.343
  378SOL    HW1 2033   4.418   3.263   5.329
  378SOL    HW2 2034   4.523   3.138   5.322
  379SOL     OW 2035   5.466   3.852   1.130
  379SOL    HW1 2036   5.429   3.761   1.151
  379SOL    HW2 2037   5.454   3.870   1.032
  380SOL     OW 2038   1.754   1.824   1.207
  380SOL    HW1 2039   1.710   1.907   1.174
  380SOL    HW2 2040   1.770   1.831   1.306
  381SOL     OW 2041   3.234   4.339   0.958
  381SOL    HW1 2042   3.149   4.357   1.006
  381SOL    HW2 2043   3.261   4.420   0.906
  382SOL     OW 2044   3.341   5.897   0.589
  382SOL    HW1 2045   3.403   5.819   0.595
  382SOL    HW2 2046   3.313   5.925   0.680
  383SOL     OW 2047   6.721   2.614   0.527
  383SOL    HW1 2048   6.754   2.681   0.594
  383SOL    HW2 2049   6.683   2.663   0.448
  384SOL     OW 2050   0.828   5.278   4.951
  384SOL    HW1 2051   0.924   5.277   4.922
  384SOL    HW2 2052   0.821   5.321   5.041
  385SOL     OW 2053   4.441   6.295   0.291
  385SOL    HW1 2054   4.399   6.250   0.212
  385SOL    HW2 2055   4.404   6.256   0.375
  386SOL     OW 2056   3.612   6.249   5.591
  386SOL    HW1 2057   3.591   6.152   5.579
  386SOL    HW2 2058   3.626   6.291   5.501
  387SOL     OW 2059   0.288   0.697   5.279
  387SOL    HW1 2060   0.307   0.792   5.305
  387SOL    HW2 2061   0.374   0.646   5.276
  388SOL     OW 2062   0.019   2.476   5.236
  388SOL    HW1 2063   6.958   2.424   5.219
  388SOL    HW2 2064   7.022   2.573   5.238
  389SOL     OW 2065   4.223   4.651   1.171
  389SOL    HW1 2066   4.157   4.576   1.179
  389SOL    HW2 2067   4.215   4.712   1.250
  390SOL     OW 2068   3.482   1.840   0.480
  390SOL    HW1 2069   3.465   1.762   0.540
  390SOL    HW2 2070   3.557   1.818   0.418
  391SOL     OW 2071   3.036   4.046   6.310
  391SOL    HW1 2072   2.955   4.086   6.353
  391SOL    HW2 2073   3.049   4.087   6.219
  392SOL     OW 2074   1.133   3.478   1.845
  392SOL    HW1 2075   1.156   3.449   1.752
  392SOL    HW2 2076   1.181   3.421   1.911
  393SOL     OW 2077   1.070   4.673   1.281
  393SOL    HW1 2078   0.981   4.654   1.322
  393SOL    HW2 2079   1.101   4.594   1.228
  394SOL     OW 2080   6.585   1.132   6.192
  394SOL    HW1 2081   6.513   1.173   6.247
  394SOL    HW2 2082   6.669   1.184   6.203
  395SOL     OW 2083   5.649   4.658   1.107
  395SOL    HW1 2084   5.615   4.697   1.193
  395SOL    HW2 2085   5.622   4.717   1.031
  396SOL     OW 2086   2.780   1.340   2.629
  396SOL    HW1 2087   2.758   1.426   2.675
  396SOL    HW2 2088   2.797   1.268   2.697
  397SOL     OW 2089   4.196   1.793   5.283
  397SOL    HW1 2090   4.257   1.851   5.228
  397SOL    HW2 2091   4.152   1.726   5.225
  398SOL     OW 2092   2.517   1.240   4.537
  398SOL    HW1 2093   2.562   1.328   4.554
  398SOL    HW2 2094   2.578   1.165   4.561
  399SOL     OW 2095   5.940   6.329   3.924
  399SOL    HW1 2096   5.867   6.327   3.992
  399SOL    HW2 2097   5.919   6.397   3.854
  400SOL     OW 2098   6.670   0.597   4.842
  400SOL    HW1 2099   6.645   0.686   4.881
  400SOL    HW2 2100   6.658   0.526   4.911
  401SOL     OW 2101   6.753   5.597   5.793
  401SOL    HW1 2102   6.753   5.551   5.881
  401SOL    HW2 2103   6.772   5.695   5.806
  402SOL     OW 2104   6.893   0.348   2.322
  402SOL    HW1 2105   6.872   0.276   2.389
  402SOL    HW2 2106   6.808   0.390   2.291
  403SOL     OW 2107   2.702   0.956   5.560
  403SOL    HW1 2108   2.633   1.016   5.600
  403SOL    HW2 2109   2.674   0.929   5.469
  404SOL     OW 2110   4.152   4.773   4.119
  404SOL    HW1 2111   4.197   4.747   4.033
  404SOL    HW2 2112   4.215   4.757   4.195
  405SOL     OW 2113   2.806   4.766   3.893
  405SOL    HW1 2114   2.886   4.765   3.833
  405SOL    HW2 2115   2.723   4.775   3.839
  406SOL     OW 2116   0.510   5.697   5.975
  406SOL    HW1 2117   0.609   5.683   5.974
  406SOL    HW2 2118   0.464   5.609   5.980
  407SOL     OW 2119   2.140   3.242   4.651
  407SOL    HW1 2120   2.095   3.326   4.680
  407SOL    HW2 2121   2.143   3.178   4.728
  408SOL     OW 2122   3.103   1.143   3.686
  408SOL    HW1 2123   3.025   1.162   3.626
  408SOL    HW2 2124   3.151   1.229   3.706
  409SOL     OW 2125   0.912   3.597   2.693
  409SOL    HW1 2126   0.948   3.668   2.753
  409SOL    HW2 2127   0.863   3.640   2.617
  410SOL     OW 2128   1.827   2.104   1.572
  410SOL    HW1 2129   1.764   2.105   1.649
  410SOL    HW2 2130   1.819   2.017   1.523
  411SOL     OW 2131   0.883   2.465   1.217
  411SOL    HW1 2132   0.902   2.428   1.126
  411SOL    HW2 2133   0.904   2.397   1.286
  412SOL     OW 2134   1.814   4.936   1.554
  412SOL    HW1 2135   1.719   4.969   1.558
  412SOL    HW2 2136   1.823   4.872   1.478
  413SOL     OW 2137   5.079   5.340   2.978
  413SOL    HW1 2138   5.169   5.369   3.009
  413SOL    HW2 2139   5.086   5.251   2.933
  414SOL     OW 2140   2.462   6.305   3.565
  414SOL    HW1 2141   2.366   6.301   3.592
  414SOL    HW2 2142   2.503   6.390   3.598
  415SOL     OW 2143   6.590   0.737   0.524
  415SOL    HW1 2144   6.547   0.648   0.541
  415SOL    HW2 2145   6.675   0.743   0.575
  416SOL     OW 2146   4.928   3.210   4.815
  416SOL    HW1 2147   5.021   3.177   4.829
  416SOL    HW2 2148   4.902   3.196   4.719
  417SOL     OW 2149   3.654   2.059   5.993
  417SOL    HW1 2150   3.593   2.110   5.932
  417SOL    HW2 2151   3.692   2.122   6.062
  418SOL     OW 2152   3.908   5.685   4.598
  418SOL    HW1 2153   4.007   5.702   4.603
  418SOL    HW2 2154   3.884   5.652   4.507
  419SOL     OW 2155   1.163   6.864   1.388
  419SOL    HW1 2156   1.216   6.784   1.414
  419SOL    HW2 2157   1.157   6.869   1.288
  420SOL     OW 2158   5.193   1.299   5.980
  420SOL    HW1 2159   5.290   1.308   5.956
  420SOL    HW2 2160   5.138   1.295   5.897
  421SOL     OW 2161   5.222   3.267   2.294
  421SOL    HW1 2162   5.226   3.358   2.253
  421SOL    HW2 2163   5.285   3.262   2.372
  422SOL     OW 2164   4.938   3.255   1.636
  422SOL    HW1 2165   4.939   3.210   1.725
  422SOL    HW2 2166   4.852   3.234   1.589
  423SOL     OW 2167   3.522   1.376   6.295
  423SOL    HW1 2168   3.611   1.398   6.336
  423SOL    HW2 2169   3.502   1.279   6.309
  424SOL     OW 2170   1.110   3.721   3.087
  424SOL    HW1 2171   1.152   3.746   3.175
  424SOL    HW2 2172   1.119   3.623   3.072
  425SOL     OW 2173   2.477   0.860   5.075
  425SOL    HW1 2174   2.518   0.853   5.166
  425SOL    HW2 2175   2.469   0.957   5.050
  426SOL     OW 2176   2.480   2.622   4.280
  426SOL    HW1 2177   2.447   2.542   4.330
  426SOL    HW2 2178   2.526   2.685   4.343
  427SOL     OW 2179   3.574   2.127   3.128
  427SOL    HW1 2180   3.568   2.142   3.227
  427SOL    HW2 2181   3.513   2.052   3.102
  428SOL     OW 2182   2.477   1.751   6.135
  428SOL    HW1 2183   2.420   1.812   6.190
  428SOL    HW2 2184   2.488   1.788   6.043
  429SOL     OW 2185   1.346   5.836   3.751
  429SOL    HW1 2186   1.336   5.934   3.765
  429SOL    HW2 2187   1.262   5.800   3.710
  430SOL     OW 2188   1.637   0.092   3.825
  430SOL    HW1 2189   1.543   0.125   3.827
  430SOL    HW2 2190   1.658   0.055   3.734
  431SOL     OW 2191   3.229   1.610   1.832
  431SOL    HW1 2192   3.262   1.668   1.906
  431SOL    HW2 2193   3.245   1.655   1.745
  432SOL     OW 2194   4.238   2.278   1.981
  432SOL    HW1 2195   4.222   2.367   2.023
  432SOL    HW2 2196   4.186   2.271   1.896
  433SOL     OW 2197   2.514   5.629   0.388
  433SOL    HW1 2198   2.593   5.597   0.335
  433SOL    HW2 2199   2.470   5.704   0.340
  434SOL     OW 2200   4.188   6.032   3.569
  434SOL    HW1 2201   4.178   6.120   3.522
  434SOL    HW2 2202   4.199   5.959   3.501
  435SOL     OW 2203   3.087   1.524   6.459
  435SOL    HW1 2204   3.126   1.581   6.531
  435SOL    HW2 2205   3.158   1.505   6.390
  436SOL     OW 2206   5.085   7.009   2.658
  436SOL    HW1 2207   5.177   6.983   2.685
  436SOL    HW2 2208   5.028   7.020   2.740
  437SOL     OW 2209   6.852   0.719   5.141
  437SOL    HW1 2210   6.896   0.631   5.157
  437SOL    HW2 2211   6.918   0.782   5.100
  438SOL     OW 2212   0.292   4.367   2.938
  438SOL    HW1 2213   0.385   4.356   2.974
  438SOL    HW2 2214   0.270   4.291   2.877
  439SOL     OW 2215   6.498   0.274   3.961
  439SOL    HW1 2216   6.545   0.218   4.030
  439SOL    HW2 2217   6.407   0.299   3.995
  440SOL     OW 2218   4.228   0.848   0.737
  440SOL    HW1 2219   4.229   0.750   0.757
  440SOL    HW2 2220   4.202   0.863   0.642
  441SOL     OW 2221   0.195   4.019   2.478
  441SOL    HW1 2222   0.172   3.962   2.399
  441SOL    HW2 2223   0.114   4.035   2.533
  442SOL     OW 2224   5.366   3.093   5.880
  442SOL    HW1 2225   5.344   3.071   5.785
  442SOL    HW2 2226   5.461   3.126   5.886
  443SOL     OW 2227   5.009   3.136   2.459
  443SOL    HW1 2228   4.940   3.073   2.425
  443SOL    HW2 2229   5.066   3.168   2.383
  444SOL     OW 2230   3.878   0.838   1.322
  444SOL    HW1 2231   3.791   0.790   1.310
  444SOL    HW2 2232   3.881   0.879   1.413
  445SOL     OW 2233   1.410   5.884   2.153
  445SOL    HW1 2234   1.472   5.963   2.150
  445SOL    HW2 2235   1.462   5.802   2.179
  446SOL     OW 2236   5.479   0.057   1.277
  446SOL    HW1 2237   5.410   0.116   1.319
  446SOL    HW2 2238   5.459   0.047   1.180
  447SOL     OW 2239   6.290   4.158   0.598
  447SOL    HW1 2240   6.304   4.252   0.568
  447SOL    HW2 2241   6.305   4.096   0.522
  448SOL     OW 2242   2.977   6.932   3.293
  448SOL    HW1 2243   3.054   6.871   3.275
  448SOL    HW2 2244   2.915   6.887   3.357
  449SOL     OW 2245   1.949   3.788   5.068
  449SOL    HW1 2246   2.024   3.853   5.065
  449SOL    HW2 2247   1.924   3.771   5.164
  450SOL     OW 2248   0.658   4.986   3.486
  450SOL    HW1 2249   0.654   5.018   3.580
  450SOL    HW2 2250   0.667   4.887   3.484
  451SOL     OW 2251   0.696   2.164   2.590
  451SOL    HW1 2252   0.766   2.170   2.519
  451SOL    HW2 2253   0.738   2.177   2.679
  452SOL     OW 2254   4.987   5.497   2.096
  452SOL    HW1 2255   4.998   5.532   2.003
  452SOL    HW2 2256   4.891   5.499   2.121
  453SOL     OW 2257   3.675   0.616   6.405
  453SOL    HW1 2258   3.651   0.713   6.401
  453SOL    HW2 2259   3.657   0.574   6.317
  454SOL     OW 2260   6.647   3.457   6.779
  454SOL    HW1 2261   6.728   3.505   6.813
  454SOL    HW2 2262   6.631   3.482   6.684
  455SOL     OW 2263   6.188   4.426   6.707
  455SOL    HW1 2264   6.138   4.503   6.747
  455SOL    HW2 2265   6.260   4.462   6.647
  456SOL     OW 2266   3.069   0.829   2.262
  456SOL    HW1 2267   3.127   0.846   2.182
  456SOL    HW2 2268   3.048   0.915   2.307
  457SOL     OW 2269   2.663   0.549   0.082
  457SOL    HW1 2270   2.571   0.520   0.056
  457SOL    HW2 2271   2.730   0.483   0.049
  458SOL     OW 2272   3.053   0.937   3.306
  458SOL    HW1 2273   3.061   0.846   3.266
  458SOL    HW2 2274   3.143   0.980   3.311
  459SOL     OW 2275   3.288   0.185   4.301
  459SOL    HW1 2276   3.323   0.240   4.377
  459SOL    HW2 2277   3.344   0.103   4.290
  460SOL     OW 2278   1.336   1.391   6.001
  460SOL    HW1 2279   1.348   1.410   6.099
  460SOL    HW2 2280   1.423   1.363   5.962
  461SOL     OW 2281   0.684   4.852   5.989
  461SOL    HW1 2282   0.621   4.774   5.995
  461SOL    HW2 2283   0.644   4.922   5.929
  462SOL     OW 2284   3.113   3.849   5.310
  462SOL    HW1 2285   3.072   3.931   5.351
  462SOL    HW2 2286   3.196   3.825   5.360
  463SOL     OW 2287   5.725   6.721   2.778
  463SOL    HW1 2288   5.738   6.807   2.827
  463SOL    HW2 2289   5.694   6.739   2.685
  464SOL     OW 2290   3.752   5.314   5.764
  464SOL    HW1 2291   3.769   5.412   5.778
  464SOL    HW2 2292   3.790   5.286   5.676
  465SOL     OW 2293   0.628   3.599   0.596
  465SOL    HW1 2294   0.672   3.601   0.685
  465SOL    HW2 2295   0.657   3.679   0.542
  466SOL     OW 2296   4.179   5.509   4.696
  466SOL    HW1 2297   4.199   5.596   4.651
  466SOL    HW2 2298   4.265   5.468   4.728
  467SOL     OW 2299   6.594   0.393   1.287
  467SOL    HW1 2300   6.684   0.363   1.318
  467SOL    HW2 2301   6.568   0.342   1.205
  468SOL     OW 2302   3.382   0.188   6.486
  468SOL    HW1 2303   3.377   0.288   6.488
  468SOL    HW2 2304   3.371   0.156   6.391
  469SOL     OW 2305   2.973   5.105   5.834
  469SOL    HW1 2306   3.070   5.099   5.811
  469SOL    HW2 2307   2.932   5.182   5.786
  470SOL     OW 2308   1.959   5.068   2.828
  470SOL    HW1 2309   1.888   5.002   2.805
  470SOL    HW2 2310   1.992   5.051   2.921
  471SOL     OW 2311   1.801   2.557   4.226
  471SOL    HW1 2312   1.758   2.645   4.205
  471SOL    HW2 2313   1.769   2.488   4.161
  472SOL     OW 2314   5.848   3.869   6.676
  472SOL    HW1 2315   5.841   3.776   6.642
  472SOL    HW2 2316   5.911   3.872   6.754
  473SOL     OW 2317   6.738   2.586   2.040
  473SOL    HW1 2318   6.807   2.540   2.097
  473SOL    HW2 2319   6.764   2.682   2.027
  474SOL     OW 2320   5.258   6.137   3.727
  474SOL    HW1 2321   5.216   6.203   3.788
  474SOL    HW2 2322   5.272   6.051   3.775
  475SOL     OW 2323   5.857   1.900   0.672
  475SOL    HW1 2324   5.849   1.999   0.685
  475SOL    HW2 2325   5.940   1.867   0.718
  476SOL     OW 2326   0.846   4.902   1.502
  476SOL    HW1 2327   0.783   4.954   1.561
  476SOL    HW2 2328   0.935   4.948   1.501
  477SOL     OW 2329   1.681   4.331   4.083
  477SOL    HW1 2330   1.721   4.364   4.169
  477SOL    HW2 2331   1.655   4.409   4.026
  478SOL     OW 2332   5.295   5.900   1.907
  478SOL    HW1 2333   5.296   5.874   2.004
  478SOL    HW2 2334   5.203   5.929   1.881
  479SOL     OW 2335   3.386   3.777   3.811
  479SOL    HW1 2336   3.344   3.860   3.774
  479SOL    HW2 2337   3.423   3.723   3.736
  480SOL     OW 2338   2.260   0.729   2.986
  480SOL    HW1 2339   2.233   0.659   3.052
  480SOL    HW2 2340   2.332   0.693   2.927
  481SOL     OW 2341   0.271   0.024   0.643
  481SOL    HW1 2342   0.288   0.097   0.576
  481SOL    HW2 2343   0.254   0.065   0.733
  482SOL     OW 2344   4.119   5.345   1.571
  482SOL    HW1 2345   4.120   5.390   1.481
  482SOL    HW2 2346   4.070   5.258   1.565
  483SOL     OW 2347   5.341   2.079   3.741
  483SOL    HW1 2348   5.427   2.098   3.788
  483SOL    HW2 2349   5.345   1.989   3.698
  484SOL     OW 2350   2.049   4.981   4.720
  484SOL    HW1 2351   2.087   5.005   4.810
  484SOL    HW2 2352   2.063   5.058   4.657
  485SOL     OW 2353   5.301   3.396   1.871
  485SOL    HW1 2354   5.299   3.318   1.808
  485SOL    HW2 2355   5.210   3.438   1.875
  486SOL     OW 2356   6.164   6.340   6.775
  486SOL    HW1 2357   6.106   6.287   6.712
  486SOL    HW2 2358   6.156   6.437   6.753
  487SOL     OW 2359   6.816   6.738   5.836
  487SOL    HW1 2360   6.892   6.675   5.823
  487SOL    HW2 2361   6.780   6.730   5.930
  488SOL     OW 2362   2.015   6.306   2.922
  488SOL    HW1 2363   2.062   6.295   2.835
  488SOL    HW2 2364   2.078   6.345   2.989
  489SOL     OW 2365   1.067   6.235   6.353
  489SOL    HW1 2366   1.023   6.152   6.318
  489SOL    HW2 2367   1.118   6.213   6.437
  490SOL     OW 2368   0.955   3.980   5.094
  490SOL    HW1 2369   1.027   3.948   5.033
  490SOL    HW2 2370   0.965   3.935   5.183
  491SOL     OW 2371   0.592   2.680   0.864
  491SOL    HW1 2372   0.501   2.723   0.866
  491SOL    HW2 2373   0.597   2.616   0.787
  492SOL     OW 2374   1.700   2.376   5.953
  492SOL    HW1 2375   1.658   2.421   6.032
  492SOL    HW2 2376   1.795   2.353   5.974
  493SOL     OW 2377   2.345   5.617   4.886
  493SOL    HW1 2378   2.252   5.651   4.895
  493SOL    HW2 2379   2.345   5.518   4.902
  494SOL     OW 2380   2.444   6.357   4.921
  494SOL    HW1 2381   2.377   6.383   4.851
  494SOL    HW2 2382   2.535   6.355   4.880
  495SOL     OW 2383   3.949   4.177   5.867
  495SOL    HW1 2384   3.998   4.098   5.906
  495SOL    HW2 2385   3.851   4.158   5.864
  496SOL     OW 2386   4.889   1.339   3.232
  496SOL    HW1 2387   4.889   1.270   3.160
  496SOL    HW2 2388   4.921   1.426   3.196
  497SOL     OW 2389   4.125   1.962   0.097
  497SOL    HW1 2390   4.185   1.882   0.097
  497SOL    HW2 2391   4.171   2.039   0.055
  498SOL     OW 2392   0.801   6.681   1.669
  498SOL    HW1 2393   0.823   6.769   1.627
  498SOL    HW2 2394   0.880   6.648   1.721
  499SOL     OW 2395   3.115   5.999   6.799
  499SOL    HW1 2396   3.181   5.924   6.809
  499SOL    HW2 2397   3.041   5.987   6.866
  500SOL     OW 2398   6.025   2.160   0.632
  500SOL    HW1 2399   6.048   2.164   0.535
  500SOL    HW2 2400   6.108   2.137   0.684
  501SOL     OW 2401   1.076   1.112   4.199
  501SOL    HW1 2402   1.173   1.135   4.209
  501SOL    HW2 2403   1.051   1.115   4.103
  502SOL     OW 2404   1.913   5.225   6.664
  502SOL    HW1 2405   1.894   5.229   6.762
  502SOL    HW2 2406   2.002   5.181   6.649
  503SOL     OW 2407   3.899   4.970   6.810
  503SOL    HW1 2408   3.956   5.023   6.747
  503SOL    HW2 2409   3.804   4.971   6.779
  504SOL     OW 2410   6.088   6.523   1.552
  504SOL    HW1 2411   6.181   6.541   1.582
  504SOL    HW2 2412   6.073   6.425   1.547
  505SOL     OW 2413   4.675   6.558   4.892
  505SOL    HW1 2414   4.630   6.623   4.832
  505SOL    HW2 2415   4.640   6.568   4.985
  506SOL     OW 2416   4.169   5.051   2.759
  506SOL    HW1 2417   4.188   4.953   2.747
  506SOL    HW2 2418   4.086   5.063   2.813
  507SOL     OW 2419   3.175   1.134   0.694
  507SOL    HW1 2420   3.118   1.082   0.631
  507SOL    HW2 2421   3.269   1.139   0.659
  508SOL     OW 2422   6.945   4.664   3.183
  508SOL    HW1 2423   6.948   4.756   3.223
  508SOL    HW2 2424   6.861   4.654   3.129
  509SOL     OW 2425   4.611   6.845   6.534
  509SOL    HW1 2426   4.700   6.889   6.543
  509SOL    HW2 2427   4.579   6.853   6.440
  510SOL     OW 2428   6.777   3.870   0.601
  510SOL    HW1 2429   6.695   3.863   0.658
  510SOL    HW2 2430   6.767   3.812   0.520
  511SOL     OW 2431   0.938   2.030   0.799
  511SOL    HW1 2432   1.002   2.061   0.868
  511SOL    HW2 2433   0.932   1.930   0.801
  512SOL     OW 2434   0.148   2.168   5.305
  512SOL    HW1 2435   0.171   2.125   5.392
  512SOL    HW2 2436   0.165   2.266   5.311
  513SOL     OW 2437   5.566   1.122   2.999
  513SOL    HW1 2438   5.582   1.046   2.935
  513SOL    HW2 2439   5.588   1.092   3.092
  514SOL     OW 2440   6.407   0.148   4.718
  514SOL    HW1 2441   6.484   0.086   4.704
  514SOL    HW2 2442   6.348   0.112   4.789
  515SOL     OW 2443   3.808   0.643   5.789
  515SOL    HW1 2444   3.905   0.660   5.774
  515SOL    HW2 2445   3.789   0.545   5.779
  516SOL     OW 2446   2.317   6.048   1.548
  516SOL    HW1 2447   2.385   6.120   1.533
  516SOL    HW2 2448   2.357   5.977   1.606
  517SOL     OW 2449   3.699   5.755   1.033
  517SOL    HW1 2450   3.698   5.853   1.053
  517SOL    HW2 2451   3.611   5.728   0.995
  518SOL     OW 2452   2.017   3.498   3.905
  518SOL    HW1 2453   1.947   3.430   3.883
  518SOL    HW2 2454   2.056   3.534   3.821
  519SOL     OW 2455   0.291   0.115   2.922
  519SOL    HW1 2456   0.213   0.106   2.984
  519SOL    HW2 2457   0.334   0.025   2.908
  520SOL     OW 2458   0.938   3.187   0.447
  520SOL    HW1 2459   1.032   3.162   0.423
  520SOL    HW2 2460   0.937   3.280   0.483
  521SOL     OW 2461   6.336   6.099   5.220
  521SOL    HW1 2462   6.242   6.076   5.195
  521SOL    HW2 2463   6.381   6.018   5.259
  522SOL     OW 2464   3.562   3.989   1.575
  522SOL    HW1 2465   3.502   3.953   1.647
  522SOL    HW2 2466   3.656   3.958   1.591
  523SOL     OW 2467   0.940   0.130   1.209
  523SOL    HW1 2468   0.944   0.124   1.109
  523SOL    HW2 2469   1.003   0.200   1.241
  524SOL     OW 2470   6.930   2.150   1.933
  524SOL    HW1 2471   6.955   2.132   1.838
  524SOL    HW2 2472   6.857   2.218   1.936
  525SOL     OW 2473   1.289   3.359   5.570
  525SOL    HW1 2474   1.318   3.309   5.651
  525SOL    HW2 2475   1.364   3.362   5.504
  526SOL     OW 2476   3.000   6.702   4.529
  526SOL    HW1 2477   3.009   6.641   4.608
  526SOL    HW2 2478   2.931   6.665   4.467
  527SOL     OW 2479   0.456   1.014   0.487
  527SOL    HW1 2480   0.471   1.077   0.563
  527SOL    HW2 2481   0.494   0.924   0.510
  528SOL     OW 2482   6.731   3.110   4.117
  528SOL    HW1 2483   6.663   3.120   4.044
  528SOL    HW2 2484   6.727   3.017   4.153
  529SOL     OW 2485   1.583   0.905   0.204
  529SOL    HW1 2486   1.659   0.936   0.260
  529SOL    HW2 2487   1.549   0.818   0.239
  530SOL     OW 2488   4.319   3.762   0.601
  530SOL    HW1 2489   4.359   3.735   0.689
  530SOL    HW2 2490   4.318   3.862   0.595
  531SOL     OW 2491   1.280   0.994   1.019
  531SOL    HW1 2492   1.378   0.974   1.018
  531SOL    HW2 2493   1.230   0.917   1.059
  532SOL     OW 2494   2.096   2.341   0.651
  532SOL    HW1 2495   2.192   2.364   0.632
  532SOL    HW2 2496   2.073   2.370   0.743
  533SOL     OW 2497   3.998   0.449   4.425
  533SOL    HW1 2498   3.991   0.548   4.415
  533SOL    HW2 2499   3.952   0.420   4.508
  534SOL     OW 2500   1.584   5.165   1.197
  534SOL    HW1 2501   1.679   5.185   1.222
  534SOL    HW2 2502   1.531   5.249   1.199
  535SOL     OW 2503   5.202   3.520   3.667
  535SOL    HW1 2504   5.129   3.464   3.708
  535SOL    HW2 2505   5.174   3.616   3.668
  536SOL     OW 2506   6.858   6.497   2.442
  536SOL    HW1 2507   6.866   6.483   2.541
  536SOL    HW2 2508   6.928   6.562   2.412
  537SOL     OW 2509   3.946   1.594   4.157
  537SOL    HW1 2510   3.868   1.590   4.219
  537SOL    HW2 2511   3.988   1.503   4.150
  538SOL     OW 2512   2.712   4.569   5.667
  538SOL    HW1 2513   2.690   4.667   5.672
  538SOL    HW2 2514   2.758   4.550   5.580
  539SOL     OW 2515   1.413   0.267   0.331
  539SOL    HW1 2516   1.372   0.347   0.374
  539SOL    HW2 2517   1.483   0.228   0.391
  540SOL     OW 2518   0.924   0.439   4.300
  540SOL    HW1 2519   0.879   0.481   4.378
  540SOL    HW2 2520   0.855   0.398   4.239
  541SOL     OW 2521   4.557   5.656   4.551
  541SOL    HW1 2522   4.517   5.657   4.643
  541SOL    HW2 2523   4.646   5.610   4.553
  542SOL     OW 2524   3.312   0.509   5.919
  542SOL    HW1 2525   3.370   0.558   5.855
  542SOL    HW2 2526   3.346   0.522   6.012
  543SOL     OW 2527   6.067   2.243   4.183
  543SOL    HW1 2528   6.000   2.303   4.227
  543SOL    HW2 2529   6.120   2.196   4.253
  544SOL     OW 2530   1.532   3.938   1.148
  544SOL    HW1 2531   1.512   4.036   1.145
  544SOL    HW2 2532   1.465   3.889   1.092
  545SOL     OW 2533   5.547   1.364   0.892
  545SOL    HW1 2534   5.451   1.348   0.872
  545SOL    HW2 2535   5.597   1.277   0.895
  546SOL     OW 2536   0.163   4.185   2.719
  546SOL    HW1 2537   0.182   4.097   2.674
  546SOL    HW2 2538   0.109   4.169   2.801
  547SOL     OW 2539   4.450   1.267   6.103
  547SOL    HW1 2540   4.548   1.256   6.092
  547SOL    HW2 2541   4.432   1.321   6.186
  548SOL     OW 2542   3.791   2.508   6.961
  548SOL    HW1 2543   3.696   2.540   6.962
  548SOL    HW2 2544   3.831   2.525   6.871
  549SOL     OW 2545   5.956   1.589   1.366
  549SOL    HW1 2546   6.033   1.547   1.415
  549SOL    HW2 2547   5.964   1.688   1.371
  550SOL     OW 2548   0.067   5.290   3.385
  550SOL    HW1 2549   0.089   5.242   3.470
  550SOL    HW2 2550   0.109   5.242   3.308
  551SOL     OW 2551   6.390   0.781   0.320
  551SOL    HW1 2552   6.444   0.747   0.398
  551SOL    HW2 2553   6.310   0.722   0.306
  552SOL     OW 2554   5.925   5.319   5.689
  552SOL    HW1 2555   6.005   5.317   5.749
  552SOL    HW2 2556   5.847   5.276   5.735
  553SOL     OW 2557   2.975   1.078   5.983
  553SOL    HW1 2558   3.045   1.100   6.051
  553SOL    HW2 2559   3.011   1.095   5.891
  554SOL     OW 2560   5.904   6.043   0.930
  554SOL    HW1 2561   5.899   6.142   0.917
  554SOL    HW2 2562   5.940   6.023   1.021
  555SOL     OW 2563   1.394   4.001   5.905
  555SOL    HW1 2564   1.410   3.904   5.923
  555SOL    HW2 2565   1.335   4.011   5.825
  556SOL     OW 2566   5.339   0.299   4.023
  556SOL    HW1 2567   5.343   0.398   4.012
  556SOL    HW2 2568   5.397   0.256   3.954
  557SOL     OW 2569   6.571   4.454   6.719
  557SOL    HW1 2570   6.635   4.377   6.724
  557SOL    HW2 2571   6.505   4.447   6.794
  558SOL     OW 2572   3.201   3.875   2.397
  558SOL    HW1 2573   3.179   3.931   2.477
  558SOL    HW2 2574   3.119   3.828   2.365
  559SOL     OW 2575   6.289   6.647   5.734
  559SOL    HW1 2576   6.312   6.741   5.760
  559SOL    HW2 2577   6.204   6.647   5.681
  560SOL     OW 2578   6.571   3.233   2.885
  560SOL    HW1 2579   6.579   3.307   2.952
  560SOL    HW2 2580   6.508   3.164   2.918
  561SOL     OW 2581   0.684   2.857   6.783
  561SOL    HW1 2582   0.703   2.851   6.881
  561SOL    HW2 2583   0.600   2.908   6.768
  562SOL     OW 2584   4.281   0.430   5.319
  562SOL    HW1 2585   4.193   0.399   5.283
  562SOL    HW2 2586   4.351   0.420   5.248
  563SOL     OW 2587   2.339   1.478   4.367
  563SOL    HW1 2588   2.341   1.536   4.448
  563SOL    HW2 2589   2.292   1.392   4.388
  564SOL     OW 2590   6.730   2.124   5.279
  564SOL    HW1 2591   6.761   2.202   5.225
  564SOL    HW2 2592   6.670   2.156   5.353
  565SOL     OW 2593   4.052   3.291   3.482
  565SOL    HW1 2594   4.102   3.246   3.555
  565SOL    HW2 2595   4.008   3.223   3.424
  566SOL     OW 2596   3.235   6.669   2.855
  566SOL    HW1 2597   3.261   6.750   2.803
  566SOL    HW2 2598   3.242   6.690   2.953
  567SOL     OW 2599   2.025   3.162   6.829
  567SOL    HW1 2600   2.088   3.085   6.835
  567SOL    HW2 2601   1.999   3.176   6.733
  568SOL     OW 2602   6.937   6.407   0.651
  568SOL    HW1 2603   0.010   6.427   0.667
  568SOL    HW2 2604   6.881   6.467   0.709
  569SOL     OW 2605   6.550   2.386   0.746
  569SOL    HW1 2606   6.490   2.436   0.684
  569SOL    HW2 2607   6.631   2.441   0.765
  570SOL     OW 2608   2.340   0.430   5.647
  570SOL    HW1 2609   2.432   0.395   5.667
  570SOL    HW2 2610   2.309   0.395   5.559
  571SOL     OW 2611   2.436   4.980   2.430
  571SOL    HW1 2612   2.472   5.016   2.516
  571SOL    HW2 2613   2.490   4.901   2.401
  572SOL     OW 2614   2.570   6.664   3.752
  572SOL    HW1 2615   2.653   6.610   3.735
  572SOL    HW2 2616   2.594   6.761   3.753
  573SOL     OW 2617   6.963   0.808   5.740
  573SOL    HW1 2618   6.922   0.723   5.707
  573SOL    HW2 2619   0.004   0.842   5.673
  574SOL     OW 2620   2.641   1.901   5.871
  574SOL    HW1 2621   2.660   1.908   5.773
  574SOL    HW2 2622   2.721   1.866   5.918
  575SOL     OW 2623   3.038   3.713   0.605
  575SOL    HW1 2624   3.081   3.752   0.523
  575SOL    HW2 2625   3.106   3.660   0.655
  576SOL     OW 2626   2.310   2.737   2.616
  576SOL    HW1 2627   2.287   2.832   2.592
  576SOL    HW2 2628   2.317   2.729   2.715
  577SOL     OW 2629   0.796   1.188   1.903
  577SOL    HW1 2630   0.697   1.198   1.908
  577SOL    HW2 2631   0.835   1.263   1.850
  578SOL     OW 2632   2.201   6.349   6.835
  578SOL    HW1 2633   2.131   6.408   6.795
  578SOL    HW2 2634   2.187   6.343   6.934
  579SOL     OW 2635   2.395   4.766   1.884
  579SOL    HW1 2636   2.359   4.821   1.959
  579SOL    HW2 2637   2.427   4.679   1.919
  580SOL     OW 2638   4.419   5.375   4.819
  580SOL    HW1 2639   4.398   5.330   4.905
  580SOL    HW2 2640   4.517   5.367   4.799
  581SOL     OW 2641   1.653   2.851   4.362
  581SOL    HW1 2642   1.664   2.842   4.263
  581SOL    HW2 2643   1.743   2.847   4.406
  582SOL     OW 2644   6.096   5.521   3.525
  582SOL    HW1 2645   6.085   5.575   3.608
  582SOL    HW2 2646   6.068   5.575   3.446
  583SOL     OW 2647   3.516   5.194   5.793
  583SOL    HW1 2648   3.603   5.237   5.767
  583SOL    HW2 2649   3.507   5.106   5.746
  584SOL     OW 2650   4.412   0.955   6.149
  584SOL    HW1 2651   4.384   1.034   6.204
  584SOL    HW2 2652   4.511   0.947   6.151
  585SOL     OW 2653   2.898   6.653   1.716
  585SOL    HW1 2654   2.960   6.730   1.702
  585SOL    HW2 2655   2.948   6.567   1.702
  586SOL     OW 2656   4.633   0.101   0.717
  586SOL    HW1 2657   4.670   0.085   0.809
  586SOL    HW2 2658   4.542   0.142   0.725
  587SOL     OW 2659   5.267   1.970   2.140
  587SOL    HW1 2660   5.358   1.990   2.176
  587SOL    HW2 2661   5.272   1.964   2.040
  588SOL     OW 2662   0.954   5.729   2.355
  588SOL    HW1 2663   0.889   5.733   2.279
  588SOL    HW2 2664   0.998   5.639   2.357
  589SOL     OW 2665   3.613   6.032   1.037
  589SOL    HW1 2666   3.521   6.048   1.003
  589SOL    HW2 2667   3.629   6.087   1.120
  590SOL     OW 2668   4.646   1.740   0.226
  590SOL    HW1 2669   4.656   1.748   0.326
  590SOL    HW2 2670   4.632   1.830   0.186
  591SOL     OW 2671   4.142   6.050   4.593
  591SOL    HW1 2672   4.193   6.001   4.664
  591SOL    HW2 2673   4.044   6.035   4.607
  592SOL     OW 2674   4.299   2.344   3.602
  592SOL    HW1 2675   4.287   2.422   3.664
  592SOL    HW2 2676   4.210   2.300   3.588
  593SOL     OW 2677   3.355   1.255   5.781
  593SOL    HW1 2678   3.408   1.188   5.728
  593SOL    HW2 2679   3.338   1.335   5.724
  594SOL     OW 2680   5.664   1.312   2.202
  594SOL    HW1 2681   5.589   1.262   2.245
  594SOL    HW2 2682   5.740   1.320   2.266
  595SOL     OW 2683   5.101   6.145   2.409
  595SOL    HW1 2684   5.184   6.089   2.403
  595SOL    HW2 2685   5.023   6.093   2.375
  596SOL     OW 2686   6.734   4.314   4.410
  596SOL    HW1 2687   6.676   4.233   4.399
  596SOL    HW2 2688   6.691   4.377   4.475
  597SOL     OW 2689   2.925   0.502   6.200
  597SOL    HW1 2690   2.934   0.583   6.258
  597SOL    HW2 2691   2.900   0.530   6.107
  598SOL     OW 2692   2.993   3.174   4.699
  598SOL    HW1 2693   3.011   3.252   4.760
  598SOL    HW2 2694   2.924   3.200   4.632
  599SOL     OW 2695   1.007   6.071   1.951
  599SOL    HW1 2696   1.097   6.078   1.993
  599SOL    HW2 2697   0.958   6.158   1.963
  600SOL     OW 2698   6.951   3.676   4.799
  600SOL    HW1 2699   7.015   3.645   4.728
  600SOL    HW2 2700   6.864   3.630   4.787
  601SOL     OW 2701   1.582   0.402   5.176
  601SOL    HW1 2702   1.660   0.339   5.170
  601SOL    HW2 2703   1.524   0.376   5.254
  602SOL     OW 2704   2.890   6.147   3.802
  602SOL    HW1 2705   2.977   6.163   3.849
  602SOL    HW2 2706   2.843   6.070   3.846
  603SOL     OW 2707   1.673   1.283   5.419
  603SOL    HW1 2708   1.685   1.192   5.458
  603SOL    HW2 2709   1.616   1.339   5.479
  604SOL     OW 2710   6.324   2.552   1.355
  604SOL    HW1 2711   6.281   2.461   1.348
  604SOL    HW2 2712   6.374   2.559   1.441
  605SOL     OW 2713   0.182   5.563   2.486
  605SOL    HW1 2714   0.277   5.592   2.483
  605SOL    HW2 2715   0.146   5.575   2.579
  606SOL     OW 2716   3.892   6.873   4.975
  606SOL    HW1 2717   3.911   6.791   4.922
  606SOL    HW2 2718   3.932   6.952   4.930
  607SOL     OW 2719   1.050   4.634   6.290
  607SOL    HW1 2720   1.082   4.701   6.222
  607SOL    HW2 2721   0.993   4.566   6.245
  608SOL     OW 2722   2.936   0.819   5.104
  608SOL    HW1 2723   2.870   0.792   5.174
  608SOL    HW2 2724   2.918   0.768   5.020
  609SOL     OW 2725   3.807   2.582   1.586
  609SOL    HW1 2726   3.888   2.624   1.627
  609SOL    HW2 2727   3.835   2.524   1.510
  610SOL     OW 2728   4.919   3.568   0.412
  610SOL    HW1 2729   4.936   3.470   0.408
  610SOL    HW2 2730   5.003   3.616   0.436
  611SOL     OW 2731   3.945   0.387   2.396
  611SOL    HW1 2732   3.953   0.478   2.435
  611SOL    HW2 2733   3.856   0.348   2.419
  612SOL     OW 2734   4.112   4.460   6.118
  612SOL    HW1 2735   4.033   4.437   6.175
  612SOL    HW2 2736   4.091   4.441   6.022
  613SOL     OW 2737   4.495   5.205   5.418
  613SOL    HW1 2738   4.401   5.240   5.420
  613SOL    HW2 2739   4.559   5.281   5.425
  614SOL     OW 2740   4.544   5.480   5.910
  614SOL    HW1 2741   4.586   5.550   5.852
  614SOL    HW2 2742   4.450   5.466   5.882
  615SOL     OW 2743   0.340   4.918   1.476
  615SOL    HW1 2744   0.258   4.862   1.467
  615SOL    HW2 2745   0.336   4.970   1.561
  616SOL     OW 2746   5.647   3.458   3.114
  616SOL    HW1 2747   5.664   3.458   3.015
  616SOL    HW2 2748   5.621   3.367   3.143
  617SOL     OW 2749   2.233   5.262   6.140
  617SOL    HW1 2750   2.327   5.232   6.158
  617SOL    HW2 2751   2.196   5.306   6.222
  618SOL     OW 2752   1.453   0.873   2.301
  618SOL    HW1 2753   1.436   0.893   2.205
  618SOL    HW2 2754   1.436   0.777   2.319
  619SOL     OW 2755   1.426   1.204   6.350
  619SOL    HW1 2756   1.354   1.268   6.323
  619SOL    HW2 2757   1.399   1.111   6.326
  620SOL     OW 2758   4.712   3.742   0.207
  620SOL    HW1 2759   4.810   3.757   0.221
  620SOL    HW2 2760   4.665   3.750   0.295
  621SOL     OW 2761   0.512   4.572   1.597
  621SOL    HW1 2762   0.480   4.637   1.665
  621SOL    HW2 2763   0.520   4.618   1.508
  622SOL     OW 2764   2.019   1.451   0.233
  622SOL    HW1 2765   2.101   1.394   0.228
  622SOL    HW2 2766   1.940   1.400   0.198
  623SOL     OW 2767   0.550   4.517   6.428
  623SOL    HW1 2768   0.597   4.446   6.377
  623SOL    HW2 2769   0.582   4.607   6.397
  624SOL     OW 2770   1.136   2.877   2.753
  624SOL    HW1 2771   1.112   2.798   2.809
  624SOL    HW2 2772   1.070   2.951   2.769
  625SOL     OW 2773   2.764   1.539   2.380
  625SOL    HW1 2774   2.780   1.578   2.471
  625SOL    HW2 2775   2.696   1.594   2.331
  626SOL     OW 2776   2.748   6.232   4.502
  626SOL    HW1 2777   2.670   6.226   4.439
  626SOL    HW2 2778   2.833   6.223   4.451
  627SOL     OW 2779   5.434   0.597   0.319
  627SOL    HW1 2780   5.385   0.526   0.368
  627SOL    HW2 2781   5.415   0.686   0.362
  628SOL     OW 2782   5.090   4.172   3.806
  628SOL    HW1 2783   5.010   4.120   3.838
  628SOL    HW2 2784   5.061   4.235   3.734
  629SOL     OW 2785   0.729   0.334   1.229
  629SOL    HW1 2786   0.749   0.381   1.315
  629SOL    HW2 2787   0.779   0.247   1.226
  630SOL     OW 2788   4.372   1.935   0.932
  630SOL    HW1 2789   4.415   1.921   1.021
  630SOL    HW2 2790   4.442   1.961   0.865
  631SOL     OW 2791   2.505   0.005   5.527
  631SOL    HW1 2792   2.411   0.012   5.560
  631SOL    HW2 2793   2.568   0.016   5.604
  632SOL     OW 2794   2.055   1.406   1.164
  632SOL    HW1 2795   2.063   1.505   1.154
  632SOL    HW2 2796   2.057   1.363   1.073
  633SOL     OW 2797   2.815   6.859   6.501
  633SOL    HW1 2798   2.728   6.854   6.550
  633SOL    HW2 2799   2.800   6.844   6.404
  634SOL     OW 2800   3.740   5.735   0.725
  634SOL    HW1 2801   3.816   5.754   0.787
  634SOL    HW2 2802   3.654   5.731   0.778
  635SOL     OW 2803   3.187   6.923   2.481
  635SOL    HW1 2804   3.174   6.975   2.397
  635SOL    HW2 2805   3.159   6.978   2.560
  636SOL     OW 2806   5.191   4.971   0.071
  636SOL    HW1 2807   5.161   4.883   0.110
  636SOL    HW2 2808   5.286   4.964   0.043
  637SOL     OW 2809   4.764   4.219   1.058
  637SOL    HW1 2810   4.687   4.265   1.014
  637SOL    HW2 2811   4.845   4.228   1.001
  638SOL     OW 2812   4.718   1.474   1.979
  638SOL    HW1 2813   4.626   1.453   1.945
  638SOL    HW2 2814   4.711   1.531   2.060
  639SOL     OW 2815   4.350   4.686   2.162
  639SOL    HW1 2816   4.398   4.599   2.166
  639SOL    HW2 2817   4.282   4.682   2.088
  640SOL     OW 2818   3.227   4.279   5.330
  640SOL    HW1 2819   3.249   4.267   5.233
  640SOL    HW2 2820   3.143   4.332   5.339
  641SOL     OW 2821   6.943   6.029   4.941
  641SOL    HW1 2822   6.899   6.044   4.852
  641SOL    HW2 2823   6.958   5.931   4.954
  642SOL     OW 2824   0.613   5.116   4.892
  642SOL    HW1 2825   0.682   5.185   4.912
  642SOL    HW2 2826   0.529   5.136   4.943
  643SOL     OW 2827   5.856   5.376   6.245
  643SOL    HW1 2828   5.950   5.370   6.278
  643SOL    HW2 2829   5.856   5.387   6.146
  644SOL     OW 2830   1.086   6.614   2.475
  644SOL    HW1 2831   1.085   6.558   2.558
  644SOL    HW2 2832   1.098   6.556   2.395
  645SOL     OW 2833   6.058   2.761   3.670
  645SOL    HW1 2834   6.093   2.668   3.658
  645SOL    HW2 2835   6.069   2.812   3.585
  646SOL     OW 2836   1.755   1.679   4.510
  646SOL    HW1 2837   1.804   1.639   4.432
  646SOL    HW2 2838   1.769   1.777   4.512
  647SOL     OW 2839   6.181   3.402   0.368
  647SOL    HW1 2840   6.246   3.329   0.390
  647SOL    HW2 2841   6.195   3.431   0.273
  648SOL     OW 2842   5.985   3.680   1.744
  648SOL    HW1 2843   5.902   3.629   1.723
  648SOL    HW2 2844   6.040   3.691   1.662
  649SOL     OW 2845   4.164   4.603   0.828
  649SOL    HW1 2846   4.203   4.558   0.748
  649SOL    HW2 2847   4.141   4.534   0.897
  650SOL     OW 2848   4.698   4.379   0.739
  650SOL    HW1 2849   4.781   4.339   0.700
  650SOL    HW2 2850   4.722   4.456   0.798
  651SOL     OW 2851   0.921   6.210   0.209
  651SOL    HW1 2852   0.886   6.229   0.301
  651SOL    HW2 2853   1.017   6.237   0.203
  652SOL     OW 2854   4.280   1.116   2.256
  652SOL    HW1 2855   4.289   1.171   2.173
  652SOL    HW2 2856   4.340   1.153   2.327
  653SOL     OW 2857   3.791   4.870   3.748
  653SOL    HW1 2858   3.750   4.848   3.837
  653SOL    HW2 2859   3.891   4.866   3.756
  654SOL     OW 2860   6.830   4.772   0.420
  654SOL    HW1 2861   6.730   4.774   0.417
  654SOL    HW2 2862   6.865   4.734   0.334
  655SOL     OW 2863   0.852   0.686   1.293
  655SOL    HW1 2864   0.862   0.736   1.379
  655SOL    HW2 2865   0.785   0.733   1.235
  656SOL     OW 2866   2.630   6.351   2.047
  656SOL    HW1 2867   2.681   6.291   2.108
  656SOL    HW2 2868   2.542   6.375   2.090
  657SOL     OW 2869   3.670   1.450   0.329
  657SOL    HW1 2870   3.719   1.363   0.323
  657SOL    HW2 2871   3.728   1.518   0.374
  658SOL     OW 2872   2.856   4.157   6.554
  658SOL    HW1 2873   2.775   4.098   6.548
  658SOL    HW2 2874   2.829   4.247   6.589
  659SOL     OW 2875   2.811   6.987   6.995
  659SOL    HW1 2876   2.855   6.949   6.913
  659SOL    HW2 2877   2.756   0.042   6.969
  660SOL     OW 2878   3.457   5.258   2.550
  660SOL    HW1 2879   3.390   5.186   2.531
  660SOL    HW2 2880   3.429   5.342   2.504
  661SOL     OW 2881   4.904   5.450   2.794
  661SOL    HW1 2882   4.863   5.390   2.726
  661SOL    HW2 2883   4.969   5.398   2.850
  662SOL     OW 2884   3.232   1.149   6.516
  662SOL    HW1 2885   3.223   1.140   6.615
  662SOL    HW2 2886   3.142   1.148   6.474
  663SOL     OW 2887   2.290   4.497   5.270
  663SOL    HW1 2888   2.324   4.574   5.216
  663SOL    HW2 2889   2.313   4.411   5.225
  664SOL     OW 2890   6.427   0.868   6.826
  664SOL    HW1 2891   6.362   0.876   6.901
  664SOL    HW2 2892   6.513   0.912   6.851
  665SOL     OW 2893   2.323   5.682   2.908
  665SOL    HW1 2894   2.420   5.671   2.885
  665SOL    HW2 2895   2.287   5.596   2.943
  666SOL     OW 2896   4.050   0.785   1.705
  666SOL    HW1 2897   4.022   0.877   1.678
  666SOL    HW2 2898   4.117   0.791   1.778
  667SOL     OW 2899   0.714   6.538   2.669
  667SOL    HW1 2900   0.644   6.468   2.687
  667SOL    HW2 2901   0.789   6.497   2.618
  668SOL     OW 2902   5.577   3.855   6.610
  668SOL    HW1 2903   5.677   3.852   6.608
  668SOL    HW2 2904   5.541   3.822   6.522
  669SOL     OW 2905   5.102   1.508   3.421
  669SOL    HW1 2906   5.126   1.411   3.419
  669SOL    HW2 2907   5.040   1.528   3.346
  670SOL     OW 2908   1.592   2.229   3.538
  670SOL    HW1 2909   1.688   2.229   3.511
  670SOL    HW2 2910   1.572   2.146   3.590
  671SOL     OW 2911   2.591   6.335   1.277
  671SOL    HW1 2912   2.658   6.261   1.283
  671SOL    HW2 2913   2.559   6.344   1.183
  672SOL     OW 2914   0.943   6.912   2.571
  672SOL    HW1 2915   0.994   6.983   2.522
  672SOL    HW2 2916   0.964   6.823   2.532
  673SOL     OW 2917   5.353   6.773   0.832
  673SOL    HW1 2918   5.432   6.770   0.893
  673SOL    HW2 2919   5.342   6.685   0.786
  674SOL     OW 2920   0.241   0.598   4.866
  674SOL    HW1 2921   0.166   0.598   4.932
  674SOL    HW2 2922   0.210   0.558   4.780
  675SOL     OW 2923   6.345   3.212   2.629
  675SOL    HW1 2924   6.397   3.189   2.711
  675SOL    HW2 2925   6.282   3.137   2.607
  676SOL     OW 2926   2.094   5.720   5.950
  676SOL    HW1 2927   2.129   5.627   5.943
  676SOL    HW2 2928   2.040   5.729   6.034
  677SOL     OW 2929   4.568   0.798   1.025
  677SOL    HW1 2930   4.550   0.866   0.954
  677SOL    HW2 2931   4.570   0.707   0.984
  678SOL     OW 2932   1.963   4.469   5.210
  678SOL    HW1 2933   2.001   4.562   5.220
  678SOL    HW2 2934   1.940   4.433   5.300
  679SOL     OW 2935   5.097   2.057   5.212
  679SOL    HW1 2936   5.071   2.014   5.126
  679SOL    HW2 2937   5.066   2.001   5.288
  680SOL     OW 2938   4.789   6.539   3.980
  680SOL    HW1 2939   4.771   6.626   4.027
  680SOL    HW2 2940   4.886   6.533   3.959
  681SOL     OW 2941   4.980   5.198   2.094
  681SOL    HW1 2942   5.063   5.145   2.108
  681SOL    HW2 2943   4.998   5.294   2.116
  682SOL     OW 2944   0.723   0.584   3.230
  682SOL    HW1 2945   0.647   0.548   3.284
  682SOL    HW2 2946   0.700   0.578   3.133
  683SOL     OW 2947   4.193   3.304   1.382
  683SOL    HW1 2948   4.278   3.267   1.345
  683SOL    HW2 2949   4.212   3.387   1.433
  684SOL     OW 2950   6.509   0.426   5.643
  684SOL    HW1 2951   6.550   0.477   5.719
  684SOL    HW2 2952   6.529   0.329   5.653
  685SOL     OW 2953   3.641   0.492   3.138
  685SOL    HW1 2954   3.738   0.494   3.161
  685SOL    HW2 2955   3.623   0.414   3.078
  686SOL     OW 2956   4.191   1.153   4.620
  686SOL    HW1 2957   4.286   1.130   4.641
  686SOL    HW2 2958   4.172   1.136   4.524
  687SOL     OW 2959   1.518   1.525   4.463
  687SOL    HW1 2960   1.466   1.592   4.409
  687SOL    HW2 2961   1.596   1.570   4.506
  688SOL     OW 2962   6.040   1.373   6.918
  688SOL    HW1 2963   6.035   1.285   6.871
  688SOL    HW2 2964   6.117   1.373   6.982
  689SOL     OW 2965   1.284   5.315   5.513
  689SOL    HW1 2966   1.361   5.353   5.461
  689SOL    HW2 2967   1.299   5.218   5.528
  690SOL     OW 2968   5.720   3.857   2.585
  690SOL    HW1 2969   5.637   3.872   2.532
  690SOL    HW2 2970   5.753   3.764   2.571
  691SOL     OW 2971   4.285   1.882   6.802
  691SOL    HW1 2972   4.268   1.904   6.706
  691SOL    HW2 2973   4.253   1.790   6.822
  692SOL     OW 2974   2.936   1.479   4.442
  692SOL    HW1 2975   2.888   1.515   4.521
  692SOL    HW2 2976   3.023   1.438   4.472
  693SOL     OW 2977   5.457   6.401   3.874
  693SOL    HW1 2978   5.391   6.431   3.805
  693SOL    HW2 2979   5.484   6.306   3.857
  694SOL     OW 2980   4.446   5.677   4.809
  694SOL    HW1 2981   4.428   5.579   4.810
  694SOL    HW2 2982   4.431   5.715   4.900
  695SOL     OW 2983   3.399   6.546   4.578
  695SOL    HW1 2984   3.477   6.598   4.613
  695SOL    HW2 2985   3.319   6.605   4.575
  696SOL     OW 2986   4.875   4.487   2.895
  696SOL    HW1 2987   4.935   4.536   2.958
  696SOL    HW2 2988   4.902   4.505   2.801
  697SOL     OW 2989   0.194   5.133   2.309
  697SOL    HW1 2990   0.116   5.175   2.357
  697SOL    HW2 2991   0.187   5.153   2.211
  698SOL     OW 2992   5.472   0.128   0.995
  698SOL    HW1 2993   5.454   0.111   0.898
  698SOL    HW2 2994   5.386   0.147   1.043
  699SOL     OW 2995   2.621   2.276   0.767
  699SOL    HW1 2996   2.664   2.232   0.846
  699SOL    HW2 2997   2.572   2.209   0.713
  700SOL     OW 2998   3.874   6.829   2.626
  700SOL    HW1 2999   3.877   6.884   2.543
  700SOL    HW2 3000   3.890   6.888   2.705
  701SOL     OW 3001   6.037   5.230   0.952
  701SOL    HW1 3002   6.003   5.142   0.987
  701SOL    HW2 3003   5.982   5.304   0.990
  702SOL     OW 3004   2.736   0.814   4.164
  702SOL    HW1 3005   2.667   0.861   4.218
  702SOL    HW2 3006   2.821   0.806   4.218
  703SOL     OW 3007   3.085   2.646   6.179
  703SOL    HW1 3008   3.088   2.710   6.101
  703SOL    HW2 3009   3.113   2.694   6.262
  704SOL     OW 3010   1.185   2.835   6.098
  704SOL    HW1 3011   1.215   2.818   6.005
  704SOL    HW2 3012   1.261   2.873   6.151
  705SOL     OW 3013   7.016   6.318   4.478
  705SOL    HW1 3014   6.982   6.225   4.487
  705SOL    HW2 3015   6.941   6.383   4.493
  706SOL     OW 3016   4.543   1.124   5.216
  706SOL    HW1 3017   4.602   1.092   5.141
  706SOL    HW2 3018   4.600   1.165   5.287
  707SOL     OW 3019   3.408   5.019   3.594
  707SOL    HW1 3020   3.344   5.033   3.518
  707SOL    HW2 3021   3.487   4.966   3.562
  708SOL     OW 3022   3.462   0.519   3.453
  708SOL    HW1 3023   3.539   0.498   3.513
  708SOL    HW2 3024   3.477   0.608   3.410
  709SOL     OW 3025   2.069   0.473   1.557
  709SOL    HW1 3026   2.071   0.375   1.533
  709SOL    HW2 3027   2.004   0.487   1.632
  710SOL     OW 3028   4.682   2.857   1.670
  710SOL    HW1 3029   4.667   2.920   1.746
  710SOL    HW2 3030   4.740   2.782   1.700
  711SOL     OW 3031   0.256   2.368   5.987
  711SOL    HW1 3032   0.258   2.450   6.045
  711SOL    HW2 3033   0.279   2.394   5.893
  712SOL     OW 3034   5.159   2.903   0.395
  712SOL    HW1 3035   5.131   2.807   0.392
  712SOL    HW2 3036   5.259   2.908   0.393
  713SOL     OW 3037   4.058   2.741   5.338
  713SOL    HW1 3038   4.095   2.665   5.284
  713SOL    HW2 3039   3.965   2.762   5.308
  714SOL     OW 3040   5.713   4.877   3.545
  714SOL    HW1 3041   5.703   4.962   3.494
  714SOL    HW2 3042   5.809   4.850   3.549
  715SOL     OW 3043   6.169   5.240   6.118
  715SOL    HW1 3044   6.183   5.309   6.189
  715SOL    HW2 3045   6.231   5.163   6.134
  716SOL     OW 3046   1.855   1.235   2.525
  716SOL    HW1 3047   1.912   1.158   2.498
  716SOL    HW2 3048   1.776   1.202   2.577
  717SOL     OW 3049   5.790   4.882   3.816
  717SOL    HW1 3050   5.756   4.870   3.723
  717SOL    HW2 3051   5.888   4.903   3.813
  718SOL     OW 3052   5.474   2.078   4.292
  718SOL    HW1 3053   5.378   2.057   4.309
  718SOL    HW2 3054   5.481   2.167   4.247
  719SOL     OW 3055   5.642   0.326   3.260
  719SOL    HW1 3056   5.667   0.251   3.321
  719SOL    HW2 3057   5.699   0.323   3.178
  720SOL     OW 3058   2.129   1.143   7.022
  720SOL    HW1 3059   2.192   1.168   6.948
  720SOL    HW2 3060   2.128   1.043   0.009
  721SOL     OW 3061   0.153   2.408   2.887
  721SOL    HW1 3062   0.072   2.430   2.833
  721SOL    HW2 3063   0.131   2.336   2.952
  722SOL     OW 3064   4.459   6.625   0.137
  722SOL    HW1 3065   4.428   6.631   0.232
  722SOL    HW2 3066   4.388   6.580   0.083
  723SOL     OW 3067   2.264   5.648   3.943
  723SOL    HW1 3068   2.325   5.701   4.001
  723SOL    HW2 3069   2.213   5.582   3.999
  724SOL     OW 3070   1.049   0.621   3.753
  724SOL    HW1 3071   0.981   0.553   3.779
  724SOL    HW2 3072   1.005   0.696   3.704
  725SOL     OW 3073   1.389   4.383   2.270
  725SOL    HW1 3074   1.437   4.354   2.188
  725SOL    HW2 3075   1.392   4.309   2.338
  726SOL     OW 3076   1.872   4.421   0.685
  726SOL    HW1 3077   1.848   4.433   0.589
  726SOL    HW2 3078   1.941   4.490   0.711
  727SOL     OW 3079   4.555   5.024   5.245
  727SOL    HW1 3080   4.524   5.092   5.312
  727SOL    HW2 3081   4.653   5.035   5.228
  728SOL     OW 3082   6.937   2.919   4.481
  728SOL    HW1 3083   6.921   2.855   4.557
  728SOL    HW2 3084   6.891   3.006   4.501
  729SOL     OW 3085   0.472   3.730   1.563
  729SOL    HW1 3086   0.409   3.698   1.634
  729SOL    HW2 3087   0.492   3.827   1.578
  730SOL     OW 3088   4.944   0.662   3.042
  730SOL    HW1 3089   4.873   0.615   2.990
  730SOL    HW2 3090   5.001   0.595   3.089
  731SOL     OW 3091   4.392   4.382   6.122
  731SOL    HW1 3092   4.462   4.446   6.154
  731SOL    HW2 3093   4.305   4.430   6.112
  732SOL     OW 3094   4.812   1.783   3.409
  732SOL    HW1 3095   4.880   1.854   3.429
  732SOL    HW2 3096   4.740   1.785   3.479
  733SOL     OW 3097   6.260   6.576   3.491
  733SOL    HW1 3098   6.303   6.540   3.574
  733SOL    HW2 3099   6.286   6.520   3.413
  734SOL     OW 3100   5.418   6.057   2.709
  734SOL    HW1 3101   5.470   6.077   2.627
  734SOL    HW2 3102   5.361   5.976   2.694
  735SOL     OW 3103   5.227   0.473   2.199
  735SOL    HW1 3104   5.162   0.543   2.170
  735SOL    HW2 3105   5.252   0.416   2.120
  736SOL     OW 3106   1.301   1.366   4.400
  736SOL    HW1 3107   1.379   1.420   4.431
  736SOL    HW2 3108   1.334   1.282   4.357
  737SOL     OW 3109   5.156   1.370   6.392
  737SOL    HW1 3110   5.244   1.342   6.429
  737SOL    HW2 3111   5.086   1.305   6.420
  738SOL     OW 3112   2.754   4.443   1.149
  738SOL    HW1 3113   2.661   4.411   1.162
  738SOL    HW2 3114   2.757   4.543   1.158
  739SOL     OW 3115   3.095   6.958   4.900
  739SOL    HW1 3116   3.010   6.959   4.848
  739SOL    HW2 3117   3.120   6.864   4.922
  740SOL     OW 3118   5.558   2.490   3.165
  740SOL    HW1 3119   5.492   2.529   3.230
  740SOL    HW2 3120   5.634   2.554   3.153
  741SOL     OW 3121   2.982   0.460   3.387
  741SOL    HW1 3122   3.060   0.482   3.446
  741SOL    HW2 3123   2.972   0.361   3.380
  742SOL     OW 3124   1.717   0.246   1.433
  742SOL    HW1 3125   1.809   0.206   1.441
  742SOL    HW2 3126   1.703   0.312   1.507
  743SOL     OW 3127   0.735   5.888   3.449
  743SOL    HW1 3128   0.807   5.955   3.432
  743SOL    HW2 3129   0.741   5.855   3.543
  744SOL     OW 3130   4.956   1.346   0.322
  744SOL    HW1 3131   4.875   1.347   0.263
  744SOL    HW2 3132   4.981   1.251   0.342
  745SOL     OW 3133   2.545   5.724   5.060
  745SOL    HW1 3134   2.482   5.685   4.992
  745SOL    HW2 3135   2.494   5.742   5.145
  746SOL     OW 3136   6.003   4.550   5.681
  746SOL    HW1 3137   5.982   4.565   5.777
  746SOL    HW2 3138   6.063   4.623   5.648
  747SOL     OW 3139   5.756   5.742   3.270
  747SOL    HW1 3140   5.696   5.669   3.303
  747SOL    HW2 3141   5.700   5.821   3.242
  748SOL     OW 3142   5.350   5.604   2.508
  748SOL    HW1 3143   5.312   5.512   2.521
  748SOL    HW2 3144   5.311   5.645   2.426
  749SOL     OW 3145   5.256   4.206   3.468
  749SOL    HW1 3146   5.327   4.239   3.530
  749SOL    HW2 3147   5.280   4.230   3.374
  750SOL     OW 3148   2.347   1.671   2.013
  750SOL    HW1 3149   2.399   1.629   1.939
  750SOL    HW2 3150   2.332   1.604   2.086
  751SOL     OW 3151   4.703   0.357   0.005
  751SOL    HW1 3152   4.718   0.296   0.083
  751SOL    HW2 3153   4.618   0.331   6.982
  752SOL     OW 3154   3.437   2.486   5.375
  752SOL    HW1 3155   3.439   2.562   5.440
  752SOL    HW2 3156   3.354   2.492   5.319
  753SOL     OW 3157   3.666   4.157   5.017
  753SOL    HW1 3158   3.758   4.121   5.003
  753SOL    HW2 3159   3.604   4.119   4.948
  754SOL     OW 3160   5.448   0.699   6.329
  754SOL    HW1 3161   5.486   0.776   6.380
  754SOL    HW2 3162   5.353   0.685   6.357
  755SOL     OW 3163   3.814   4.504   5.353
  755SOL    HW1 3164   3.784   4.420   5.307
  755SOL    HW2 3165   3.879   4.480   5.425
  756SOL     OW 3166   2.171   5.108   6.407
  756SOL    HW1 3167   2.221   5.038   6.357
  756SOL    HW2 3168   2.092   5.138   6.353
  757SOL     OW 3169   2.311   6.903   2.277
  757SOL    HW1 3170   2.364   6.967   2.333
  757SOL    HW2 3171   2.349   6.901   2.184
  758SOL     OW 3172   3.197   1.794   4.015
  758SOL    HW1 3173   3.228   1.761   4.104
  758SOL    HW2 3174   3.163   1.887   4.023
  759SOL     OW 3175   0.500   2.669   4.554
  759SOL    HW1 3176   0.441   2.743   4.587
  759SOL    HW2 3177   0.488   2.660   4.455
  760SOL     OW 3178   6.675   6.263   3.845
  760SOL    HW1 3179   6.746   6.193   3.854
  760SOL    HW2 3180   6.632   6.277   3.934
  761SOL     OW 3181   4.737   4.060   5.411
  761SOL    HW1 3182   4.824   4.044   5.363
  761SOL    HW2 3183   4.749   4.041   5.508
  762SOL     OW 3184   3.052   5.824   4.633
  762SOL    HW1 3185   2.958   5.837   4.663
  762SOL    HW2 3186   3.056   5.749   4.567
  763SOL     OW 3187   5.541   0.576   6.764
  763SOL    HW1 3188   5.536   0.500   6.700
  763SOL    HW2 3189   5.633   0.581   6.803
  764SOL     OW 3190   5.171   6.693   4.995
  764SOL    HW1 3191   5.225   6.766   4.953
  764SOL    HW2 3192   5.170   6.614   4.934
  765SOL     OW 3193   0.303   6.787   0.583
  765SOL    HW1 3194   0.289   6.881   0.615
  765SOL    HW2 3195   0.221   6.757   0.533
  766SOL     OW 3196   1.461   2.405   5.323
  766SOL    HW1 3197   1.555   2.389   5.354
  766SOL    HW2 3198   1.412   2.317   5.321
  767SOL     OW 3199   0.431   0.004   4.136
  767SOL    HW1 3200   0.518   6.978   4.127
  767SOL    HW2 3201   0.363   6.988   4.074
  768SOL     OW 3202   2.826   5.736   2.900
  768SOL    HW1 3203   2.831   5.789   2.815
  768SOL    HW2 3204   2.892   5.660   2.896
  769SOL     OW 3205   2.973   2.013   5.021
  769SOL    HW1 3206   2.948   2.078   5.093
  769SOL    HW2 3207   2.995   2.062   4.937
  770SOL     OW 3208   1.749   4.894   4.718
  770SOL    HW1 3209   1.694   4.951   4.657
  770SOL    HW2 3210   1.838   4.938   4.732
  771SOL     OW 3211   1.201   5.990   3.433
  771SOL    HW1 3212   1.269   5.919   3.414
  771SOL    HW2 3213   1.224   6.072   3.381
  772SOL     OW 3214   5.356   4.450   0.356
  772SOL    HW1 3215   5.331   4.480   0.264
  772SOL    HW2 3216   5.277   4.458   0.417
  773SOL     OW 3217   0.674   3.630   3.575
  773SOL    HW1 3218   0.662   3.533   3.596
  773SOL    HW2 3219   0.756   3.664   3.620
  774SOL     OW 3220   2.490   0.375   3.078
  774SOL    HW1 3221   2.412   0.332   3.034
  774SOL    HW2 3222   2.459   0.452   3.134
  775SOL     OW 3223   1.930   4.242   3.918
  775SOL    HW1 3224   1.901   4.164   3.863
  775SOL    HW2 3225   1.852   4.278   3.969
  776SOL     OW 3226   2.499   5.724   6.610
  776SOL    HW1 3227   2.544   5.636   6.620
  776SOL    HW2 3228   2.406   5.711   6.577
  777SOL     OW 3229   1.833   3.755   0.014
  777SOL    HW1 3230   1.801   3.826   6.976
  777SOL    HW2 3231   1.932   3.741   0.001
  778SOL     OW 3232   3.201   6.988   1.518
  778SOL    HW1 3233   3.125   6.965   1.580
  778SOL    HW2 3234   3.167   0.023   1.445
  779SOL     OW 3235   0.473   1.695   2.944
  779SOL    HW1 3236   0.537   1.652   2.881
  779SOL    HW2 3237   0.521   1.764   2.998
  780SOL     OW 3238   1.265   1.631   5.273
  780SOL    HW1 3239   1.342   1.685   5.307
  780SOL    HW2 3240   1.195   1.692   5.237
  781SOL     OW 3241   0.918   4.103   1.094
  781SOL    HW1 3242   0.922   4.004   1.109
  781SOL    HW2 3243   0.919   4.122   0.996
  782SOL     OW 3244   1.709   3.539   5.727
  782SOL    HW1 3245   1.621   3.553   5.773
  782SOL    HW2 3246   1.699   3.468   5.657
  783SOL     OW 3247   5.768   4.619   6.673
  783SOL    HW1 3248   5.771   4.701   6.614
  783SOL    HW2 3249   5.815   4.639   6.759
  784SOL     OW 3250   3.284   6.399   0.203
  784SOL    HW1 3251   3.302   6.319   0.260
  784SOL    HW2 3252   3.204   6.447   0.237
  785SOL     OW 3253   0.934   6.704   4.624
  785SOL    HW1 3254   0.883   6.671   4.545
  785SOL    HW2 3255   0.941   6.631   4.692
  786SOL     OW 3256   0.119   1.359   3.338
  786SOL    HW1 3257   0.117   1.266   3.374
  786SOL    HW2 3258   0.183   1.414   3.391
  787SOL     OW 3259   2.838   0.194   0.857
  787SOL    HW1 3260   2.814   0.120   0.794
  787SOL    HW2 3261   2.858   0.157   0.947
  788SOL     OW 3262   3.547   3.321   1.356
  788SOL    HW1 3263   3.509   3.250   1.296
  788SOL    HW2 3264   3.586   3.278   1.437
  789SOL     OW 3265   4.343   5.376   1.753
  789SOL    HW1 3266   4.346   5.289   1.803
  789SOL    HW2 3267   4.299   5.361   1.664
  790SOL     OW 3268   0.878   3.001   2.723
  790SOL    HW1 3269   0.847   2.911   2.691
  790SOL    HW2 3270   0.854   3.070   2.655
  791SOL     OW 3271   3.108   5.138   4.944
  791SOL    HW1 3272   3.042   5.112   5.015
  791SOL    HW2 3273   3.108   5.068   4.872
  792SOL     OW 3274   1.010   1.115   1.139
  792SOL    HW1 3275   0.982   1.211   1.145
  792SOL    HW2 3276   1.035   1.082   1.230
  793SOL     OW 3277   3.143   6.098   3.863
  793SOL    HW1 3278   3.135   6.016   3.920
  793SOL    HW2 3279   3.171   6.072   3.771
  794SOL     OW 3280   3.144   3.466   3.695
  794SOL    HW1 3281   3.173   3.374   3.721
  794SOL    HW2 3282   3.196   3.495   3.615
  795SOL     OW 3283   4.094   0.150   6.154
  795SOL    HW1 3284   4.083   0.108   6.245
  795SOL    HW2 3285   4.179   0.119   6.113
  796SOL     OW 3286   1.263   3.464   6.700
  796SOL    HW1 3287   1.289   3.488   6.606
  796SOL    HW2 3288   1.173   3.421   6.699
  797SOL     OW 3289   5.113   6.312   1.000
  797SOL    HW1 3290   5.041   6.255   0.961
  797SOL    HW2 3291   5.125   6.289   1.096
  798SOL     OW 3292   3.744   6.718   0.356
  798SOL    HW1 3293   3.763   6.815   0.370
  798SOL    HW2 3294   3.826   6.665   0.379
  799SOL     OW 3295   1.461   2.228   6.352
  799SOL    HW1 3296   1.437   2.257   6.260
  799SOL    HW2 3297   1.391   2.167   6.388
  800SOL     OW 3298   6.145   2.314   1.321
  800SOL    HW1 3299   6.052   2.337   1.292
  800SOL    HW2 3300   6.201   2.293   1.240
  801SOL     OW 3301   2.091   5.545   5.588
  801SOL    HW1 3302   2.148   5.557   5.507
  801SOL    HW2 3303   1.995   5.541   5.561
  802SOL     OW 3304   6.055   2.850   6.961
  802SOL    HW1 3305   5.992   2.790   7.010
  802SOL    HW2 3306   6.086   2.804   6.878
  803SOL     OW 3307   2.529   1.572   5.453
  803SOL    HW1 3308   2.483   1.659   5.468
  803SOL    HW2 3309   2.567   1.569   5.360
  804SOL     OW 3310   6.137   0.719   1.817
  804SOL    HW1 3311   6.157   0.633   1.864
  804SOL    HW2 3312   6.127   0.792   1.884
  805SOL     OW 3313   3.699   0.469   3.566
  805SOL    HW1 3314   3.674   0.468   3.663
  805SOL    HW2 3315   3.770   0.538   3.551
  806SOL     OW 3316   1.766   6.203   5.493
  806SOL    HW1 3317   1.841   6.269   5.484
  806SOL    HW2 3318   1.697   6.239   5.555
  807SOL     OW 3319   0.706   6.085   5.991
  807SOL    HW1 3320   0.802   6.105   6.012
  807SOL    HW2 3321   0.694   6.081   5.891
  808SOL     OW 3322   5.592   3.039   0.359
  808SOL    HW1 3323   5.605   3.060   0.262
  808SOL    HW2 3324   5.676   2.998   0.396
  809SOL     OW 3325   1.422   4.819   0.171
  809SOL    HW1 3326   1.521   4.815   0.160
  809SOL    HW2 3327   1.380   4.848   0.085
  810SOL     OW 3328   3.486   3.544   0.222
  810SOL    HW1 3329   3.566   3.509   0.174
  810SOL    HW2 3330   3.497   3.529   0.321
  811SOL     OW 3331   5.328   4.630   3.920
  811SOL    HW1 3332   5.309   4.647   4.017
  811SOL    HW2 3333   5.424   4.649   3.901
  812SOL     OW 3334   0.504   2.561   1.760
  812SOL    HW1 3335   0.542   2.482   1.713
  812SOL    HW2 3336   0.407   2.546   1.777
  813SOL     OW 3337   1.204   2.096   4.943
  813SOL    HW1 3338   1.282   2.081   5.004
  813SOL    HW2 3339   1.143   2.017   4.948
  814SOL     OW 3340   0.999   5.079   3.259
  814SOL    HW1 3341   0.901   5.093   3.253
  814SOL    HW2 3342   1.021   5.030   3.343
  815SOL     OW 3343   4.711   2.088   3.607
  815SOL    HW1 3344   4.715   1.990   3.588
  815SOL    HW2 3345   4.619   2.113   3.636
  816SOL     OW 3346   5.477   3.916   0.018
  816SOL    HW1 3347   5.477   4.010   0.052
  816SOL    HW2 3348   5.392   3.871   0.043
  817SOL     OW 3349   0.814   4.706   6.773
  817SOL    HW1 3350   0.828   4.723   6.676
  817SOL    HW2 3351   0.803   4.608   6.789
  818SOL     OW 3352   6.278   2.449   4.402
  818SOL    HW1 3353   6.349   2.425   4.336
  818SOL    HW2 3354   6.201   2.491   4.354
  819SOL     OW 3355   5.188   2.782   2.263
  819SOL    HW1 3356   5.109   2.723   2.250
  819SOL    HW2 3357   5.182   2.860   2.200
  820SOL     OW 3358   2.235   1.841   4.933
  820SOL    HW1 3359   2.139   1.869   4.933
  820SOL    HW2 3360   2.293   1.923   4.926
  821SOL     OW 3361   5.710   3.550   5.041
  821SOL    HW1 3362   5.626   3.498   5.026
  821SOL    HW2 3363   5.785   3.487   5.061
  822SOL     OW 3364   0.561   4.227   3.385
  822SOL    HW1 3365   0.480   4.255   3.436
  822SOL    HW2 3366   0.544   4.140   3.340
  823SOL     OW 3367   0.807   3.683   5.754
  823SOL    HW1 3368   0.781   3.768   5.799
  823SOL    HW2 3369   0.786   3.690   5.656
  824SOL     OW 3370   5.738   1.632   5.829
  824SOL    HW1 3371   5.750   1.726   5.795
  824SOL    HW2 3372   5.734   1.569   5.751
  825SOL     OW 3373   0.023   5.780   0.874
  825SOL    HW1 3374   6.972   5.846   0.889
  825SOL    HW2 3375   0.109   5.829   0.863
  826SOL     OW 3376   3.684   1.099   5.332
  826SOL    HW1 3377   3.718   1.160   5.404
  826SOL    HW2 3378   3.748   1.098   5.256
  827SOL     OW 3379   3.316   3.932   4.103
  827SOL    HW1 3380   3.306   3.837   4.074
  827SOL    HW2 3381   3.380   3.937   4.180
  828SOL     OW 3382   6.440   5.843   5.311
  828SOL    HW1 3383   6.482   5.757   5.284
  828SOL    HW2 3384   6.483   5.877   5.395
  829SOL     OW 3385   3.493   2.856   2.573
  829SOL    HW1 3386   3.565   2.811   2.627
  829SOL    HW2 3387   3.524   2.947   2.548
  830SOL     OW 3388   6.537   4.744   0.287
  830SOL    HW1 3389   6.591   4.670   0.247
  830SOL    HW2 3390   6.486   4.791   0.216
  831SOL     OW 3391   5.403   6.354   1.052
  831SOL    HW1 3392   5.404   6.267   1.100
  831SOL    HW2 3393   5.333   6.352   0.981
  832SOL     OW 3394   3.135   2.148   4.834
  832SOL    HW1 3395   3.061   2.200   4.792
  832SOL    HW2 3396   3.173   2.201   4.911
  833SOL     OW 3397   2.133   3.178   6.321
  833SOL    HW1 3398   2.139   3.083   6.350
  833SOL    HW2 3399   2.219   3.205   6.278
  834SOL     OW 3400   4.965   3.635   6.649
  834SOL    HW1 3401   4.910   3.558   6.616
  834SOL    HW2 3402   5.062   3.612   6.641
  835SOL     OW 3403   0.322   6.563   4.569
  835SOL    HW1 3404   0.300   6.631   4.638
  835SOL    HW2 3405   0.248   6.495   4.564
  836SOL     OW 3406   3.277   1.293   4.738
  836SOL    HW1 3407   3.367   1.332   4.720
  836SOL    HW2 3408   3.239   1.334   4.821
  837SOL     OW 3409   1.383   0.749   0.784
  837SOL    HW1 3410   1.314   0.821   0.788
  837SOL    HW2 3411   1.379   0.694   0.867
  838SOL     OW 3412   2.223   5.781   3.172
  838SOL    HW1 3413   2.232   5.713   3.245
  838SOL    HW2 3414   2.228   5.735   3.083
  839SOL     OW 3415   1.440   1.775   0.524
  839SOL    HW1 3416   1.514   1.841   0.537
  839SOL    HW2 3417   1.407   1.744   0.613
  840SOL     OW 3418   5.101   5.968   0.037
  840SOL    HW1 3419   5.081   6.003   6.969
  840SOL    HW2 3420   5.040   5.891   0.057
  841SOL     OW 3421   3.862   5.047   5.842
  841SOL    HW1 3422   3.821   4.967   5.797
  841SOL    HW2 3423   3.793   5.091   5.900
  842SOL     OW 3424   3.295   0.264   0.261
  842SOL    HW1 3425   3.303   0.351   0.211
  842SOL    HW2 3426   3.270   0.283   0.356
  843SOL     OW 3427   1.555   1.752   2.629
  843SOL    HW1 3428   1.645   1.740   2.671
  843SOL    HW2 3429   1.504   1.822   2.678
  844SOL     OW 3430   6.280   0.170   1.238
  844SOL    HW1 3431   6.309   0.250   1.186
  844SOL    HW2 3432   6.323   0.088   1.199
  845SOL     OW 3433   3.637   1.681   2.701
  845SOL    HW1 3434   3.550   1.703   2.657
  845SOL    HW2 3435   3.701   1.644   2.634
  846SOL     OW 3436   2.884   2.285   0.404
  846SOL    HW1 3437   2.969   2.253   0.362
  846SOL    HW2 3438   2.868   2.235   0.489
  847SOL     OW 3439   2.455   4.795   1.364
  847SOL    HW1 3440   2.485   4.808   1.459
  847SOL    HW2 3441   2.360   4.765   1.363
  848SOL     OW 3442   6.755   5.881   6.604
  848SOL    HW1 3443   6.740   5.972   6.644
  848SOL    HW2 3444   6.666   5.838   6.587
  849SOL     OW 3445   5.996   3.928   0.225
  849SOL    HW1 3446   6.011   4.026   0.226
  849SOL    HW2 3447   5.901   3.908   0.249
  850SOL     OW 3448   0.563   0.794   5.622
  850SOL    HW1 3449   0.653   0.753   5.604
  850SOL    HW2 3450   0.532   0.842   5.540
  851SOL     OW 3451   6.600   3.209   6.092
  851SOL    HW1 3452   6.547   3.145   6.035
  851SOL    HW2 3453   6.594   3.301   6.053
  852SOL     OW 3454   0.185   3.885   2.246
  852SOL    HW1 3455   0.251   3.926   2.184
  852SOL    HW2 3456   0.213   3.791   2.268
  853SOL     OW 3457   2.471   4.269   0.056
  853SOL    HW1 3458   2.404   4.196   0.070
  853SOL    HW2 3459   2.562   4.230   0.044
  854SOL     OW 3460   5.414   6.544   6.593
  854SOL    HW1 3461   5.433   6.448   6.571
  854SOL    HW2 3462   5.317   6.555   6.612
  855SOL     OW 3463   5.846   0.815   0.287
  855SOL    HW1 3464   5.824   0.782   0.379
  855SOL    HW2 3465   5.904   0.897   0.295
  856SOL     OW 3466   2.020   6.173   0.311
  856SOL    HW1 3467   1.972   6.113   0.374
  856SOL    HW2 3468   2.004   6.142   0.217
  857SOL     OW 3469   6.401   5.116   5.105
  857SOL    HW1 3470   6.369   5.183   5.171
  857SOL    HW2 3471   6.336   5.040   5.100
  858SOL     OW 3472   3.816   3.914   0.147
  858SOL    HW1 3473   3.745   3.966   0.195
  858SOL    HW2 3474   3.897   3.972   0.136
  859SOL     OW 3475   4.199   6.797   5.380
  859SOL    HW1 3476   4.264   6.816   5.453
  859SOL    HW2 3477   4.148   6.713   5.401
  860SOL     OW 3478   5.615   3.262   5.838
  860SOL    HW1 3479   5.634   3.359   5.824
  860SOL    HW2 3480   5.652   3.209   5.761
  861SOL     OW 3481   2.337   6.471   2.516
  861SOL    HW1 3482   2.359   6.542   2.583
  861SOL    HW2 3483   2.309   6.514   2.430
  862SOL     OW 3484   1.343   4.428   3.729
  862SOL    HW1 3485   1.351   4.465   3.822
  862SOL    HW2 3486   1.248   4.434   3.699
  863SOL     OW 3487   6.987   0.830   6.646
  863SOL    HW1 3488   0.002   0.896   6.580
  863SOL    HW2 3489   0.033   0.805   6.713
  864SOL     OW 3490   5.744   7.008   5.017
  864SOL    HW1 3491   5.759   0.079   5.048
  864SOL    HW2 3492   5.653   6.979   5.045
  865SOL     OW 3493   2.276   5.972   4.630
  865SOL    HW1 3494   2.268   5.888   4.577
  865SOL    HW2 3495   2.200   6.033   4.608
  866SOL     OW 3496   2.781   6.219   2.252
  866SOL    HW1 3497   2.840   6.285   2.298
  866SOL    HW2 3498   2.751   6.149   2.318
  867SOL     OW 3499   6.016   1.896   0.361
  867SOL    HW1 3500   5.967   1.868   0.443
  867SOL    HW2 3501   6.059   1.815   0.319
  868SOL     OW 3502   6.988   2.272   2.390
  868SOL    HW1 3503   0.052   2.231   2.363
  868SOL    HW2 3504   6.972   2.355   2.337
  869SOL     OW 3505   0.134   3.894   3.582
  869SOL    HW1 3506   0.193   3.877   3.503
  869SOL    HW2 3507   0.161   3.834   3.657
  870SOL     OW 3508   3.627   5.383   1.507
  870SOL    HW1 3509   3.577   5.319   1.565
  870SOL    HW2 3510   3.700   5.426   1.559
  871SOL     OW 3511   4.613   1.960   3.253
  871SOL    HW1 3512   4.514   1.979   3.250
  871SOL    HW2 3513   4.629   1.863   3.232
  872SOL     OW 3514   0.007   2.770   4.228
  872SOL    HW1 3515   6.972   2.814   4.296
  872SOL    HW2 3516   0.071   2.708   4.275
  873SOL     OW 3517   4.415   6.506   6.130
  873SOL    HW1 3518   4.343   6.436   6.137
  873SOL    HW2 3519   4.492   6.480   6.187
  874SOL     OW 3520   4.885   3.909   0.492
  874SOL    HW1 3521   4.806   3.964   0.467
  874SOL    HW2 3522   4.861   3.849   0.568
  875SOL     OW 3523   4.859   5.485   0.540
  875SOL    HW1 3524   4.768   5.527   0.551
  875SOL    HW2 3525   4.872   5.415   0.611
  876SOL     OW 3526   0.458   6.073   1.951
  876SOL    HW1 3527   0.407   6.029   1.877
  876SOL    HW2 3528   0.471   6.007   2.025
  877SOL     OW 3529   2.867   4.586   6.852
  877SOL    HW1 3530   2.965   4.605   6.861
  877SOL    HW2 3531   2.815   4.652   6.907
  878SOL     OW 3532   3.999   6.680   4.369
  878SOL    HW1 3533   3.905   6.665   4.339
  878SOL    HW2 3534   4.030   6.601   4.422
  879SOL     OW 3535   5.160   0.516   0.352
  879SOL    HW1 3536   5.125   0.564   0.432
  879SOL    HW2 3537   5.222   0.443   0.381
  880SOL     OW 3538   2.929   3.311   2.777
  880SOL    HW1 3539   2.910   3.409   2.770
  880SOL    HW2 3540   2.915   3.268   2.688
  881SOL     OW 3541   4.619   2.391   5.818
  881SOL    HW1 3542   4.565   2.420   5.739
  881SOL    HW2 3543   4.561   2.343   5.883
  882SOL     OW 3544   0.856   3.439   4.917
  882SOL    HW1 3545   0.954   3.423   4.918
  882SOL    HW2 3546   0.809   3.356   4.888
  883SOL     OW 3547   3.133   0.371   2.696
  883SOL    HW1 3548   3.219   0.401   2.736
  883SOL    HW2 3549   3.133   0.272   2.685
  884SOL     OW 3550   4.945   2.720   5.136
  884SOL    HW1 3551   4.898   2.807   5.121
  884SOL    HW2 3552   4.952   2.702   5.234
  885SOL     OW 3553   3.322   1.617   6.269
  885SOL    HW1 3554   3.263   1.551   6.222
  885SOL    HW2 3555   3.403   1.570   6.305
  886SOL     OW 3556   3.464   0.820   6.989
  886SOL    HW1 3557   3.432   0.759   6.916
  886SOL    HW2 3558   3.536   0.879   6.953
  887SOL     OW 3559   4.378   0.981   3.899
  887SOL    HW1 3560   4.308   0.911   3.903
  887SOL    HW2 3561   4.356   1.047   3.828
  888SOL     OW 3562   0.512   0.449   3.376
  888SOL    HW1 3563   0.417   0.416   3.372
  888SOL    HW2 3564   0.574   0.372   3.363
  889SOL     OW 3565   0.614   4.085   6.629
  889SOL    HW1 3566   0.625   4.070   6.531
  889SOL    HW2 3567   0.583   4.000   6.672
  890SOL     OW 3568   2.314   5.977   3.472
  890SOL    HW1 3569   2.307   5.880   3.449
  890SOL    HW2 3570   2.296   6.032   3.390
  891SOL     OW 3571   5.532   5.620   0.785
  891SOL    HW1 3572   5.503   5.690   0.719
  891SOL    HW2 3573   5.630   5.630   0.803
  892SOL     OW 3574   2.544   3.906   5.685
  892SOL    HW1 3575   2.552   3.968   5.763
  892SOL    HW2 3576   2.632   3.901   5.638
  893SOL     OW 3577   2.616   6.424   3.058
  893SOL    HW1 3578   2.657   6.368   3.130
  893SOL    HW2 3579   2.516   6.420   3.065
  894SOL     OW 3580   1.564   4.339   1.558
  894SOL    HW1 3581   1.473   4.346   1.599
  894SOL    HW2 3582   1.556   4.319   1.461
  895SOL     OW 3583   0.304   5.528   3.255
  895SOL    HW1 3584   0.333   5.433   3.240
  895SOL    HW2 3585   0.375   5.590   3.222
  896SOL     OW 3586   6.750   5.604   6.304
  896SOL    HW1 3587   6.697   5.543   6.245
  896SOL    HW2 3588   6.706   5.608   6.394
  897SOL     OW 3589   5.379   0.781   0.502
  897SOL    HW1 3590   5.453   0.845   0.520
  897SOL    HW2 3591   5.309   0.789   0.574
  898SOL     OW 3592   3.559   5.186   3.305
  898SOL    HW1 3593   3.467   5.194   3.268
  898SOL    HW2 3594   3.566   5.239   3.389
  899SOL     OW 3595   0.876   5.272   6.083
  899SOL    HW1 3596   0.808   5.315   6.024
  899SOL    HW2 3597   0.870   5.173   6.075
  900SOL     OW 3598   6.132   0.015   0.239
  900SOL    HW1 3599   6.054   0.077   0.233
  900SOL    HW2 3600   6.100   6.944   0.241
  901SOL     OW 3601   1.967   1.005   2.481
  901SOL    HW1 3602   2.029   1.025   2.405
  901SOL    HW2 3603   1.875   0.989   2.446
  902SOL     OW 3604   6.031   3.445   0.734
  902SOL    HW1 3605   6.106   3.494   0.689
  902SOL    HW2 3606   5.943   3.482   0.701
  903SOL     OW 3607   6.903   2.144   0.181
  903SOL    HW1 3608   6.826   2.163   0.120
  903SOL    HW2 3609   6.890   2.193   0.267
  904SOL     OW 3610   3.103   2.048   4.021
  904SOL    HW1 3611   3.103   2.068   3.923
  904SOL    HW2 3612   3.058   2.122   4.071
  905SOL     OW 3613   5.859   2.694   0.147
  905SOL    HW1 3614   5.835   2.788   0.174
  905SOL    HW2 3615   5.835   2.631   0.222
  906SOL     OW 3616   0.198   2.427   5.436
  906SOL    HW1 3617   0.165   2.478   5.356
  906SOL    HW2 3618   0.293   2.401   5.421
  907SOL     OW 3619   5.040   3.589   0.043
  907SOL    HW1 3620   4.981   3.623   0.117
  907SOL    HW2 3621   5.026   3.491   0.032
  908SOL     OW 3622   2.767   4.695   2.231
  908SOL    HW1 3623   2.765   4.652   2.141
  908SOL    HW2 3624   2.730   4.788   2.224
  909SOL     OW 3625   4.452   5.101   6.100
  909SOL    HW1 3626   4.492   5.028   6.044
  909SOL    HW2 3627   4.457   5.187   6.051
  910SOL     OW 3628   2.497   2.526   1.606
  910SOL    HW1 3629   2.439   2.554   1.682
  910SOL    HW2 3630   2.587   2.498   1.640
  911SOL     OW 3631   1.847   6.214   6.284
  911SOL    HW1 3632   1.885   6.307   6.283
  911SOL    HW2 3633   1.824   6.188   6.378
  912SOL     OW 3634   5.057   2.940   3.568
  912SOL    HW1 3635   4.974   2.988   3.539
  912SOL    HW2 3636   5.137   2.997   3.549
  913SOL     OW 3637   5.310   6.726   2.964
  913SOL    HW1 3638   5.375   6.650   2.963
  913SOL    HW2 3639   5.352   6.806   2.922
  914SOL     OW 3640   2.524   0.129   6.607
  914SOL    HW1 3641   2.456   0.199   6.629
  914SOL    HW2 3642   2.572   0.154   6.522
  915SOL     OW 3643   5.849   5.605   0.820
  915SOL    HW1 3644   5.898   5.688   0.794
  915SOL    HW2 3645   5.868   5.533   0.753
  916SOL     OW 3646   0.938   2.225   2.373
  916SOL    HW1 3647   1.000   2.154   2.405
  916SOL    HW2 3648   0.885   2.191   2.295
  917SOL     OW 3649   0.517   0.209   0.666
  917SOL    HW1 3650   0.452   0.228   0.592
  917SOL    HW2 3651   0.500   0.118   0.703
  918SOL     OW 3652   1.784   6.380   0.975
  918SOL    HW1 3653   1.882   6.397   0.979
  918SOL    HW2 3654   1.743   6.391   1.065
  919SOL     OW 3655   5.810   1.714   3.190
  919SOL    HW1 3656   5.901   1.707   3.231
  919SOL    HW2 3657   5.741   1.691   3.259
  920SOL     OW 3658   2.525   5.024   1.918
  920SOL    HW1 3659   2.607   5.078   1.900
  920SOL    HW2 3660   2.524   4.944   1.857
  921SOL     OW 3661   5.220   5.871   4.384
  921SOL    HW1 3662   5.226   5.881   4.285
  921SOL    HW2 3663   5.143   5.810   4.407
  922SOL     OW 3664   3.608   3.900   3.909
  922SOL    HW1 3665   3.630   3.847   3.990
  922SOL    HW2 3666   3.526   3.861   3.865
  923SOL     OW 3667   1.961   2.667   5.524
  923SOL    HW1 3668   1.989   2.573   5.502
  923SOL    HW2 3669   2.042   2.724   5.534
  924SOL     OW 3670   6.762   3.869   2.426
  924SOL    HW1 3671   6.758   3.781   2.474
  924SOL    HW2 3672   6.670   3.909   2.423
  925SOL     OW 3673   6.133   1.647   0.294
  925SOL    HW1 3674   6.107   1.620   0.387
  925SOL    HW2 3675   6.081   1.593   0.228
  926SOL     OW 3676   0.538   1.528   1.878
  926SOL    HW1 3677   0.482   1.552   1.799
  926SOL    HW2 3678   0.541   1.606   1.941
  927SOL     OW 3679   5.522   3.844   3.495
  927SOL    HW1 3680   5.439   3.849   3.439
  927SOL    HW2 3681   5.519   3.761   3.551
  928SOL     OW 3682   3.410   5.902   6.582
  928SOL    HW1 3683   3.383   5.909   6.678
  928SOL    HW2 3684   3.490   5.960   6.565
  929SOL     OW 3685   6.640   1.207   5.691
  929SOL    HW1 3686   6.688   1.294   5.690
  929SOL    HW2 3687   6.689   1.142   5.749
  930SOL     OW 3688   4.994   5.019   6.503
  930SOL    HW1 3689   5.040   4.931   6.513
  930SOL    HW2 3690   4.977   5.059   6.594
  931SOL     OW 3691   6.536   2.822   3.293
  931SOL    HW1 3692   6.483   2.760   3.235
  931SOL    HW2 3693   6.552   2.908   3.244
  932SOL     OW 3694   4.152   0.511   3.648
  932SOL    HW1 3695   4.113   0.515   3.741
  932SOL    HW2 3696   4.185   0.419   3.629
  933SOL     OW 3697   1.344   5.007   2.642
  933SOL    HW1 3698   1.429   5.054   2.617
  933SOL    HW2 3699   1.318   4.943   2.570
  934SOL     OW 3700   1.661   5.191   6.489
  934SOL    HW1 3701   1.750   5.197   6.534
  934SOL    HW2 3702   1.612   5.278   6.501
  935SOL     OW 3703   5.386   3.450   3.219
  935SOL    HW1 3704   5.423   3.541   3.238
  935SOL    HW2 3705   5.461   3.384   3.210
  936SOL     OW 3706   1.740   0.230   6.837
  936SOL    HW1 3707   1.645   0.199   6.835
  936SOL    HW2 3708   1.742   0.328   6.856
  937SOL     OW 3709   5.218   0.933   5.405
  937SOL    HW1 3710   5.148   0.888   5.350
  937SOL    HW2 3711   5.299   0.950   5.349
  938SOL     OW 3712   6.163   5.211   4.627
  938SOL    HW1 3713   6.252   5.167   4.639
  938SOL    HW2 3714   6.156   5.290   4.688
  939SOL     OW 3715   0.150   6.915   5.311
  939SOL    HW1 3716   0.076   6.976   5.338
  939SOL    HW2 3717   0.234   6.967   5.299
  940SOL     OW 3718   2.255   5.058   0.804
  940SOL    HW1 3719   2.341   5.075   0.852
  940SOL    HW2 3720   2.258   4.968   0.760
  941SOL     OW 3721   3.985   0.257   6.554
  941SOL    HW1 3722   4.004   0.212   6.641
  941SOL    HW2 3723   3.887   0.272   6.545
  942SOL     OW 3724   0.098   5.273   0.175
  942SOL    HW1 3725   0.159   5.200   0.144
  942SOL    HW2 3726   0.052   5.245   0.259
  943SOL     OW 3727   3.279   4.961   3.009
  943SOL    HW1 3728   3.304   5.043   3.060
  943SOL    HW2 3729   3.291   4.977   2.912
  944SOL     OW 3730   0.530   6.385   4.511
  944SOL    HW1 3731   0.523   6.310   4.577
  944SOL    HW2 3732   0.453   6.448   4.524
  945SOL     OW 3733   0.879   5.653   6.345
  945SOL    HW1 3734   0.891   5.663   6.444
  945SOL    HW2 3735   0.958   5.691   6.298
  946SOL     OW 3736   4.763   4.047   3.699
  946SOL    HW1 3737   4.792   4.005   3.786
  946SOL    HW2 3738   4.795   3.990   3.623
  947SOL     OW 3739   3.824   4.042   4.043
  947SOL    HW1 3740   3.888   3.977   4.084
  947SOL    HW2 3741   3.773   3.996   3.969
  948SOL     OW 3742   4.621   1.381   2.614
  948SOL    HW1 3743   4.716   1.351   2.619
  948SOL    HW2 3744   4.568   1.313   2.561
  949SOL     OW 3745   3.144   6.394   6.579
  949SOL    HW1 3746   3.133   6.376   6.481
  949SOL    HW2 3747   3.054   6.394   6.623
  950SOL     OW 3748   0.081   6.316   2.291
  950SOL    HW1 3749   0.059   6.327   2.194
  950SOL    HW2 3750   0.151   6.382   2.317
  951SOL     OW 3751   1.507   6.894   3.470
  951SOL    HW1 3752   1.587   6.947   3.497
  951SOL    HW2 3753   1.518   6.799   3.499
  952SOL     OW 3754   3.723   1.462   1.625
  952SOL    HW1 3755   3.653   1.442   1.694
  952SOL    HW2 3756   3.722   1.560   1.604
  953SOL     OW 3757   6.777   4.948   5.261
  953SOL    HW1 3758   6.695   4.902   5.292
  953SOL    HW2 3759   6.856   4.887   5.270
  954SOL     OW 3760   5.045   5.897   2.821
  954SOL    HW1 3761   5.030   5.853   2.910
  954SOL    HW2 3762   5.141   5.924   2.812
  955SOL     OW 3763   1.338   4.602   6.950
  955SOL    HW1 3764   1.246   4.592   6.987
  955SOL    HW2 3765   1.344   4.554   6.862
  956SOL     OW 3766   6.503   0.630   1.540
  956SOL    HW1 3767   6.546   0.720   1.531
  956SOL    HW2 3768   6.404   0.640   1.550
  957SOL     OW 3769   6.324   2.593   4.124
  957SOL    HW1 3770   6.371   2.506   4.115
  957SOL    HW2 3771   6.258   2.604   4.049
  958SOL     OW 3772   5.231   6.953   1.985
  958SOL    HW1 3773   5.137   6.962   1.950
  958SOL    HW2 3774   5.264   6.860   1.969
  959SOL     OW 3775   3.856   6.865   4.174
  959SOL    HW1 3776   3.805   6.943   4.138
  959SOL    HW2 3777   3.953   6.875   4.151
  960SOL     OW 3778   0.778   0.686   0.132
  960SOL    HW1 3779   0.735   0.631   0.060
  960SOL    HW2 3780   0.719   0.763   0.155
  961SOL     OW 3781   3.459   6.435   2.809
  961SOL    HW1 3782   3.553   6.470   2.802
  961SOL    HW2 3783   3.396   6.513   2.817
  962SOL     OW 3784   6.539   0.467   5.050
  962SOL    HW1 3785   6.504   0.430   5.136
  962SOL    HW2 3786   6.484   0.434   4.974
  963SOL     OW 3787   4.656   2.906   1.043
  963SOL    HW1 3788   4.743   2.938   1.080
  963SOL    HW2 3789   4.650   2.807   1.050
  964SOL     OW 3790   4.846   4.474   5.130
  964SOL    HW1 3791   4.850   4.472   5.230
  964SOL    HW2 3792   4.822   4.382   5.097
  965SOL     OW 3793   5.627   2.554   3.612
  965SOL    HW1 3794   5.686   2.550   3.531
  965SOL    HW2 3795   5.561   2.480   3.609
  966SOL     OW 3796   5.047   2.167   4.062
  966SOL    HW1 3797   4.962   2.220   4.074
  966SOL    HW2 3798   5.103   2.210   3.991
  967SOL     OW 3799   5.268   3.983   6.392
  967SOL    HW1 3800   5.324   4.044   6.448
  967SOL    HW2 3801   5.179   3.972   6.435
  968SOL     OW 3802   3.498   0.391   1.191
  968SOL    HW1 3803   3.533   0.474   1.149
  968SOL    HW2 3804   3.400   0.382   1.171
  969SOL     OW 3805   3.353   4.212   5.869
  969SOL    HW1 3806   3.445   4.220   5.831
  969SOL    HW2 3807   3.304   4.139   5.821
  970SOL     OW 3808   6.040   0.357   6.181
  970SOL    HW1 3809   6.060   0.260   6.197
  970SOL    HW2 3810   5.950   0.365   6.138
  971SOL     OW 3811   6.097   3.963   2.703
  971SOL    HW1 3812   6.137   4.000   2.787
  971SOL    HW2 3813   6.041   3.884   2.725
  972SOL     OW 3814   0.331   2.918   1.079
  972SOL    HW1 3815   0.347   2.888   0.985
  972SOL    HW2 3816   0.331   3.018   1.082
  973SOL     OW 3817   6.865   3.537   6.111
  973SOL    HW1 3818   6.865   3.634   6.085
  973SOL    HW2 3819   6.799   3.488   6.055
  974SOL     OW 3820   6.738   5.015   4.389
  974SOL    HW1 3821   6.751   5.029   4.291
  974SOL    HW2 3822   6.716   4.919   4.407
  975SOL     OW 3823   2.186   6.707   1.942
  975SOL    HW1 3824   2.154   6.645   2.013
  975SOL    HW2 3825   2.281   6.687   1.919
  976SOL     OW 3826   6.446   3.787   2.089
  976SOL    HW1 3827   6.536   3.831   2.098
  976SOL    HW2 3828   6.437   3.749   1.997
  977SOL     OW 3829   0.010   1.060   2.527
  977SOL    HW1 3830   0.072   1.082   2.603
  977SOL    HW2 3831   7.013   0.962   2.529
  978SOL     OW 3832   5.481   2.558   1.943
  978SOL    HW1 3833   5.469   2.603   2.031
  978SOL    HW2 3834   5.504   2.462   1.958
  979SOL     OW 3835   6.498   3.854   7.003
  979SOL    HW1 3836   6.486   3.885   0.074
  979SOL    HW2 3837   6.410   3.857   6.957
  980SOL     OW 3838   3.585   1.685   5.009
  980SOL    HW1 3839   3.651   1.761   5.016
  980SOL    HW2 3840   3.511   1.699   5.075
  981SOL     OW 3841   6.654   6.486   5.454
  981SOL    HW1 3842   6.648   6.393   5.416
  981SOL    HW2 3843   6.561   6.520   5.472
  982SOL     OW 3844   0.137   1.479   5.088
  982SOL    HW1 3845   0.073   1.436   5.151
  982SOL    HW2 3846   0.097   1.484   4.997
  983SOL     OW 3847   0.152   4.224   3.964
  983SOL    HW1 3848   0.107   4.157   4.023
  983SOL    HW2 3849   0.238   4.186   3.930
  984SOL     OW 3850   1.641   2.046   2.976
  984SOL    HW1 3851   1.552   2.003   2.961
  984SOL    HW2 3852   1.713   1.978   2.961
  985SOL     OW 3853   6.150   3.369   4.316
  985SOL    HW1 3854   6.104   3.451   4.349
  985SOL    HW2 3855   6.248   3.386   4.308
  986SOL     OW 3856   5.423   4.443   1.165
  986SOL    HW1 3857   5.512   4.488   1.160
  986SOL    HW2 3858   5.427   4.354   1.119
  987SOL     OW 3859   6.017   4.978   3.692
  987SOL    HW1 3860   6.107   4.978   3.736
  987SOL    HW2 3861   5.999   5.067   3.652
  988SOL     OW 3862   2.937   4.027   1.570
  988SOL    HW1 3863   2.980   4.060   1.653
  988SOL    HW2 3864   2.869   3.958   1.593
  989SOL     OW 3865   0.156   1.234   1.055
  989SOL    HW1 3866   0.209   1.207   0.975
  989SOL    HW2 3867   0.196   1.317   1.094
  990SOL     OW 3868   4.287   0.297   3.589
  990SOL    HW1 3869   4.209   0.247   3.627
  990SOL    HW2 3870   4.372   0.259   3.626
  991SOL     OW 3871   6.686   4.425   3.957
  991SOL    HW1 3872   6.711   4.415   3.860
  991SOL    HW2 3873   6.703   4.338   4.004
  992SOL     OW 3874   0.378   2.670   1.164
  992SOL    HW1 3875   0.475   2.661   1.187
  992SOL    HW2 3876   0.359   2.765   1.138
  993SOL     OW 3877   1.881   5.373   0.864
  993SOL    HW1 3878   1.932   5.292   0.895
  993SOL    HW2 3879   1.944   5.439   0.824
  994SOL     OW 3880   3.298   6.839   0.544
  994SOL    HW1 3881   3.369   6.908   0.559
  994SOL    HW2 3882   3.275   6.835   0.447
  995SOL     OW 3883   5.388   3.248   5.516
  995SOL    HW1 3884   5.352   3.154   5.518
  995SOL    HW2 3885   5.316   3.311   5.545
  996SOL     OW 3886   3.634   6.193   5.904
  996SOL    HW1 3887   3.718   6.138   5.910
  996SOL    HW2 3888   3.626   6.231   5.812
  997SOL     OW 3889   1.793   5.711   3.931
  997SOL    HW1 3890   1.695   5.721   3.916
  997SOL    HW2 3891   1.809   5.648   4.007
  998SOL     OW 3892   5.651   0.197   6.365
  998SOL    HW1 3893   5.619   0.108   6.333
  998SOL    HW2 3894   5.711   0.238   6.296
  999SOL     OW 3895   4.845   3.782   1.956
  999SOL    HW1 3896   4.881   3.875   1.964
  999SOL    HW2 3897   4.781   3.777   1.880
 1000SOL     OW 3898   4.010   1.734   1.600
 1000SOL    HW1 3899   3.971   1.765   1.687
 1000SOL    HW2 3900   3.952   1.763   1.524
 1001SOL     OW 3901   2.470   6.723   2.091
 1001SOL    HW1 3902   2.506   6.704   1.999
 1001SOL    HW2 3903   2.485   6.643   2.149
 1002SOL     OW 3904   5.404   2.919   1.466
 1002SOL    HW1 3905   5.460   2.948   1.545
 1002SOL    HW2 3906   5.394   2.996   1.403
 1003SOL     OW 3907   0.505   6.583   2.909
 1003SOL    HW1 3908   0.471   6.656   2.850
 1003SOL    HW2 3909   0.479   6.494   2.871
 1004SOL     OW 3910   5.268   1.454   3.755
 1004SOL    HW1 3911   5.347   1.404   3.719
 1004SOL    HW2 3912   5.185   1.400   3.742
 1005SOL     OW 3913   1.350   4.724   4.185
 1005SOL    HW1 3914   1.358   4.750   4.281
 1005SOL    HW2 3915   1.414   4.778   4.130
 1006SOL     OW 3916   2.066   3.802   0.726
 1006SOL    HW1 3917   2.126   3.857   0.667
 1006SOL    HW2 3918   1.996   3.757   0.671
 1007SOL     OW 3919   4.517   1.844   6.483
 1007SOL    HW1 3920   4.536   1.933   6.441
 1007SOL    HW2 3921   4.603   1.802   6.512
 1008SOL     OW 3922   0.392   4.452   4.946
 1008SOL    HW1 3923   0.355   4.420   4.859
 1008SOL    HW2 3924   0.464   4.520   4.928
 1009SOL     OW 3925   6.347   5.174   5.627
 1009SOL    HW1 3926   6.421   5.241   5.640
 1009SOL    HW2 3927   6.284   5.207   5.556
 1010SOL     OW 3928   2.389   3.678   1.231
 1010SOL    HW1 3929   2.295   3.645   1.228
 1010SOL    HW2 3930   2.427   3.678   1.138
 1011SOL     OW 3931   0.229   4.950   2.945
 1011SOL    HW1 3932   0.307   4.907   2.989
 1011SOL    HW2 3933   0.260   5.026   2.888
 1012SOL     OW 3934   5.648   0.544   2.403
 1012SOL    HW1 3935   5.572   0.535   2.467
 1012SOL    HW2 3936   5.629   0.491   2.321
 1013SOL     OW 3937   6.603   0.959   6.599
 1013SOL    HW1 3938   6.560   0.935   6.511
 1013SOL    HW2 3939   6.621   0.876   6.651
 1014SOL     OW 3940   1.214   4.819   4.678
 1014SOL    HW1 3941   1.251   4.841   4.588
 1014SOL    HW2 3942   1.285   4.833   4.748
 1015SOL     OW 3943   3.704   6.811   6.516
 1015SOL    HW1 3944   3.699   6.883   6.448
 1015SOL    HW2 3945   3.613   6.770   6.529
 1016SOL     OW 3946   5.654   3.957   1.800
 1016SOL    HW1 3947   5.572   3.984   1.851
 1016SOL    HW2 3948   5.731   3.947   1.863
 1017SOL     OW 3949   2.435   1.667   2.564
 1017SOL    HW1 3950   2.432   1.577   2.521
 1017SOL    HW2 3951   2.457   1.737   2.495
 1018SOL     OW 3952   0.308   4.838   3.325
 1018SOL    HW1 3953   0.271   4.822   3.233
 1018SOL    HW2 3954   0.235   4.826   3.392
 1019SOL     OW 3955   0.352   5.343   0.866
 1019SOL    HW1 3956   0.433   5.360   0.810
 1019SOL    HW2 3957   0.275   5.397   0.831
 1020SOL     OW 3958   0.109   6.744   0.844
 1020SOL    HW1 3959   0.169   6.684   0.897
 1020SOL    HW2 3960   0.110   6.716   0.748
 1021SOL     OW 3961   6.309   5.976   1.836
 1021SOL    HW1 3962   6.358   5.894   1.866
 1021SOL    HW2 3963   6.293   5.971   1.738
 1022SOL     OW 3964   2.539   6.512   6.326
 1022SOL    HW1 3965   2.461   6.455   6.352
 1022SOL    HW2 3966   2.624   6.465   6.351
 1023SOL     OW 3967   0.642   1.760   3.389
 1023SOL    HW1 3968   0.672   1.855   3.388
 1023SOL    HW2 3969   0.543   1.756   3.380
 1024SOL     OW 3970   1.425   2.058   5.095
 1024SOL    HW1 3971   1.479   1.974   5.097
 1024SOL    HW2 3972   1.482   2.134   5.067
 1025SOL     OW 3973   4.541   3.768   6.977
 1025SOL    HW1 3974   4.545   3.703   0.028
 1025SOL    HW2 3975   4.581   3.727   6.895
 1026SOL     OW 3976   2.710   2.682   1.360
 1026SOL    HW1 3977   2.742   2.750   1.426
 1026SOL    HW2 3978   2.633   2.631   1.399
 1027SOL     OW 3979   0.704   6.365   1.104
 1027SOL    HW1 3980   0.708   6.310   1.187
 1027SOL    HW2 3981   0.650   6.316   1.034
 1028SOL     OW 3982   0.487   5.919   2.767
 1028SOL    HW1 3983   0.503   5.920   2.866
 1028SOL    HW2 3984   0.563   5.873   2.722
 1029SOL     OW 3985   1.030   1.881   5.971
 1029SOL    HW1 3986   1.082   1.826   5.905
 1029SOL    HW2 3987   0.952   1.923   5.924
 1030SOL     OW 3988   3.088   3.507   1.513
 1030SOL    HW1 3989   3.087   3.408   1.496
 1030SOL    HW2 3990   3.024   3.529   1.586
 1031SOL     OW 3991   3.067   3.237   1.524
 1031SOL    HW1 3992   3.005   3.224   1.601
 1031SOL    HW2 3993   3.127   3.157   1.515
 1032SOL     OW 3994   1.817   1.593   6.085
 1032SOL    HW1 3995   1.891   1.660   6.080
 1032SOL    HW2 3996   1.732   1.638   6.108
 1033SOL     OW 3997   0.821   6.066   2.194
 1033SOL    HW1 3998   0.848   6.106   2.106
 1033SOL    HW2 3999   0.730   6.026   2.186
 1034SOL     OW 4000   3.613   6.823   4.972
 1034SOL    HW1 4001   3.535   6.851   5.029
 1034SOL    HW2 4002   3.697   6.831   5.025
 1035SOL     OW 4003   0.483   1.539   5.986
 1035SOL    HW1 4004   0.385   1.558   5.993
 1035SOL    HW2 4005   0.530   1.618   5.949
 1036SOL     OW 4006   5.030   1.677   0.897
 1036SOL    HW1 4007   4.993   1.584   0.893
 1036SOL    HW2 4008   5.122   1.673   0.936
 1037SOL     OW 4009   1.338   2.483   2.843
 1037SOL    HW1 4010   1.364   2.400   2.894
 1037SOL    HW2 4011   1.402   2.497   2.768
 1038SOL     OW 4012   2.880   0.372   0.073
 1038SOL    HW1 4013   2.895   0.332   0.163
 1038SOL    HW2 4014   2.967   0.405   0.036
 1039SOL     OW 4015   3.492   3.319   3.847
 1039SOL    HW1 4016   3.396   3.293   3.841
 1039SOL    HW2 4017   3.538   3.296   3.761
 1040SOL     OW 4018   3.972   1.085   2.656
 1040SOL    HW1 4019   3.942   1.145   2.730
 1040SOL    HW2 4020   4.060   1.044   2.680
 1041SOL     OW 4021   6.741   6.177   5.957
 1041SOL    HW1 4022   6.821   6.210   6.008
 1041SOL    HW2 4023   6.698   6.103   6.008
 1042SOL     OW 4024   5.140   4.571   2.190
 1042SOL    HW1 4025   5.071   4.642   2.178
 1042SOL    HW2 4026   5.132   4.503   2.116
 1043SOL     OW 4027   3.413   1.299   3.892
 1043SOL    HW1 4028   3.483   1.334   3.954
 1043SOL    HW2 4029   3.432   1.204   3.871
 1044SOL     OW 4030   5.911   5.223   1.297
 1044SOL    HW1 4031   5.880   5.170   1.218
 1044SOL    HW2 4032   6.011   5.226   1.298
 1045SOL     OW 4033   2.387   0.462   3.913
 1045SOL    HW1 4034   2.439   0.386   3.875
 1045SOL    HW2 4035   2.451   0.534   3.943
 1046SOL     OW 4036   3.316   1.413   0.929
 1046SOL    HW1 4037   3.230   1.410   0.878
 1046SOL    HW2 4038   3.305   1.366   1.017
 1047SOL     OW 4039   3.606   6.967   3.055
 1047SOL    HW1 4040   3.508   6.981   3.041
 1047SOL    HW2 4041   3.628   6.974   3.152
 1048SOL     OW 4042   1.487   6.301   2.388
 1048SOL    HW1 4043   1.408   6.245   2.362
 1048SOL    HW2 4044   1.461   6.364   2.461
 1049SOL     OW 4045   4.266   6.733   5.110
 1049SOL    HW1 4046   4.242   6.744   5.206
 1049SOL    HW2 4047   4.359   6.769   5.094
 1050SOL     OW 4048   3.334   5.370   3.814
 1050SOL    HW1 4049   3.246   5.347   3.772
 1050SOL    HW2 4050   3.398   5.293   3.802
 1051SOL     OW 4051   0.011   0.287   0.392
 1051SOL    HW1 4052   0.051   0.239   0.314
 1051SOL    HW2 4053   0.015   0.385   0.377
 1052SOL     OW 4054   3.920   0.589   6.697
 1052SOL    HW1 4055   3.955   0.543   6.616
 1052SOL    HW2 4056   3.832   0.549   6.723
 1053SOL     OW 4057   5.978   3.411   2.774
 1053SOL    HW1 4058   5.926   3.339   2.729
 1053SOL    HW2 4059   6.062   3.428   2.722
 1054SOL     OW 4060   3.173   4.306   0.121
 1054SOL    HW1 4061   3.163   4.405   0.129
 1054SOL    HW2 4062   3.094   4.269   0.072
 1055SOL     OW 4063   4.455   5.815   6.459
 1055SOL    HW1 4064   4.489   5.857   6.375
 1055SOL    HW2 4065   4.374   5.759   6.437
 1056SOL     OW 4066   2.290   4.363   6.884
 1056SOL    HW1 4067   2.221   4.388   6.952
 1056SOL    HW2 4068   2.364   4.313   6.929
 1057SOL     OW 4069   3.212   1.520   1.459
 1057SOL    HW1 4070   3.118   1.524   1.494
 1057SOL    HW2 4071   3.255   1.434   1.488
 1058SOL     OW 4072   2.952   1.703   2.933
 1058SOL    HW1 4073   2.884   1.661   2.993
 1058SOL    HW2 4074   3.002   1.632   2.884
 1059SOL     OW 4075   2.507   5.870   1.663
 1059SOL    HW1 4076   2.566   5.899   1.738
 1059SOL    HW2 4077   2.559   5.815   1.599
 1060SOL     OW 4078   6.535   6.127   5.785
 1060SOL    HW1 4079   6.630   6.123   5.814
 1060SOL    HW2 4080   6.518   6.213   5.738
 1061SOL     OW 4081   6.509   3.898   0.256
 1061SOL    HW1 4082   6.558   3.986   0.257
 1061SOL    HW2 4083   6.554   3.835   0.319
 1062SOL     OW 4084   3.700   6.407   5.387
 1062SOL    HW1 4085   3.683   6.453   5.300
 1062SOL    HW2 4086   3.797   6.385   5.395
 1063SOL     OW 4087   1.598   6.333   5.666
 1063SOL    HW1 4088   1.553   6.252   5.706
 1063SOL    HW2 4089   1.559   6.416   5.706
 1064SOL     OW 4090   0.511   4.668   1.016
 1064SOL    HW1 4091   0.513   4.622   1.104
 1064SOL    HW2 4092   0.464   4.756   1.024
 1065SOL     OW 4093   4.245   0.304   4.636
 1065SOL    HW1 4094   4.166   0.242   4.636
 1065SOL    HW2 4095   4.295   0.292   4.550
 1066SOL     OW 4096   4.752   0.213   1.921
 1066SOL    HW1 4097   4.821   0.276   1.887
 1066SOL    HW2 4098   4.775   0.185   2.015
 1067SOL     OW 4099   2.829   1.104   0.370
 1067SOL    HW1 4100   2.748   1.144   0.413
 1067SOL    HW2 4101   2.873   1.173   0.312
 1068SOL     OW 4102   6.109   3.060   1.452
 1068SOL    HW1 4103   6.088   3.090   1.545
 1068SOL    HW2 4104   6.185   2.994   1.454
 1069SOL     OW 4105   6.476   4.081   1.774
 1069SOL    HW1 4106   6.535   4.017   1.823
 1069SOL    HW2 4107   6.486   4.172   1.814
 1070SOL     OW 4108   1.104   0.921   2.187
 1070SOL    HW1 4109   1.165   0.870   2.125
 1070SOL    HW2 4110   1.043   0.857   2.234
 1071SOL     OW 4111   6.972   2.824   5.167
 1071SOL    HW1 4112   6.878   2.833   5.134
 1071SOL    HW2 4113   0.011   2.859   5.098
 1072SOL     OW 4114   3.060   1.275   2.543
 1072SOL    HW1 4115   3.139   1.336   2.542
 1072SOL    HW2 4116   2.976   1.330   2.547
 1073SOL     OW 4117   5.155   1.673   3.628
 1073SOL    HW1 4118   5.127   1.612   3.553
 1073SOL    HW2 4119   5.217   1.623   3.689
 1074SOL     OW 4120   3.133   5.032   2.224
 1074SOL    HW1 4121   3.091   4.942   2.232
 1074SOL    HW2 4122   3.153   5.050   2.127
 1075SOL     OW 4123   5.927   2.778   5.230
 1075SOL    HW1 4124   5.923   2.763   5.132
 1075SOL    HW2 4125   5.874   2.707   5.277
 1076SOL     OW 4126   2.099   4.001   5.019
 1076SOL    HW1 4127   2.193   4.032   5.038
 1076SOL    HW2 4128   2.037   4.079   5.026
 1077SOL     OW 4129   6.596   0.185   0.376
 1077SOL    HW1 4130   6.544   0.270   0.388
 1077SOL    HW2 4131   6.677   0.202   0.319
 1078SOL     OW 4132   6.713   5.982   4.124
 1078SOL    HW1 4133   6.680   5.894   4.158
 1078SOL    HW2 4134   6.729   5.975   4.025
 1079SOL     OW 4135   0.959   5.913   2.923
 1079SOL    HW1 4136   1.040   5.856   2.909
 1079SOL    HW2 4137   0.915   5.932   2.836
 1080SOL     OW 4138   1.777   4.885   5.640
 1080SOL    HW1 4139   1.828   4.861   5.722
 1080SOL    HW2 4140   1.821   4.844   5.560
 1081SOL     OW 4141   6.310   5.629   4.623
 1081SOL    HW1 4142   6.398   5.590   4.598
 1081SOL    HW2 4143   6.323   5.721   4.660
 1082SOL     OW 4144   5.677   6.937   6.247
 1082SOL    HW1 4145   5.594   6.882   6.249
 1082SOL    HW2 4146   5.692   6.972   6.154
 1083SOL     OW 4147   5.299   4.117   0.813
 1083SOL    HW1 4148   5.317   4.108   0.715
 1083SOL    HW2 4149   5.206   4.086   0.833
 1084SOL     OW 4150   0.157   0.009   6.467
 1084SOL    HW1 4151   0.232   0.071   6.442
 1084SOL    HW2 4152   0.070   0.047   6.436
 1085SOL     OW 4153   2.004   4.142   4.240
 1085SOL    HW1 4154   2.051   4.081   4.176
 1085SOL    HW2 4155   2.067   4.168   4.314
 1086SOL     OW 4156   6.170   4.581   7.012
 1086SOL    HW1 4157   6.191   4.546   0.079
 1086SOL    HW2 4158   6.129   4.672   7.019
 1087SOL     OW 4159   1.919   0.530   5.606
 1087SOL    HW1 4160   1.905   0.616   5.557
 1087SOL    HW2 4161   1.994   0.541   5.671
 1088SOL     OW 4162   6.646   4.842   3.336
 1088SOL    HW1 4163   6.619   4.801   3.423
 1088SOL    HW2 4164   6.642   4.773   3.264
 1089SOL     OW 4165   6.437   4.260   4.663
 1089SOL    HW1 4166   6.416   4.213   4.749
 1089SOL    HW2 4167   6.494   4.340   4.682
 1090SOL     OW 4168   5.026   1.452   4.486
 1090SOL    HW1 4169   5.067   1.489   4.403
 1090SOL    HW2 4170   4.927   1.467   4.484
 1091SOL     OW 4171   2.347   2.862   3.483
 1091SOL    HW1 4172   2.372   2.767   3.464
 1091SOL    HW2 4173   2.331   2.874   3.581
 1092SOL     OW 4174   0.799   5.160   0.534
 1092SOL    HW1 4175   0.799   5.064   0.561
 1092SOL    HW2 4176   0.706   5.188   0.510
 1093SOL     OW 4177   2.461   0.127   1.157
 1093SOL    HW1 4178   2.400   0.050   1.136
 1093SOL    HW2 4179   2.555   0.101   1.135
 1094SOL     OW 4180   1.242   0.324   3.187
 1094SOL    HW1 4181   1.305   0.259   3.228
 1094SOL    HW2 4182   1.191   0.279   3.113
 1095SOL     OW 4183   7.005   3.154   0.113
 1095SOL    HW1 4184   0.008   3.199   0.198
 1095SOL    HW2 4185   6.999   3.221   0.039
 1096SOL     OW 4186   2.918   5.509   1.297
 1096SOL    HW1 4187   2.837   5.487   1.243
 1096SOL    HW2 4188   2.894   5.510   1.394
 1097SOL     OW 4189   2.477   5.068   3.493
 1097SOL    HW1 4190   2.541   5.042   3.565
 1097SOL    HW2 4191   2.506   5.028   3.406
 1098SOL     OW 4192   6.128   5.005   0.520
 1098SOL    HW1 4193   6.202   4.953   0.562
 1098SOL    HW2 4194   6.040   4.974   0.557
 1099SOL     OW 4195   4.736   1.294   6.225
 1099SOL    HW1 4196   4.815   1.326   6.173
 1099SOL    HW2 4197   4.686   1.372   6.262
 1100SOL     OW 4198   3.488   1.304   3.439
 1100SOL    HW1 4199   3.447   1.380   3.489
 1100SOL    HW2 4200   3.417   1.237   3.416
 1101SOL     OW 4201   6.082   2.975   5.859
 1101SOL    HW1 4202   6.048   2.982   5.953
 1101SOL    HW2 4203   6.109   3.066   5.827
 1102SOL     OW 4204   2.082   0.487   4.669
 1102SOL    HW1 4205   2.006   0.540   4.706
 1102SOL    HW2 4206   2.073   0.481   4.569
 1103SOL     OW 4207   3.199   0.589   6.369
 1103SOL    HW1 4208   3.123   0.652   6.384
 1103SOL    HW2 4209   3.169   0.495   6.384
 1104SOL     OW 4210   0.465   3.587   3.326
 1104SOL    HW1 4211   0.551   3.555   3.365
 1104SOL    HW2 4212   0.449   3.541   3.239
 1105SOL     OW 4213   5.393   1.401   4.898
 1105SOL    HW1 4214   5.397   1.302   4.909
 1105SOL    HW2 4215   5.479   1.434   4.859
 1106SOL     OW 4216   0.585   1.394   0.465
 1106SOL    HW1 4217   0.639   1.334   0.523
 1106SOL    HW2 4218   0.592   1.488   0.498
 1107SOL     OW 4219   0.438   0.641   0.112
 1107SOL    HW1 4220   0.506   0.711   0.134
 1107SOL    HW2 4221   0.483   0.561   0.072
 1108SOL     OW 4222   2.705   6.358   4.093
 1108SOL    HW1 4223   2.705   6.338   3.995
 1108SOL    HW2 4224   2.664   6.448   4.109
 1109SOL     OW 4225   5.164   1.692   4.400
 1109SOL    HW1 4226   5.263   1.697   4.387
 1109SOL    HW2 4227   5.132   1.775   4.447
 1110SOL     OW 4228   3.575   0.412   2.428
 1110SOL    HW1 4229   3.564   0.480   2.500
 1110SOL    HW2 4230   3.492   0.358   2.420
 1111SOL     OW 4231   4.766   3.587   6.188
 1111SOL    HW1 4232   4.710   3.547   6.116
 1111SOL    HW2 4233   4.710   3.608   6.268
 1112SOL     OW 4234   5.467   0.698   2.218
 1112SOL    HW1 4235   5.533   0.660   2.284
 1112SOL    HW2 4236   5.393   0.743   2.267
 1113SOL     OW 4237   6.214   4.705   2.144
 1113SOL    HW1 4238   6.140   4.752   2.097
 1113SOL    HW2 4239   6.186   4.685   2.238
 1114SOL     OW 4240   4.502   3.211   5.664
 1114SOL    HW1 4241   4.447   3.241   5.586
 1114SOL    HW2 4242   4.495   3.111   5.673
 1115SOL     OW 4243   3.059   4.060   6.039
 1115SOL    HW1 4244   3.139   4.019   5.994
 1115SOL    HW2 4245   2.988   4.077   5.971
 1116SOL     OW 4246   4.818   0.427   5.967
 1116SOL    HW1 4247   4.720   0.441   5.983
 1116SOL    HW2 4248   4.866   0.431   6.054
 1117SOL     OW 4249   0.948   2.683   1.674
 1117SOL    HW1 4250   1.044   2.654   1.672
 1117SOL    HW2 4251   0.941   2.771   1.721
 1118SOL     OW 4252   3.053   4.827   0.085
 1118SOL    HW1 4253   2.965   4.865   0.057
 1118SOL    HW2 4254   3.085   4.761   0.017
 1119SOL     OW 4255   3.813   5.208   3.769
 1119SOL    HW1 4256   3.873   5.131   3.749
 1119SOL    HW2 4257   3.723   5.192   3.728
 1120SOL     OW 4258   6.962   5.275   0.878
 1120SOL    HW1 4259   7.006   5.256   0.966
 1120SOL    HW2 4260   6.962   5.192   0.823
 1121SOL     OW 4261   0.318   4.665   4.472
 1121SOL    HW1 4262   0.340   4.675   4.375
 1121SOL    HW2 4263   0.394   4.620   4.518
 1122SOL     OW 4264   5.566   2.600   1.700
 1122SOL    HW1 4265   5.545   2.611   1.797
 1122SOL    HW2 4266   5.651   2.547   1.690
 1123SOL     OW 4267   4.184   2.206   3.160
 1123SOL    HW1 4268   4.180   2.234   3.064
 1123SOL    HW2 4269   4.107   2.146   3.180
 1124SOL     OW 4270   2.165   3.136   4.914
 1124SOL    HW1 4271   2.246   3.083   4.937
 1124SOL    HW2 4272   2.157   3.215   4.975
 1125SOL     OW 4273   1.028   3.909   4.166
 1125SOL    HW1 4274   1.119   3.902   4.126
 1125SOL    HW2 4275   1.015   3.834   4.232
 1126SOL     OW 4276   4.183   5.329   5.292
 1126SOL    HW1 4277   4.178   5.398   5.219
 1126SOL    HW2 4278   4.156   5.370   5.379
 1127SOL     OW 4279   5.741   6.079   3.290
 1127SOL    HW1 4280   5.675   6.134   3.341
 1127SOL    HW2 4281   5.794   6.138   3.229
 1128SOL     OW 4282   6.350   1.619   3.476
 1128SOL    HW1 4283   6.378   1.673   3.556
 1128SOL    HW2 4284   6.255   1.642   3.453
 1129SOL     OW 4285   1.758   0.606   1.142
 1129SOL    HW1 4286   1.712   0.521   1.167
 1129SOL    HW2 4287   1.848   0.609   1.187
 1130SOL     OW 4288   2.172   5.443   2.988
 1130SOL    HW1 4289   2.225   5.358   2.977
 1130SOL    HW2 4290   2.092   5.440   2.928
 1131SOL     OW 4291   1.308   6.485   4.429
 1131SOL    HW1 4292   1.380   6.438   4.378
 1131SOL    HW2 4293   1.336   6.579   4.447
 1132SOL     OW 4294   3.643   1.398   3.045
 1132SOL    HW1 4295   3.558   1.374   2.998
 1132SOL    HW2 4296   3.674   1.488   3.015
 1133SOL     OW 4297   0.845   6.491   4.829
 1133SOL    HW1 4298   0.783   6.499   4.907
 1133SOL    HW2 4299   0.851   6.396   4.801
 1134SOL     OW 4300   4.213   0.198   1.445
 1134SOL    HW1 4301   4.244   0.103   1.442
 1134SOL    HW2 4302   4.127   0.206   1.395
 1135SOL     OW 4303   1.837   6.049   3.664
 1135SOL    HW1 4304   1.747   6.068   3.704
 1135SOL    HW2 4305   1.906   6.108   3.706
 1136SOL     OW 4306   2.942   5.644   2.286
 1136SOL    HW1 4307   3.011   5.618   2.353
 1136SOL    HW2 4308   2.961   5.597   2.199
 1137SOL     OW 4309   0.563   5.313   6.580
 1137SOL    HW1 4310   0.582   5.345   6.487
 1137SOL    HW2 4311   0.537   5.391   6.638
 1138SOL     OW 4312   1.910   2.991   4.999
 1138SOL    HW1 4313   1.859   3.014   4.916
 1138SOL    HW2 4314   1.995   3.044   5.002
 1139SOL     OW 4315   2.829   5.288   4.296
 1139SOL    HW1 4316   2.911   5.232   4.286
 1139SOL    HW2 4317   2.803   5.326   4.207
 1140SOL     OW 4318   1.557   1.280   2.193
 1140SOL    HW1 4319   1.553   1.373   2.155
 1140SOL    HW2 4320   1.487   1.269   2.263
 1141SOL     OW 4321   5.844   4.827   5.768
 1141SOL    HW1 4322   5.914   4.874   5.822
 1141SOL    HW2 4323   5.844   4.863   5.675
 1142SOL     OW 4324   2.820   6.943   3.053
 1142SOL    HW1 4325   2.883   6.956   3.130
 1142SOL    HW2 4326   2.760   6.865   3.072
 1143SOL     OW 4327   0.845   3.787   1.844
 1143SOL    HW1 4328   0.856   3.885   1.858
 1143SOL    HW2 4329   0.816   3.769   1.750
 1144SOL     OW 4330   5.716   4.244   2.395
 1144SOL    HW1 4331   5.800   4.216   2.349
 1144SOL    HW2 4332   5.650   4.277   2.328
 1145SOL     OW 4333   0.648   1.775   6.981
 1145SOL    HW1 4334   0.590   1.789   0.038
 1145SOL    HW2 4335   0.710   1.698   6.998
 1146SOL     OW 4336   0.646   0.962   1.597
 1146SOL    HW1 4337   0.627   0.872   1.559
 1146SOL    HW2 4338   0.581   0.981   1.670
 1147SOL     OW 4339   3.164   6.455   1.070
 1147SOL    HW1 4340   3.259   6.425   1.075
 1147SOL    HW2 4341   3.106   6.391   1.120
 1148SOL     OW 4342   3.544   5.960   2.267
 1148SOL    HW1 4343   3.641   5.939   2.276
 1148SOL    HW2 4344   3.533   6.050   2.225
 1149SOL     OW 4345   5.189   2.150   1.490
 1149SOL    HW1 4346   5.244   2.233   1.493
 1149SOL    HW2 4347   5.140   2.145   1.403
 1150SOL     OW 4348   1.260   4.276   6.848
 1150SOL    HW1 4349   1.166   4.244   6.859
 1150SOL    HW2 4350   1.259   4.368   6.808
 1151SOL     OW 4351   6.360   5.479   3.516
 1151SOL    HW1 4352   6.261   5.495   3.515
 1151SOL    HW2 4353   6.404   5.549   3.570
 1152SOL     OW 4354   4.919   0.323   6.813
 1152SOL    HW1 4355   4.846   0.299   6.749
 1152SOL    HW2 4356   4.880   0.374   6.890
 1153SOL     OW 4357   6.397   0.642   1.194
 1153SOL    HW1 4358   6.450   0.561   1.219
 1153SOL    HW2 4359   6.356   0.628   1.104
 1154SOL     OW 4360   1.289   3.312   2.004
 1154SOL    HW1 4361   1.341   3.234   1.968
 1154SOL    HW2 4362   1.352   3.375   2.049
 1155SOL     OW 4363   2.699   6.499   4.573
 1155SOL    HW1 4364   2.691   6.399   4.572
 1155SOL    HW2 4365   2.674   6.533   4.664
 1156SOL     OW 4366   4.167   1.905   4.558
 1156SOL    HW1 4367   4.145   1.841   4.632
 1156SOL    HW2 4368   4.252   1.876   4.513
 1157SOL     OW 4369   3.668   0.356   5.821
 1157SOL    HW1 4370   3.656   0.274   5.765
 1157SOL    HW2 4371   3.721   0.332   5.903
 1158SOL     OW 4372   6.095   6.148   2.984
 1158SOL    HW1 4373   6.148   6.066   2.961
 1158SOL    HW2 4374   5.997   6.127   2.979
 1159SOL     OW 4375   6.653   5.955   2.397
 1159SOL    HW1 4376   6.630   6.045   2.434
 1159SOL    HW2 4377   6.576   5.893   2.413
 1160SOL     OW 4378   4.442   0.492   0.338
 1160SOL    HW1 4379   4.486   0.404   0.318
 1160SOL    HW2 4380   4.512   0.564   0.342
 1161SOL     OW 4381   0.446   5.324   0.062
 1161SOL    HW1 4382   0.481   5.286   7.000
 1161SOL    HW2 4383   0.523   5.360   0.115
 1162SOL     OW 4384   1.975   3.160   5.239
 1162SOL    HW1 4385   1.939   3.163   5.146
 1162SOL    HW2 4386   2.031   3.241   5.255
 1163SOL     OW 4387   6.266   4.351   1.530
 1163SOL    HW1 4388   6.246   4.367   1.627
 1163SOL    HW2 4389   6.180   4.338   1.481
 1164SOL     OW 4390   4.891   1.645   4.263
 1164SOL    HW1 4391   4.813   1.683   4.312
 1164SOL    HW2 4392   4.975   1.689   4.295
 1165SOL     OW 4393   3.933   6.064   3.656
 1165SOL    HW1 4394   4.022   6.031   3.627
 1165SOL    HW2 4395   3.938   6.162   3.674
 1166SOL     OW 4396   2.548   6.258   6.880
 1166SOL    HW1 4397   2.548   6.349   6.920
 1166SOL    HW2 4398   2.516   6.263   6.786
 1167SOL     OW 4399   5.261   4.541   2.445
 1167SOL    HW1 4400   5.272   4.624   2.500
 1167SOL    HW2 4401   5.240   4.566   2.351
 1168SOL     OW 4402   5.957   2.574   2.928
 1168SOL    HW1 4403   6.010   2.608   2.850
 1168SOL    HW2 4404   5.917   2.485   2.904
 1169SOL     OW 4405   5.490   0.798   4.866
 1169SOL    HW1 4406   5.455   0.885   4.900
 1169SOL    HW2 4407   5.590   0.803   4.859
 1170SOL     OW 4408   4.844   0.023   3.336
 1170SOL    HW1 4409   4.812   6.960   3.374
 1170SOL    HW2 4410   4.918   0.059   3.393
 1171SOL     OW 4411   1.338   0.798   1.225
 1171SOL    HW1 4412   1.349   0.720   1.164
 1171SOL    HW2 4413   1.426   0.844   1.238
 1172SOL     OW 4414   6.733   3.816   6.632
 1172SOL    HW1 4415   6.760   3.796   6.726
 1172SOL    HW2 4416   6.815   3.839   6.579
 1173SOL     OW 4417   2.919   1.496   1.600
 1173SOL    HW1 4418   2.940   1.527   1.693
 1173SOL    HW2 4419   2.936   1.398   1.593
 1174SOL     OW 4420   3.859   3.841   1.061
 1174SOL    HW1 4421   3.831   3.915   1.123
 1174SOL    HW2 4422   3.924   3.781   1.108
 1175SOL     OW 4423   3.722   3.105   5.150
 1175SOL    HW1 4424   3.821   3.114   5.139
 1175SOL    HW2 4425   3.694   3.013   5.123
 1176SOL     OW 4426   5.480   3.744   6.361
 1176SOL    HW1 4427   5.390   3.705   6.378
 1176SOL    HW2 4428   5.486   3.774   6.266
 1177SOL     OW 4429   6.359   2.053   4.667
 1177SOL    HW1 4430   6.264   2.039   4.642
 1177SOL    HW2 4431   6.367   2.133   4.727
 1178SOL     OW 4432   3.237   4.767   0.462
 1178SOL    HW1 4433   3.330   4.781   0.497
 1178SOL    HW2 4434   3.193   4.694   0.514
 1179SOL     OW 4435   2.591   5.362   0.519
 1179SOL    HW1 4436   2.494   5.379   0.504
 1179SOL    HW2 4437   2.604   5.272   0.559
 1180SOL     OW 4438   2.751   6.029   1.108
 1180SOL    HW1 4439   2.790   6.023   1.016
 1180SOL    HW2 4440   2.651   6.028   1.102
 1181SOL     OW 4441   0.507   5.598   6.633
 1181SOL    HW1 4442   0.520   5.600   6.534
 1181SOL    HW2 4443   0.542   5.682   6.673
 1182SOL     OW 4444   3.464   5.311   2.865
 1182SOL    HW1 4445   3.425   5.402   2.854
 1182SOL    HW2 4446   3.496   5.277   2.777
 1183SOL     OW 4447   1.849   3.935   6.365
 1183SOL    HW1 4448   1.926   3.987   6.327
 1183SOL    HW2 4449   1.768   3.994   6.369
 1184SOL     OW 4450   1.290   0.144   5.362
 1184SOL    HW1 4451   1.214   0.137   5.297
 1184SOL    HW2 4452   1.303   0.240   5.387
 1185SOL     OW 4453   6.784   1.234   6.674
 1185SOL    HW1 4454   6.783   1.325   6.715
 1185SOL    HW2 4455   6.761   1.241   6.577
 1186SOL     OW 4456   4.740   5.828   4.284
 1186SOL    HW1 4457   4.752   5.926   4.299
 1186SOL    HW2 4458   4.645   5.810   4.258
 1187SOL     OW 4459   6.616   0.097   6.073
 1187SOL    HW1 4460   6.715   0.108   6.071
 1187SOL    HW2 4461   6.592   0.005   6.043
 1188SOL     OW 4462   3.040   6.490   4.698
 1188SOL    HW1 4463   3.007   6.397   4.682
 1188SOL    HW2 4464   3.117   6.487   4.763
 1189SOL     OW 4465   6.700   3.439   2.754
 1189SOL    HW1 4466   6.641   3.363   2.779
 1189SOL    HW2 4467   6.765   3.457   2.828
 1190SOL     OW 4468   1.939   6.276   3.393
 1190SOL    HW1 4469   1.940   6.177   3.380
 1190SOL    HW2 4470   2.032   6.309   3.410
 1191SOL     OW 4471   4.068   5.359   3.055
 1191SOL    HW1 4472   4.062   5.336   2.958
 1191SOL    HW2 4473   4.103   5.280   3.106
 1192SOL     OW 4474   3.945   5.859   2.869
 1192SOL    HW1 4475   3.957   5.945   2.819
 1192SOL    HW2 4476   3.917   5.787   2.805
 1193SOL     OW 4477   5.900   4.652   4.370
 1193SOL    HW1 4478   5.931   4.570   4.417
 1193SOL    HW2 4479   5.956   4.730   4.397
 1194SOL     OW 4480   5.266   0.595   1.376
 1194SOL    HW1 4481   5.184   0.597   1.319
 1194SOL    HW2 4482   5.286   0.687   1.409
 1195SOL     OW 4483   5.882   4.242   1.752
 1195SOL    HW1 4484   5.961   4.303   1.745
 1195SOL    HW2 4485   5.876   4.206   1.845
 1196SOL     OW 4486   6.704   6.537   3.783
 1196SOL    HW1 4487   6.696   6.439   3.800
 1196SOL    HW2 4488   6.751   6.580   3.859
 1197SOL     OW 4489   3.708   0.482   6.816
 1197SOL    HW1 4490   3.713   0.515   6.910
 1197SOL    HW2 4491   3.735   0.385   6.813
 1198SOL     OW 4492   1.443   2.312   0.792
 1198SOL    HW1 4493   1.450   2.349   0.700
 1198SOL    HW2 4494   1.364   2.251   0.798
 1199SOL     OW 4495   5.027   5.003   1.516
 1199SOL    HW1 4496   5.007   5.069   1.588
 1199SOL    HW2 4497   4.992   5.036   1.429
 1200SOL     OW 4498   3.221   3.346   2.738
 1200SOL    HW1 4499   3.207   3.428   2.683
 1200SOL    HW2 4500   3.134   3.299   2.750
 1201SOL     OW 4501   1.242   1.287   4.780
 1201SOL    HW1 4502   1.300   1.305   4.859
 1201SOL    HW2 4503   1.163   1.349   4.782
 1202SOL     OW 4504   0.842   5.241   6.696
 1202SOL    HW1 4505   0.754   5.224   6.742
 1202SOL    HW2 4506   0.826   5.262   6.600
 1203SOL     OW 4507   4.875   6.092   6.050
 1203SOL    HW1 4508   4.941   6.144   5.997
 1203SOL    HW2 4509   4.831   6.023   5.992
 1204SOL     OW 4510   2.574   0.481   1.603
 1204SOL    HW1 4511   2.499   0.452   1.544
 1204SOL    HW2 4512   2.640   0.406   1.611
 1205SOL     OW 4513   5.215   4.130   1.533
 1205SOL    HW1 4514   5.166   4.059   1.482
 1205SOL    HW2 4515   5.305   4.145   1.492
 1206SOL     OW 4516   2.969   3.504   4.679
 1206SOL    HW1 4517   3.068   3.506   4.688
 1206SOL    HW2 4518   2.928   3.467   4.763
 1207SOL     OW 4519   2.262   6.879   1.458
 1207SOL    HW1 4520   2.287   6.832   1.373
 1207SOL    HW2 4521   2.277   6.817   1.535
 1208SOL     OW 4522   3.646   4.043   0.333
 1208SOL    HW1 4523   3.627   4.087   0.421
 1208SOL    HW2 4524   3.628   4.108   0.259
 1209SOL     OW 4525   3.665   0.412   5.497
 1209SOL    HW1 4526   3.601   0.480   5.530
 1209SOL    HW2 4527   3.657   0.329   5.552
 1210SOL     OW 4528   2.975   6.756   3.695
 1210SOL    HW1 4529   3.069   6.764   3.661
 1210SOL    HW2 4530   2.912   6.750   3.618
 1211SOL     OW 4531   1.223   4.089   1.098
 1211SOL    HW1 4532   1.262   4.174   1.065
 1211SOL    HW2 4533   1.123   4.095   1.096
 1212SOL     OW 4534   7.021   0.216   6.721
 1212SOL    HW1 4535   0.027   0.202   6.627
 1212SOL    HW2 4536   6.943   0.279   6.723
 1213SOL     OW 4537   6.052   2.961   0.616
 1213SOL    HW1 4538   5.990   2.902   0.667
 1213SOL    HW2 4539   6.139   2.914   0.602
 1214SOL     OW 4540   6.917   1.930   1.114
 1214SOL    HW1 4541   6.935   2.012   1.060
 1214SOL    HW2 4542   6.885   1.857   1.054
 1215SOL     OW 4543   1.400   4.570   4.566
 1215SOL    HW1 4544   1.321   4.521   4.601
 1215SOL    HW2 4545   1.457   4.507   4.513
 1216SOL     OW 4546   4.258   0.703   6.811
 1216SOL    HW1 4547   4.254   0.712   6.711
 1216SOL    HW2 4548   4.179   0.650   6.843
 1217SOL     OW 4549   2.150   4.686   0.504
 1217SOL    HW1 4550   2.158   4.631   0.421
 1217SOL    HW2 4551   2.054   4.688   0.534
 1218SOL     OW 4552   0.989   4.960   4.063
 1218SOL    HW1 4553   1.044   5.005   3.992
 1218SOL    HW2 4554   1.048   4.903   4.120
 1219SOL     OW 4555   4.771   6.311   1.798
 1219SOL    HW1 4556   4.789   6.222   1.841
 1219SOL    HW2 4557   4.726   6.297   1.710
 1220SOL     OW 4558   1.165   5.103   2.836
 1220SOL    HW1 4559   1.210   5.181   2.791
 1220SOL    HW2 4560   1.066   5.114   2.830
 1221SOL     OW 4561   5.771   2.969   5.356
 1221SOL    HW1 4562   5.782   2.897   5.287
 1221SOL    HW2 4563   5.834   2.952   5.432
 1222SOL     OW 4564   6.631   6.756   6.933
 1222SOL    HW1 4565   6.727   6.730   6.947
 1222SOL    HW2 4566   6.576   6.673   6.924
 1223SOL     OW 4567   3.711   0.012   0.653
 1223SOL    HW1 4568   3.779   7.023   0.726
 1223SOL    HW2 4569   3.750   7.006   0.566
 1224SOL     OW 4570   2.444   0.658   1.003
 1224SOL    HW1 4571   2.483   0.649   0.911
 1224SOL    HW2 4572   2.362   0.716   0.999
 1225SOL     OW 4573   3.257   3.522   6.270
 1225SOL    HW1 4574   3.171   3.503   6.222
 1225SOL    HW2 4575   3.333   3.514   6.206
 1226SOL     OW 4576   2.209   4.653   1.464
 1226SOL    HW1 4577   2.227   4.605   1.550
 1226SOL    HW2 4578   2.187   4.587   1.392
 1227SOL     OW 4579   6.890   3.554   6.900
 1227SOL    HW1 4580   6.832   3.516   6.971
 1227SOL    HW2 4581   6.898   3.653   6.912
 1228SOL     OW 4582   3.555   2.458   6.173
 1228SOL    HW1 4583   3.610   2.528   6.219
 1228SOL    HW2 4584   3.469   2.446   6.222
 1229SOL     OW 4585   4.141   4.684   6.388
 1229SOL    HW1 4586   4.108   4.778   6.380
 1229SOL    HW2 4587   4.163   4.648   6.298
 1230SOL     OW 4588   4.339   6.859   3.532
 1230SOL    HW1 4589   4.345   6.957   3.553
 1230SOL    HW2 4590   4.339   6.846   3.433
 1231SOL     OW 4591   2.100   3.593   4.967
 1231SOL    HW1 4592   2.024   3.643   5.008
 1231SOL    HW2 4593   2.161   3.561   5.040
 1232SOL     OW 4594   1.355   2.644   5.238
 1232SOL    HW1 4595   1.377   2.553   5.272
 1232SOL    HW2 4596   1.322   2.637   5.144
 1233SOL     OW 4597   1.077   2.301   5.618
 1233SOL    HW1 4598   1.146   2.342   5.678
 1233SOL    HW2 4599   1.067   2.204   5.639
 1234SOL     OW 4600   6.306   4.381   4.444
 1234SOL    HW1 4601   6.350   4.351   4.359
 1234SOL    HW2 4602   6.339   4.325   4.520
 1235SOL     OW 4603   6.368   5.960   3.265
 1235SOL    HW1 4604   6.446   5.932   3.321
 1235SOL    HW2 4605   6.286   5.911   3.295
 1236SOL     OW 4606   5.172   0.682   6.304
 1236SOL    HW1 4607   5.193   0.697   6.208
 1236SOL    HW2 4608   5.149   0.769   6.348
 1237SOL     OW 4609   2.435   4.894   6.585
 1237SOL    HW1 4610   2.390   4.828   6.523
 1237SOL    HW2 4611   2.517   4.852   6.624
 1238SOL     OW 4612   1.995   1.657   1.200
 1238SOL    HW1 4613   1.904   1.695   1.218
 1238SOL    HW2 4614   2.056   1.682   1.275
 1239SOL     OW 4615   0.092   6.184   6.471
 1239SOL    HW1 4616   0.058   6.108   6.526
 1239SOL    HW2 4617   0.155   6.151   6.402
 1240SOL     OW 4618   5.583   5.995   1.838
 1240SOL    HW1 4619   5.578   6.058   1.760
 1240SOL    HW2 4620   5.499   6.002   1.892
 1241SOL     OW 4621   6.409   3.516   4.354
 1241SOL    HW1 4622   6.363   3.547   4.437
 1241SOL    HW2 4623   6.401   3.587   4.283
 1242SOL     OW 4624   1.279   3.715   0.656
 1242SOL    HW1 4625   1.265   3.775   0.577
 1242SOL    HW2 4626   1.377   3.701   0.670
 1243SOL     OW 4627   2.252   5.277   5.384
 1243SOL    HW1 4628   2.161   5.238   5.393
 1243SOL    HW2 4629   2.245   5.375   5.362
 1244SOL     OW 4630   0.531   0.930   3.334
 1244SOL    HW1 4631   0.626   0.914   3.307
 1244SOL    HW2 4632   0.499   0.855   3.391
 1245SOL     OW 4633   2.714   3.836   6.817
 1245SOL    HW1 4634   2.711   3.756   6.877
 1245SOL    HW2 4635   2.808   3.853   6.789
 1246SOL     OW 4636   2.274   6.479   1.766
 1246SOL    HW1 4637   2.324   6.406   1.812
 1246SOL    HW2 4638   2.181   6.483   1.803
 1247SOL     OW 4639   2.185   6.755   6.230
 1247SOL    HW1 4640   2.265   6.766   6.172
 1247SOL    HW2 4641   2.214   6.746   6.326
 1248SOL     OW 4642   1.710   5.635   2.946
 1248SOL    HW1 4643   1.781   5.705   2.951
 1248SOL    HW2 4644   1.748   5.548   2.978
 1249SOL     OW 4645   5.902   3.398   3.299
 1249SOL    HW1 4646   5.985   3.395   3.244
 1249SOL    HW2 4647   5.825   3.431   3.244
 1250SOL     OW 4648   1.238   4.882   3.877
 1250SOL    HW1 4649   1.263   4.903   3.782
 1250SOL    HW2 4650   1.310   4.828   3.920
 1251SOL     OW 4651   3.958   0.720   4.340
 1251SOL    HW1 4652   3.979   0.744   4.245
 1251SOL    HW2 4653   3.932   0.803   4.390
 1252SOL     OW 4654   3.248   4.191   5.578
 1252SOL    HW1 4655   3.246   4.226   5.485
 1252SOL    HW2 4656   3.328   4.132   5.591
 1253SOL     OW 4657   3.562   5.175   2.209
 1253SOL    HW1 4658   3.512   5.098   2.250
 1253SOL    HW2 4659   3.651   5.185   2.254
 1254SOL     OW 4660   6.094   2.210   2.819
 1254SOL    HW1 4661   6.109   2.249   2.910
 1254SOL    HW2 4662   5.996   2.211   2.797
 1255SOL     OW 4663   0.276   0.044   5.746
 1255SOL    HW1 4664   0.310   0.094   5.667
 1255SOL    HW2 4665   0.240   6.979   5.716
 1256SOL     OW 4666   6.476   0.116   3.154
 1256SOL    HW1 4667   6.385   0.159   3.152
 1256SOL    HW2 4668   6.466   0.020   3.182
 1257SOL     OW 4669   6.823   0.687   3.487
 1257SOL    HW1 4670   6.847   0.741   3.568
 1257SOL    HW2 4671   6.782   0.600   3.515
 1258SOL     OW 4672   0.640   6.829   3.400
 1258SOL    HW1 4673   0.599   6.806   3.312
 1258SOL    HW2 4674   0.718   6.890   3.386
 1259SOL     OW 4675   4.146   1.940   4.883
 1259SOL    HW1 4676   4.246   1.933   4.881
 1259SOL    HW2 4677   4.113   1.965   4.792
 1260SOL     OW 4678   1.060   1.243   6.995
 1260SOL    HW1 4679   1.122   1.211   6.923
 1260SOL    HW2 4680   1.105   1.231   0.061
 1261SOL     OW 4681   0.553   5.422   0.671
 1261SOL    HW1 4682   0.577   5.366   0.592
 1261SOL    HW2 4683   0.506   5.504   0.641
 1262SOL     OW 4684   5.500   5.669   1.836
 1262SOL    HW1 4685   5.410   5.700   1.868
 1262SOL    HW2 4686   5.569   5.737   1.859
 1263SOL     OW 4687   1.210   2.310   3.604
 1263SOL    HW1 4688   1.183   2.350   3.691
 1263SOL    HW2 4689   1.223   2.384   3.537
 1264SOL     OW 4690   0.806   2.877   5.390
 1264SOL    HW1 4691   0.891   2.901   5.436
 1264SOL    HW2 4692   0.748   2.825   5.452
 1265SOL     OW 4693   6.070   5.920   5.420
 1265SOL    HW1 4694   5.981   5.921   5.465
 1265SOL    HW2 4695   6.058   5.935   5.322
 1266SOL     OW 4696   1.416   0.443   4.933
 1266SOL    HW1 4697   1.418   0.542   4.922
 1266SOL    HW2 4698   1.472   0.417   5.013
 1267SOL     OW 4699   4.777   0.144   2.182
 1267SOL    HW1 4700   4.716   0.083   2.233
 1267SOL    HW2 4701   4.865   0.150   2.229
 1268SOL     OW 4702   4.361   2.345   5.274
 1268SOL    HW1 4703   4.424   2.421   5.293
 1268SOL    HW2 4704   4.289   2.376   5.212
 1269SOL     OW 4705   6.225   2.245   3.713
 1269SOL    HW1 4706   6.181   2.173   3.767
 1269SOL    HW2 4707   6.254   2.208   3.625
 1270SOL     OW 4708   0.599   4.477   2.802
 1270SOL    HW1 4709   0.549   4.425   2.732
 1270SOL    HW2 4710   0.533   4.520   2.864
 1271SOL     OW 4711   1.355   1.436   1.685
 1271SOL    HW1 4712   1.403   1.363   1.734
 1271SOL    HW2 4713   1.296   1.396   1.616
 1272SOL     OW 4714   6.743   4.120   0.183
 1272SOL    HW1 4715   6.789   4.034   0.162
 1272SOL    HW2 4716   6.725   4.125   0.282
 1273SOL     OW 4717   1.552   4.051   5.270
 1273SOL    HW1 4718   1.644   4.089   5.275
 1273SOL    HW2 4719   1.521   4.050   5.175
 1274SOL     OW 4720   0.720   4.834   2.293
 1274SOL    HW1 4721   0.717   4.933   2.303
 1274SOL    HW2 4722   0.635   4.802   2.252
 1275SOL     OW 4723   3.023   0.515   2.941
 1275SOL    HW1 4724   2.997   0.457   2.864
 1275SOL    HW2 4725   2.965   0.494   3.020
 1276SOL     OW 4726   4.939   4.448   3.986
 1276SOL    HW1 4727   4.970   4.467   3.893
 1276SOL    HW2 4728   5.017   4.427   4.044
 1277SOL     OW 4729   0.282   5.855   0.061
 1277SOL    HW1 4730   0.220   5.903   0.123
 1277SOL    HW2 4731   0.242   5.767   0.036
 1278SOL     OW 4732   1.610   6.195   2.706
 1278SOL    HW1 4733   1.530   6.233   2.659
 1278SOL    HW2 4734   1.652   6.267   2.763
 1279SOL     OW 4735   2.945   2.229   6.798
 1279SOL    HW1 4736   3.003   2.156   6.761
 1279SOL    HW2 4737   2.896   2.274   6.724
 1280SOL     OW 4738   3.147   1.378   3.484
 1280SOL    HW1 4739   3.189   1.400   3.573
 1280SOL    HW2 4740   3.048   1.374   3.495
 1281SOL     OW 4741   4.011   5.955   3.981
 1281SOL    HW1 4742   3.962   6.000   4.055
 1281SOL    HW2 4743   4.078   6.018   3.942
 1282SOL     OW 4744   0.069   2.675   0.949
 1282SOL    HW1 4745   7.013   2.710   1.000
 1282SOL    HW2 4746   0.147   2.668   1.011
 1283SOL     OW 4747   6.236   3.177   5.123
 1283SOL    HW1 4748   6.258   3.080   5.128
 1283SOL    HW2 4749   6.145   3.193   5.161
 1284SOL     OW 4750   4.116   1.767   1.327
 1284SOL    HW1 4751   4.073   1.730   1.244
 1284SOL    HW2 4752   4.100   1.705   1.403
 1285SOL     OW 4753   3.700   1.446   4.594
 1285SOL    HW1 4754   3.632   1.485   4.656
 1285SOL    HW2 4755   3.667   1.359   4.558
 1286SOL     OW 4756   4.744   2.160   2.089
 1286SOL    HW1 4757   4.797   2.077   2.110
 1286SOL    HW2 4758   4.657   2.157   2.138
 1287SOL     OW 4759   6.623   4.158   4.897
 1287SOL    HW1 4760   6.606   4.234   4.960
 1287SOL    HW2 4761   6.632   4.073   4.950
 1288SOL     OW 4762   4.359   4.188   6.481
 1288SOL    HW1 4763   4.332   4.164   6.388
 1288SOL    HW2 4764   4.451   4.154   6.499
 1289SOL     OW 4765   0.045   0.035   1.796
 1289SOL    HW1 4766   7.006   0.013   1.871
 1289SOL    HW2 4767   0.037   0.132   1.774
 1290SOL     OW 4768   1.185   0.083   6.971
 1290SOL    HW1 4769   1.156   0.034   0.029
 1290SOL    HW2 4770   1.179   0.022   6.892
 1291SOL     OW 4771   6.792   5.326   2.846
 1291SOL    HW1 4772   6.868   5.376   2.890
 1291SOL    HW2 4773   6.741   5.276   2.916
 1292SOL     OW 4774   1.119   6.098   2.593
 1292SOL    HW1 4775   1.174   6.043   2.530
 1292SOL    HW2 4776   1.109   6.191   2.557
 1293SOL     OW 4777   3.016   1.334   6.646
 1293SOL    HW1 4778   3.014   1.396   6.725
 1293SOL    HW2 4779   3.041   1.386   6.564
 1294SOL     OW 4780   2.109   3.931   5.496
 1294SOL    HW1 4781   2.191   3.874   5.491
 1294SOL    HW2 4782   2.123   4.015   5.443
 1295SOL     OW 4783   0.026   3.676   0.750
 1295SOL    HW1 4784   0.099   3.742   0.733
 1295SOL    HW2 4785   0.066   3.585   0.762
 1296SOL     OW 4786   5.580   6.636   5.947
 1296SOL    HW1 4787   5.552   6.544   5.976
 1296SOL    HW2 4788   5.662   6.664   5.998
 1297SOL     OW 4789   0.314   0.223   2.245
 1297SOL    HW1 4790   0.391   0.256   2.299
 1297SOL    HW2 4791   0.267   0.300   2.203
 1298SOL     OW 4792   5.555   5.357   2.159
 1298SOL    HW1 4793   5.541   5.258   2.149
 1298SOL    HW2 4794   5.632   5.374   2.221
 1299SOL     OW 4795   1.751   3.549   4.776
 1299SOL    HW1 4796   1.659   3.539   4.813
 1299SOL    HW2 4797   1.747   3.595   4.687
 1300SOL     OW 4798   1.350   4.547   1.464
 1300SOL    HW1 4799   1.256   4.511   1.468
 1300SOL    HW2 4800   1.371   4.595   1.549
 1301SOL     OW 4801   1.076   0.788   1.757
 1301SOL    HW1 4802   1.023   0.841   1.823
 1301SOL    HW2 4803   1.125   0.850   1.696
 1302SOL     OW 4804   5.558   6.404   5.601
 1302SOL    HW1 4805   5.492   6.470   5.637
 1302SOL    HW2 4806   5.613   6.448   5.530
 1303SOL     OW 4807   4.306   6.696   1.663
 1303SOL    HW1 4808   4.311   6.685   1.564
 1303SOL    HW2 4809   4.216   6.665   1.695
 1304SOL     OW 4810   0.474   0.995   1.204
 1304SOL    HW1 4811   0.465   0.984   1.105
 1304SOL    HW2 4812   0.384   0.983   1.247
 1305SOL     OW 4813   5.265   3.994   0.251
 1305SOL    HW1 4814   5.295   3.926   0.319
 1305SOL    HW2 4815   5.329   4.070   0.250
 1306SOL     OW 4816   1.652   5.692   4.656
 1306SOL    HW1 4817   1.565   5.647   4.673
 1306SOL    HW2 4818   1.636   5.783   4.619
 1307SOL     OW 4819   2.119   2.547   4.102
 1307SOL    HW1 4820   2.088   2.482   4.172
 1307SOL    HW2 4821   2.066   2.532   4.018
 1308SOL     OW 4822   6.804   5.320   6.013
 1308SOL    HW1 4823   6.749   5.265   5.950
 1308SOL    HW2 4824   6.896   5.331   5.976
 1309SOL     OW 4825   5.246   4.569   6.490
 1309SOL    HW1 4826   5.343   4.547   6.505
 1309SOL    HW2 4827   5.209   4.610   6.573
 1310SOL     OW 4828   1.007   4.124   4.343
 1310SOL    HW1 4829   1.040   4.059   4.274
 1310SOL    HW2 4830   1.085   4.158   4.396
 1311SOL     OW 4831   6.536   5.607   0.186
 1311SOL    HW1 4832   6.572   5.699   0.201
 1311SOL    HW2 4833   6.612   5.544   0.169
 1312SOL     OW 4834   1.785   0.805   5.820
 1312SOL    HW1 4835   1.778   0.722   5.875
 1312SOL    HW2 4836   1.871   0.804   5.769
 1313SOL     OW 4837   6.644   5.467   3.156
 1313SOL    HW1 4838   6.584   5.401   3.111
 1313SOL    HW2 4839   6.718   5.420   3.203
 1314SOL     OW 4840   2.543   1.821   4.797
 1314SOL    HW1 4841   2.498   1.906   4.771
 1314SOL    HW2 4842   2.612   1.840   4.867
 1315SOL     OW 4843   5.796   0.562   4.577
 1315SOL    HW1 4844   5.739   0.566   4.659
 1315SOL    HW2 4845   5.790   0.471   4.536
 1316SOL     OW 4846   4.489   0.673   5.044
 1316SOL    HW1 4847   4.505   0.701   4.949
 1316SOL    HW2 4848   4.393   0.690   5.067
 1317SOL     OW 4849   2.632   3.079   5.773
 1317SOL    HW1 4850   2.627   3.177   5.794
 1317SOL    HW2 4851   2.541   3.039   5.777
 1318SOL     OW 4852   1.926   2.672   6.700
 1318SOL    HW1 4853   1.879   2.709   6.781
 1318SOL    HW2 4854   2.017   2.639   6.727
 1319SOL     OW 4855   6.710   6.237   0.893
 1319SOL    HW1 4856   6.658   6.156   0.866
 1319SOL    HW2 4857   6.729   6.293   0.812
 1320SOL     OW 4858   3.088   2.846   5.974
 1320SOL    HW1 4859   3.068   2.860   5.877
 1320SOL    HW2 4860   3.127   2.930   6.012
 1321SOL     OW 4861   5.724   2.298   6.717
 1321SOL    HW1 4862   5.678   2.344   6.641
 1321SOL    HW2 4863   5.798   2.241   6.682
 1322SOL     OW 4864   3.429   1.226   0.073
 1322SOL    HW1 4865   3.420   1.323   0.097
 1322SOL    HW2 4866   3.352   1.175   0.112
 1323SOL     OW 4867   3.675   0.455   0.577
 1323SOL    HW1 4868   3.698   0.429   0.484
 1323SOL    HW2 4869   3.576   0.449   0.591
 1324SOL     OW 4870   1.095   3.501   0.104
 1324SOL    HW1 4871   1.043   3.556   0.038
 1324SOL    HW2 4872   1.104   3.407   0.070
 1325SOL     OW 4873   2.576   5.427   6.707
 1325SOL    HW1 4874   2.582   5.442   6.805
 1325SOL    HW2 4875   2.537   5.336   6.690
 1326SOL     OW 4876   4.900   4.018   3.976
 1326SOL    HW1 4877   4.993   4.009   4.010
 1326SOL    HW2 4878   4.842   4.058   4.048
 1327SOL     OW 4879   0.267   6.669   1.073
 1327SOL    HW1 4880   0.341   6.608   1.043
 1327SOL    HW2 4881   0.306   6.742   1.129
 1328SOL     OW 4882   0.926   3.496   6.217
 1328SOL    HW1 4883   0.913   3.579   6.162
 1328SOL    HW2 4884   1.022   3.470   6.217
 1329SOL     OW 4885   0.278   2.831   3.186
 1329SOL    HW1 4886   0.222   2.814   3.267
 1329SOL    HW2 4887   0.371   2.857   3.214
 1330SOL     OW 4888   6.553   2.847   1.116
 1330SOL    HW1 4889   6.487   2.786   1.074
 1330SOL    HW2 4890   6.601   2.799   1.190
 1331SOL     OW 4891   4.340   1.892   2.626
 1331SOL    HW1 4892   4.314   1.922   2.717
 1331SOL    HW2 4893   4.282   1.816   2.597
 1332SOL     OW 4894   1.885   0.345   0.849
 1332SOL    HW1 4895   1.920   0.425   0.800
 1332SOL    HW2 4896   1.786   0.355   0.861
 1333SOL     OW 4897   3.317   4.081   2.916
 1333SOL    HW1 4898   3.262   4.071   2.833
 1333SOL    HW2 4899   3.394   4.017   2.914
 1334SOL     OW 4900   6.917   1.809   2.624
 1334SOL    HW1 4901   6.997   1.797   2.683
 1334SOL    HW2 4902   6.854   1.733   2.638
 1335SOL     OW 4903   1.925   4.145   1.885
 1335SOL    HW1 4904   1.968   4.224   1.928
 1335SOL    HW2 4905   1.986   4.107   1.815
 1336SOL     OW 4906   3.519   0.642   5.494
 1336SOL    HW1 4907   3.452   0.695   5.545
 1336SOL    HW2 4908   3.563   0.700   5.426
 1337SOL     OW 4909   6.503   1.665   3.795
 1337SOL    HW1 4910   6.497   1.756   3.835
 1337SOL    HW2 4911   6.590   1.655   3.748
 1338SOL     OW 4912   5.899   3.750   4.578
 1338SOL    HW1 4913   5.862   3.758   4.670
 1338SOL    HW2 4914   5.854   3.675   4.530
 1339SOL     OW 4915   0.268   0.483   6.448
 1339SOL    HW1 4916   0.312   0.536   6.376
 1339SOL    HW2 4917   0.174   0.514   6.460
 1340SOL     OW 4918   5.271   1.850   1.895
 1340SOL    HW1 4919   5.242   1.758   1.869
 1340SOL    HW2 4920   5.281   1.907   1.813
 1341SOL     OW 4921   5.057   6.591   6.579
 1341SOL    HW1 4922   4.971   6.542   6.569
 1341SOL    HW2 4923   5.058   6.639   6.667
 1342SOL     OW 4924   3.117   6.201   1.173
 1342SOL    HW1 4925   3.093   6.148   1.092
 1342SOL    HW2 4926   3.215   6.192   1.191
 1343SOL     OW 4927   5.539   5.323   2.550
 1343SOL    HW1 4928   5.454   5.297   2.504
 1343SOL    HW2 4929   5.577   5.405   2.507
 1344SOL     OW 4930   0.015   0.028   4.539
 1344SOL    HW1 4931   0.021   6.953   4.556
 1344SOL    HW2 4932   0.101   0.061   4.501
 1345SOL     OW 4933   0.582   5.458   1.933
 1345SOL    HW1 4934   0.520   5.537   1.935
 1345SOL    HW2 4935   0.664   5.481   1.882
 1346SOL     OW 4936   2.464   5.156   6.190
 1346SOL    HW1 4937   2.524   5.146   6.111
 1346SOL    HW2 4938   2.511   5.122   6.272
 1347SOL     OW 4939   1.723   0.359   0.128
 1347SOL    HW1 4940   1.722   0.313   0.217
 1347SOL    HW2 4941   1.632   0.396   0.108
 1348SOL     OW 4942   0.010   5.846   5.402
 1348SOL    HW1 4943   6.981   5.784   5.343
 1348SOL    HW2 4944   6.985   5.858   5.489
 1349SOL     OW 4945   5.314   3.832   3.804
 1349SOL    HW1 4946   5.257   3.767   3.854
 1349SOL    HW2 4947   5.296   3.823   3.706
 1350SOL     OW 4948   3.007   3.903   0.089
 1350SOL    HW1 4949   3.007   3.819   0.034
 1350SOL    HW2 4950   2.921   3.909   0.140
 1351SOL     OW 4951   6.689   3.002   4.776
 1351SOL    HW1 4952   6.617   3.046   4.829
 1351SOL    HW2 4953   6.709   3.056   4.695
 1352SOL     OW 4954   6.998   6.945   2.860
 1352SOL    HW1 4955   7.000   6.943   2.760
 1352SOL    HW2 4956   6.906   6.923   2.892
 1353SOL     OW 4957   0.863   1.406   1.127
 1353SOL    HW1 4958   0.928   1.481   1.140
 1353SOL    HW2 4959   0.812   1.390   1.211
 1354SOL     OW 4960   6.202   4.248   2.110
 1354SOL    HW1 4961   6.169   4.277   2.020
 1354SOL    HW2 4962   6.212   4.148   2.111
 1355SOL     OW 4963   6.109   3.311   4.659
 1355SOL    HW1 4964   6.090   3.263   4.574
 1355SOL    HW2 4965   6.176   3.259   4.712
 1356SOL     OW 4966   3.415   3.033   1.703
 1356SOL    HW1 4967   3.424   2.964   1.631
 1356SOL    HW2 4968   3.327   3.022   1.750
 1357SOL     OW 4969   6.875   3.248   5.367
 1357SOL    HW1 4970   6.837   3.243   5.275
 1357SOL    HW2 4971   6.803   3.227   5.433
 1358SOL     OW 4972   1.442   6.732   0.069
 1358SOL    HW1 4973   1.373   6.783   0.018
 1358SOL    HW2 4974   1.459   6.777   0.156
 1359SOL     OW 4975   6.220   4.049   1.853
 1359SOL    HW1 4976   6.314   4.065   1.822
 1359SOL    HW2 4977   6.221   3.992   1.935
 1360SOL     OW 4978   2.887   2.490   6.612
 1360SOL    HW1 4979   2.866   2.525   6.520
 1360SOL    HW2 4980   2.986   2.481   6.622
 1361SOL     OW 4981   6.943   4.367   4.247
 1361SOL    HW1 4982   7.018   4.414   4.294
 1361SOL    HW2 4983   6.863   4.363   4.306
 1362SOL     OW 4984   3.840   3.047   2.645
 1362SOL    HW1 4985   3.826   2.969   2.584
 1362SOL    HW2 4986   3.753   3.095   2.658
 1363SOL     OW 4987   0.129   5.296   5.675
 1363SOL    HW1 4988   0.079   5.380   5.692
 1363SOL    HW2 4989   0.203   5.313   5.610
 1364SOL     OW 4990   4.471   4.225   0.753
 1364SOL    HW1 4991   4.549   4.276   0.717
 1364SOL    HW2 4992   4.504   4.143   0.801
 1365SOL     OW 4993   0.823   3.397   6.825
 1365SOL    HW1 4994   0.829   3.307   6.869
 1365SOL    HW2 4995   0.888   3.401   6.749
 1366SOL     OW 4996   1.699   0.008   4.885
 1366SOL    HW1 4997   1.660   6.949   4.927
 1366SOL    HW2 4998   1.646   0.032   4.804
 1367SOL     OW 4999   2.431   1.044   2.446
 1367SOL    HW1 5000   2.348   1.089   2.414
 1367SOL    HW2 5001   2.511   1.100   2.424
 1368SOL     OW 5002   6.111   6.531   4.785
 1368SOL    HW1 5003   6.131   6.507   4.690
 1368SOL    HW2 5004   6.195   6.559   4.831
 1369SOL     OW 5005   0.933   0.575   3.425
 1369SOL    HW1 5006   0.887   0.596   3.339
 1369SOL    HW2 5007   0.937   0.476   3.437
 1370SOL     OW 5008   3.033   1.051   1.844
 1370SOL    HW1 5009   3.091   1.132   1.851
 1370SOL    HW2 5010   3.087   0.974   1.811
 1371SOL     OW 5011   3.519   0.645   5.808
 1371SOL    HW1 5012   3.490   0.716   5.744
 1371SOL    HW2 5013   3.618   0.632   5.802
 1372SOL     OW 5014   2.938   1.886   2.221
 1372SOL    HW1 5015   2.858   1.922   2.270
 1372SOL    HW2 5016   2.939   1.923   2.128
 1373SOL     OW 5017   0.582   6.236   0.897
 1373SOL    HW1 5018   0.653   6.256   0.830
 1373SOL    HW2 5019   0.571   6.137   0.905
 1374SOL     OW 5020   4.398   2.556   0.289
 1374SOL    HW1 5021   4.379   2.650   0.260
 1374SOL    HW2 5022   4.462   2.513   0.224
 1375SOL     OW 5023   0.420   4.253   6.022
 1375SOL    HW1 5024   0.518   4.239   6.027
 1375SOL    HW2 5025   0.395   4.282   5.929
 1376SOL     OW 5026   4.909   2.436   2.721
 1376SOL    HW1 5027   4.943   2.497   2.650
 1376SOL    HW2 5028   4.830   2.478   2.766
 1377SOL     OW 5029   6.947   5.556   4.804
 1377SOL    HW1 5030   6.959   5.511   4.892
 1377SOL    HW2 5031   6.880   5.506   4.749
 1378SOL     OW 5032   1.226   2.324   0.490
 1378SOL    HW1 5033   1.218   2.416   0.529
 1378SOL    HW2 5034   1.314   2.315   0.444
 1379SOL     OW 5035   3.981   6.301   2.147
 1379SOL    HW1 5036   3.882   6.299   2.139
 1379SOL    HW2 5037   4.007   6.286   2.243
 1380SOL     OW 5038   6.501   6.432   2.433
 1380SOL    HW1 5039   6.514   6.495   2.510
 1380SOL    HW2 5040   6.512   6.482   2.347
 1381SOL     OW 5041   6.018   1.723   0.836
 1381SOL    HW1 5042   6.111   1.744   0.866
 1381SOL    HW2 5043   5.954   1.744   0.910
 1382SOL     OW 5044   5.513   4.461   6.569
 1382SOL    HW1 5045   5.531   4.538   6.631
 1382SOL    HW2 5046   5.494   4.379   6.623
 1383SOL     OW 5047   2.775   0.436   0.678
 1383SOL    HW1 5048   2.819   0.485   0.753
 1383SOL    HW2 5049   2.782   0.337   0.694
 1384SOL     OW 5050   3.140   2.174   2.814
 1384SOL    HW1 5051   3.233   2.136   2.809
 1384SOL    HW2 5052   3.111   2.202   2.722
 1385SOL     OW 5053   6.712   3.104   2.605
 1385SOL    HW1 5054   6.620   3.080   2.635
 1385SOL    HW2 5055   6.771   3.119   2.684
 1386SOL     OW 5056   2.009   2.331   4.279
 1386SOL    HW1 5057   1.959   2.382   4.350
 1386SOL    HW2 5058   2.067   2.262   4.322
 1387SOL     OW 5059   2.138   0.350   5.102
 1387SOL    HW1 5060   2.051   0.386   5.072
 1387SOL    HW2 5061   2.213   0.407   5.068
 1388SOL     OW 5062   6.390   1.124   4.363
 1388SOL    HW1 5063   6.413   1.179   4.443
 1388SOL    HW2 5064   6.370   1.030   4.391
 1389SOL     OW 5065   6.056   0.675   4.596
 1389SOL    HW1 5066   5.968   0.629   4.607
 1389SOL    HW2 5067   6.130   0.607   4.604
 1390SOL     OW 5068   4.857   2.848   2.843
 1390SOL    HW1 5069   4.780   2.839   2.779
 1390SOL    HW2 5070   4.827   2.821   2.935
 1391SOL     OW 5071   5.173   0.984   4.941
 1391SOL    HW1 5072   5.145   1.021   5.029
 1391SOL    HW2 5073   5.108   0.914   4.912
 1392SOL     OW 5074   4.580   5.558   6.484
 1392SOL    HW1 5075   4.653   5.537   6.418
 1392SOL    HW2 5076   4.520   5.628   6.446
 1393SOL     OW 5077   6.363   0.595   6.801
 1393SOL    HW1 5078   6.391   0.546   6.884
 1393SOL    HW2 5079   6.395   0.690   6.806
 1394SOL     OW 5080   4.411   6.400   3.942
 1394SOL    HW1 5081   4.421   6.435   4.035
 1394SOL    HW2 5082   4.404   6.300   3.945
 1395SOL     OW 5083   1.172   5.511   2.020
 1395SOL    HW1 5084   1.160   5.606   2.050
 1395SOL    HW2 5085   1.267   5.484   2.033
 1396SOL     OW 5086   1.983   1.609   4.040
 1396SOL    HW1 5087   2.078   1.576   4.044
 1396SOL    HW2 5088   1.983   1.707   4.023
 1397SOL     OW 5089   0.062   5.174   4.871
 1397SOL    HW1 5090   0.063   5.259   4.923
 1397SOL    HW2 5091   0.102   5.190   4.781
 1398SOL     OW 5092   0.275   0.291   0.508
 1398SOL    HW1 5093   0.275   0.331   0.600
 1398SOL    HW2 5094   0.184   0.255   0.487
 1399SOL     OW 5095   4.220   0.370   0.240
 1399SOL    HW1 5096   4.255   0.335   0.153
 1399SOL    HW2 5097   4.287   0.432   0.280
 1400SOL     OW 5098   6.773   0.316   5.125
 1400SOL    HW1 5099   6.747   0.243   5.062
 1400SOL    HW2 5100   6.712   0.394   5.115
 1401SOL     OW 5101   5.465   0.323   3.530
 1401SOL    HW1 5102   5.497   0.287   3.443
 1401SOL    HW2 5103   5.542   0.360   3.582
 1402SOL     OW 5104   0.258   4.744   2.111
 1402SOL    HW1 5105   0.173   4.796   2.119
 1402SOL    HW2 5106   0.289   4.745   2.016
 1403SOL     OW 5107   3.047   3.083   6.652
 1403SOL    HW1 5108   2.954   3.045   6.655
 1403SOL    HW2 5109   3.046   3.175   6.691
 1404SOL     OW 5110   4.188   6.704   0.430
 1404SOL    HW1 5111   4.163   6.719   0.526
 1404SOL    HW2 5112   4.262   6.637   0.424
 1405SOL     OW 5113   1.286   3.833   1.069
 1405SOL    HW1 5114   1.263   3.928   1.093
 1405SOL    HW2 5115   1.202   3.778   1.070
 1406SOL     OW 5116   2.243   3.143   0.821
 1406SOL    HW1 5117   2.144   3.156   0.829
 1406SOL    HW2 5118   2.288   3.181   0.902
 1407SOL     OW 5119   0.542   3.158   1.293
 1407SOL    HW1 5120   0.507   3.173   1.386
 1407SOL    HW2 5121   0.557   3.061   1.278
 1408SOL     OW 5122   5.942   6.703   1.060
 1408SOL    HW1 5123   5.870   6.771   1.050
 1408SOL    HW2 5124   6.000   6.727   1.138
 1409SOL     OW 5125   6.488   1.675   6.015
 1409SOL    HW1 5126   6.554   1.696   5.943
 1409SOL    HW2 5127   6.493   1.578   6.038
 1410SOL     OW 5128   4.090   1.033   5.780
 1410SOL    HW1 5129   4.104   1.071   5.871
 1410SOL    HW2 5130   3.993   1.009   5.769
 1411SOL     OW 5131   3.368   5.357   6.993
 1411SOL    HW1 5132   3.310   5.395   0.042
 1411SOL    HW2 5133   3.315   5.291   6.940
 1412SOL     OW 5134   2.080   3.295   0.320
 1412SOL    HW1 5135   2.099   3.263   0.227
 1412SOL    HW2 5136   1.998   3.351   0.320
 1413SOL     OW 5137   1.170   1.454   5.050
 1413SOL    HW1 5138   1.144   1.368   5.094
 1413SOL    HW2 5139   1.197   1.521   5.119
 1414SOL     OW 5140   1.146   4.173   2.791
 1414SOL    HW1 5141   1.168   4.269   2.774
 1414SOL    HW2 5142   1.087   4.138   2.718
 1415SOL     OW 5143   2.004   1.820   4.321
 1415SOL    HW1 5144   2.020   1.874   4.403
 1415SOL    HW2 5145   2.090   1.805   4.272
 1416SOL     OW 5146   4.514   0.640   4.734
 1416SOL    HW1 5147   4.556   0.571   4.793
 1416SOL    HW2 5148   4.447   0.596   4.674
 1417SOL     OW 5149   3.323   3.240   5.912
 1417SOL    HW1 5150   3.283   3.252   5.822
 1417SOL    HW2 5151   3.382   3.318   5.933
 1418SOL     OW 5152   3.644   4.560   5.790
 1418SOL    HW1 5153   3.561   4.593   5.746
 1418SOL    HW2 5154   3.650   4.461   5.780
 1419SOL     OW 5155   1.817   5.434   2.477
 1419SOL    HW1 5156   1.834   5.335   2.486
 1419SOL    HW2 5157   1.812   5.475   2.568
 1420SOL     OW 5158   2.931   6.395   3.168
 1420SOL    HW1 5159   2.990   6.369   3.244
 1420SOL    HW2 5160   2.954   6.487   3.138
 1421SOL     OW 5161   1.216   4.581   5.606
 1421SOL    HW1 5162   1.150   4.557   5.534
 1421SOL    HW2 5163   1.299   4.528   5.595
 1422SOL     OW 5164   2.253   3.524   6.141
 1422SOL    HW1 5165   2.348   3.532   6.110
 1422SOL    HW2 5166   2.203   3.607   6.117
 1423SOL     OW 5167   4.696   0.455   4.850
 1423SOL    HW1 5168   4.754   0.448   4.931
 1423SOL    HW2 5169   4.743   0.414   4.772
 1424SOL     OW 5170   6.420   2.995   0.330
 1424SOL    HW1 5171   6.373   3.025   0.248
 1424SOL    HW2 5172   6.389   3.050   0.408
 1425SOL     OW 5173   5.140   6.662   3.522
 1425SOL    HW1 5174   5.051   6.626   3.551
 1425SOL    HW2 5175   5.154   6.642   3.425
 1426SOL     OW 5176   3.335   2.085   0.429
 1426SOL    HW1 5177   3.349   1.986   0.436
 1426SOL    HW2 5178   3.287   2.118   0.510
 1427SOL     OW 5179   1.669   0.331   4.228
 1427SOL    HW1 5180   1.757   0.297   4.194
 1427SOL    HW2 5181   1.620   0.256   4.274
 1428SOL     OW 5182   1.157   3.109   4.034
 1428SOL    HW1 5183   1.171   3.160   3.949
 1428SOL    HW2 5184   1.118   3.170   4.103
 1429SOL     OW 5185   6.426   1.082   1.451
 1429SOL    HW1 5186   6.448   0.994   1.408
 1429SOL    HW2 5187   6.346   1.122   1.406
 1430SOL     OW 5188   2.123   3.532   4.421
 1430SOL    HW1 5189   2.087   3.489   4.504
 1430SOL    HW2 5190   2.196   3.596   4.446
 1431SOL     OW 5191   2.639   1.433   6.495
 1431SOL    HW1 5192   2.594   1.378   6.424
 1431SOL    HW2 5193   2.607   1.527   6.490
 1432SOL     OW 5194   3.306   0.514   2.345
 1432SOL    HW1 5195   3.219   0.465   2.340
 1432SOL    HW2 5196   3.298   0.589   2.411
 1433SOL     OW 5197   2.312   0.062   3.955
 1433SOL    HW1 5198   2.313   0.048   4.054
 1433SOL    HW2 5199   2.374   0.136   3.931
 1434SOL     OW 5200   0.125   3.419   0.777
 1434SOL    HW1 5201   0.073   3.395   0.858
 1434SOL    HW2 5202   0.204   3.359   0.769
 1435SOL     OW 5203   1.697   6.680   4.171
 1435SOL    HW1 5204   1.716   6.630   4.255
 1435SOL    HW2 5205   1.760   6.757   4.164
 1436SOL     OW 5206   5.423   1.454   0.033
 1436SOL    HW1 5207   5.447   1.547   0.006
 1436SOL    HW2 5208   5.333   1.454   0.077
 1437SOL     OW 5209   3.914   0.613   6.182
 1437SOL    HW1 5210   3.940   0.659   6.097
 1437SOL    HW2 5211   3.901   0.516   6.164
 1438SOL     OW 5212   2.766   0.355   1.900
 1438SOL    HW1 5213   2.815   0.339   1.986
 1438SOL    HW2 5214   2.678   0.400   1.920
 1439SOL     OW 5215   0.224   4.649   6.929
 1439SOL    HW1 5216   0.303   4.588   6.924
 1439SOL    HW2 5217   0.203   4.669   0.001
 1440SOL     OW 5218   3.570   3.222   3.112
 1440SOL    HW1 5219   3.652   3.258   3.067
 1440SOL    HW2 5220   3.489   3.244   3.057
 1441SOL     OW 5221   6.552   2.828   3.709
 1441SOL    HW1 5222   6.636   2.865   3.748
 1441SOL    HW2 5223   6.495   2.790   3.782
 1442SOL     OW 5224   5.562   6.220   6.882
 1442SOL    HW1 5225   5.478   6.238   6.933
 1442SOL    HW2 5226   5.626   6.169   6.939
 1443SOL     OW 5227   0.738   2.906   2.992
 1443SOL    HW1 5228   0.759   2.946   2.903
 1443SOL    HW2 5229   0.822   2.900   3.046
 1444SOL     OW 5230   4.992   0.947   4.161
 1444SOL    HW1 5231   4.920   0.893   4.204
 1444SOL    HW2 5232   5.005   0.917   4.066
 1445SOL     OW 5233   6.200   2.508   0.965
 1445SOL    HW1 5234   6.174   2.411   0.967
 1445SOL    HW2 5235   6.122   2.564   0.991
 1446SOL     OW 5236   4.268   0.549   1.231
 1446SOL    HW1 5237   4.263   0.634   1.178
 1446SOL    HW2 5238   4.197   0.550   1.301
 1447SOL     OW 5239   5.663   0.988   5.550
 1447SOL    HW1 5240   5.721   1.028   5.478
 1447SOL    HW2 5241   5.627   0.900   5.518
 1448SOL     OW 5242   5.263   0.343   6.574
 1448SOL    HW1 5243   5.359   0.360   6.549
 1448SOL    HW2 5244   5.237   0.406   6.647
 1449SOL     OW 5245   4.821   5.605   1.330
 1449SOL    HW1 5246   4.814   5.508   1.309
 1449SOL    HW2 5247   4.729   5.645   1.333
 1450SOL     OW 5248   5.553   2.709   3.842
 1450SOL    HW1 5249   5.632   2.766   3.819
 1450SOL    HW2 5250   5.545   2.635   3.774
 1451SOL     OW 5251   1.770   6.871   2.838
 1451SOL    HW1 5252   1.743   6.916   2.753
 1451SOL    HW2 5253   1.737   6.777   2.838
 1452SOL     OW 5254   4.616   0.842   5.366
 1452SOL    HW1 5255   4.704   0.795   5.361
 1452SOL    HW2 5256   4.630   0.941   5.362
 1453SOL     OW 5257   4.990   4.531   4.415
 1453SOL    HW1 5258   4.926   4.601   4.446
 1453SOL    HW2 5259   4.944   4.468   4.353
 1454SOL     OW 5260   4.308   3.741   1.309
 1454SOL    HW1 5261   4.381   3.673   1.304
 1454SOL    HW2 5262   4.347   3.832   1.312
 1455SOL     OW 5263   2.035   2.614   1.673
 1455SOL    HW1 5264   1.965   2.661   1.726
 1455SOL    HW2 5265   2.010   2.518   1.661
 1456SOL     OW 5266   6.565   5.499   3.719
 1456SOL    HW1 5267   6.630   5.540   3.783
 1456SOL    HW2 5268   6.603   5.414   3.682
 1457SOL     OW 5269   2.076   6.860   3.187
 1457SOL    HW1 5270   1.983   6.826   3.184
 1457SOL    HW2 5271   2.076   6.957   3.210
 1458SOL     OW 5272   6.368   5.457   6.749
 1458SOL    HW1 5273   6.467   5.446   6.749
 1458SOL    HW2 5274   6.342   5.520   6.822
 1459SOL     OW 5275   2.493   0.164   0.784
 1459SOL    HW1 5276   2.506   0.067   0.806
 1459SOL    HW2 5277   2.493   0.217   0.869
 1460SOL     OW 5278   0.823   6.592   0.080
 1460SOL    HW1 5279   0.760   6.657   0.037
 1460SOL    HW2 5280   0.838   6.514   0.019
 1461SOL     OW 5281   5.253   5.123   1.339
 1461SOL    HW1 5282   5.256   5.106   1.240
 1461SOL    HW2 5283   5.287   5.042   1.387
 1462SOL     OW 5284   5.275   0.611   5.800
 1462SOL    HW1 5285   5.239   0.534   5.748
 1462SOL    HW2 5286   5.375   0.608   5.800
 1463SOL     OW 5287   0.634   0.932   5.174
 1463SOL    HW1 5288   0.658   0.853   5.116
 1463SOL    HW2 5289   0.579   0.996   5.120
 1464SOL     OW 5290   0.034   6.479   1.049
 1464SOL    HW1 5291   0.114   6.536   1.070
 1464SOL    HW2 5292   6.987   6.536   1.007
 1465SOL     OW 5293   0.441   0.057   4.635
 1465SOL    HW1 5294   0.522   0.045   4.579
 1465SOL    HW2 5295   0.361   0.069   4.576
 1466SOL     OW 5296   5.997   5.317   4.063
 1466SOL    HW1 5297   5.956   5.340   3.974
 1466SOL    HW2 5298   5.995   5.218   4.077
 1467SOL     OW 5299   0.064   3.437   3.037
 1467SOL    HW1 5300   0.021   3.385   3.111
 1467SOL    HW2 5301   0.091   3.527   3.070
 1468SOL     OW 5302   5.445   6.104   2.965
 1468SOL    HW1 5303   5.408   6.073   2.878
 1468SOL    HW2 5304   5.478   6.198   2.956
 1469SOL     OW 5305   0.431   0.936   3.047
 1469SOL    HW1 5306   0.433   0.953   3.146
 1469SOL    HW2 5307   0.514   0.888   3.020
 1470SOL     OW 5308   0.016   0.885   3.329
 1470SOL    HW1 5309   0.112   0.870   3.305
 1470SOL    HW2 5310   7.021   0.848   3.420
 1471SOL     OW 5311   6.870   0.176   6.976
 1471SOL    HW1 5312   6.874   0.099   6.912
 1471SOL    HW2 5313   6.826   0.254   6.931
 1472SOL     OW 5314   4.468   0.130   5.271
 1472SOL    HW1 5315   4.405   0.140   5.348
 1472SOL    HW2 5316   4.464   0.211   5.214
 1473SOL     OW 5317   5.983   4.304   4.212
 1473SOL    HW1 5318   6.036   4.382   4.180
 1473SOL    HW2 5319   6.042   4.245   4.268
 1474SOL     OW 5320   5.160   5.362   3.443
 1474SOL    HW1 5321   5.112   5.296   3.500
 1474SOL    HW2 5322   5.257   5.363   3.467
 1475SOL     OW 5323   0.039   0.805   2.696
 1475SOL    HW1 5324   0.103   0.863   2.747
 1475SOL    HW2 5325   0.080   0.778   2.610
 1476SOL     OW 5326   6.158   1.865   1.910
 1476SOL    HW1 5327   6.243   1.838   1.956
 1476SOL    HW2 5328   6.083   1.806   1.941
 1477SOL     OW 5329   3.097   6.318   3.364
 1477SOL    HW1 5330   3.046   6.259   3.426
 1477SOL    HW2 5331   3.152   6.383   3.417
 1478SOL     OW 5332   6.829   4.397   1.833
 1478SOL    HW1 5333   6.904   4.331   1.843
 1478SOL    HW2 5334   6.854   4.464   1.763
 1479SOL     OW 5335   1.708   5.274   0.676
 1479SOL    HW1 5336   1.768   5.294   0.753
 1479SOL    HW2 5337   1.614   5.264   0.709
 1480SOL     OW 5338   2.778   0.998   6.917
 1480SOL    HW1 5339   2.689   0.972   6.879
 1480SOL    HW2 5340   2.830   1.050   6.849
 1481SOL     OW 5341   6.277   1.997   6.500
 1481SOL    HW1 5342   6.360   2.019   6.551
 1481SOL    HW2 5343   6.199   2.045   6.540
 1482SOL     OW 5344   5.936   0.666   6.523
 1482SOL    HW1 5345   5.859   0.656   6.459
 1482SOL    HW2 5346   5.988   0.581   6.526
 1483SOL     OW 5347   6.062   2.226   6.547
 1483SOL    HW1 5348   6.084   2.305   6.489
 1483SOL    HW2 5349   5.978   2.183   6.514
 1484SOL     OW 5350   6.422   6.134   2.742
 1484SOL    HW1 5351   6.323   6.141   2.755
 1484SOL    HW2 5352   6.468   6.143   2.831
 1485SOL     OW 5353   5.233   2.963   4.127
 1485SOL    HW1 5354   5.203   2.873   4.096
 1485SOL    HW2 5355   5.216   2.971   4.225
 1486SOL     OW 5356   4.700   2.322   2.409
 1486SOL    HW1 5357   4.664   2.278   2.327
 1486SOL    HW2 5358   4.668   2.417   2.413
 1487SOL     OW 5359   6.449   1.348   5.345
 1487SOL    HW1 5360   6.458   1.330   5.247
 1487SOL    HW2 5361   6.367   1.403   5.361
 1488SOL     OW 5362   3.830   1.894   2.868
 1488SOL    HW1 5363   3.765   1.890   2.792
 1488SOL    HW2 5364   3.829   1.986   2.908
 1489SOL     OW 5365   4.037   5.410   4.902
 1489SOL    HW1 5366   3.972   5.340   4.874
 1489SOL    HW2 5367   4.083   5.448   4.822
 1490SOL     OW 5368   1.885   2.700   0.692
 1490SOL    HW1 5369   1.948   2.678   0.617
 1490SOL    HW2 5370   1.927   2.770   0.751
 1491SOL     OW 5371   0.276   2.464   5.083
 1491SOL    HW1 5372   0.187   2.492   5.120
 1491SOL    HW2 5373   0.273   2.469   4.983
 1492SOL     OW 5374   5.344   2.920   2.485
 1492SOL    HW1 5375   5.278   2.888   2.417
 1492SOL    HW2 5376   5.392   2.842   2.524
 1493SOL     OW 5377   4.984   0.817   4.814
 1493SOL    HW1 5378   4.922   0.814   4.892
 1493SOL    HW2 5379   4.962   0.743   4.751
 1494SOL     OW 5380   4.986   3.223   5.178
 1494SOL    HW1 5381   5.009   3.301   5.120
 1494SOL    HW2 5382   4.905   3.245   5.233
 1495SOL     OW 5383   2.133   2.892   2.740
 1495SOL    HW1 5384   2.051   2.900   2.683
 1495SOL    HW2 5385   2.106   2.873   2.834
 1496SOL     OW 5386   0.850   1.005   2.792
 1496SOL    HW1 5387   0.898   1.056   2.864
 1496SOL    HW2 5388   0.881   1.037   2.703
 1497SOL     OW 5389   5.487   4.778   5.546
 1497SOL    HW1 5390   5.480   4.712   5.470
 1497SOL    HW2 5391   5.463   4.869   5.513
 1498SOL     OW 5392   2.687   6.224   0.495
 1498SOL    HW1 5393   2.724   6.242   0.404
 1498SOL    HW2 5394   2.712   6.299   0.556
 1499SOL     OW 5395   0.413   4.399   5.421
 1499SOL    HW1 5396   0.353   4.328   5.385
 1499SOL    HW2 5397   0.486   4.357   5.475
 1500SOL     OW 5398   4.763   6.650   5.903
 1500SOL    HW1 5399   4.721   6.731   5.945
 1500SOL    HW2 5400   4.697   6.603   5.846
 1501SOL     OW 5401   4.056   0.042   6.409
 1501SOL    HW1 5402   4.129   7.000   6.429
 1501SOL    HW2 5403   4.053   0.111   6.481
 1502SOL     OW 5404   6.385   5.946   0.134
 1502SOL    HW1 5405   6.476   5.927   0.172
 1502SOL    HW2 5406   6.324   5.870   0.156
 1503SOL     OW 5407   3.024   3.341   5.916
 1503SOL    HW1 5408   3.057   3.248   5.931
 1503SOL    HW2 5409   2.944   3.339   5.856
 1504SOL     OW 5410   2.622   5.816   4.442
 1504SOL    HW1 5411   2.645   5.750   4.370
 1504SOL    HW2 5412   2.592   5.901   4.401
 1505SOL     OW 5413   4.721   5.001   0.826
 1505SOL    HW1 5414   4.628   4.996   0.862
 1505SOL    HW2 5415   4.746   4.913   0.785
 1506SOL     OW 5416   0.464   5.750   3.212
 1506SOL    HW1 5417   0.455   5.827   3.275
 1506SOL    HW2 5418   0.551   5.757   3.162
 1507SOL     OW 5419   1.690   1.322   6.229
 1507SOL    HW1 5420   1.743   1.401   6.260
 1507SOL    HW2 5421   1.613   1.307   6.291
 1508SOL     OW 5422   5.266   6.933   0.147
 1508SOL    HW1 5423   5.192   6.877   0.109
 1508SOL    HW2 5424   5.352   6.883   0.143
 1509SOL     OW 5425   5.342   2.129   0.313
 1509SOL    HW1 5426   5.246   2.132   0.285
 1509SOL    HW2 5427   5.366   2.035   0.338
 1510SOL     OW 5428   0.016   1.430   4.074
 1510SOL    HW1 5429   6.986   1.347   4.061
 1510SOL    HW2 5430   0.090   1.434   4.006
 1511SOL     OW 5431   2.150   2.629   1.025
 1511SOL    HW1 5432   2.131   2.553   0.963
 1511SOL    HW2 5433   2.248   2.636   1.040
 1512SOL     OW 5434   6.338   0.409   2.347
 1512SOL    HW1 5435   6.296   0.343   2.285
 1512SOL    HW2 5436   6.300   0.500   2.330
 1513SOL     OW 5437   3.506   1.452   1.795
 1513SOL    HW1 5438   3.444   1.395   1.849
 1513SOL    HW2 5439   3.570   1.499   1.856
 1514SOL     OW 5440   5.255   1.755   5.228
 1514SOL    HW1 5441   5.286   1.661   5.239
 1514SOL    HW2 5442   5.327   1.809   5.184
 1515SOL     OW 5443   6.873   4.754   4.705
 1515SOL    HW1 5444   6.831   4.838   4.674
 1515SOL    HW2 5445   6.888   4.693   4.628
 1516SOL     OW 5446   0.902   1.760   0.914
 1516SOL    HW1 5447   0.916   1.818   0.994
 1516SOL    HW2 5448   0.967   1.685   0.916
 1517SOL     OW 5449   3.733   5.611   3.224
 1517SOL    HW1 5450   3.649   5.567   3.191
 1517SOL    HW2 5451   3.779   5.550   3.289
 1518SOL     OW 5452   0.895   4.696   1.028
 1518SOL    HW1 5453   0.972   4.656   1.078
 1518SOL    HW2 5454   0.834   4.742   1.093
 1519SOL     OW 5455   6.642   4.594   0.679
 1519SOL    HW1 5456   6.660   4.603   0.777
 1519SOL    HW2 5457   6.631   4.685   0.639
 1520SOL     OW 5458   1.428   3.444   3.274
 1520SOL    HW1 5459   1.386   3.355   3.289
 1520SOL    HW2 5460   1.482   3.442   3.189
 1521SOL     OW 5461   2.441   4.189   5.890
 1521SOL    HW1 5462   2.498   4.212   5.970
 1521SOL    HW2 5463   2.447   4.262   5.823
 1522SOL     OW 5464   6.466   2.251   6.663
 1522SOL    HW1 5465   6.457   2.158   6.698
 1522SOL    HW2 5466   6.561   2.280   6.668
 1523SOL     OW 5467   6.793   1.778   0.909
 1523SOL    HW1 5468   6.791   1.681   0.885
 1523SOL    HW2 5469   6.701   1.815   0.903
 1524SOL     OW 5470   6.823   1.009   2.754
 1524SOL    HW1 5471   6.737   0.967   2.784
 1524SOL    HW2 5472   6.892   0.937   2.740
 1525SOL     OW 5473   4.148   1.987   6.078
 1525SOL    HW1 5474   4.140   1.888   6.087
 1525SOL    HW2 5475   4.120   2.015   5.986
 1526SOL     OW 5476   7.020   2.042   1.692
 1526SOL    HW1 5477   6.967   1.958   1.684
 1526SOL    HW2 5478   0.091   2.024   1.664
 1527SOL     OW 5479   2.902   1.179   5.470
 1527SOL    HW1 5480   2.812   1.146   5.499
 1527SOL    HW2 5481   2.963   1.101   5.456
 1528SOL     OW 5482   5.305   6.464   3.667
 1528SOL    HW1 5483   5.316   6.390   3.601
 1528SOL    HW2 5484   5.243   6.533   3.631
 1529SOL     OW 5485   2.900   0.221   5.931
 1529SOL    HW1 5486   2.879   0.227   5.833
 1529SOL    HW2 5487   2.816   0.203   5.982
 1530SOL     OW 5488   3.731   6.545   1.380
 1530SOL    HW1 5489   3.759   6.617   1.316
 1530SOL    HW2 5490   3.811   6.504   1.422
 1531SOL     OW 5491   6.665   0.051   4.722
 1531SOL    HW1 5492   6.664   0.083   4.817
 1531SOL    HW2 5493   6.721   0.112   4.667
 1532SOL     OW 5494   3.236   1.432   4.998
 1532SOL    HW1 5495   3.218   1.529   4.985
 1532SOL    HW2 5496   3.162   1.391   5.052
 1533SOL     OW 5497   6.259   2.980   0.063
 1533SOL    HW1 5498   6.167   2.948   0.041
 1533SOL    HW2 5499   6.326   2.912   0.035
 1534SOL     OW 5500   0.381   6.256   1.773
 1534SOL    HW1 5501   0.381   6.200   1.690
 1534SOL    HW2 5502   0.420   6.204   1.849
 1535SOL     OW 5503   5.229   5.354   4.500
 1535SOL    HW1 5504   5.240   5.257   4.521
 1535SOL    HW2 5505   5.135   5.372   4.471
 1536SOL     OW 5506   2.437   5.765   4.139
 1536SOL    HW1 5507   2.509   5.697   4.150
 1536SOL    HW2 5508   2.467   5.852   4.177
 1537SOL     OW 5509   1.832   5.329   4.692
 1537SOL    HW1 5510   1.852   5.380   4.609
 1537SOL    HW2 5511   1.782   5.245   4.669
 1538SOL     OW 5512   2.247   5.415   6.378
 1538SOL    HW1 5513   2.201   5.340   6.425
 1538SOL    HW2 5514   2.340   5.387   6.354
 1539SOL     OW 5515   3.333   4.851   1.912
 1539SOL    HW1 5516   3.341   4.752   1.915
 1539SOL    HW2 5517   3.424   4.892   1.919
 1540SOL     OW 5518   0.339   6.762   4.745
 1540SOL    HW1 5519   0.314   6.752   4.841
 1540SOL    HW2 5520   0.436   6.788   4.739
 1541SOL     OW 5521   5.021   2.421   1.414
 1541SOL    HW1 5522   5.064   2.452   1.498
 1541SOL    HW2 5523   4.946   2.482   1.390
 1542SOL     OW 5524   1.038   6.610   1.253
 1542SOL    HW1 5525   0.946   6.608   1.214
 1542SOL    HW2 5526   1.099   6.663   1.193
 1543SOL     OW 5527   3.043   3.980   4.074
 1543SOL    HW1 5528   3.039   3.882   4.055
 1543SOL    HW2 5529   3.139   4.009   4.081
 1544SOL     OW 5530   3.668   4.122   2.798
 1544SOL    HW1 5531   3.694   4.067   2.878
 1544SOL    HW2 5532   3.669   4.218   2.823
 1545SOL     OW 5533   6.005   0.893   4.763
 1545SOL    HW1 5534   6.067   0.963   4.727
 1545SOL    HW2 5535   6.029   0.804   4.723
 1546SOL     OW 5536   0.874   6.637   5.855
 1546SOL    HW1 5537   0.838   6.558   5.904
 1546SOL    HW2 5538   0.839   6.721   5.896
 1547SOL     OW 5539   3.763   6.188   6.897
 1547SOL    HW1 5540   3.738   6.230   6.810
 1547SOL    HW2 5541   3.820   6.107   6.880
 1548SOL     OW 5542   5.618   4.023   4.460
 1548SOL    HW1 5543   5.551   4.098   4.457
 1548SOL    HW2 5544   5.632   3.994   4.554
 1549SOL     OW 5545   6.589   1.753   1.537
 1549SOL    HW1 5546   6.548   1.747   1.446
 1549SOL    HW2 5547   6.653   1.677   1.550
 1550SOL     OW 5548   2.421   5.670   4.565
 1550SOL    HW1 5549   2.430   5.684   4.663
 1550SOL    HW2 5550   2.482   5.734   4.517
 1551SOL     OW 5551   1.324   2.676   0.244
 1551SOL    HW1 5552   1.373   2.672   0.331
 1551SOL    HW2 5553   1.236   2.628   0.254
 1552SOL     OW 5554   0.570   0.405   0.846
 1552SOL    HW1 5555   0.528   0.336   0.787
 1552SOL    HW2 5556   0.667   0.381   0.860
 1553SOL     OW 5557   5.762   1.145   6.370
 1553SOL    HW1 5558   5.755   1.224   6.431
 1553SOL    HW2 5559   5.688   1.081   6.389
 1554SOL     OW 5560   3.289   1.738   1.060
 1554SOL    HW1 5561   3.338   1.794   0.993
 1554SOL    HW2 5562   3.219   1.683   1.014
 1555SOL     OW 5563   4.207   1.125   5.481
 1555SOL    HW1 5564   4.228   1.210   5.529
 1555SOL    HW2 5565   4.287   1.065   5.484
 1556SOL     OW 5566   3.982   1.812   0.599
 1556SOL    HW1 5567   4.050   1.843   0.533
 1556SOL    HW2 5568   3.927   1.890   0.630
 1557SOL     OW 5569   1.751   2.928   0.520
 1557SOL    HW1 5570   1.780   2.851   0.576
 1557SOL    HW2 5571   1.831   2.978   0.486
 1558SOL     OW 5572   5.611   2.977   6.329
 1558SOL    HW1 5573   5.572   2.902   6.277
 1558SOL    HW2 5574   5.619   3.058   6.271
 1559SOL     OW 5575   2.234   4.821   3.442
 1559SOL    HW1 5576   2.244   4.733   3.488
 1559SOL    HW2 5577   2.158   4.872   3.484
 1560SOL     OW 5578   4.000   1.641   1.108
 1560SOL    HW1 5579   3.965   1.551   1.135
 1560SOL    HW2 5580   4.039   1.635   1.016
 1561SOL     OW 5581   6.031   6.181   1.177
 1561SOL    HW1 5582   6.130   6.189   1.188
 1561SOL    HW2 5583   6.002   6.090   1.206
 1562SOL     OW 5584   4.270   6.655   2.187
 1562SOL    HW1 5585   4.175   6.629   2.166
 1562SOL    HW2 5586   4.279   6.673   2.284
 1563SOL     OW 5587   3.527   2.141   4.543
 1563SOL    HW1 5588   3.545   2.086   4.625
 1563SOL    HW2 5589   3.604   2.134   4.480
 1564SOL     OW 5590   0.988   2.131   3.348
 1564SOL    HW1 5591   1.003   2.229   3.332
 1564SOL    HW2 5592   1.038   2.103   3.431
 1565SOL     OW 5593   3.999   1.304   4.094
 1565SOL    HW1 5594   3.913   1.325   4.047
 1565SOL    HW2 5595   3.994   1.213   4.134
 1566SOL     OW 5596   4.954   4.801   3.246
 1566SOL    HW1 5597   5.023   4.864   3.212
 1566SOL    HW2 5598   4.897   4.847   3.314
 1567SOL     OW 5599   5.113   0.311   4.860
 1567SOL    HW1 5600   5.040   0.354   4.913
 1567SOL    HW2 5601   5.168   0.382   4.817
 1568SOL     OW 5602   2.468   5.354   2.057
 1568SOL    HW1 5603   2.417   5.283   2.008
 1568SOL    HW2 5604   2.453   5.344   2.155
 1569SOL     OW 5605   3.227   0.281   3.014
 1569SOL    HW1 5606   3.163   0.331   2.957
 1569SOL    HW2 5607   3.271   0.344   3.078
 1570SOL     OW 5608   3.335   6.298   6.310
 1570SOL    HW1 5609   3.425   6.270   6.345
 1570SOL    HW2 5610   3.264   6.246   6.357
 1571SOL     OW 5611   0.420   2.664   4.292
 1571SOL    HW1 5612   0.475   2.707   4.220
 1571SOL    HW2 5613   0.409   2.567   4.272
 1572SOL     OW 5614   2.095   5.005   1.875
 1572SOL    HW1 5615   2.152   4.998   1.794
 1572SOL    HW2 5616   2.026   4.932   1.874
 1573SOL     OW 5617   5.759   5.584   0.473
 1573SOL    HW1 5618   5.856   5.577   0.496
 1573SOL    HW2 5619   5.735   5.680   0.459
 1574SOL     OW 5620   0.031   3.503   3.563
 1574SOL    HW1 5621   0.009   3.591   3.606
 1574SOL    HW2 5622   7.013   3.429   3.615
 1575SOL     OW 5623   6.631   1.698   0.332
 1575SOL    HW1 5624   6.537   1.678   0.360
 1575SOL    HW2 5625   6.650   1.652   0.245
 1576SOL     OW 5626   1.075   0.432   2.166
 1576SOL    HW1 5627   1.028   0.520   2.178
 1576SOL    HW2 5628   1.097   0.420   2.069
 1577SOL     OW 5629   4.246   5.753   5.509
 1577SOL    HW1 5630   4.208   5.765   5.601
 1577SOL    HW2 5631   4.224   5.662   5.475
 1578SOL     OW 5632   5.076   1.430   1.053
 1578SOL    HW1 5633   5.134   1.463   1.128
 1578SOL    HW2 5634   4.981   1.455   1.071
 1579SOL     OW 5635   1.973   2.892   1.306
 1579SOL    HW1 5636   1.999   2.797   1.318
 1579SOL    HW2 5637   2.011   2.947   1.380
 1580SOL     OW 5638   3.117   3.632   2.630
 1580SOL    HW1 5639   3.044   3.587   2.580
 1580SOL    HW2 5640   3.080   3.712   2.679
 1581SOL     OW 5641   5.992   4.077   5.844
 1581SOL    HW1 5642   5.913   4.113   5.893
 1581SOL    HW2 5643   6.062   4.147   5.837
 1582SOL     OW 5644   4.536   6.336   5.479
 1582SOL    HW1 5645   4.536   6.349   5.380
 1582SOL    HW2 5646   4.623   6.295   5.507
 1583SOL     OW 5647   1.615   6.007   5.069
 1583SOL    HW1 5648   1.647   6.054   4.987
 1583SOL    HW2 5649   1.623   6.068   5.147
 1584SOL     OW 5650   0.335   5.163   0.380
 1584SOL    HW1 5651   0.271   5.087   0.378
 1584SOL    HW2 5652   0.285   5.250   0.376
 1585SOL     OW 5653   4.144   6.493   3.281
 1585SOL    HW1 5654   4.074   6.487   3.352
 1585SOL    HW2 5655   4.101   6.510   3.193
 1586SOL     OW 5656   3.540   5.208   3.710
 1586SOL    HW1 5657   3.475   5.141   3.673
 1586SOL    HW2 5658   3.552   5.282   3.644
 1587SOL     OW 5659   2.742   6.068   6.456
 1587SOL    HW1 5660   2.827   6.063   6.508
 1587SOL    HW2 5661   2.706   5.976   6.441
 1588SOL     OW 5662   6.088   1.504   3.319
 1588SOL    HW1 5663   6.102   1.449   3.236
 1588SOL    HW2 5664   5.993   1.498   3.347
 1589SOL     OW 5665   6.128   4.510   3.990
 1589SOL    HW1 5666   6.109   4.475   3.898
 1589SOL    HW2 5667   6.226   4.500   4.010
 1590SOL     OW 5668   6.392   2.587   3.554
 1590SOL    HW1 5669   6.411   2.683   3.534
 1590SOL    HW2 5670   6.370   2.539   3.469
 1591SOL     OW 5671   1.482   6.749   2.144
 1591SOL    HW1 5672   1.387   6.750   2.115
 1591SOL    HW2 5673   1.505   6.837   2.187
 1592SOL     OW 5674   0.048   4.230   6.478
 1592SOL    HW1 5675   0.123   4.194   6.422
 1592SOL    HW2 5676   0.052   4.189   6.569
 1593SOL     OW 5677   3.309   0.586   0.412
 1593SOL    HW1 5678   3.366   0.541   0.481
 1593SOL    HW2 5679   3.311   0.685   0.427
 1594SOL     OW 5680   6.418   0.042   2.095
 1594SOL    HW1 5681   6.388   0.064   2.187
 1594SOL    HW2 5682   6.497   0.099   2.071
 1595SOL     OW 5683   0.129   3.991   6.918
 1595SOL    HW1 5684   0.216   3.993   6.868
 1595SOL    HW2 5685   0.116   3.901   6.958
 1596SOL     OW 5686   4.608   4.844   2.778
 1596SOL    HW1 5687   4.564   4.899   2.708
 1596SOL    HW2 5688   4.597   4.747   2.758
 1597SOL     OW 5689   3.764   6.459   6.450
 1597SOL    HW1 5690   3.860   6.461   6.421
 1597SOL    HW2 5691   3.741   6.546   6.495
 1598SOL     OW 5692   2.058   5.348   0.278
 1598SOL    HW1 5693   2.134   5.283   0.273
 1598SOL    HW2 5694   2.040   5.370   0.374
 1599SOL     OW 5695   4.624   5.722   3.393
 1599SOL    HW1 5696   4.604   5.775   3.475
 1599SOL    HW2 5697   4.554   5.651   3.382
 1600SOL     OW 5698   4.851   6.844   2.183
 1600SOL    HW1 5699   4.758   6.860   2.217
 1600SOL    HW2 5700   4.913   6.836   2.261
 1601SOL     OW 5701   6.762   6.703   4.334
 1601SOL    HW1 5702   6.745   6.802   4.335
 1601SOL    HW2 5703   6.856   6.686   4.366
 1602SOL     OW 5704   3.562   5.134   3.984
 1602SOL    HW1 5705   3.558   5.154   3.886
 1602SOL    HW2 5706   3.583   5.218   4.034
 1603SOL     OW 5707   3.273   5.534   2.695
 1603SOL    HW1 5708   3.316   5.524   2.605
 1603SOL    HW2 5709   3.342   5.565   2.760
 1604SOL     OW 5710   4.439   5.184   2.021
 1604SOL    HW1 5711   4.413   5.265   2.072
 1604SOL    HW2 5712   4.477   5.116   2.083
 1605SOL     OW 5713   4.555   5.498   1.034
 1605SOL    HW1 5714   4.577   5.592   1.060
 1605SOL    HW2 5715   4.473   5.468   1.082
 1606SOL     OW 5716   3.471   5.955   4.457
 1606SOL    HW1 5717   3.504   5.990   4.544
 1606SOL    HW2 5718   3.548   5.927   4.400
 1607SOL     OW 5719   4.613   6.291   3.171
 1607SOL    HW1 5720   4.684   6.358   3.149
 1607SOL    HW2 5721   4.651   6.222   3.234
 1608SOL     OW 5722   5.851   0.917   3.220
 1608SOL    HW1 5723   5.896   0.969   3.147
 1608SOL    HW2 5724   5.912   0.843   3.249
 1609SOL     OW 5725   2.894   6.841   0.186
 1609SOL    HW1 5726   2.883   6.897   0.105
 1609SOL    HW2 5727   2.988   6.808   0.192
 1610SOL     OW 5728   5.423   0.091   0.678
 1610SOL    HW1 5729   5.334   0.074   0.720
 1610SOL    HW2 5730   5.429   0.186   0.647
 1611SOL     OW 5731   1.271   4.070   1.636
 1611SOL    HW1 5732   1.181   4.091   1.598
 1611SOL    HW2 5733   1.291   3.973   1.624
 1612SOL     OW 5734   3.855   7.019   1.824
 1612SOL    HW1 5735   3.923   0.058   1.786
 1612SOL    HW2 5736   3.764   0.034   1.809
 1613SOL     OW 5737   6.761   5.174   2.360
 1613SOL    HW1 5738   6.784   5.210   2.450
 1613SOL    HW2 5739   6.834   5.196   2.296
 1614SOL     OW 5740   6.617   1.727   6.301
 1614SOL    HW1 5741   6.649   1.820   6.320
 1614SOL    HW2 5742   6.567   1.726   6.214
 1615SOL     OW 5743   1.275   5.033   6.326
 1615SOL    HW1 5744   1.262   4.983   6.240
 1615SOL    HW2 5745   1.186   5.056   6.366
 1616SOL     OW 5746   2.078   1.386   4.634
 1616SOL    HW1 5747   2.066   1.476   4.591
 1616SOL    HW2 5748   2.135   1.329   4.576
 1617SOL     OW 5749   5.532   6.199   3.395
 1617SOL    HW1 5750   5.547   6.223   3.491
 1617SOL    HW2 5751   5.452   6.249   3.360
 1618SOL     OW 5752   3.001   5.053   3.008
 1618SOL    HW1 5753   2.926   4.988   2.997
 1618SOL    HW2 5754   3.087   5.003   3.020
 1619SOL     OW 5755   1.175   5.059   6.651
 1619SOL    HW1 5756   1.273   5.065   6.634
 1619SOL    HW2 5757   1.154   5.096   6.742
 1620SOL     OW 5758   3.600   5.284   6.276
 1620SOL    HW1 5759   3.604   5.338   6.192
 1620SOL    HW2 5760   3.576   5.344   6.353
 1621SOL     OW 5761   5.205   5.936   0.971
 1621SOL    HW1 5762   5.193   5.912   1.068
 1621SOL    HW2 5763   5.165   5.865   0.913
 1622SOL     OW 5764   0.370   4.313   4.455
 1622SOL    HW1 5765   0.440   4.242   4.467
 1622SOL    HW2 5766   0.401   4.378   4.386
 1623SOL     OW 5767   0.545   2.162   4.045
 1623SOL    HW1 5768   0.481   2.100   4.091
 1623SOL    HW2 5769   0.634   2.118   4.036
 1624SOL     OW 5770   4.342   1.684   0.821
 1624SOL    HW1 5771   4.345   1.776   0.859
 1624SOL    HW2 5772   4.387   1.683   0.731
 1625SOL     OW 5773   1.147   5.806   1.081
 1625SOL    HW1 5774   1.098   5.760   1.155
 1625SOL    HW2 5775   1.129   5.759   0.995
 1626SOL     OW 5776   3.002   1.781   1.341
 1626SOL    HW1 5777   3.017   1.819   1.250
 1626SOL    HW2 5778   3.069   1.819   1.405
 1627SOL     OW 5779   4.285   1.736   4.200
 1627SOL    HW1 5780   4.361   1.745   4.136
 1627SOL    HW2 5781   4.218   1.672   4.163
 1628SOL     OW 5782   5.399   6.531   0.648
 1628SOL    HW1 5783   5.386   6.604   0.582
 1628SOL    HW2 5784   5.378   6.443   0.606
 1629SOL     OW 5785   1.885   0.655   3.506
 1629SOL    HW1 5786   1.795   0.637   3.465
 1629SOL    HW2 5787   1.875   0.661   3.605
 1630SOL     OW 5788   0.164   3.706   7.009
 1630SOL    HW1 5789   0.105   3.665   0.056
 1630SOL    HW2 5790   0.216   3.634   6.963
 1631SOL     OW 5791   6.649   3.227   0.244
 1631SOL    HW1 5792   6.711   3.229   0.323
 1631SOL    HW2 5793   6.656   3.138   0.198
 1632SOL     OW 5794   6.532   4.982   2.632
 1632SOL    HW1 5795   6.498   5.059   2.578
 1632SOL    HW2 5796   6.584   4.921   2.572
 1633SOL     OW 5797   5.059   3.167   3.971
 1633SOL    HW1 5798   4.990   3.120   3.917
 1633SOL    HW2 5799   5.114   3.101   4.022
 1634SOL     OW 5800   5.758   0.855   4.578
 1634SOL    HW1 5801   5.774   0.761   4.550
 1634SOL    HW2 5802   5.837   0.911   4.555
 1635SOL     OW 5803   3.467   5.759   4.005
 1635SOL    HW1 5804   3.450   5.714   3.917
 1635SOL    HW2 5805   3.538   5.829   3.993
 1636SOL     OW 5806   5.826   6.649   1.524
 1636SOL    HW1 5807   5.917   6.609   1.521
 1636SOL    HW2 5808   5.808   6.683   1.617
 1637SOL     OW 5809   0.201   0.025   2.045
 1637SOL    HW1 5810   0.237   0.100   2.101
 1637SOL    HW2 5811   0.157   0.062   1.964
 1638SOL     OW 5812   6.480   3.021   1.983
 1638SOL    HW1 5813   6.444   2.933   1.952
 1638SOL    HW2 5814   6.422   3.057   2.056
 1639SOL     OW 5815   5.164   2.467   2.465
 1639SOL    HW1 5816   5.088   2.531   2.478
 1639SOL    HW2 5817   5.132   2.387   2.414
 1640SOL     OW 5818   6.418   0.171   6.876
 1640SOL    HW1 5819   6.499   0.140   6.825
 1640SOL    HW2 5820   6.341   0.179   6.813
 1641SOL     OW 5821   6.367   2.584   3.168
 1641SOL    HW1 5822   6.370   2.491   3.207
 1641SOL    HW2 5823   6.390   2.580   3.071
 1642SOL     OW 5824   6.077   2.317   5.878
 1642SOL    HW1 5825   6.080   2.364   5.966
 1642SOL    HW2 5826   6.169   2.311   5.840
 1643SOL     OW 5827   2.620   5.988   3.508
 1643SOL    HW1 5828   2.699   6.042   3.480
 1643SOL    HW2 5829   2.542   6.048   3.523
 1644SOL     OW 5830   6.248   2.816   1.463
 1644SOL    HW1 5831   6.189   2.785   1.388
 1644SOL    HW2 5832   6.236   2.755   1.542
 1645SOL     OW 5833   2.067   0.868   5.794
 1645SOL    HW1 5834   2.065   0.896   5.890
 1645SOL    HW2 5835   2.120   0.783   5.786
 1646SOL     OW 5836   1.133   5.501   1.211
 1646SOL    HW1 5837   1.076   5.551   1.275
 1646SOL    HW2 5838   1.204   5.451   1.261
 1647SOL     OW 5839   6.158   2.875   4.102
 1647SOL    HW1 5840   6.062   2.846   4.109
 1647SOL    HW2 5841   6.176   2.948   4.169
 1648SOL     OW 5842   5.596   6.096   1.311
 1648SOL    HW1 5843   5.674   6.158   1.302
 1648SOL    HW2 5844   5.511   6.146   1.294
 1649SOL     OW 5845   3.718   0.123   3.528
 1649SOL    HW1 5846   3.653   0.191   3.494
 1649SOL    HW2 5847   3.739   0.057   3.456
 1650SOL     OW 5848   2.715   4.626   6.430
 1650SOL    HW1 5849   2.735   4.719   6.401
 1650SOL    HW2 5850   2.632   4.625   6.485
 1651SOL     OW 5851   1.186   3.031   3.725
 1651SOL    HW1 5852   1.106   2.978   3.696
 1651SOL    HW2 5853   1.236   2.979   3.794
 1652SOL     OW 5854   0.521   2.410   1.257
 1652SOL    HW1 5855   0.502   2.388   1.161
 1652SOL    HW2 5856   0.452   2.476   1.289
 1653SOL     OW 5857   0.302   4.504   3.488
 1653SOL    HW1 5858   0.209   4.485   3.456
 1653SOL    HW2 5859   0.341   4.422   3.529
 1654SOL     OW 5860   0.450   2.908   2.048
 1654SOL    HW1 5861   0.358   2.910   2.009
 1654SOL    HW2 5862   0.456   2.975   2.122
 1655SOL     OW 5863   0.092   6.780   4.618
 1655SOL    HW1 5864   0.025   6.731   4.675
 1655SOL    HW2 5865   0.178   6.788   4.667
 1656SOL     OW 5866   1.660   4.547   3.894
 1656SOL    HW1 5867   1.745   4.556   3.946
 1656SOL    HW2 5868   1.681   4.549   3.796
 1657SOL     OW 5869   1.316   6.754   5.340
 1657SOL    HW1 5870   1.353   6.827   5.396
 1657SOL    HW2 5871   1.217   6.747   5.356
 1658SOL     OW 5872   6.606   0.005   6.679
 1658SOL    HW1 5873   6.696   7.002   6.713
 1658SOL    HW2 5874   6.617   0.062   6.597
 1659SOL     OW 5875   4.783   6.530   6.577
 1659SOL    HW1 5876   4.684   6.520   6.566
 1659SOL    HW2 5877   4.802   6.581   6.661
 1660SOL     OW 5878   2.423   0.046   2.461
 1660SOL    HW1 5879   2.351   0.111   2.486
 1660SOL    HW2 5880   2.496   0.095   2.412
 1661SOL     OW 5881   4.172   4.761   2.670
 1661SOL    HW1 5882   4.158   4.739   2.574
 1661SOL    HW2 5883   4.084   4.755   2.719
 1662SOL     OW 5884   0.181   1.186   5.124
 1662SOL    HW1 5885   0.207   1.282   5.132
 1662SOL    HW2 5886   0.088   1.181   5.086
 1663SOL     OW 5887   4.034   4.937   0.740
 1663SOL    HW1 5888   3.948   4.971   0.777
 1663SOL    HW2 5889   4.098   4.918   0.815
 1664SOL     OW 5890   1.221   0.209   5.710
 1664SOL    HW1 5891   1.315   0.225   5.678
 1664SOL    HW2 5892   1.159   0.271   5.663
 1665SOL     OW 5893   2.258   3.912   0.323
 1665SOL    HW1 5894   2.304   3.828   0.351
 1665SOL    HW2 5895   2.211   3.952   0.402
 1666SOL     OW 5896   5.799   6.446   6.281
 1666SOL    HW1 5897   5.773   6.512   6.352
 1666SOL    HW2 5898   5.875   6.389   6.314
 1667SOL     OW 5899   0.892   6.394   1.372
 1667SOL    HW1 5900   0.944   6.308   1.373
 1667SOL    HW2 5901   0.952   6.468   1.341
 1668SOL     OW 5902   5.623   4.589   3.201
 1668SOL    HW1 5903   5.551   4.621   3.263
 1668SOL    HW2 5904   5.597   4.610   3.107
 1669SOL     OW 5905   6.243   3.488   5.233
 1669SOL    HW1 5906   6.268   3.538   5.316
 1669SOL    HW2 5907   6.217   3.553   5.161
 1670SOL     OW 5908   2.147   4.921   5.843
 1670SOL    HW1 5909   2.125   5.015   5.869
 1670SOL    HW2 5910   2.169   4.868   5.925
 1671SOL     OW 5911   6.093   2.011   1.026
 1671SOL    HW1 5912   6.188   1.993   1.052
 1671SOL    HW2 5913   6.049   2.064   1.098
 1672SOL     OW 5914   0.795   3.538   0.028
 1672SOL    HW1 5915   0.793   3.494   6.962
 1672SOL    HW2 5916   0.865   3.610   0.028
 1673SOL     OW 5917   2.382   1.371   4.934
 1673SOL    HW1 5918   2.332   1.375   5.021
 1673SOL    HW2 5919   2.351   1.445   4.874
 1674SOL     OW 5920   4.813   1.762   3.042
 1674SOL    HW1 5921   4.788   1.858   3.049
 1674SOL    HW2 5922   4.743   1.705   3.085
 1675SOL     OW 5923   5.450   1.024   1.116
 1675SOL    HW1 5924   5.449   0.990   1.210
 1675SOL    HW2 5925   5.458   1.123   1.117
 1676SOL     OW 5926   1.595   1.620   2.980
 1676SOL    HW1 5927   1.652   1.583   2.907
 1676SOL    HW2 5928   1.532   1.549   3.013
 1677SOL     OW 5929   3.886   4.046   3.502
 1677SOL    HW1 5930   3.978   4.034   3.465
 1677SOL    HW2 5931   3.884   4.014   3.597
 1678SOL     OW 5932   1.264   0.245   0.689
 1678SOL    HW1 5933   1.206   0.270   0.767
 1678SOL    HW2 5934   1.220   0.274   0.604
 1679SOL     OW 5935   1.171   2.431   5.870
 1679SOL    HW1 5936   1.091   2.480   5.905
 1679SOL    HW2 5937   1.172   2.338   5.905
 1680SOL     OW 5938   4.859   2.368   4.058
 1680SOL    HW1 5939   4.846   2.406   4.150
 1680SOL    HW2 5940   4.779   2.388   4.002
 1681SOL     OW 5941   2.133   6.157   4.161
 1681SOL    HW1 5942   2.052   6.211   4.186
 1681SOL    HW2 5943   2.105   6.077   4.109
 1682SOL     OW 5944   3.280   0.460   5.255
 1682SOL    HW1 5945   3.260   0.397   5.330
 1682SOL    HW2 5946   3.207   0.457   5.188
 1683SOL     OW 5947   5.856   4.672   2.531
 1683SOL    HW1 5948   5.827   4.581   2.560
 1683SOL    HW2 5949   5.832   4.686   2.435
 1684SOL     OW 5950   2.502   4.530   1.933
 1684SOL    HW1 5951   2.503   4.454   1.868
 1684SOL    HW2 5952   2.594   4.566   1.944
 1685SOL     OW 5953   0.220   0.991   5.322
 1685SOL    HW1 5954   0.140   0.933   5.329
 1685SOL    HW2 5955   0.203   1.065   5.257
 1686SOL     OW 5956   4.977   5.798   3.068
 1686SOL    HW1 5957   4.883   5.766   3.064
 1686SOL    HW2 5958   4.982   5.878   3.128
 1687SOL     OW 5959   5.971   3.714   2.794
 1687SOL    HW1 5960   5.956   3.619   2.767
 1687SOL    HW2 5961   5.887   3.751   2.834
 1688SOL     OW 5962   2.235   1.406   3.652
 1688SOL    HW1 5963   2.295   1.480   3.622
 1688SOL    HW2 5964   2.193   1.362   3.573
 1689SOL     OW 5965   4.850   0.804   1.504
 1689SOL    HW1 5966   4.779   0.851   1.450
 1689SOL    HW2 5967   4.916   0.872   1.537
 1690SOL     OW 5968   0.882   4.392   4.311
 1690SOL    HW1 5969   0.968   4.392   4.260
 1690SOL    HW2 5970   0.873   4.304   4.360
 1691SOL     OW 5971   4.555   2.938   5.344
 1691SOL    HW1 5972   4.613   2.914   5.421
 1691SOL    HW2 5973   4.462   2.907   5.360
 1692SOL     OW 5974   5.598   5.315   1.091
 1692SOL    HW1 5975   5.556   5.378   1.156
 1692SOL    HW2 5976   5.580   5.221   1.120
 1693SOL     OW 5977   5.356   6.859   5.191
 1693SOL    HW1 5978   5.329   6.950   5.223
 1693SOL    HW2 5979   5.374   6.800   5.270
 1694SOL     OW 5980   4.860   1.392   5.337
 1694SOL    HW1 5981   4.792   1.340   5.388
 1694SOL    HW2 5982   4.869   1.484   5.377
 1695SOL     OW 5983   3.761   1.097   6.295
 1695SOL    HW1 5984   3.763   1.005   6.255
 1695SOL    HW2 5985   3.831   1.153   6.252
 1696SOL     OW 5986   4.669   6.246   0.707
 1696SOL    HW1 5987   4.607   6.178   0.667
 1696SOL    HW2 5988   4.742   6.267   0.641
 1697SOL     OW 5989   5.813   2.527   2.229
 1697SOL    HW1 5990   5.820   2.481   2.317
 1697SOL    HW2 5991   5.724   2.506   2.188
 1698SOL     OW 5992   3.945   1.031   1.595
 1698SOL    HW1 5993   3.889   1.083   1.660
 1698SOL    HW2 5994   4.015   1.092   1.557
 1699SOL     OW 5995   2.447   0.408   0.016
 1699SOL    HW1 5996   2.373   0.357   0.061
 1699SOL    HW2 5997   2.410   0.456   6.960
 1700SOL     OW 5998   6.246   2.871   2.802
 1700SOL    HW1 5999   6.206   2.950   2.756
 1700SOL    HW2 6000   6.203   2.787   2.769
 1701SOL     OW 6001   0.327   5.608   4.280
 1701SOL    HW1 6002   0.375   5.599   4.367
 1701SOL    HW2 6003   0.230   5.589   4.293
 1702SOL     OW 6004   2.059   2.544   5.835
 1702SOL    HW1 6005   2.009   2.627   5.812
 1702SOL    HW2 6006   2.004   2.488   5.897
 1703SOL     OW 6007   3.558   2.120   0.686
 1703SOL    HW1 6008   3.532   2.216   0.690
 1703SOL    HW2 6009   3.566   2.091   0.591
 1704SOL     OW 6010   2.587   2.180   1.309
 1704SOL    HW1 6011   2.654   2.117   1.346
 1704SOL    HW2 6012   2.495   2.146   1.328
 1705SOL     OW 6013   4.119   2.237   0.597
 1705SOL    HW1 6014   4.035   2.187   0.572
 1705SOL    HW2 6015   4.118   2.257   0.694
 1706SOL     OW 6016   4.271   2.130   6.578
 1706SOL    HW1 6017   4.250   2.056   6.514
 1706SOL    HW2 6018   4.213   2.121   6.659
 1707SOL     OW 6019   4.502   2.088   2.201
 1707SOL    HW1 6020   4.438   2.044   2.138
 1707SOL    HW2 6021   4.467   2.080   2.294
 1708SOL     OW 6022   3.494   5.222   1.660
 1708SOL    HW1 6023   3.461   5.130   1.636
 1708SOL    HW2 6024   3.474   5.240   1.757
 1709SOL     OW 6025   4.572   5.272   0.500
 1709SOL    HW1 6026   4.582   5.288   0.402
 1709SOL    HW2 6027   4.657   5.296   0.547
 1710SOL     OW 6028   4.179   5.116   3.169
 1710SOL    HW1 6029   4.189   5.019   3.149
 1710SOL    HW2 6030   4.116   5.127   3.247
 1711SOL     OW 6031   3.629   4.743   6.355
 1711SOL    HW1 6032   3.693   4.766   6.282
 1711SOL    HW2 6033   3.535   4.750   6.321
 1712SOL     OW 6034   0.147   1.860   3.253
 1712SOL    HW1 6035   0.059   1.874   3.300
 1712SOL    HW2 6036   0.142   1.776   3.199
 1713SOL     OW 6037   4.178   0.862   3.174
 1713SOL    HW1 6038   4.189   0.879   3.076
 1713SOL    HW2 6039   4.185   0.948   3.224
 1714SOL     OW 6040   3.867   3.413   0.314
 1714SOL    HW1 6041   3.842   3.498   0.267
 1714SOL    HW2 6042   3.794   3.387   0.377
 1715SOL     OW 6043   1.959   0.048   2.919
 1715SOL    HW1 6044   1.913   6.985   2.902
 1715SOL    HW2 6045   2.030   0.063   2.850
 1716SOL     OW 6046   4.836   0.465   3.430
 1716SOL    HW1 6047   4.917   0.523   3.434
 1716SOL    HW2 6048   4.796   0.469   3.339
 1717SOL     OW 6049   3.610   6.117   5.250
 1717SOL    HW1 6050   3.541   6.170   5.300
 1717SOL    HW2 6051   3.646   6.173   5.175
 1718SOL     OW 6052   1.331   2.958   1.836
 1718SOL    HW1 6053   1.295   3.036   1.784
 1718SOL    HW2 6054   1.289   2.874   1.803
 1719SOL     OW 6055   1.386   5.586   2.237
 1719SOL    HW1 6056   1.454   5.525   2.278
 1719SOL    HW2 6057   1.294   5.554   2.260
 1720SOL     OW 6058   6.855   3.107   5.926
 1720SOL    HW1 6059   6.948   3.116   5.890
 1720SOL    HW2 6060   6.813   3.198   5.932
 1721SOL     OW 6061   1.783   1.691   0.621
 1721SOL    HW1 6062   1.764   1.778   0.576
 1721SOL    HW2 6063   1.724   1.681   0.701
 1722SOL     OW 6064   2.922   2.268   3.409
 1722SOL    HW1 6065   2.965   2.194   3.461
 1722SOL    HW2 6066   2.907   2.239   3.315
 1723SOL     OW 6067   5.133   3.207   0.262
 1723SOL    HW1 6068   5.054   3.148   0.251
 1723SOL    HW2 6069   5.213   3.165   0.218
 1724SOL     OW 6070   6.625   2.264   1.130
 1724SOL    HW1 6071   6.573   2.247   1.213
 1724SOL    HW2 6072   6.668   2.354   1.135
 1725SOL     OW 6073   1.580   5.828   0.091
 1725SOL    HW1 6074   1.536   5.754   0.142
 1725SOL    HW2 6075   1.650   5.870   0.147
 1726SOL     OW 6076   5.422   4.288   3.245
 1726SOL    HW1 6077   5.459   4.198   3.222
 1726SOL    HW2 6078   5.481   4.332   3.312
 1727SOL     OW 6079   2.975   3.145   3.472
 1727SOL    HW1 6080   2.924   3.229   3.451
 1727SOL    HW2 6081   2.995   3.096   3.388
 1728SOL     OW 6082   4.626   2.144   4.063
 1728SOL    HW1 6083   4.588   2.208   3.996
 1728SOL    HW2 6084   4.555   2.082   4.095
 1729SOL     OW 6085   1.605   4.107   2.205
 1729SOL    HW1 6086   1.516   4.131   2.167
 1729SOL    HW2 6087   1.593   4.075   2.300
 1730SOL     OW 6088   2.485   4.881   5.150
 1730SOL    HW1 6089   2.396   4.841   5.127
 1730SOL    HW2 6090   2.520   4.933   5.072
 1731SOL     OW 6091   6.006   4.388   3.751
 1731SOL    HW1 6092   5.957   4.331   3.818
 1731SOL    HW2 6093   5.965   4.375   3.661
 1732SOL     OW 6094   1.763   3.860   5.772
 1732SOL    HW1 6095   1.830   3.788   5.787
 1732SOL    HW2 6096   1.680   3.841   5.826
 1733SOL     OW 6097   2.572   4.110   6.774
 1733SOL    HW1 6098   2.526   4.035   6.822
 1733SOL    HW2 6099   2.589   4.083   6.680
 1734SOL     OW 6100   6.978   2.763   1.368
 1734SOL    HW1 6101   0.033   2.823   1.357
 1734SOL    HW2 6102   7.007   2.677   1.411
 1735SOL     OW 6103   3.924   5.153   5.591
 1735SOL    HW1 6104   3.843   5.139   5.534
 1735SOL    HW2 6105   3.905   5.125   5.685
 1736SOL     OW 6106   4.655   3.209   0.773
 1736SOL    HW1 6107   4.625   3.130   0.719
 1736SOL    HW2 6108   4.752   3.197   0.798
 1737SOL     OW 6109   4.522   1.559   5.554
 1737SOL    HW1 6110   4.560   1.630   5.495
 1737SOL    HW2 6111   4.488   1.484   5.497
 1738SOL     OW 6112   1.507   3.307   4.578
 1738SOL    HW1 6113   1.470   3.216   4.563
 1738SOL    HW2 6114   1.602   3.310   4.546
 1739SOL     OW 6115   5.707   0.388   4.125
 1739SOL    HW1 6116   5.694   0.473   4.076
 1739SOL    HW2 6117   5.623   0.364   4.174
 1740SOL     OW 6118   6.251   2.715   4.551
 1740SOL    HW1 6119   6.304   2.793   4.583
 1740SOL    HW2 6120   6.312   2.640   4.525
 1741SOL     OW 6121   0.943   1.904   4.741
 1741SOL    HW1 6122   0.990   1.934   4.658
 1741SOL    HW2 6123   0.852   1.869   4.718
 1742SOL     OW 6124   5.846   6.646   6.054
 1742SOL    HW1 6125   5.841   6.581   6.131
 1742SOL    HW2 6126   5.874   6.597   5.972
 1743SOL     OW 6127   1.569   0.895   3.059
 1743SOL    HW1 6128   1.659   0.926   3.028
 1743SOL    HW2 6129   1.534   0.959   3.128
 1744SOL     OW 6130   3.763   1.910   4.404
 1744SOL    HW1 6131   3.783   1.885   4.309
 1744SOL    HW2 6132   3.810   1.848   4.466
 1745SOL     OW 6133   6.588   0.200   1.529
 1745SOL    HW1 6134   6.532   0.260   1.471
 1745SOL    HW2 6135   6.536   0.173   1.610
 1746SOL     OW 6136   2.248   4.603   3.596
 1746SOL    HW1 6137   2.333   4.552   3.582
 1746SOL    HW2 6138   2.187   4.550   3.655
 1747SOL     OW 6139   4.466   0.124   2.199
 1747SOL    HW1 6140   4.407   0.163   2.129
 1747SOL    HW2 6141   4.483   0.192   2.270
 1748SOL     OW 6142   6.586   2.776   4.605
 1748SOL    HW1 6143   6.585   2.838   4.526
 1748SOL    HW2 6144   6.592   2.829   4.689
 1749SOL     OW 6145   1.709   4.789   0.880
 1749SOL    HW1 6146   1.666   4.864   0.930
 1749SOL    HW2 6147   1.696   4.703   0.930
 1750SOL     OW 6148   3.839   0.003   5.690
 1750SOL    HW1 6149   3.922   0.006   5.635
 1750SOL    HW2 6150   3.814   6.932   5.708
 1751SOL     OW 6151   5.227   2.810   5.325
 1751SOL    HW1 6152   5.235   2.885   5.259
 1751SOL    HW2 6153   5.130   2.792   5.342
 1752SOL     OW 6154   0.177   0.743   1.923
 1752SOL    HW1 6155   0.269   0.753   1.885
 1752SOL    HW2 6156   0.175   0.784   2.014
 1753SOL     OW 6157   6.055   1.621   1.722
 1753SOL    HW1 6158   6.132   1.674   1.687
 1753SOL    HW2 6159   6.090   1.541   1.771
 1754SOL     OW 6160   2.906   5.847   4.295
 1754SOL    HW1 6161   2.921   5.814   4.202
 1754SOL    HW2 6162   2.869   5.774   4.352
 1755SOL     OW 6163   6.698   6.685   4.985
 1755SOL    HW1 6164   6.734   6.768   5.028
 1755SOL    HW2 6165   6.668   6.706   4.892
 1756SOL     OW 6166   5.046   6.719   5.932
 1756SOL    HW1 6167   4.949   6.700   5.918
 1756SOL    HW2 6168   5.069   6.807   5.891
 1757SOL     OW 6169   2.274   4.730   5.062
 1757SOL    HW1 6170   2.182   4.735   5.100
 1757SOL    HW2 6171   2.272   4.680   4.975
 1758SOL     OW 6172   1.639   6.788   4.997
 1758SOL    HW1 6173   1.691   6.721   5.050
 1758SOL    HW2 6174   1.578   6.741   4.934
 1759SOL     OW 6175   2.074   6.770   0.421
 1759SOL    HW1 6176   2.089   6.688   0.477
 1759SOL    HW2 6177   2.009   6.830   0.468
 1760SOL     OW 6178   6.681   1.067   4.571
 1760SOL    HW1 6179   6.621   1.141   4.540
 1760SOL    HW2 6180   6.643   1.026   4.654
 1761SOL     OW 6181   5.903   1.338   2.420
 1761SOL    HW1 6182   5.936   1.399   2.491
 1761SOL    HW2 6183   5.980   1.291   2.377
 1762SOL     OW 6184   0.625   1.793   5.932
 1762SOL    HW1 6185   0.687   1.738   5.987
 1762SOL    HW2 6186   0.673   1.874   5.898
 1763SOL     OW 6187   0.807   3.857   4.020
 1763SOL    HW1 6188   0.889   3.871   4.075
 1763SOL    HW2 6189   0.796   3.759   4.002
 1764SOL     OW 6190   0.793   5.599   2.876
 1764SOL    HW1 6191   0.889   5.602   2.903
 1764SOL    HW2 6192   0.755   5.509   2.895
 1765SOL     OW 6193   5.610   3.077   2.532
 1765SOL    HW1 6194   5.521   3.046   2.497
 1765SOL    HW2 6195   5.613   3.062   2.631
 1766SOL     OW 6196   4.559   4.913   4.099
 1766SOL    HW1 6197   4.646   4.875   4.064
 1766SOL    HW2 6198   4.508   4.953   4.023
 1767SOL     OW 6199   0.934   4.354   2.286
 1767SOL    HW1 6200   0.966   4.409   2.363
 1767SOL    HW2 6201   0.902   4.265   2.319
 1768SOL     OW 6202   5.146   6.357   2.024
 1768SOL    HW1 6203   5.192   6.414   1.956
 1768SOL    HW2 6204   5.054   6.392   2.039
 1769SOL     OW 6205   5.051   0.116   0.200
 1769SOL    HW1 6206   5.109   0.034   0.191
 1769SOL    HW2 6207   5.080   0.184   0.132
 1770SOL     OW 6208   1.789   5.684   6.841
 1770SOL    HW1 6209   1.803   5.704   6.744
 1770SOL    HW2 6210   1.709   5.625   6.851
 1771SOL     OW 6211   1.553   3.169   5.792
 1771SOL    HW1 6212   1.455   3.187   5.803
 1771SOL    HW2 6213   1.566   3.077   5.755
 1772SOL     OW 6214   2.037   4.738   3.280
 1772SOL    HW1 6215   2.038   4.755   3.181
 1772SOL    HW2 6216   2.118   4.780   3.321
 1773SOL     OW 6217   1.105   6.749   6.169
 1773SOL    HW1 6218   1.119   6.661   6.123
 1773SOL    HW2 6219   1.096   6.734   6.267
 1774SOL     OW 6220   4.760   5.273   0.703
 1774SOL    HW1 6221   4.746   5.179   0.735
 1774SOL    HW2 6222   4.759   5.335   0.781
 1775SOL     OW 6223   2.227   5.580   6.749
 1775SOL    HW1 6224   2.132   5.550   6.741
 1775SOL    HW2 6225   2.271   5.530   6.824
 1776SOL     OW 6226   4.770   1.700   5.821
 1776SOL    HW1 6227   4.799   1.796   5.819
 1776SOL    HW2 6228   4.778   1.665   5.914
 1777SOL     OW 6229   5.066   6.304   5.971
 1777SOL    HW1 6230   5.150   6.290   6.023
 1777SOL    HW2 6231   5.006   6.367   6.020
 1778SOL     OW 6232   5.785   0.031   4.065
 1778SOL    HW1 6233   5.815   0.119   4.029
 1778SOL    HW2 6234   5.703   0.001   4.016
 1779SOL     OW 6235   5.880   5.752   4.356
 1779SOL    HW1 6236   5.887   5.851   4.343
 1779SOL    HW2 6237   5.969   5.716   4.384
 1780SOL     OW 6238   2.129   5.790   4.858
 1780SOL    HW1 6239   2.041   5.816   4.818
 1780SOL    HW2 6240   2.188   5.870   4.865
 1781SOL     OW 6241   3.960   0.796   4.064
 1781SOL    HW1 6242   3.932   0.871   4.124
 1781SOL    HW2 6243   3.909   0.801   3.978
 1782SOL     OW 6244   0.547   1.406   2.782
 1782SOL    HW1 6245   0.619   1.402   2.852
 1782SOL    HW2 6246   0.458   1.393   2.825
 1783SOL     OW 6247   2.299   4.146   6.633
 1783SOL    HW1 6248   2.236   4.222   6.617
 1783SOL    HW2 6249   2.375   4.177   6.690
 1784SOL     OW 6250   2.716   0.122   1.326
 1784SOL    HW1 6251   2.755   0.175   1.401
 1784SOL    HW2 6252   2.631   0.079   1.356
 1785SOL     OW 6253   1.482   6.620   4.830
 1785SOL    HW1 6254   1.383   6.613   4.824
 1785SOL    HW2 6255   1.523   6.535   4.797
 1786SOL     OW 6256   1.061   6.942   0.735
 1786SOL    HW1 6257   1.140   6.882   0.726
 1786SOL    HW2 6258   0.979   6.895   0.703
 1787SOL     OW 6259   2.827   3.686   6.239
 1787SOL    HW1 6260   2.897   3.637   6.187
 1787SOL    HW2 6261   2.763   3.729   6.175
 1788SOL     OW 6262   4.651   3.596   0.884
 1788SOL    HW1 6263   4.641   3.501   0.913
 1788SOL    HW2 6264   4.574   3.649   0.918
 1789SOL     OW 6265   6.031   4.014   1.665
 1789SOL    HW1 6266   6.106   3.995   1.729
 1789SOL    HW2 6267   5.977   4.091   1.700
 1790SOL     OW 6268   2.367   2.426   4.428
 1790SOL    HW1 6269   2.297   2.437   4.499
 1790SOL    HW2 6270   2.388   2.329   4.416
 1791SOL     OW 6271   5.186   6.970   2.974
 1791SOL    HW1 6272   5.218   6.876   2.985
 1791SOL    HW2 6273   5.244   7.019   2.909
 1792SOL     OW 6274   0.011   1.395   5.334
 1792SOL    HW1 6275   0.093   1.370   5.386
 1792SOL    HW2 6276   6.963   1.423   5.397
 1793SOL     OW 6277   0.022   1.195   5.879
 1793SOL    HW1 6278   0.113   1.157   5.899
 1793SOL    HW2 6279   7.016   1.252   5.955
 1794SOL     OW 6280   1.370   0.368   6.562
 1794SOL    HW1 6281   1.428   0.291   6.535
 1794SOL    HW2 6282   1.391   0.394   6.656
 1795SOL     OW 6283   6.063   4.252   1.372
 1795SOL    HW1 6284   6.076   4.244   1.273
 1795SOL    HW2 6285   5.988   4.193   1.401
 1796SOL     OW 6286   0.825   0.472   6.790
 1796SOL    HW1 6287   0.810   0.445   6.695
 1796SOL    HW2 6288   0.902   0.420   6.827
 1797SOL     OW 6289   1.830   5.614   5.840
 1797SOL    HW1 6290   1.744   5.662   5.859
 1797SOL    HW2 6291   1.907   5.669   5.873
 1798SOL     OW 6292   2.965   3.548   5.080
 1798SOL    HW1 6293   3.056   3.589   5.091
 1798SOL    HW2 6294   2.896   3.609   5.119
 1799SOL     OW 6295   3.406   1.630   0.637
 1799SOL    HW1 6296   3.377   1.576   0.558
 1799SOL    HW2 6297   3.412   1.571   0.718
 1800SOL     OW 6298   6.108   3.637   5.022
 1800SOL    HW1 6299   6.058   3.556   5.050
 1800SOL    HW2 6300   6.060   3.719   5.054
 1801SOL     OW 6301   1.320   0.968   2.775
 1801SOL    HW1 6302   1.356   1.059   2.793
 1801SOL    HW2 6303   1.343   0.941   2.681
 1802SOL     OW 6304   6.921   4.544   3.622
 1802SOL    HW1 6305   6.970   4.531   3.535
 1802SOL    HW2 6306   6.983   4.524   3.698
 1803SOL     OW 6307   0.274   6.849   3.278
 1803SOL    HW1 6308   0.185   6.883   3.309
 1803SOL    HW2 6309   0.317   6.917   3.219
 1804SOL     OW 6310   1.985   3.135   5.937
 1804SOL    HW1 6311   1.949   3.081   5.861
 1804SOL    HW2 6312   2.059   3.084   5.981
 1805SOL     OW 6313   0.252   5.778   6.707
 1805SOL    HW1 6314   0.276   5.688   6.672
 1805SOL    HW2 6315   0.294   5.791   6.798
 1806SOL     OW 6316   6.856   1.788   1.699
 1806SOL    HW1 6317   6.774   1.847   1.698
 1806SOL    HW2 6318   6.849   1.723   1.775
 1807SOL     OW 6319   0.399   2.382   2.518
 1807SOL    HW1 6320   0.491   2.412   2.493
 1807SOL    HW2 6321   0.367   2.434   2.597
 1808SOL     OW 6322   4.710   2.564   6.101
 1808SOL    HW1 6323   4.789   2.606   6.144
 1808SOL    HW2 6324   4.718   2.464   6.106
 1809SOL     OW 6325   4.609   0.567   5.455
 1809SOL    HW1 6326   4.644   0.611   5.538
 1809SOL    HW2 6327   4.516   0.533   5.472
 1810SOL     OW 6328   0.158   0.416   4.034
 1810SOL    HW1 6329   0.132   0.335   3.982
 1810SOL    HW2 6330   0.176   0.391   4.129
 1811SOL     OW 6331   4.060   5.611   1.705
 1811SOL    HW1 6332   3.980   5.609   1.646
 1811SOL    HW2 6333   4.130   5.671   1.666
 1812SOL     OW 6334   4.704   6.312   6.107
 1812SOL    HW1 6335   4.749   6.224   6.095
 1812SOL    HW2 6336   4.773   6.384   6.114
 1813SOL     OW 6337   4.741   4.382   2.592
 1813SOL    HW1 6338   4.833   4.352   2.621
 1813SOL    HW2 6339   4.736   4.383   2.492
 1814SOL     OW 6340   6.762   6.134   0.438
 1814SOL    HW1 6341   6.810   6.177   0.514
 1814SOL    HW2 6342   6.705   6.060   0.472
 1815SOL     OW 6343   5.769   6.376   1.500
 1815SOL    HW1 6344   5.805   6.458   1.546
 1815SOL    HW2 6345   5.799   6.376   1.405
 1816SOL     OW 6346   3.962   4.938   5.369
 1816SOL    HW1 6347   3.869   4.962   5.342
 1816SOL    HW2 6348   3.971   4.948   5.468
 1817SOL     OW 6349   0.405   1.597   3.729
 1817SOL    HW1 6350   0.483   1.653   3.756
 1817SOL    HW2 6351   0.325   1.623   3.784
 1818SOL     OW 6352   2.373   1.055   0.365
 1818SOL    HW1 6353   2.437   0.988   0.402
 1818SOL    HW2 6354   2.358   1.037   0.267
 1819SOL     OW 6355   1.885   4.732   3.503
 1819SOL    HW1 6356   1.791   4.759   3.481
 1819SOL    HW2 6357   1.927   4.689   3.423
 1820SOL     OW 6358   3.367   6.841   5.431
 1820SOL    HW1 6359   3.332   6.756   5.471
 1820SOL    HW2 6360   3.354   6.916   5.496
 1821SOL     OW 6361   2.861   1.968   2.851
 1821SOL    HW1 6362   2.949   2.012   2.831
 1821SOL    HW2 6363   2.876   1.889   2.910
 1822SOL     OW 6364   6.888   3.016   2.419
 1822SOL    HW1 6365   6.831   2.999   2.338
 1822SOL    HW2 6366   6.832   3.055   2.492
 1823SOL     OW 6367   3.995   5.785   2.190
 1823SOL    HW1 6368   3.906   5.756   2.157
 1823SOL    HW2 6369   4.059   5.790   2.114
 1824SOL     OW 6370   4.384   3.045   1.661
 1824SOL    HW1 6371   4.352   3.138   1.643
 1824SOL    HW2 6372   4.473   3.048   1.707
 1825SOL     OW 6373   1.497   1.812   5.055
 1825SOL    HW1 6374   1.401   1.796   5.034
 1825SOL    HW2 6375   1.549   1.816   4.969
 1826SOL     OW 6376   3.730   2.158   1.605
 1826SOL    HW1 6377   3.746   2.215   1.686
 1826SOL    HW2 6378   3.644   2.185   1.562
 1827SOL     OW 6379   5.423   5.011   0.790
 1827SOL    HW1 6380   5.478   5.080   0.837
 1827SOL    HW2 6381   5.327   5.020   0.817
 1828SOL     OW 6382   1.325   3.225   4.805
 1828SOL    HW1 6383   1.337   3.321   4.780
 1828SOL    HW2 6384   1.380   3.204   4.887
 1829SOL     OW 6385   4.116   0.524   2.958
 1829SOL    HW1 6386   4.063   0.580   2.895
 1829SOL    HW2 6387   4.147   0.441   2.911
 1830SOL     OW 6388   5.315   0.074   5.344
 1830SOL    HW1 6389   5.285   0.162   5.305
 1830SOL    HW2 6390   5.245   0.041   5.407
 1831SOL     OW 6391   3.936   5.170   0.870
 1831SOL    HW1 6392   4.033   5.174   0.892
 1831SOL    HW2 6393   3.907   5.258   0.831
 1832SOL     OW 6394   2.257   2.983   0.358
 1832SOL    HW1 6395   2.268   3.002   0.455
 1832SOL    HW2 6396   2.315   3.046   0.305
 1833SOL     OW 6397   5.689   0.648   0.172
 1833SOL    HW1 6398   5.748   0.717   0.213
 1833SOL    HW2 6399   5.602   0.645   0.221
 1834SOL     OW 6400   0.865   2.821   5.727
 1834SOL    HW1 6401   0.959   2.787   5.729
 1834SOL    HW2 6402   0.864   2.920   5.738
 1835SOL     OW 6403   0.008   6.369   1.427
 1835SOL    HW1 6404   0.091   6.315   1.417
 1835SOL    HW2 6405   0.032   6.463   1.452
 1836SOL     OW 6406   4.966   2.593   2.147
 1836SOL    HW1 6407   4.994   2.504   2.183
 1836SOL    HW2 6408   4.867   2.603   2.156
 1837SOL     OW 6409   3.297   2.461   6.260
 1837SOL    HW1 6410   3.205   2.478   6.226
 1837SOL    HW2 6411   3.294   2.397   6.336
 1838SOL     OW 6412   5.479   0.868   0.884
 1838SOL    HW1 6413   5.559   0.810   0.895
 1838SOL    HW2 6414   5.453   0.906   0.973
 1839SOL     OW 6415   6.740   1.149   0.077
 1839SOL    HW1 6416   6.758   1.110   7.011
 1839SOL    HW2 6417   6.816   1.128   0.139
 1840SOL     OW 6418   4.677   6.529   3.437
 1840SOL    HW1 6419   4.696   6.497   3.530
 1840SOL    HW2 6420   4.578   6.536   3.424
 1841SOL     OW 6421   2.342   0.586   2.545
 1841SOL    HW1 6422   2.351   0.686   2.555
 1841SOL    HW2 6423   2.362   0.543   2.633
 1842SOL     OW 6424   1.299   5.395   0.602
 1842SOL    HW1 6425   1.355   5.477   0.613
 1842SOL    HW2 6426   1.273   5.360   0.692
 1843SOL     OW 6427   2.426   1.165   5.266
 1843SOL    HW1 6428   2.402   1.191   5.360
 1843SOL    HW2 6429   2.342   1.145   5.215
 1844SOL     OW 6430   5.793   2.398   6.144
 1844SOL    HW1 6431   5.879   2.447   6.147
 1844SOL    HW2 6432   5.811   2.300   6.134
 1845SOL     OW 6433   1.405   1.754   3.686
 1845SOL    HW1 6434   1.482   1.712   3.638
 1845SOL    HW2 6435   1.320   1.727   3.641
 1846SOL     OW 6436   3.968   1.747   1.894
 1846SOL    HW1 6437   3.974   1.748   1.994
 1846SOL    HW2 6438   3.931   1.834   1.862
 1847SOL     OW 6439   2.087   5.860   5.496
 1847SOL    HW1 6440   2.123   5.784   5.550
 1847SOL    HW2 6441   2.007   5.898   5.542
 1848SOL     OW 6442   3.274   6.168   3.243
 1848SOL    HW1 6443   3.305   6.195   3.152
 1848SOL    HW2 6444   3.181   6.202   3.259
 1849SOL     OW 6445   4.957   2.832   1.973
 1849SOL    HW1 6446   4.965   2.772   2.053
 1849SOL    HW2 6447   4.865   2.871   1.971
 1850SOL     OW 6448   4.833   1.510   1.124
 1850SOL    HW1 6449   4.776   1.567   1.065
 1850SOL    HW2 6450   4.774   1.456   1.185
 1851SOL     OW 6451   0.421   4.537   5.202
 1851SOL    HW1 6452   0.429   4.461   5.137
 1851SOL    HW2 6453   0.426   4.502   5.295
 1852SOL     OW 6454   0.080   0.081   3.085
 1852SOL    HW1 6455   0.071   7.005   3.081
 1852SOL    HW2 6456   0.003   0.124   3.038
 1853SOL     OW 6457   6.967   2.691   5.690
 1853SOL    HW1 6458   0.014   2.727   5.751
 1853SOL    HW2 6459   6.973   2.735   5.600
 1854SOL     OW 6460   0.890   7.004   3.465
 1854SOL    HW1 6461   0.957   7.005   3.391
 1854SOL    HW2 6462   0.857   0.074   3.480
 1855SOL     OW 6463   4.880   2.859   4.170
 1855SOL    HW1 6464   4.879   2.957   4.149
 1855SOL    HW2 6465   4.787   2.823   4.169
 1856SOL     OW 6466   3.322   2.722   1.046
 1856SOL    HW1 6467   3.298   2.662   1.122
 1856SOL    HW2 6468   3.419   2.745   1.051
 1857SOL     OW 6469   4.307   1.738   0.087
 1857SOL    HW1 6470   4.309   1.764   7.014
 1857SOL    HW2 6471   4.394   1.695   0.111
 1858SOL     OW 6472   4.552   2.380   3.913
 1858SOL    HW1 6473   4.577   2.395   3.817
 1858SOL    HW2 6474   4.454   2.367   3.921
 1859SOL     OW 6475   0.042   1.702   4.110
 1859SOL    HW1 6476   0.044   1.603   4.107
 1859SOL    HW2 6477   0.044   1.733   4.205
 1860SOL     OW 6478   1.551   1.509   5.541
 1860SOL    HW1 6479   1.634   1.538   5.493
 1860SOL    HW2 6480   1.532   1.573   5.616
 1861SOL     OW 6481   6.797   6.865   3.779
 1861SOL    HW1 6482   6.857   6.786   3.769
 1861SOL    HW2 6483   6.829   6.921   3.856
 1862SOL     OW 6484   3.069   5.780   5.683
 1862SOL    HW1 6485   3.076   5.831   5.769
 1862SOL    HW2 6486   3.039   5.686   5.702
 1863SOL     OW 6487   0.371   2.810   0.830
 1863SOL    HW1 6488   0.399   2.878   0.762
 1863SOL    HW2 6489   0.311   2.742   0.787
 1864SOL     OW 6490   4.120   5.559   2.362
 1864SOL    HW1 6491   4.220   5.568   2.360
 1864SOL    HW2 6492   4.079   5.632   2.307
 1865SOL     OW 6493   6.032   1.625   5.658
 1865SOL    HW1 6494   6.018   1.724   5.658
 1865SOL    HW2 6495   6.059   1.595   5.750
 1866SOL     OW 6496   1.105   5.093   3.496
 1866SOL    HW1 6497   1.055   5.056   3.574
 1866SOL    HW2 6498   1.112   5.193   3.504
 1867SOL     OW 6499   1.608   2.613   1.440
 1867SOL    HW1 6500   1.661   2.623   1.356
 1867SOL    HW2 6501   1.582   2.703   1.474
 1868SOL     OW 6502   5.846   3.585   6.537
 1868SOL    HW1 6503   5.860   3.514   6.606
 1868SOL    HW2 6504   5.767   3.562   6.481
 1869SOL     OW 6505   3.828   1.089   4.176
 1869SOL    HW1 6506   3.735   1.076   4.140
 1869SOL    HW2 6507   3.828   1.166   4.241
 1870SOL     OW 6508   6.915   5.868   4.700
 1870SOL    HW1 6509   6.908   5.799   4.772
 1870SOL    HW2 6510   6.972   5.833   4.626
 1871SOL     OW 6511   0.355   6.788   6.919
 1871SOL    HW1 6512   0.283   6.738   6.872
 1871SOL    HW2 6513   0.376   6.872   6.869
 1872SOL     OW 6514   2.759   2.529   1.714
 1872SOL    HW1 6515   2.830   2.497   1.776
 1872SOL    HW2 6516   2.787   2.616   1.673
 1873SOL     OW 6517   6.293   1.728   0.871
 1873SOL    HW1 6518   6.361   1.775   0.814
 1873SOL    HW2 6519   6.315   1.630   0.874
 1874SOL     OW 6520   0.570   5.274   0.442
 1874SOL    HW1 6521   0.496   5.211   0.421
 1874SOL    HW2 6522   0.602   5.318   0.358
 1875SOL     OW 6523   6.771   5.082   0.259
 1875SOL    HW1 6524   6.824   5.112   0.338
 1875SOL    HW2 6525   6.675   5.074   0.284
 1876SOL     OW 6526   0.352   5.669   0.540
 1876SOL    HW1 6527   0.258   5.699   0.524
 1876SOL    HW2 6528   0.415   5.736   0.503
 1877SOL     OW 6529   0.893   1.769   3.043
 1877SOL    HW1 6530   0.913   1.730   2.953
 1877SOL    HW2 6531   0.824   1.840   3.034
 1878SOL     OW 6532   6.171   3.642   3.696
 1878SOL    HW1 6533   6.111   3.674   3.769
 1878SOL    HW2 6534   6.229   3.568   3.730
 1879SOL     OW 6535   4.838   5.908   4.937
 1879SOL    HW1 6536   4.927   5.915   4.891
 1879SOL    HW2 6537   4.838   5.826   4.995
 1880SOL     OW 6538   0.120   1.951   3.976
 1880SOL    HW1 6539   0.208   1.935   4.020
 1880SOL    HW2 6540   0.050   1.893   4.018
 1881SOL     OW 6541   1.896   1.588   4.292
 1881SOL    HW1 6542   1.938   1.675   4.316
 1881SOL    HW2 6543   1.892   1.578   4.193
 1882SOL     OW 6544   1.604   5.797   0.380
 1882SOL    HW1 6545   1.626   5.709   0.421
 1882SOL    HW2 6546   1.523   5.835   0.424
 1883SOL     OW 6547   1.878   3.139   2.868
 1883SOL    HW1 6548   1.855   3.060   2.925
 1883SOL    HW2 6549   1.924   3.208   2.923
 1884SOL     OW 6550   3.536   1.187   6.803
 1884SOL    HW1 6551   3.589   1.119   6.852
 1884SOL    HW2 6552   3.449   1.202   6.850
 1885SOL     OW 6553   0.464   1.984   1.155
 1885SOL    HW1 6554   0.547   2.018   1.111
 1885SOL    HW2 6555   0.476   1.984   1.254
 1886SOL     OW 6556   2.803   2.459   5.488
 1886SOL    HW1 6557   2.823   2.527   5.559
 1886SOL    HW2 6558   2.861   2.379   5.501
 1887SOL     OW 6559   0.663   6.626   5.668
 1887SOL    HW1 6560   0.725   6.630   5.746
 1887SOL    HW2 6561   0.678   6.541   5.618
 1888SOL     OW 6562   2.426   2.099   5.894
 1888SOL    HW1 6563   2.370   2.026   5.854
 1888SOL    HW2 6564   2.523   2.075   5.887
 1889SOL     OW 6565   3.238   3.115   0.754
 1889SOL    HW1 6566   3.191   3.054   0.818
 1889SOL    HW2 6567   3.175   3.143   0.682
 1890SOL     OW 6568   6.522   5.664   6.540
 1890SOL    HW1 6569   6.447   5.605   6.569
 1890SOL    HW2 6570   6.493   5.717   6.461
 1891SOL     OW 6571   5.747   3.887   5.817
 1891SOL    HW1 6572   5.766   3.892   5.915
 1891SOL    HW2 6573   5.824   3.926   5.766
 1892SOL     OW 6574   3.843   6.410   1.827
 1892SOL    HW1 6575   3.790   6.333   1.793
 1892SOL    HW2 6576   3.822   6.425   1.924
 1893SOL     OW 6577   3.173   1.700   4.963
 1893SOL    HW1 6578   3.215   1.787   4.939
 1893SOL    HW2 6579   3.172   1.690   5.062
 1894SOL     OW 6580   4.126   3.742   0.881
 1894SOL    HW1 6581   4.060   3.706   0.948
 1894SOL    HW2 6582   4.135   3.677   0.805
 1895SOL     OW 6583   5.379   0.881   3.097
 1895SOL    HW1 6584   5.471   0.853   3.125
 1895SOL    HW2 6585   5.386   0.965   3.043
 1896SOL     OW 6586   6.280   1.464   6.156
 1896SOL    HW1 6587   6.182   1.447   6.146
 1896SOL    HW2 6588   6.294   1.557   6.193
 1897SOL     OW 6589   6.222   5.011   3.857
 1897SOL    HW1 6590   6.242   5.070   3.935
 1897SOL    HW2 6591   6.288   4.936   3.853
 1898SOL     OW 6592   6.013   6.178   6.953
 1898SOL    HW1 6593   6.055   6.252   6.900
 1898SOL    HW2 6594   6.059   6.169   0.017
 1899SOL     OW 6595   0.898   2.568   3.359
 1899SOL    HW1 6596   0.814   2.590   3.308
 1899SOL    HW2 6597   0.875   2.551   3.454
 1900SOL     OW 6598   2.385   6.470   0.842
 1900SOL    HW1 6599   2.423   6.541   0.901
 1900SOL    HW2 6600   2.392   6.498   0.747
 1901SOL     OW 6601   1.521   1.685   6.595
 1901SOL    HW1 6602   1.433   1.686   6.644
 1901SOL    HW2 6603   1.571   1.768   6.616
 1902SOL     OW 6604   1.763   2.827   5.453
 1902SOL    HW1 6605   1.840   2.773   5.487
 1902SOL    HW2 6606   1.678   2.776   5.469
 1903SOL     OW 6607   6.692   3.661   3.869
 1903SOL    HW1 6608   6.690   3.609   3.954
 1903SOL    HW2 6609   6.694   3.598   3.791
 1904SOL     OW 6610   0.634   6.925   4.487
 1904SOL    HW1 6611   0.620   6.863   4.410
 1904SOL    HW2 6612   0.680   7.008   4.455
 1905SOL     OW 6613   6.572   2.989   4.443
 1905SOL    HW1 6614   6.659   3.036   4.455
 1905SOL    HW2 6615   6.502   3.033   4.498
 1906SOL     OW 6616   2.472   6.989   0.412
 1906SOL    HW1 6617   2.400   6.924   0.389
 1906SOL    HW2 6618   2.431   0.054   0.434
 1907SOL     OW 6619   3.595   5.971   3.199
 1907SOL    HW1 6620   3.516   5.912   3.184
 1907SOL    HW2 6621   3.679   5.917   3.187
 1908SOL     OW 6622   4.921   0.950   6.630
 1908SOL    HW1 6623   4.912   0.980   6.725
 1908SOL    HW2 6624   4.854   0.877   6.612
 1909SOL     OW 6625   4.204   5.039   4.156
 1909SOL    HW1 6626   4.166   4.947   4.148
 1909SOL    HW2 6627   4.300   5.034   4.184
 1910SOL     OW 6628   4.918   2.303   5.334
 1910SOL    HW1 6629   4.973   2.228   5.297
 1910SOL    HW2 6630   4.822   2.277   5.336
 1911SOL     OW 6631   0.025   3.636   5.902
 1911SOL    HW1 6632   0.065   3.713   5.851
 1911SOL    HW2 6633   0.030   3.553   5.846
 1912SOL     OW 6634   3.744   6.186   3.460
 1912SOL    HW1 6635   3.812   6.155   3.393
 1912SOL    HW2 6636   3.776   6.163   3.552
 1913SOL     OW 6637   1.388   4.114   5.525
 1913SOL    HW1 6638   1.453   4.187   5.546
 1913SOL    HW2 6639   1.428   4.053   5.456
 1914SOL     OW 6640   3.973   1.572   5.471
 1914SOL    HW1 6641   4.068   1.583   5.499
 1914SOL    HW2 6642   3.914   1.575   5.553
 1915SOL     OW 6643   3.565   0.411   5.195
 1915SOL    HW1 6644   3.467   0.421   5.211
 1915SOL    HW2 6645   3.615   0.443   5.275
 1916SOL     OW 6646   4.558   6.573   1.532
 1916SOL    HW1 6647   4.464   6.581   1.499
 1916SOL    HW2 6648   4.605   6.660   1.522
 1917SOL     OW 6649   3.169   3.091   4.088
 1917SOL    HW1 6650   3.176   3.190   4.081
 1917SOL    HW2 6651   3.214   3.061   4.173
 1918SOL     OW 6652   6.128   6.656   3.767
 1918SOL    HW1 6653   6.043   6.609   3.742
 1918SOL    HW2 6654   6.161   6.707   3.688
 1919SOL     OW 6655   6.356   6.708   2.082
 1919SOL    HW1 6656   6.323   6.789   2.033
 1919SOL    HW2 6657   6.315   6.626   2.042
 1920SOL     OW 6658   7.012   5.518   4.238
 1920SOL    HW1 6659   0.022   5.475   4.322
 1920SOL    HW2 6660   0.033   5.475   4.159
 1921SOL     OW 6661   0.790   6.670   6.438
 1921SOL    HW1 6662   0.697   6.652   6.406
 1921SOL    HW2 6663   0.855   6.617   6.382
 1922SOL     OW 6664   3.489   4.434   1.023
 1922SOL    HW1 6665   3.491   4.493   0.942
 1922SOL    HW2 6666   3.417   4.365   1.012
 1923SOL     OW 6667   1.875   2.205   0.894
 1923SOL    HW1 6668   1.879   2.107   0.873
 1923SOL    HW2 6669   1.855   2.256   0.811
 1924SOL     OW 6670   1.054   4.130   1.850
 1924SOL    HW1 6671   1.135   4.101   1.799
 1924SOL    HW2 6672   1.022   4.218   1.815
 1925SOL     OW 6673   3.479   4.331   0.613
 1925SOL    HW1 6674   3.405   4.266   0.631
 1925SOL    HW2 6675   3.468   4.368   0.520
 1926SOL     OW 6676   0.836   6.954   3.761
 1926SOL    HW1 6677   0.862   6.980   3.668
 1926SOL    HW2 6678   0.883   7.013   3.827
 1927SOL     OW 6679   4.124   3.560   6.605
 1927SOL    HW1 6680   4.164   3.641   6.648
 1927SOL    HW2 6681   4.112   3.489   6.674
 1928SOL     OW 6682   6.432   4.172   5.212
 1928SOL    HW1 6683   6.496   4.241   5.180
 1928SOL    HW2 6684   6.422   4.179   5.312
 1929SOL     OW 6685   1.342   6.954   3.239
 1929SOL    HW1 6686   1.409   6.938   3.312
 1929SOL    HW2 6687   1.385   7.003   3.164
 1930SOL     OW 6688   5.625   4.209   0.039
 1930SOL    HW1 6689   5.721   4.200   0.065
 1930SOL    HW2 6690   5.614   4.185   6.966
 1931SOL     OW 6691   0.914   2.520   5.374
 1931SOL    HW1 6692   0.981   2.474   5.431
 1931SOL    HW2 6693   0.840   2.457   5.351
 1932SOL     OW 6694   5.983   3.145   1.733
 1932SOL    HW1 6695   5.905   3.083   1.726
 1932SOL    HW2 6696   5.967   3.225   1.676
 1933SOL     OW 6697   2.945   4.419   1.385
 1933SOL    HW1 6698   2.887   4.436   1.305
 1933SOL    HW2 6699   2.888   4.395   1.463
 1934SOL     OW 6700   0.610   5.783   4.657
 1934SOL    HW1 6701   0.555   5.776   4.574
 1934SOL    HW2 6702   0.555   5.818   4.732
 1935SOL     OW 6703   2.316   0.693   3.690
 1935SOL    HW1 6704   2.390   0.753   3.722
 1935SOL    HW2 6705   2.237   0.703   3.750
 1936SOL     OW 6706   6.306   5.574   5.761
 1936SOL    HW1 6707   6.231   5.523   5.804
 1936SOL    HW2 6708   6.273   5.663   5.732
 1937SOL     OW 6709   3.916   0.178   2.148
 1937SOL    HW1 6710   3.905   0.080   2.129
 1937SOL    HW2 6711   3.849   0.207   2.217
 1938SOL     OW 6712   4.879   0.397   3.737
 1938SOL    HW1 6713   4.847   0.417   3.830
 1938SOL    HW2 6714   4.804   0.406   3.673
 1939SOL     OW 6715   1.758   0.289   3.532
 1939SOL    HW1 6716   1.708   0.372   3.558
 1939SOL    HW2 6717   1.851   0.294   3.569
 1940SOL     OW 6718   7.010   5.499   6.714
 1940SOL    HW1 6719   0.004   5.403   6.696
 1940SOL    HW2 6720   7.020   5.552   6.630
 1941SOL     OW 6721   5.049   4.588   3.090
 1941SOL    HW1 6722   4.993   4.650   3.146
 1941SOL    HW2 6723   5.134   4.635   3.064
 1942SOL     OW 6724   6.046   5.469   3.175
 1942SOL    HW1 6725   6.015   5.546   3.230
 1942SOL    HW2 6726   6.105   5.502   3.101
 1943SOL     OW 6727   2.451   5.244   2.318
 1943SOL    HW1 6728   2.541   5.257   2.359
 1943SOL    HW2 6729   2.411   5.159   2.353
 1944SOL     OW 6730   6.775   1.191   1.694
 1944SOL    HW1 6731   6.842   1.176   1.620
 1944SOL    HW2 6732   6.699   1.127   1.683
 1945SOL     OW 6733   3.609   5.259   4.443
 1945SOL    HW1 6734   3.610   5.294   4.537
 1945SOL    HW2 6735   3.525   5.289   4.397
 1946SOL     OW 6736   1.172   0.633   0.258
 1946SOL    HW1 6737   1.210   0.632   0.166
 1946SOL    HW2 6738   1.088   0.578   0.260
 1947SOL     OW 6739   5.822   5.684   4.634
 1947SOL    HW1 6740   5.724   5.664   4.633
 1947SOL    HW2 6741   5.854   5.699   4.540
 1948SOL     OW 6742   6.122   4.762   4.922
 1948SOL    HW1 6743   6.082   4.755   4.831
 1948SOL    HW2 6744   6.197   4.697   4.931
 1949SOL     OW 6745   5.019   4.195   6.494
 1949SOL    HW1 6746   5.045   4.276   6.441
 1949SOL    HW2 6747   4.935   4.157   6.457
 1950SOL     OW 6748   3.216   3.989   6.957
 1950SOL    HW1 6749   3.144   3.986   0.003
 1950SOL    HW2 6750   3.305   3.980   7.002
 1951SOL     OW 6751   6.766   2.415   0.017
 1951SOL    HW1 6752   6.776   2.496   6.983
 1951SOL    HW2 6753   6.782   2.439   0.113
 1952SOL     OW 6754   3.933   1.803   5.771
 1952SOL    HW1 6755   4.012   1.755   5.734
 1952SOL    HW2 6756   3.963   1.870   5.839
 1953SOL     OW 6757   0.506   3.321   5.798
 1953SOL    HW1 6758   0.604   3.336   5.814
 1953SOL    HW2 6759   0.454   3.345   5.880
 1954SOL     OW 6760   3.404   2.096   4.060
 1954SOL    HW1 6761   3.381   2.110   4.157
 1954SOL    HW2 6762   3.336   2.038   4.017
 1955SOL     OW 6763   6.815   6.502   2.777
 1955SOL    HW1 6764   6.813   6.457   2.866
 1955SOL    HW2 6765   6.732   6.481   2.726
 1956SOL     OW 6766   5.816   5.609   2.399
 1956SOL    HW1 6767   5.751   5.614   2.475
 1956SOL    HW2 6768   5.797   5.527   2.345
 1957SOL     OW 6769   0.853   6.910   5.111
 1957SOL    HW1 6770   0.780   6.909   5.042
 1957SOL    HW2 6771   0.924   6.845   5.085
 1958SOL     OW 6772   5.551   3.473   5.566
 1958SOL    HW1 6773   5.515   3.381   5.549
 1958SOL    HW2 6774   5.637   3.485   5.517
 1959SOL     OW 6775   1.616   1.922   6.715
 1959SOL    HW1 6776   1.581   1.939   6.807
 1959SOL    HW2 6777   1.715   1.937   6.714
 1960SOL     OW 6778   5.629   6.026   0.860
 1960SOL    HW1 6779   5.593   5.992   0.947
 1960SOL    HW2 6780   5.723   6.059   0.874
 1961SOL     OW 6781   5.625   4.370   3.894
 1961SOL    HW1 6782   5.576   4.293   3.852
 1961SOL    HW2 6783   5.717   4.340   3.921
 1962SOL     OW 6784   6.847   6.442   3.097
 1962SOL    HW1 6785   6.789   6.434   3.178
 1962SOL    HW2 6786   6.894   6.355   3.081
 1963SOL     OW 6787   1.466   0.504   3.222
 1963SOL    HW1 6788   1.497   0.421   3.269
 1963SOL    HW2 6789   1.367   0.501   3.211
 1964SOL     OW 6790   5.449   3.323   2.508
 1964SOL    HW1 6791   5.527   3.291   2.454
 1964SOL    HW2 6792   5.453   3.284   2.600
 1965SOL     OW 6793   1.792   4.530   3.661
 1965SOL    HW1 6794   1.827   4.601   3.600
 1965SOL    HW2 6795   1.769   4.449   3.608
 1966SOL     OW 6796   6.485   5.579   5.984
 1966SOL    HW1 6797   6.534   5.665   5.969
 1966SOL    HW2 6798   6.439   5.552   5.899
 1967SOL     OW 6799   4.922   2.310   4.923
 1967SOL    HW1 6800   4.914   2.243   4.849
 1967SOL    HW2 6801   4.879   2.274   5.005
 1968SOL     OW 6802   3.046   5.794   6.187
 1968SOL    HW1 6803   3.134   5.768   6.227
 1968SOL    HW2 6804   3.032   5.893   6.197
 1969SOL     OW 6805   6.754   2.496   1.182
 1969SOL    HW1 6806   6.804   2.578   1.154
 1969SOL    HW2 6807   6.657   2.517   1.189
 1970SOL     OW 6808   1.788   0.367   3.849
 1970SOL    HW1 6809   1.846   0.324   3.780
 1970SOL    HW2 6810   1.723   0.300   3.885
 1971SOL     OW 6811   0.174   6.134   6.818
 1971SOL    HW1 6812   0.126   6.064   6.764
 1971SOL    HW2 6813   0.241   6.180   6.760
 1972SOL     OW 6814   0.723   4.982   4.016
 1972SOL    HW1 6815   0.823   4.992   4.023
 1972SOL    HW2 6816   0.697   4.890   4.045
 1973SOL     OW 6817   2.947   3.187   0.985
 1973SOL    HW1 6818   2.974   3.097   0.950
 1973SOL    HW2 6819   2.927   3.249   0.909
 1974SOL     OW 6820   5.337   0.780   4.215
 1974SOL    HW1 6821   5.298   0.827   4.294
 1974SOL    HW2 6822   5.421   0.733   4.241
 1975SOL     OW 6823   3.515   0.236   3.357
 1975SOL    HW1 6824   3.444   0.238   3.286
 1975SOL    HW2 6825   3.558   0.326   3.363
 1976SOL     OW 6826   0.732   5.834   0.572
 1976SOL    HW1 6827   0.803   5.904   0.576
 1976SOL    HW2 6828   0.652   5.871   0.524
 1977SOL     OW 6829   1.282   2.726   4.943
 1977SOL    HW1 6830   1.314   2.774   4.861
 1977SOL    HW2 6831   1.182   2.724   4.943
 1978SOL     OW 6832   6.691   1.723   4.987
 1978SOL    HW1 6833   6.698   1.774   4.901
 1978SOL    HW2 6834   6.781   1.721   5.032
 1979SOL     OW 6835   6.168   4.573   3.602
 1979SOL    HW1 6836   6.167   4.540   3.508
 1979SOL    HW2 6837   6.108   4.517   3.658
 1980SOL     OW 6838   4.191   0.409   1.647
 1980SOL    HW1 6839   4.278   0.457   1.661
 1980SOL    HW2 6840   4.203   0.339   1.577
 1981SOL     OW 6841   4.559   3.288   1.721
 1981SOL    HW1 6842   4.586   3.196   1.749
 1981SOL    HW2 6843   4.473   3.313   1.767
 1982SOL     OW 6844   5.744   6.232   4.931
 1982SOL    HW1 6845   5.753   6.147   4.983
 1982SOL    HW2 6846   5.821   6.293   4.953
 1983SOL     OW 6847   1.018   3.452   3.348
 1983SOL    HW1 6848   1.065   3.494   3.270
 1983SOL    HW2 6849   1.001   3.521   3.418
 1984SOL     OW 6850   4.261   0.442   5.789
 1984SOL    HW1 6851   4.196   0.384   5.741
 1984SOL    HW2 6852   4.253   0.426   5.887
 1985SOL     OW 6853   0.971   0.996   1.399
 1985SOL    HW1 6854   1.007   0.905   1.421
 1985SOL    HW2 6855   0.874   0.989   1.380
 1986SOL     OW 6856   1.622   1.383   5.956
 1986SOL    HW1 6857   1.661   1.373   6.048
 1986SOL    HW2 6858   1.657   1.467   5.914
 1987SOL     OW 6859   2.331   3.546   6.961
 1987SOL    HW1 6860   2.397   3.488   7.009
 1987SOL    HW2 6861   2.261   3.490   6.918
 1988SOL     OW 6862   4.240   4.131   0.421
 1988SOL    HW1 6863   4.320   4.121   0.481
 1988SOL    HW2 6864   4.269   4.170   0.334
 1989SOL     OW 6865   2.143   0.223   4.276
 1989SOL    HW1 6866   2.084   0.212   4.196
 1989SOL    HW2 6867   2.224   0.164   4.266
 1990SOL     OW 6868   3.141   0.896   1.645
 1990SOL    HW1 6869   3.100   0.805   1.648
 1990SOL    HW2 6870   3.205   0.901   1.569
 1991SOL     OW 6871   3.092   5.584   4.456
 1991SOL    HW1 6872   3.109   5.507   4.517
 1991SOL    HW2 6873   3.064   5.550   4.366
 1992SOL     OW 6874   2.398   6.579   5.070
 1992SOL    HW1 6875   2.400   6.481   5.051
 1992SOL    HW2 6876   2.335   6.624   5.007
 1993SOL     OW 6877   4.256   3.420   5.510
 1993SOL    HW1 6878   4.202   3.474   5.445
 1993SOL    HW2 6879   4.352   3.448   5.503
 1994SOL     OW 6880   6.488   2.285   2.074
 1994SOL    HW1 6881   6.511   2.189   2.054
 1994SOL    HW2 6882   6.533   2.344   2.008
 1995SOL     OW 6883   5.488   2.220   1.733
 1995SOL    HW1 6884   5.394   2.204   1.765
 1995SOL    HW2 6885   5.550   2.219   1.811
 1996SOL     OW 6886   3.617   4.736   0.387
 1996SOL    HW1 6887   3.581   4.804   0.452
 1996SOL    HW2 6888   3.571   4.748   0.299
 1997SOL     OW 6889   5.330   0.657   3.646
 1997SOL    HW1 6890   5.268   0.579   3.658
 1997SOL    HW2 6891   5.412   0.626   3.596
 1998SOL     OW 6892   2.792   4.645   5.367
 1998SOL    HW1 6893   2.693   4.648   5.361
 1998SOL    HW2 6894   2.828   4.585   5.296
 1999SOL     OW 6895   2.585   0.671   1.771
 1999SOL    HW1 6896   2.578   0.596   1.705
 1999SOL    HW2 6897   2.601   0.757   1.721
 2000SOL     OW 6898   3.850   1.714   4.570
 2000SOL    HW1 6899   3.940   1.707   4.612
 2000SOL    HW2 6900   3.827   1.628   4.525
 2001SOL     OW 6901   2.949   1.850   1.099
 2001SOL    HW1 6902   2.977   1.783   1.030
 2001SOL    HW2 6903   2.966   1.942   1.065
 2002SOL     OW 6904   1.972   5.294   5.383
 2002SOL    HW1 6905   1.977   5.371   5.319
 2002SOL    HW2 6906   1.887   5.300   5.436
 2003SOL     OW 6907   5.922   6.018   4.263
 2003SOL    HW1 6908   5.968   6.048   4.180
 2003SOL    HW2 6909   5.888   6.098   4.313
 2004SOL     OW 6910   2.606   0.650   5.504
 2004SOL    HW1 6911   2.519   0.669   5.460
 2004SOL    HW2 6912   2.632   0.727   5.562
 2005SOL     OW 6913   2.692   5.912   5.881
 2005SOL    HW1 6914   2.623   5.919   5.809
 2005SOL    HW2 6915   2.735   5.823   5.878
 2006SOL     OW 6916   4.235   5.132   3.894
 2006SOL    HW1 6917   4.315   5.190   3.912
 2006SOL    HW2 6918   4.196   5.101   3.981
 2007SOL     OW 6919   5.379   5.810   0.632
 2007SOL    HW1 6920   5.328   5.789   0.549
 2007SOL    HW2 6921   5.323   5.789   0.712
 2008SOL     OW 6922   0.132   5.906   4.272
 2008SOL    HW1 6923   0.222   5.867   4.256
 2008SOL    HW2 6924   0.139   6.005   4.284
 2009SOL     OW 6925   0.222   0.016   2.380
 2009SOL    HW1 6926   0.252   0.097   2.329
 2009SOL    HW2 6927   0.298   6.975   2.386
 2010SOL     OW 6928   1.317   0.793   0.530
 2010SOL    HW1 6929   1.280   0.885   0.544
 2010SOL    HW2 6930   1.362   0.762   0.613
 2011SOL     OW 6931   7.023   2.037   5.110
 2011SOL    HW1 6932   6.970   2.095   5.048
 2011SOL    HW2 6933   0.020   2.087   5.194
 2012SOL     OW 6934   1.145   4.201   0.663
 2012SOL    HW1 6935   1.216   4.155   0.610
 2012SOL    HW2 6936   1.087   4.254   0.602
 2013SOL     OW 6937   5.227   1.499   1.996
 2013SOL    HW1 6938   5.302   1.566   1.991
 2013SOL    HW2 6939   5.143   1.546   2.023
 2014SOL     OW 6940   2.133   5.439   2.628
 2014SOL    HW1 6941   2.140   5.412   2.532
 2014SOL    HW2 6942   2.075   5.521   2.636
 2015SOL     OW 6943   3.224   0.614   6.928
 2015SOL    HW1 6944   3.170   0.534   6.905
 2015SOL    HW2 6945   3.172   0.697   6.909
 2016SOL     OW 6946   0.413   4.719   4.204
 2016SOL    HW1 6947   0.347   4.766   4.147
 2016SOL    HW2 6948   0.505   4.740   4.174
 2017SOL     OW 6949   2.413   5.927   2.715
 2017SOL    HW1 6950   2.454   5.842   2.749
 2017SOL    HW2 6951   2.485   5.992   2.691
 2018SOL     OW 6952   0.314   5.140   6.105
 2018SOL    HW1 6953   0.375   5.062   6.089
 2018SOL    HW2 6954   0.228   5.125   6.056
 2019SOL     OW 6955   5.940   2.018   2.122
 2019SOL    HW1 6956   6.008   2.086   2.150
 2019SOL    HW2 6957   5.982   1.953   2.059
 2020SOL     OW 6958   3.059   5.904   2.973
 2020SOL    HW1 6959   3.147   5.950   2.960
 2020SOL    HW2 6960   3.009   5.904   2.887
 2021SOL     OW 6961   1.430   0.720   2.701
 2021SOL    HW1 6962   1.377   0.780   2.761
 2021SOL    HW2 6963   1.379   0.636   2.683
 2022SOL     OW 6964   1.819   3.870   1.566
 2022SOL    HW1 6965   1.725   3.854   1.534
 2022SOL    HW2 6966   1.875   3.900   1.490
 2023SOL     OW 6967   6.389   0.838   5.852
 2023SOL    HW1 6968   6.443   0.906   5.901
 2023SOL    HW2 6969   6.401   0.850   5.753
 2024SOL     OW 6970   5.501   1.219   3.817
 2024SOL    HW1 6971   5.546   1.140   3.860
 2024SOL    HW2 6972   5.443   1.188   3.743
 2025SOL     OW 6973   0.247   1.141   1.629
 2025SOL    HW1 6974   0.190   1.166   1.708
 2025SOL    HW2 6975   0.297   1.221   1.598
 2026SOL     OW 6976   1.690   1.784   5.517
 2026SOL    HW1 6977   1.766   1.777   5.581
 2026SOL    HW2 6978   1.708   1.725   5.438
 2027SOL     OW 6979   0.761   1.575   3.234
 2027SOL    HW1 6980   0.844   1.617   3.195
 2027SOL    HW2 6981   0.704   1.646   3.276
 2028SOL     OW 6982   3.847   3.017   6.711
 2028SOL    HW1 6983   3.823   3.019   6.808
 2028SOL    HW2 6984   3.864   2.923   6.683
 2029SOL     OW 6985   0.595   0.873   0.128
 2029SOL    HW1 6986   0.654   0.891   0.049
 2029SOL    HW2 6987   0.595   0.952   0.188
 2030SOL     OW 6988   1.692   1.392   3.722
 2030SOL    HW1 6989   1.671   1.461   3.652
 2030SOL    HW2 6990   1.785   1.405   3.756
 2031SOL     OW 6991   5.856   0.009   1.606
 2031SOL    HW1 6992   5.889   0.068   1.532
 2031SOL    HW2 6993   5.932   6.976   1.639
 2032SOL     OW 6994   5.033   6.945   1.338
 2032SOL    HW1 6995   4.949   6.987   1.373
 2032SOL    HW2 6996   5.108   6.960   1.403
 2033SOL     OW 6997   5.580   5.111   6.641
 2033SOL    HW1 6998   5.505   5.059   6.681
 2033SOL    HW2 6999   5.545   5.166   6.564
 2034SOL     OW 7000   2.346   6.807   3.204
 2034SOL    HW1 7001   2.373   6.887   3.150
 2034SOL    HW2 7002   2.246   6.798   3.201
 2035SOL     OW 7003   1.275   2.423   2.452
 2035SOL    HW1 7004   1.250   2.336   2.494
 2035SOL    HW2 7005   1.322   2.406   2.365
 2036SOL     OW 7006   1.343   4.589   0.266
 2036SOL    HW1 7007   1.352   4.682   0.232
 2036SOL    HW2 7008   1.425   4.564   0.318
 2037SOL     OW 7009   0.145   1.828   5.798
 2037SOL    HW1 7010   0.152   1.816   5.699
 2037SOL    HW2 7011   0.114   1.921   5.818
 2038SOL     OW 7012   0.335   0.988   4.452
 2038SOL    HW1 7013   0.311   0.985   4.355
 2038SOL    HW2 7014   0.411   1.052   4.466
 2039SOL     OW 7015   0.036   5.333   2.411
 2039SOL    HW1 7016   7.001   5.352   2.489
 2039SOL    HW2 7017   0.109   5.401   2.406
 2040SOL     OW 7018   4.125   3.443   4.376
 2040SOL    HW1 7019   4.065   3.483   4.445
 2040SOL    HW2 7020   4.111   3.344   4.372
 2041SOL     OW 7021   6.014   3.972   5.394
 2041SOL    HW1 7022   6.096   3.991   5.447
 2041SOL    HW2 7023   5.962   4.057   5.382
 2042SOL     OW 7024   4.233   5.635   0.059
 2042SOL    HW1 7025   4.286   5.550   0.059
 2042SOL    HW2 7026   4.273   5.700   0.124
 2043SOL     OW 7027   5.771   4.206   1.996
 2043SOL    HW1 7028   5.719   4.132   2.038
 2043SOL    HW2 7029   5.762   4.288   2.052
 2044SOL     OW 7030   6.443   0.365   1.924
 2044SOL    HW1 7031   6.460   0.274   1.886
 2044SOL    HW2 7032   6.508   0.430   1.885
 2045SOL     OW 7033   2.103   5.169   5.924
 2045SOL    HW1 7034   2.012   5.210   5.920
 2045SOL    HW2 7035   2.155   5.212   5.998
 2046SOL     OW 7036   6.656   0.118   4.988
 2046SOL    HW1 7037   6.696   0.045   5.043
 2046SOL    HW2 7038   6.557   0.122   5.005
 2047SOL     OW 7039   5.141   2.605   0.132
 2047SOL    HW1 7040   5.090   2.529   0.092
 2047SOL    HW2 7041   5.117   2.690   0.084
 2048SOL     OW 7042   4.501   0.358   5.981
 2048SOL    HW1 7043   4.442   0.401   6.050
 2048SOL    HW2 7044   4.448   0.342   5.898
 2049SOL     OW 7045   4.431   0.799   0.229
 2049SOL    HW1 7046   4.505   0.772   0.290
 2049SOL    HW2 7047   4.412   0.724   0.165
 2050SOL     OW 7048   5.798   2.820   3.769
 2050SOL    HW1 7049   5.893   2.788   3.762
 2050SOL    HW2 7050   5.797   2.917   3.792
 2051SOL     OW 7051   1.451   5.634   0.689
 2051SOL    HW1 7052   1.537   5.618   0.641
 2051SOL    HW2 7053   1.462   5.611   0.786
 2052SOL     OW 7054   1.024   2.636   0.006
 2052SOL    HW1 7055   0.943   2.597   6.986
 2052SOL    HW2 7056   1.003   2.727   0.040
 2053SOL     OW 7057   6.488   0.490   0.537
 2053SOL    HW1 7058   6.539   0.472   0.454
 2053SOL    HW2 7059   6.391   0.504   0.515
 2054SOL     OW 7060   5.964   2.437   0.514
 2054SOL    HW1 7061   6.036   2.471   0.575
 2054SOL    HW2 7062   5.935   2.346   0.544
 2055SOL     OW 7063   5.515   2.768   4.365
 2055SOL    HW1 7064   5.538   2.734   4.273
 2055SOL    HW2 7065   5.537   2.699   4.433
 2056SOL     OW 7066   2.452   0.535   3.311
 2056SOL    HW1 7067   2.359   0.557   3.281
 2056SOL    HW2 7068   2.452   0.517   3.409
 2057SOL     OW 7069   0.188   2.887   3.907
 2057SOL    HW1 7070   0.256   2.932   3.965
 2057SOL    HW2 7071   0.130   2.828   3.963
 2058SOL     OW 7072   0.042   1.846   2.368
 2058SOL    HW1 7073   0.009   1.894   2.287
 2058SOL    HW2 7074   6.991   1.832   2.433
 2059SOL     OW 7075   2.139   1.580   6.905
 2059SOL    HW1 7076   2.070   1.519   6.866
 2059SOL    HW2 7077   2.106   1.617   6.992
 2060SOL     OW 7078   0.046   4.726   2.623
 2060SOL    HW1 7079   0.119   4.791   2.643
 2060SOL    HW2 7080   0.060   4.643   2.678
 2061SOL     OW 7081   6.364   1.636   2.290
 2061SOL    HW1 7082   6.312   1.717   2.317
 2061SOL    HW2 7083   6.305   1.556   2.291
 2062SOL     OW 7084   5.001   0.463   2.617
 2062SOL    HW1 7085   4.957   0.532   2.560
 2062SOL    HW2 7086   5.059   0.405   2.560
 2063SOL     OW 7087   1.673   2.863   6.595
 2063SOL    HW1 7088   1.741   2.798   6.627
 2063SOL    HW2 7089   1.625   2.825   6.516
 2064SOL     OW 7090   1.095   2.236   0.014
 2064SOL    HW1 7091   1.170   2.300   7.021
 2064SOL    HW2 7092   1.018   2.286   0.054
 2065SOL     OW 7093   6.324   3.667   1.594
 2065SOL    HW1 7094   6.243   3.651   1.538
 2065SOL    HW2 7095   6.396   3.603   1.569
 2066SOL     OW 7096   0.208   0.406   4.644
 2066SOL    HW1 7097   0.228   0.323   4.696
 2066SOL    HW2 7098   0.291   0.438   4.599
 2067SOL     OW 7099   6.566   6.324   1.389
 2067SOL    HW1 7100   6.537   6.247   1.332
 2067SOL    HW2 7101   6.660   6.350   1.366
 2068SOL     OW 7102   1.966   1.864   5.001
 2068SOL    HW1 7103   1.956   1.794   5.072
 2068SOL    HW2 7104   1.877   1.904   4.980
 2069SOL     OW 7105   1.035   2.166   2.066
 2069SOL    HW1 7106   1.063   2.230   2.138
 2069SOL    HW2 7107   0.984   2.091   2.107
 2070SOL     OW 7108   1.288   1.678   2.793
 2070SOL    HW1 7109   1.302   1.724   2.881
 2070SOL    HW2 7110   1.376   1.655   2.753
 2071SOL     OW 7111   0.925   6.958   4.451
 2071SOL    HW1 7112   0.934   6.871   4.402
 2071SOL    HW2 7113   0.858   7.016   4.405
 2072SOL     OW 7114   5.125   5.542   1.844
 2072SOL    HW1 7115   5.159   5.589   1.762
 2072SOL    HW2 7116   5.114   5.444   1.824
 2073SOL     OW 7117   3.224   6.785   5.874
 2073SOL    HW1 7118   3.140   6.833   5.901
 2073SOL    HW2 7119   3.303   6.838   5.905
 2074SOL     OW 7120   5.718   1.261   1.275
 2074SOL    HW1 7121   5.704   1.323   1.353
 2074SOL    HW2 7122   5.795   1.294   1.220
 2075SOL     OW 7123   4.150   3.468   0.056
 2075SOL    HW1 7124   4.134   3.558   0.097
 2075SOL    HW2 7125   4.233   3.427   0.096
 2076SOL     OW 7126   5.412   6.693   1.190
 2076SOL    HW1 7127   5.484   6.746   1.145
 2076SOL    HW2 7128   5.389   6.614   1.134
 2077SOL     OW 7129   5.130   1.319   2.539
 2077SOL    HW1 7130   5.130   1.404   2.590
 2077SOL    HW2 7131   5.126   1.241   2.603
 2078SOL     OW 7132   3.212   4.722   6.628
 2078SOL    HW1 7133   3.119   4.709   6.593
 2078SOL    HW2 7134   3.207   4.753   6.723
 2079SOL     OW 7135   5.603   1.456   3.886
 2079SOL    HW1 7136   5.566   1.473   3.977
 2079SOL    HW2 7137   5.569   1.368   3.852
 2080SOL     OW 7138   2.893   2.241   4.716
 2080SOL    HW1 7139   2.847   2.174   4.658
 2080SOL    HW2 7140   2.829   2.315   4.739
 2081SOL     OW 7141   0.794   6.293   5.120
 2081SOL    HW1 7142   0.832   6.352   5.191
 2081SOL    HW2 7143   0.744   6.348   5.053
 2082SOL     OW 7144   6.092   0.961   1.097
 2082SOL    HW1 7145   6.031   1.002   1.030
 2082SOL    HW2 7146   6.077   0.862   1.100
 2083SOL     OW 7147   3.350   4.638   6.098
 2083SOL    HW1 7148   3.329   4.736   6.096
 2083SOL    HW2 7149   3.286   4.591   6.159
 2084SOL     OW 7150   6.902   2.780   2.670
 2084SOL    HW1 7151   6.904   2.735   2.581
 2084SOL    HW2 7152   6.815   2.829   2.680
 2085SOL     OW 7153   4.708   0.644   5.685
 2085SOL    HW1 7154   4.791   0.644   5.739
 2085SOL    HW2 7155   4.646   0.716   5.718
 2086SOL     OW 7156   2.975   5.365   0.179
 2086SOL    HW1 7157   2.965   5.269   0.206
 2086SOL    HW2 7158   2.889   5.414   0.197
 2087SOL     OW 7159   5.586   0.354   2.846
 2087SOL    HW1 7160   5.528   0.283   2.806
 2087SOL    HW2 7161   5.676   0.315   2.866
 2088SOL     OW 7162   3.411   6.681   0.838
 2088SOL    HW1 7163   3.446   6.651   0.927
 2088SOL    HW2 7164   3.481   6.734   0.791
 2089SOL     OW 7165   4.803   1.081   6.869
 2089SOL    HW1 7166   4.883   1.053   6.921
 2089SOL    HW2 7167   4.810   1.178   6.846
 2090SOL     OW 7168   3.480   3.835   5.004
 2090SOL    HW1 7169   3.429   3.899   4.946
 2090SOL    HW2 7170   3.502   3.753   4.951
 2091SOL     OW 7171   1.818   5.281   1.316
 2091SOL    HW1 7172   1.873   5.239   1.388
 2091SOL    HW2 7173   1.779   5.366   1.349
 2092SOL     OW 7174   6.285   6.150   1.260
 2092SOL    HW1 7175   6.253   6.077   1.320
 2092SOL    HW2 7176   6.376   6.128   1.226
 2093SOL     OW 7177   0.880   2.932   1.816
 2093SOL    HW1 7178   0.787   2.930   1.852
 2093SOL    HW2 7179   0.937   2.989   1.874
 2094SOL     OW 7180   5.888   0.399   1.917
 2094SOL    HW1 7181   5.845   0.335   1.979
 2094SOL    HW2 7182   5.847   0.392   1.827
 2095SOL     OW 7183   5.573   5.635   4.552
 2095SOL    HW1 7184   5.563   5.630   4.453
 2095SOL    HW2 7185   5.487   5.609   4.595
 2096SOL     OW 7186   5.142   4.007   2.678
 2096SOL    HW1 7187   5.193   4.013   2.764
 2096SOL    HW2 7188   5.054   3.960   2.694
 2097SOL     OW 7189   0.188   2.683   0.172
 2097SOL    HW1 7190   0.258   2.640   0.229
 2097SOL    HW2 7191   0.138   2.613   0.121
 2098SOL     OW 7192   4.419   6.995   4.412
 2098SOL    HW1 7193   4.490   0.004   4.350
 2098SOL    HW2 7194   4.451   7.004   4.507
 2099SOL     OW 7195   2.857   0.603   3.945
 2099SOL    HW1 7196   2.864   0.505   3.963
 2099SOL    HW2 7197   2.849   0.653   4.031
 2100SOL     OW 7198   4.833   4.283   6.086
 2100SOL    HW1 7199   4.904   4.244   6.145
 2100SOL    HW2 7200   4.796   4.211   6.027
 2101SOL     OW 7201   0.185   0.117   3.345
 2101SOL    HW1 7202   0.131   0.107   3.261
 2101SOL    HW2 7203   0.154   0.051   3.413
 2102SOL     OW 7204   6.814   5.299   3.276
 2102SOL    HW1 7205   6.906   5.292   3.316
 2102SOL    HW2 7206   6.746   5.293   3.350
 2103SOL     OW 7207   3.311   3.506   6.808
 2103SOL    HW1 7208   3.381   3.559   6.760
 2103SOL    HW2 7209   3.220   3.536   6.780
 2104SOL     OW 7210   1.697   3.318   5.553
 2104SOL    HW1 7211   1.606   3.287   5.529
 2104SOL    HW2 7212   1.757   3.239   5.569
 2105SOL     OW 7213   6.086   5.735   2.119
 2105SOL    HW1 7214   6.061   5.791   2.198
 2105SOL    HW2 7215   6.117   5.645   2.149
 2106SOL     OW 7216   4.654   5.623   6.739
 2106SOL    HW1 7217   4.607   5.598   6.654
 2106SOL    HW2 7218   4.589   5.670   6.800
 2107SOL     OW 7219   4.135   4.061   5.575
 2107SOL    HW1 7220   4.047   4.012   5.582
 2107SOL    HW2 7221   4.140   4.108   5.487
 2108SOL     OW 7222   6.112   5.463   5.913
 2108SOL    HW1 7223   6.155   5.392   5.969
 2108SOL    HW2 7224   6.014   5.465   5.931
 2109SOL     OW 7225   5.909   6.045   2.607
 2109SOL    HW1 7226   5.848   5.998   2.671
 2109SOL    HW2 7227   5.858   6.075   2.527
 2110SOL     OW 7228   2.743   4.377   6.310
 2110SOL    HW1 7229   2.741   4.468   6.352
 2110SOL    HW2 7230   2.787   4.383   6.220
 2111SOL     OW 7231   1.186   2.862   6.830
 2111SOL    HW1 7232   1.229   2.891   6.744
 2111SOL    HW2 7233   1.167   2.764   6.826
 2112SOL     OW 7234   4.570   2.989   1.468
 2112SOL    HW1 7235   4.477   3.016   1.494
 2112SOL    HW2 7236   4.607   2.926   1.536
 2113SOL     OW 7237   1.078   0.991   2.964
 2113SOL    HW1 7238   1.057   0.895   2.948
 2113SOL    HW2 7239   1.147   1.021   2.898
 2114SOL     OW 7240   1.687   4.297   0.182
 2114SOL    HW1 7241   1.750   4.275   0.107
 2114SOL    HW2 7242   1.593   4.289   0.149
 2115SOL     OW 7243   1.779   4.535   2.299
 2115SOL    HW1 7244   1.806   4.439   2.301
 2115SOL    HW2 7245   1.744   4.562   2.389
 2116SOL     OW 7246   0.377   4.076   3.916
 2116SOL    HW1 7247   0.404   4.021   3.995
 2116SOL    HW2 7248   0.427   4.046   3.835
 2117SOL     OW 7249   1.182   5.093   1.352
 2117SOL    HW1 7250   1.111   5.099   1.282
 2117SOL    HW2 7251   1.193   4.998   1.381
 2118SOL     OW 7252   0.335   3.631   2.269
 2118SOL    HW1 7253   0.331   3.548   2.324
 2118SOL    HW2 7254   0.377   3.612   2.181
 2119SOL     OW 7255   2.487   6.028   1.072
 2119SOL    HW1 7256   2.408   6.005   1.130
 2119SOL    HW2 7257   2.484   5.973   0.988
 2120SOL     OW 7258   6.813   4.751   2.094
 2120SOL    HW1 7259   6.741   4.815   2.068
 2120SOL    HW2 7260   6.773   4.663   2.116
 2121SOL     OW 7261   0.173   5.175   5.363
 2121SOL    HW1 7262   0.130   5.085   5.364
 2121SOL    HW2 7263   0.269   5.166   5.340
 2122SOL     OW 7264   4.586   4.383   4.883
 2122SOL    HW1 7265   4.614   4.342   4.796
 2122SOL    HW2 7266   4.502   4.434   4.871
 2123SOL     OW 7267   6.478   4.760   3.099
 2123SOL    HW1 7268   6.398   4.719   3.055
 2123SOL    HW2 7269   6.461   4.857   3.115
 2124SOL     OW 7270   2.357   2.075   1.377
 2124SOL    HW1 7271   2.373   1.980   1.350
 2124SOL    HW2 7272   2.278   2.079   1.438
 2125SOL     OW 7273   2.944   0.704   0.522
 2125SOL    HW1 7274   2.849   0.729   0.543
 2125SOL    HW2 7275   2.945   0.633   0.452
 2126SOL     OW 7276   2.949   0.715   6.348
 2126SOL    HW1 7277   2.957   0.740   6.445
 2126SOL    HW2 7278   2.932   0.797   6.294
 2127SOL     OW 7279   5.637   3.247   4.494
 2127SOL    HW1 7280   5.578   3.262   4.574
 2127SOL    HW2 7281   5.605   3.305   4.419
 2128SOL     OW 7282   0.617   4.204   4.564
 2128SOL    HW1 7283   0.694   4.149   4.532
 2128SOL    HW2 7284   0.629   4.225   4.661
 2129SOL     OW 7285   4.478   2.012   5.833
 2129SOL    HW1 7286   4.491   1.965   5.920
 2129SOL    HW2 7287   4.539   1.972   5.764
 2130SOL     OW 7288   5.142   6.638   2.360
 2130SOL    HW1 7289   5.060   6.606   2.408
 2130SOL    HW2 7290   5.177   6.565   2.302
 2131SOL     OW 7291   6.771   1.161   0.919
 2131SOL    HW1 7292   6.813   1.215   0.846
 2131SOL    HW2 7293   6.770   1.064   0.892
 2132SOL     OW 7294   2.217   2.931   0.618
 2132SOL    HW1 7295   2.239   2.983   0.701
 2132SOL    HW2 7296   2.239   2.835   0.632
 2133SOL     OW 7297   2.740   2.629   5.749
 2133SOL    HW1 7298   2.765   2.719   5.714
 2133SOL    HW2 7299   2.814   2.592   5.805
 2134SOL     OW 7300   0.403   0.398   1.102
 2134SOL    HW1 7301   0.484   0.407   1.045
 2134SOL    HW2 7302   0.330   0.457   1.068
 2135SOL     OW 7303   0.498   3.567   4.558
 2135SOL    HW1 7304   0.447   3.629   4.618
 2135SOL    HW2 7305   0.571   3.618   4.512
 2136SOL     OW 7306   2.005   5.969   1.768
 2136SOL    HW1 7307   2.050   6.056   1.753
 2136SOL    HW2 7308   1.951   5.973   1.852
 2137SOL     OW 7309   2.762   5.385   4.538
 2137SOL    HW1 7310   2.837   5.363   4.600
 2137SOL    HW2 7311   2.784   5.351   4.446
 2138SOL     OW 7312   5.445   1.303   2.585
 2138SOL    HW1 7313   5.524   1.242   2.579
 2138SOL    HW2 7314   5.364   1.257   2.551
 2139SOL     OW 7315   3.125   0.672   5.319
 2139SOL    HW1 7316   3.200   0.606   5.326
 2139SOL    HW2 7317   3.162   0.765   5.324
 2140SOL     OW 7318   2.646   1.296   5.205
 2140SOL    HW1 7319   2.711   1.227   5.173
 2140SOL    HW2 7320   2.567   1.251   5.246
 2141SOL     OW 7321   6.270   4.496   1.975
 2141SOL    HW1 7322   6.242   4.576   2.028
 2141SOL    HW2 7323   6.279   4.417   2.036
 2142SOL     OW 7324   1.866   2.122   3.636
 2142SOL    HW1 7325   1.852   2.042   3.695
 2142SOL    HW2 7326   1.844   2.097   3.541
 2143SOL     OW 7327   2.318   4.826   0.668
 2143SOL    HW1 7328   2.401   4.849   0.616
 2143SOL    HW2 7329   2.258   4.769   0.612
 2144SOL     OW 7330   6.529   5.715   4.253
 2144SOL    HW1 7331   6.507   5.715   4.351
 2144SOL    HW2 7332   6.446   5.736   4.201
 2145SOL     OW 7333   4.082   6.407   4.187
 2145SOL    HW1 7334   3.991   6.404   4.145
 2145SOL    HW2 7335   4.073   6.415   4.286
 2146SOL     OW 7336   2.197   3.073   1.099
 2146SOL    HW1 7337   2.272   3.008   1.087
 2146SOL    HW2 7338   2.111   3.029   1.073
 2147SOL     OW 7339   6.116   0.947   5.503
 2147SOL    HW1 7340   6.103   0.945   5.404
 2147SOL    HW2 7341   6.151   0.859   5.534
 2148SOL     OW 7342   6.940   3.561   6.533
 2148SOL    HW1 7343   6.927   3.481   6.475
 2148SOL    HW2 7344   6.900   3.545   6.623
 2149SOL     OW 7345   0.597   0.548   6.922
 2149SOL    HW1 7346   0.683   0.529   6.875
 2149SOL    HW2 7347   0.521   0.527   6.861
 2150SOL     OW 7348   2.129   3.350   1.497
 2150SOL    HW1 7349   2.142   3.448   1.515
 2150SOL    HW2 7350   2.172   3.297   1.570
 2151SOL     OW 7351   1.323   5.545   6.952
 2151SOL    HW1 7352   1.272   5.620   6.911
 2151SOL    HW2 7353   1.351   5.570   0.021
 2152SOL     OW 7354   4.281   5.990   3.196
 2152SOL    HW1 7355   4.254   5.919   3.261
 2152SOL    HW2 7356   4.256   6.080   3.232
 2153SOL     OW 7357   5.163   1.206   3.361
 2153SOL    HW1 7358   5.168   1.134   3.292
 2153SOL    HW2 7359   5.112   1.173   3.440
 2154SOL     OW 7360   3.169   6.742   3.149
 2154SOL    HW1 7361   3.174   6.700   3.239
 2154SOL    HW2 7362   3.079   6.724   3.109
 2155SOL     OW 7363   4.671   6.735   0.906
 2155SOL    HW1 7364   4.584   6.767   0.869
 2155SOL    HW2 7365   4.684   6.772   0.998
 2156SOL     OW 7366   5.638   1.591   4.523
 2156SOL    HW1 7367   5.634   1.491   4.530
 2156SOL    HW2 7368   5.703   1.616   4.450
 2157SOL     OW 7369   3.748   5.620   3.792
 2157SOL    HW1 7370   3.796   5.560   3.727
 2157SOL    HW2 7371   3.702   5.564   3.861
 2158SOL     OW 7372   3.157   1.148   0.102
 2158SOL    HW1 7373   3.078   1.127   0.044
 2158SOL    HW2 7374   3.192   1.064   0.143
 2159SOL     OW 7375   1.102   0.326   6.130
 2159SOL    HW1 7376   1.150   0.399   6.178
 2159SOL    HW2 7377   1.168   0.264   6.088
 2160SOL     OW 7378   5.092   6.006   0.491
 2160SOL    HW1 7379   5.116   6.092   0.447
 2160SOL    HW2 7380   5.174   5.948   0.499
 2161SOL     OW 7381   1.353   3.419   2.434
 2161SOL    HW1 7382   1.376   3.323   2.421
 2161SOL    HW2 7383   1.254   3.431   2.424
 2162SOL     OW 7384   2.049   0.240   3.112
 2162SOL    HW1 7385   2.059   0.209   3.207
 2162SOL    HW2 7386   2.026   0.162   3.054
 2163SOL     OW 7387   1.206   3.132   1.618
 2163SOL    HW1 7388   1.119   3.163   1.655
 2163SOL    HW2 7389   1.266   3.210   1.601
 2164SOL     OW 7390   1.859   2.903   2.622
 2164SOL    HW1 7391   1.778   2.866   2.577
 2164SOL    HW2 7392   1.843   2.999   2.646
 2165SOL     OW 7393   0.147   1.648   3.854
 2165SOL    HW1 7394   0.120   1.689   3.941
 2165SOL    HW2 7395   0.065   1.632   3.799
 2166SOL     OW 7396   0.019   4.212   3.438
 2166SOL    HW1 7397   0.090   4.221   3.368
 2166SOL    HW2 7398   0.061   4.211   3.528
 2167SOL     OW 7399   1.898   2.805   4.475
 2167SOL    HW1 7400   1.973   2.829   4.538
 2167SOL    HW2 7401   1.841   2.735   4.517
 2168SOL     OW 7402   1.436   1.661   3.339
 2168SOL    HW1 7403   1.357   1.715   3.368
 2168SOL    HW2 7404   1.421   1.627   3.246
 2169SOL     OW 7405   0.471   0.572   2.074
 2169SOL    HW1 7406   0.377   0.557   2.107
 2169SOL    HW2 7407   0.469   0.601   1.979
 2170SOL     OW 7408   0.975   4.088   5.875
 2170SOL    HW1 7409   0.966   4.127   5.967
 2170SOL    HW2 7410   1.072   4.073   5.855
 2171SOL     OW 7411   0.625   5.486   1.159
 2171SOL    HW1 7412   0.657   5.411   1.101
 2171SOL    HW2 7413   0.525   5.492   1.153
 2172SOL     OW 7414   0.393   1.835   4.812
 2172SOL    HW1 7415   0.436   1.754   4.769
 2172SOL    HW2 7416   0.461   1.883   4.867
 2173SOL     OW 7417   5.879   0.579   5.286
 2173SOL    HW1 7418   5.903   0.512   5.357
 2173SOL    HW2 7419   5.874   0.670   5.327
 2174SOL     OW 7420   0.142   5.843   5.155
 2174SOL    HW1 7421   0.099   5.866   5.242
 2174SOL    HW2 7422   0.225   5.897   5.142
 2175SOL     OW 7423   3.092   3.476   5.519
 2175SOL    HW1 7424   3.050   3.445   5.433
 2175SOL    HW2 7425   3.045   3.557   5.552
 2176SOL     OW 7426   5.408   2.695   1.154
 2176SOL    HW1 7427   5.380   2.744   1.237
 2176SOL    HW2 7428   5.374   2.744   1.074
 2177SOL     OW 7429   0.016   0.686   3.764
 2177SOL    HW1 7430   6.974   0.762   3.762
 2177SOL    HW2 7431   0.020   0.648   3.856
 2178SOL     OW 7432   1.133   1.987   2.900
 2178SOL    HW1 7433   1.068   1.920   2.936
 2178SOL    HW2 7434   1.144   2.062   2.965
 2179SOL     OW 7435   1.685   4.911   6.711
 2179SOL    HW1 7436   1.615   4.971   6.750
 2179SOL    HW2 7437   1.640   4.834   6.666
 2180SOL     OW 7438   0.822   5.162   1.902
 2180SOL    HW1 7439   0.910   5.116   1.892
 2180SOL    HW2 7440   0.836   5.258   1.922
 2181SOL     OW 7441   4.424   4.935   3.855
 2181SOL    HW1 7442   4.462   4.932   3.762
 2181SOL    HW2 7443   4.352   5.004   3.859
 2182SOL     OW 7444   6.900   5.666   3.172
 2182SOL    HW1 7445   6.865   5.728   3.101
 2182SOL    HW2 7446   6.826   5.643   3.235
 2183SOL     OW 7447   3.609   3.224   0.192
 2183SOL    HW1 7448   3.645   3.155   0.254
 2183SOL    HW2 7449   3.514   3.243   0.214
 2184SOL     OW 7450   6.635   0.495   0.284
 2184SOL    HW1 7451   6.676   0.585   0.292
 2184SOL    HW2 7452   6.694   0.436   0.229
 2185SOL     OW 7453   0.096   1.299   6.590
 2185SOL    HW1 7454   0.163   1.268   6.658
 2185SOL    HW2 7455   0.009   1.317   6.635
 2186SOL     OW 7456   6.766   5.353   4.749
 2186SOL    HW1 7457   6.691   5.380   4.688
 2186SOL    HW2 7458   6.748   5.261   4.783
 2187SOL     OW 7459   0.288   5.635   2.954
 2187SOL    HW1 7460   0.315   5.603   3.045
 2187SOL    HW2 7461   0.299   5.734   2.949
 2188SOL     OW 7462   2.100   0.342   1.056
 2188SOL    HW1 7463   2.020   0.322   0.998
 2188SOL    HW2 7464   2.099   0.439   1.081
 2189SOL     OW 7465   2.928   1.566   1.891
 2189SOL    HW1 7466   3.023   1.594   1.877
 2189SOL    HW2 7467   2.899   1.591   1.983
 2190SOL     OW 7468   6.615   4.366   2.596
 2190SOL    HW1 7469   6.715   4.370   2.590
 2190SOL    HW2 7470   6.575   4.440   2.542
 2191SOL     OW 7471   2.154   0.689   6.117
 2191SOL    HW1 7472   2.244   0.729   6.131
 2191SOL    HW2 7473   2.102   0.693   6.203
 2192SOL     OW 7474   4.695   1.262   2.220
 2192SOL    HW1 7475   4.627   1.328   2.252
 2192SOL    HW2 7476   4.786   1.291   2.247
 2193SOL     OW 7477   0.120   7.022   5.990
 2193SOL    HW1 7478   0.145   6.927   5.970
 2193SOL    HW2 7479   0.134   0.054   5.908
 2194SOL     OW 7480   0.919   4.631   5.682
 2194SOL    HW1 7481   0.824   4.663   5.680
 2194SOL    HW2 7482   0.945   4.596   5.593
 2195SOL     OW 7483   0.759   4.309   6.646
 2195SOL    HW1 7484   0.710   4.223   6.634
 2195SOL    HW2 7485   0.719   4.379   6.588
 2196SOL     OW 7486   2.608   5.822   5.485
 2196SOL    HW1 7487   2.569   5.897   5.538
 2196SOL    HW2 7488   2.704   5.842   5.464
 2197SOL     OW 7489   2.823   4.302   5.808
 2197SOL    HW1 7490   2.914   4.309   5.767
 2197SOL    HW2 7491   2.766   4.378   5.777
 2198SOL     OW 7492   0.347   0.205   6.432
 2198SOL    HW1 7493   0.308   0.294   6.455
 2198SOL    HW2 7494   0.444   0.215   6.410
 2199SOL     OW 7495   4.660   6.817   4.686
 2199SOL    HW1 7496   4.725   6.767   4.630
 2199SOL    HW2 7497   4.571   6.772   4.683
 2200SOL     OW 7498   2.648   1.589   4.090
 2200SOL    HW1 7499   2.744   1.568   4.106
 2200SOL    HW2 7500   2.631   1.686   4.105
 2201SOL     OW 7501   6.435   2.807   3.964
 2201SOL    HW1 7502   6.361   2.782   4.026
 2201SOL    HW2 7503   6.429   2.905   3.941
 2202SOL     OW 7504   3.836   5.259   2.317
 2202SOL    HW1 7505   3.932   5.245   2.293
 2202SOL    HW2 7506   3.802   5.342   2.273
 2203SOL     OW 7507   1.969   3.893   0.957
 2203SOL    HW1 7508   1.898   3.963   0.947
 2203SOL    HW2 7509   1.985   3.850   0.868
 2204SOL     OW 7510   4.297   3.069   0.838
 2204SOL    HW1 7511   4.281   2.975   0.807
 2204SOL    HW2 7512   4.291   3.072   0.938
 2205SOL     OW 7513   1.821   5.976   0.403
 2205SOL    HW1 7514   1.763   5.899   0.376
 2205SOL    HW2 7515   1.767   6.042   0.454
 2206SOL     OW 7516   2.231   2.997   6.572
 2206SOL    HW1 7517   2.277   2.967   6.489
 2206SOL    HW2 7518   2.140   2.955   6.576
 2207SOL     OW 7519   4.614   5.771   1.057
 2207SOL    HW1 7520   4.669   5.772   0.974
 2207SOL    HW2 7521   4.580   5.863   1.077
 2208SOL     OW 7522   0.900   5.577   3.469
 2208SOL    HW1 7523   0.830   5.562   3.538
 2208SOL    HW2 7524   0.859   5.613   3.386
 2209SOL     OW 7525   2.869   5.104   5.090
 2209SOL    HW1 7526   2.827   5.073   5.005
 2209SOL    HW2 7527   2.837   5.047   5.166
 2210SOL     OW 7528   5.808   6.351   1.235
 2210SOL    HW1 7529   5.888   6.315   1.186
 2210SOL    HW2 7530   5.755   6.410   1.174
 2211SOL     OW 7531   6.124   0.479   0.705
 2211SOL    HW1 7532   6.056   0.406   0.709
 2211SOL    HW2 7533   6.151   0.495   0.610
 2212SOL     OW 7534   2.632   5.938   6.841
 2212SOL    HW1 7535   2.624   5.913   6.744
 2212SOL    HW2 7536   2.618   6.037   6.851
 2213SOL     OW 7537   3.848   2.144   4.106
 2213SOL    HW1 7538   3.838   2.192   4.193
 2213SOL    HW2 7539   3.844   2.045   4.122
 2214SOL     OW 7540   4.219   2.949   5.702
 2214SOL    HW1 7541   4.191   2.990   5.615
 2214SOL    HW2 7542   4.319   2.949   5.707
 2215SOL     OW 7543   5.015   0.443   6.134
 2215SOL    HW1 7544   5.086   0.408   6.074
 2215SOL    HW2 7545   5.057   0.494   6.209
 2216SOL     OW 7546   0.416   6.431   6.530
 2216SOL    HW1 7547   0.329   6.481   6.534
 2216SOL    HW2 7548   0.485   6.489   6.489
 2217SOL     OW 7549   4.310   0.797   2.906
 2217SOL    HW1 7550   4.320   0.761   2.813
 2217SOL    HW2 7551   4.305   0.721   2.971
 2218SOL     OW 7552   0.113   4.989   5.950
 2218SOL    HW1 7553   0.038   4.971   5.886
 2218SOL    HW2 7554   0.101   4.933   6.031
 2219SOL     OW 7555   5.203   1.524   0.674
 2219SOL    HW1 7556   5.202   1.605   0.732
 2219SOL    HW2 7557   5.151   1.542   0.590
 2220SOL     OW 7558   1.190   6.462   5.495
 2220SOL    HW1 7559   1.242   6.508   5.567
 2220SOL    HW2 7560   1.122   6.403   5.536
 2221SOL     OW 7561   6.881   1.320   4.827
 2221SOL    HW1 7562   6.932   1.302   4.743
 2221SOL    HW2 7563   6.853   1.233   4.868
 2222SOL     OW 7564   5.638   6.515   1.068
 2222SOL    HW1 7565   5.661   6.585   1.000
 2222SOL    HW2 7566   5.551   6.473   1.043
 2223SOL     OW 7567   6.907   0.256   5.706
 2223SOL    HW1 7568   6.887   0.172   5.756
 2223SOL    HW2 7569   6.868   0.249   5.614
 2224SOL     OW 7570   5.697   4.156   1.561
 2224SOL    HW1 7571   5.754   4.084   1.521
 2224SOL    HW2 7572   5.698   4.149   1.660
 2225SOL     OW 7573   0.819   6.597   3.364
 2225SOL    HW1 7574   0.904   6.647   3.384
 2225SOL    HW2 7575   0.740   6.653   3.390
 2226SOL     OW 7576   2.655   5.436   0.835
 2226SOL    HW1 7577   2.563   5.439   0.797
 2226SOL    HW2 7578   2.652   5.459   0.932
 2227SOL     OW 7579   4.087   2.380   1.733
 2227SOL    HW1 7580   4.065   2.296   1.684
 2227SOL    HW2 7581   4.098   2.455   1.667
 2228SOL     OW 7582   4.799   4.816   0.139
 2228SOL    HW1 7583   4.711   4.769   0.132
 2228SOL    HW2 7584   4.829   4.844   0.047
 2229SOL     OW 7585   3.282   3.586   4.665
 2229SOL    HW1 7586   3.265   3.658   4.598
 2229SOL    HW2 7587   3.274   3.497   4.621
 2230SOL     OW 7588   5.317   6.252   0.610
 2230SOL    HW1 7589   5.360   6.198   0.538
 2230SOL    HW2 7590   5.323   6.203   0.697
 2231SOL     OW 7591   0.201   0.741   0.045
 2231SOL    HW1 7592   0.284   0.699   0.083
 2231SOL    HW2 7593   0.204   0.735   6.968
 2232SOL     OW 7594   1.519   0.595   5.760
 2232SOL    HW1 7595   1.420   0.609   5.759
 2232SOL    HW2 7596   1.565   0.683   5.748
 2233SOL     OW 7597   3.270   3.615   0.698
 2233SOL    HW1 7598   3.314   3.705   0.699
 2233SOL    HW2 7599   3.327   3.550   0.749
 2234SOL     OW 7600   3.779   1.657   0.473
 2234SOL    HW1 7601   3.876   1.641   0.491
 2234SOL    HW2 7602   3.767   1.745   0.427
 2235SOL     OW 7603   2.846   0.652   2.226
 2235SOL    HW1 7604   2.772   0.719   2.235
 2235SOL    HW2 7605   2.932   0.699   2.205
 2236SOL     OW 7606   1.925   4.053   5.658
 2236SOL    HW1 7607   1.971   4.008   5.582
 2236SOL    HW2 7608   1.859   3.990   5.700
 2237SOL     OW 7609   5.808   5.192   5.148
 2237SOL    HW1 7610   5.884   5.251   5.177
 2237SOL    HW2 7611   5.825   5.099   5.179
 2238SOL     OW 7612   5.006   4.552   2.635
 2238SOL    HW1 7613   5.024   4.536   2.537
 2238SOL    HW2 7614   5.069   4.496   2.689
 2239SOL     OW 7615   3.817   6.749   3.575
 2239SOL    HW1 7616   3.912   6.724   3.554
 2239SOL    HW2 7617   3.812   6.783   3.669
 2240SOL     OW 7618   5.040   6.037   3.193
 2240SOL    HW1 7619   5.019   6.123   3.148
 2240SOL    HW2 7620   5.132   6.040   3.231
 2241SOL     OW 7621   0.397   6.853   1.455
 2241SOL    HW1 7622   0.312   6.860   1.508
 2241SOL    HW2 7623   0.460   6.925   1.485
 2242SOL     OW 7624   5.314   2.837   3.286
 2242SOL    HW1 7625   5.310   2.936   3.297
 2242SOL    HW2 7626   5.238   2.794   3.335
 2243SOL     OW 7627   2.392   6.498   0.573
 2243SOL    HW1 7628   2.468   6.489   0.510
 2243SOL    HW2 7629   2.306   6.488   0.523
 2244SOL     OW 7630   2.717   0.868   0.820
 2244SOL    HW1 7631   2.661   0.789   0.796
 2244SOL    HW2 7632   2.744   0.861   0.916
 2245SOL     OW 7633   0.786   1.263   0.623
 2245SOL    HW1 7634   0.800   1.170   0.592
 2245SOL    HW2 7635   0.843   1.280   0.704
 2246SOL     OW 7636   2.323   0.401   4.709
 2246SOL    HW1 7637   2.230   0.433   4.696
 2246SOL    HW2 7638   2.346   0.404   4.807
 2247SOL     OW 7639   3.474   3.937   2.404
 2247SOL    HW1 7640   3.478   4.008   2.334
 2247SOL    HW2 7641   3.382   3.897   2.406
 2248SOL     OW 7642   5.881   4.649   5.038
 2248SOL    HW1 7643   5.954   4.692   4.984
 2248SOL    HW2 7644   5.908   4.646   5.134
 2249SOL     OW 7645   2.776   6.470   3.659
 2249SOL    HW1 7646   2.731   6.401   3.715
 2249SOL    HW2 7647   2.875   6.462   3.669
 2250SOL     OW 7648   3.980   3.487   5.636
 2250SOL    HW1 7649   4.039   3.567   5.650
 2250SOL    HW2 7650   4.019   3.409   5.685
 2251SOL     OW 7651   5.110   6.309   6.367
 2251SOL    HW1 7652   5.158   6.369   6.303
 2251SOL    HW2 7653   5.172   6.282   6.440
 2252SOL     OW 7654   5.222   1.617   2.937
 2252SOL    HW1 7655   5.199   1.711   2.962
 2252SOL    HW2 7656   5.263   1.617   2.845
 2253SOL     OW 7657   0.680   3.150   0.512
 2253SOL    HW1 7658   0.779   3.149   0.495
 2253SOL    HW2 7659   0.636   3.080   0.457
 2254SOL     OW 7660   3.457   3.951   2.684
 2254SOL    HW1 7661   3.464   3.943   2.584
 2254SOL    HW2 7662   3.541   3.993   2.719
 2255SOL     OW 7663   2.793   4.277   5.309
 2255SOL    HW1 7664   2.843   4.344   5.255
 2255SOL    HW2 7665   2.709   4.318   5.345
 2256SOL     OW 7666   4.992   6.106   2.106
 2256SOL    HW1 7667   5.079   6.155   2.101
 2256SOL    HW2 7668   4.961   6.103   2.201
 2257SOL     OW 7669   0.612   1.843   4.476
 2257SOL    HW1 7670   0.652   1.752   4.465
 2257SOL    HW2 7671   0.530   1.851   4.419
 2258SOL     OW 7672   1.840   6.682   4.790
 2258SOL    HW1 7673   1.869   6.589   4.814
 2258SOL    HW2 7674   1.838   6.739   4.873
 2259SOL     OW 7675   6.521   2.522   4.530
 2259SOL    HW1 7676   6.523   2.486   4.437
 2259SOL    HW2 7677   6.563   2.613   4.532
 2260SOL     OW 7678   1.166   3.789   1.735
 2260SOL    HW1 7679   1.119   3.813   1.819
 2260SOL    HW2 7680   1.110   3.727   1.681
 2261SOL     OW 7681   6.148   3.535   0.107
 2261SOL    HW1 7682   6.164   3.606   0.038
 2261SOL    HW2 7683   6.063   3.555   0.156
 2262SOL     OW 7684   6.312   0.759   4.175
 2262SOL    HW1 7685   6.348   0.667   4.190
 2262SOL    HW2 7686   6.382   0.816   4.131
 2263SOL     OW 7687   1.047   5.252   0.527
 2263SOL    HW1 7688   0.958   5.208   0.516
 2263SOL    HW2 7689   1.040   5.326   0.594
 2264SOL     OW 7690   2.562   6.705   6.682
 2264SOL    HW1 7691   2.585   6.709   6.585
 2264SOL    HW2 7692   2.566   6.798   6.720
 2265SOL     OW 7693   1.543   0.141   4.355
 2265SOL    HW1 7694   1.574   0.073   4.289
 2265SOL    HW2 7695   1.560   0.108   4.447
 2266SOL     OW 7696   5.092   1.498   6.144
 2266SOL    HW1 7697   5.118   1.422   6.084
 2266SOL    HW2 7698   5.116   1.476   6.238
 2267SOL     OW 7699   4.500   2.515   4.969
 2267SOL    HW1 7700   4.560   2.584   4.928
 2267SOL    HW2 7701   4.480   2.540   5.064
 2268SOL     OW 7702   6.297   4.312   6.308
 2268SOL    HW1 7703   6.280   4.233   6.366
 2268SOL    HW2 7704   6.311   4.393   6.365
 2269SOL     OW 7705   0.902   3.139   5.686
 2269SOL    HW1 7706   0.995   3.101   5.684
 2269SOL    HW2 7707   0.905   3.232   5.723
 2270SOL     OW 7708   4.424   2.961   6.045
 2270SOL    HW1 7709   4.404   2.995   5.953
 2270SOL    HW2 7710   4.375   3.017   6.112
 2271SOL     OW 7711   5.845   4.194   6.881
 2271SOL    HW1 7712   5.823   4.262   6.811
 2271SOL    HW2 7713   5.790   4.112   6.866
 2272SOL     OW 7714   6.051   0.877   6.281
 2272SOL    HW1 7715   6.058   0.976   6.269
 2272SOL    HW2 7716   6.076   0.852   6.374
 2273SOL     OW 7717   2.034   2.156   2.428
 2273SOL    HW1 7718   1.962   2.091   2.405
 2273SOL    HW2 7719   1.995   2.248   2.436
 2274SOL     OW 7720   0.612   1.403   7.009
 2274SOL    HW1 7721   0.658   1.431   0.070
 2274SOL    HW2 7722   0.522   1.446   7.004
 2275SOL     OW 7723   5.539   5.067   2.111
 2275SOL    HW1 7724   5.541   4.989   2.048
 2275SOL    HW2 7725   5.534   5.033   2.205
 2276SOL     OW 7726   1.612   0.863   1.196
 2276SOL    HW1 7727   1.643   0.914   1.115
 2276SOL    HW2 7728   1.678   0.792   1.218
 2277SOL     OW 7729   2.993   3.801   3.276
 2277SOL    HW1 7730   3.078   3.847   3.302
 2277SOL    HW2 7731   2.946   3.856   3.207
 2278SOL     OW 7732   0.765   3.097   3.794
 2278SOL    HW1 7733   0.668   3.100   3.768
 2278SOL    HW2 7734   0.816   3.042   3.728
 2279SOL     OW 7735   6.808   5.797   5.952
 2279SOL    HW1 7736   6.733   5.864   5.956
 2279SOL    HW2 7737   6.841   5.780   6.045
 2280SOL     OW 7738   5.570   0.736   5.426
 2280SOL    HW1 7739   5.503   0.721   5.354
 2280SOL    HW2 7740   5.565   0.661   5.492
 2281SOL     OW 7741   4.538   6.460   2.486
 2281SOL    HW1 7742   4.540   6.372   2.438
 2281SOL    HW2 7743   4.449   6.472   2.529
 2282SOL     OW 7744   4.872   5.281   5.549
 2282SOL    HW1 7745   4.853   5.211   5.481
 2282SOL    HW2 7746   4.911   5.238   5.631
 2283SOL     OW 7747   1.869   0.650   3.169
 2283SOL    HW1 7748   1.818   0.636   3.084
 2283SOL    HW2 7749   1.869   0.566   3.223
 2284SOL     OW 7750   0.644   3.437   6.225
 2284SOL    HW1 7751   0.619   3.358   6.282
 2284SOL    HW2 7752   0.743   3.444   6.220
 2285SOL     OW 7753   0.969   3.734   6.961
 2285SOL    HW1 7754   0.906   3.776   6.897
 2285SOL    HW2 7755   1.062   3.737   6.925
 2286SOL     OW 7756   5.229   0.101   3.257
 2286SOL    HW1 7757   5.218   0.045   3.176
 2286SOL    HW2 7758   5.187   0.191   3.243
 2287SOL     OW 7759   2.751   0.829   3.470
 2287SOL    HW1 7760   2.728   0.805   3.564
 2287SOL    HW2 7761   2.725   0.755   3.409
 2288SOL     OW 7762   0.077   4.843   3.478
 2288SOL    HW1 7763   0.003   4.853   3.412
 2288SOL    HW2 7764   0.039   4.836   3.570
 2289SOL     OW 7765   0.435   5.309   1.745
 2289SOL    HW1 7766   0.494   5.292   1.667
 2289SOL    HW2 7767   0.484   5.364   1.813
 2290SOL     OW 7768   1.034   4.279   1.318
 2290SOL    HW1 7769   0.988   4.217   1.254
 2290SOL    HW2 7770   1.057   4.230   1.402
 2291SOL     OW 7771   3.220   1.529   5.898
 2291SOL    HW1 7772   3.134   1.493   5.860
 2291SOL    HW2 7773   3.288   1.537   5.824
 2292SOL     OW 7774   1.399   0.724   4.890
 2292SOL    HW1 7775   1.341   0.792   4.845
 2292SOL    HW2 7776   1.410   0.747   4.986
 2293SOL     OW 7777   5.212   5.369   1.439
 2293SOL    HW1 7778   5.188   5.291   1.381
 2293SOL    HW2 7779   5.281   5.342   1.506
 2294SOL     OW 7780   3.830   6.992   6.929
 2294SOL    HW1 7781   3.875   0.001   7.012
 2294SOL    HW2 7782   3.750   0.025   6.909
 2295SOL     OW 7783   0.092   1.800   1.949
 2295SOL    HW1 7784   0.050   1.874   2.002
 2295SOL    HW2 7785   0.023   1.731   1.929
 2296SOL     OW 7786   3.287   0.848   0.459
 2296SOL    HW1 7787   3.330   0.904   0.388
 2296SOL    HW2 7788   3.195   0.881   0.477
 2297SOL     OW 7789   4.321   4.194   5.722
 2297SOL    HW1 7790   4.249   4.130   5.695
 2297SOL    HW2 7791   4.342   4.254   5.644
 2298SOL     OW 7792   3.507   2.421   1.131
 2298SOL    HW1 7793   3.539   2.425   1.225
 2298SOL    HW2 7794   3.574   2.464   1.070
 2299SOL     OW 7795   5.048   6.253   6.934
 2299SOL    HW1 7796   5.033   6.199   6.851
 2299SOL    HW2 7797   4.960   6.274   6.976
 2300SOL     OW 7798   1.709   5.540   1.398
 2300SOL    HW1 7799   1.675   5.604   1.329
 2300SOL    HW2 7800   1.796   5.572   1.433
 2301SOL     OW 7801   3.142   3.359   3.265
 2301SOL    HW1 7802   3.059   3.346   3.211
 2301SOL    HW2 7803   3.149   3.455   3.294
 2302SOL     OW 7804   3.870   5.867   2.558
 2302SOL    HW1 7805   3.829   5.907   2.476
 2302SOL    HW2 7806   3.908   5.940   2.614
 2303SOL     OW 7807   1.173   3.467   5.237
 2303SOL    HW1 7808   1.175   3.411   5.320
 2303SOL    HW2 7809   1.207   3.559   5.259
 2304SOL     OW 7810   2.870   0.119   3.665
 2304SOL    HW1 7811   2.882   0.132   3.567
 2304SOL    HW2 7812   2.955   0.138   3.713
 2305SOL     OW 7813   3.957   5.609   2.597
 2305SOL    HW1 7814   3.929   5.702   2.573
 2305SOL    HW2 7815   3.994   5.563   2.516
 2306SOL     OW 7816   1.886   4.787   1.808
 2306SOL    HW1 7817   1.914   4.853   1.738
 2306SOL    HW2 7818   1.843   4.708   1.765
 2307SOL     OW 7819   1.461   3.810   2.699
 2307SOL    HW1 7820   1.370   3.839   2.728
 2307SOL    HW2 7821   1.484   3.854   2.612
 2308SOL     OW 7822   0.860   1.070   6.648
 2308SOL    HW1 7823   0.828   1.126   6.725
 2308SOL    HW2 7824   0.792   1.073   6.575
 2309SOL     OW 7825   3.481   5.730   0.271
 2309SOL    HW1 7826   3.545   5.739   0.348
 2309SOL    HW2 7827   3.447   5.820   0.246
 2310SOL     OW 7828   6.074   0.129   1.846
 2310SOL    HW1 7829   6.133   0.168   1.776
 2310SOL    HW2 7830   5.978   0.136   1.817
 2311SOL     OW 7831   2.788   6.964   2.374
 2311SOL    HW1 7832   2.746   6.873   2.385
 2311SOL    HW2 7833   2.798   6.984   2.277
 2312SOL     OW 7834   3.364   6.861   2.668
 2312SOL    HW1 7835   3.453   6.837   2.628
 2312SOL    HW2 7836   3.299   6.880   2.595
 2313SOL     OW 7837   5.202   4.370   2.007
 2313SOL    HW1 7838   5.244   4.458   1.984
 2313SOL    HW2 7839   5.198   4.313   1.925
 2314SOL     OW 7840   6.066   0.564   3.699
 2314SOL    HW1 7841   6.084   0.584   3.796
 2314SOL    HW2 7842   6.114   0.630   3.642
 2315SOL     OW 7843   5.006   3.825   5.848
 2315SOL    HW1 7844   5.046   3.758   5.911
 2315SOL    HW2 7845   4.977   3.906   5.899
 2316SOL     OW 7846   2.847   0.612   5.946
 2316SOL    HW1 7847   2.871   0.706   5.971
 2316SOL    HW2 7848   2.925   0.568   5.903
 2317SOL     OW 7849   6.556   6.281   4.102
 2317SOL    HW1 7850   6.625   6.256   4.169
 2317SOL    HW2 7851   6.467   6.246   4.130
 2318SOL     OW 7852   2.073   3.976   4.538
 2318SOL    HW1 7853   2.136   4.014   4.470
 2318SOL    HW2 7854   2.117   3.900   4.585
 2319SOL     OW 7855   3.306   5.143   4.670
 2319SOL    HW1 7856   3.289   5.069   4.736
 2319SOL    HW2 7857   3.293   5.109   4.577
 2320SOL     OW 7858   0.804   3.012   6.007
 2320SOL    HW1 7859   0.760   2.981   6.091
 2320SOL    HW2 7860   0.763   2.966   5.929
 2321SOL     OW 7861   2.479   5.173   6.695
 2321SOL    HW1 7862   2.575   5.154   6.718
 2321SOL    HW2 7863   2.434   5.087   6.670
 2322SOL     OW 7864   1.703   3.976   1.971
 2322SOL    HW1 7865   1.790   4.022   1.954
 2322SOL    HW2 7866   1.667   4.004   2.060
 2323SOL     OW 7867   3.181   5.085   1.968
 2323SOL    HW1 7868   3.248   5.012   1.959
 2323SOL    HW2 7869   3.124   5.089   1.886
 2324SOL     OW 7870   6.948   6.118   1.904
 2324SOL    HW1 7871   6.884   6.048   1.874
 2324SOL    HW2 7872   6.977   6.173   1.826
 2325SOL     OW 7873   7.011   4.951   1.722
 2325SOL    HW1 7874   7.003   4.870   1.780
 2325SOL    HW2 7875   6.962   5.027   1.765
 2326SOL     OW 7876   1.427   5.851   6.893
 2326SOL    HW1 7877   1.468   5.880   6.980
 2326SOL    HW2 7878   1.499   5.826   6.829
 2327SOL     OW 7879   0.226   0.462   3.187
 2327SOL    HW1 7880   0.216   0.529   3.114
 2327SOL    HW2 7881   0.199   0.371   3.154
 2328SOL     OW 7882   1.514   1.886   2.376
 2328SOL    HW1 7883   1.544   1.977   2.404
 2328SOL    HW2 7884   1.516   1.825   2.455
 2329SOL     OW 7885   0.661   4.283   4.831
 2329SOL    HW1 7886   0.597   4.251   4.902
 2329SOL    HW2 7887   0.659   4.383   4.828
 2330SOL     OW 7888   0.096   3.077   0.461
 2330SOL    HW1 7889   0.126   3.047   0.551
 2330SOL    HW2 7890   0.110   3.176   0.452
 2331SOL     OW 7891   3.228   5.107   6.841
 2331SOL    HW1 7892   3.178   5.186   6.805
 2331SOL    HW2 7893   3.325   5.118   6.821
 2332SOL     OW 7894   6.601   0.170   5.656
 2332SOL    HW1 7895   6.667   0.105   5.694
 2332SOL    HW2 7896   6.525   0.181   5.720
 2333SOL     OW 7897   6.750   4.671   2.984
 2333SOL    HW1 7898   6.658   4.633   2.982
 2333SOL    HW2 7899   6.753   4.756   2.932
 2334SOL     OW 7900   1.225   1.656   6.611
 2334SOL    HW1 7901   1.218   1.722   6.685
 2334SOL    HW2 7902   1.133   1.631   6.580
 2335SOL     OW 7903   5.552   0.617   4.307
 2335SOL    HW1 7904   5.642   0.658   4.322
 2335SOL    HW2 7905   5.533   0.551   4.380
 2336SOL     OW 7906   2.707   1.875   4.150
 2336SOL    HW1 7907   2.745   1.932   4.077
 2336SOL    HW2 7908   2.611   1.896   4.162
 2337SOL     OW 7909   3.971   1.493   1.800
 2337SOL    HW1 7910   3.928   1.480   1.711
 2337SOL    HW2 7911   3.982   1.591   1.818
 2338SOL     OW 7912   0.744   3.354   4.382
 2338SOL    HW1 7913   0.744   3.311   4.292
 2338SOL    HW2 7914   0.775   3.288   4.451
 2339SOL     OW 7915   2.982   3.274   3.047
 2339SOL    HW1 7916   2.898   3.290   3.098
 2339SOL    HW2 7917   2.969   3.302   2.952
 2340SOL     OW 7918   0.379   4.740   0.255
 2340SOL    HW1 7919   0.414   4.834   0.247
 2340SOL    HW2 7920   0.438   4.678   0.204
 2341SOL     OW 7921   2.656   4.931   2.185
 2341SOL    HW1 7922   2.608   4.906   2.101
 2341SOL    HW2 7923   2.660   5.030   2.192
 2342SOL     OW 7924   1.968   6.686   4.533
 2342SOL    HW1 7925   1.963   6.719   4.627
 2342SOL    HW2 7926   1.968   6.764   4.470
 2343SOL     OW 7927   2.213   6.087   2.878
 2343SOL    HW1 7928   2.279   6.065   2.950
 2343SOL    HW2 7929   2.243   6.045   2.792
 2344SOL     OW 7930   6.854   5.849   0.099
 2344SOL    HW1 7931   6.944   5.869   0.140
 2344SOL    HW2 7932   6.866   5.785   0.023
 2345SOL     OW 7933   2.682   5.579   4.794
 2345SOL    HW1 7934   2.721   5.650   4.736
 2345SOL    HW2 7935   2.643   5.621   4.876
 2346SOL     OW 7936   3.894   3.119   5.444
 2346SOL    HW1 7937   3.890   3.124   5.344
 2346SOL    HW2 7938   3.862   3.205   5.483
 2347SOL     OW 7939   1.764   1.842   1.484
 2347SOL    HW1 7940   1.823   1.817   1.561
 2347SOL    HW2 7941   1.673   1.802   1.498
 2348SOL     OW 7942   2.183   6.228   3.609
 2348SOL    HW1 7943   2.130   6.226   3.694
 2348SOL    HW2 7944   2.195   6.134   3.575
 2349SOL     OW 7945   0.727   4.347   6.305
 2349SOL    HW1 7946   0.731   4.249   6.322
 2349SOL    HW2 7947   0.799   4.373   6.241
 2350SOL     OW 7948   5.951   4.567   5.972
 2350SOL    HW1 7949   5.895   4.513   6.035
 2350SOL    HW2 7950   5.946   4.664   5.997
 2351SOL     OW 7951   3.660   4.903   4.037
 2351SOL    HW1 7952   3.586   4.847   4.074
 2351SOL    HW2 7953   3.630   4.997   4.026
 2352SOL     OW 7954   0.331   3.276   3.048
 2352SOL    HW1 7955   0.331   3.231   3.138
 2352SOL    HW2 7956   0.339   3.375   3.061
 2353SOL     OW 7957   4.070   4.832   4.542
 2353SOL    HW1 7958   4.051   4.832   4.640
 2353SOL    HW2 7959   4.108   4.921   4.515
 2354SOL     OW 7960   2.151   2.373   4.627
 2354SOL    HW1 7961   2.106   2.290   4.592
 2354SOL    HW2 7962   2.086   2.425   4.682
 2355SOL     OW 7963   2.044   6.709   5.777
 2355SOL    HW1 7964   2.045   6.756   5.689
 2355SOL    HW2 7965   2.132   6.666   5.793
 2356SOL     OW 7966   1.113   2.841   6.453
 2356SOL    HW1 7967   1.032   2.871   6.402
 2356SOL    HW2 7968   1.170   2.920   6.475
 2357SOL     OW 7969   3.974   1.115   1.957
 2357SOL    HW1 7970   4.049   1.171   1.922
 2357SOL    HW2 7971   3.995   1.087   2.051
 2358SOL     OW 7972   2.821   5.290   5.640
 2358SOL    HW1 7973   2.821   5.208   5.582
 2358SOL    HW2 7974   2.738   5.342   5.624
 2359SOL     OW 7975   0.265   0.909   6.129
 2359SOL    HW1 7976   0.184   0.887   6.074
 2359SOL    HW2 7977   0.323   0.974   6.080
 2360SOL     OW 7978   5.976   3.896   0.588
 2360SOL    HW1 7979   6.057   3.852   0.549
 2360SOL    HW2 7980   5.972   3.991   0.558
 2361SOL     OW 7981   2.962   1.154   6.365
 2361SOL    HW1 7982   2.935   1.250   6.358
 2361SOL    HW2 7983   2.894   1.103   6.417
 2362SOL     OW 7984   2.697   5.745   3.598
 2362SOL    HW1 7985   2.784   5.740   3.550
 2362SOL    HW2 7986   2.653   5.833   3.580
 2363SOL     OW 7987   3.513   1.625   4.167
 2363SOL    HW1 7988   3.537   1.680   4.087
 2363SOL    HW2 7989   3.453   1.678   4.227
 2364SOL     OW 7990   1.853   2.612   2.349
 2364SOL    HW1 7991   1.846   2.608   2.449
 2364SOL    HW2 7992   1.938   2.657   2.323
 2365SOL     OW 7993   6.539   1.730   6.887
 2365SOL    HW1 7994   6.632   1.715   6.919
 2365SOL    HW2 7995   6.482   1.759   6.964
 2366SOL     OW 7996   2.629   5.249   7.001
 2366SOL    HW1 7997   2.722   5.234   6.970
 2366SOL    HW2 7998   2.616   5.346   7.021
 2367SOL     OW 7999   2.081   3.534   0.845
 2367SOL    HW1 8000   2.046   3.621   0.809
 2367SOL    HW2 8001   2.005   3.472   0.863
 2368SOL     OW 8002   5.647   6.486   4.615
 2368SOL    HW1 8003   5.731   6.539   4.622
 2368SOL    HW2 8004   5.601   6.483   4.704
 2369SOL     OW 8005   1.955   0.032   4.819
 2369SOL    HW1 8006   1.870   0.028   4.871
 2369SOL    HW2 8007   1.934   0.039   4.722
 2370SOL     OW 8008   5.942   3.111   0.053
 2370SOL    HW1 8009   5.973   3.025   0.011
 2370SOL    HW2 8010   6.016   3.178   0.050
 2371SOL     OW 8011   2.180   6.954   1.890
 2371SOL    HW1 8012   2.176   6.856   1.905
 2371SOL    HW2 8013   2.258   6.992   1.940
 2372SOL     OW 8014   6.606   2.426   1.862
 2372SOL    HW1 8015   6.640   2.504   1.914
 2372SOL    HW2 8016   6.678   2.392   1.802
 2373SOL     OW 8017   1.119   3.596   5.840
 2373SOL    HW1 8018   1.046   3.531   5.817
 2373SOL    HW2 8019   1.141   3.650   5.759
 2374SOL     OW 8020   6.712   1.819   4.705
 2374SOL    HW1 8021   6.788   1.884   4.700
 2374SOL    HW2 8022   6.644   1.842   4.635
 2375SOL     OW 8023   3.216   5.551   5.943
 2375SOL    HW1 8024   3.116   5.556   5.950
 2375SOL    HW2 8025   3.243   5.561   5.847
 2376SOL     OW 8026   6.696   2.815   4.136
 2376SOL    HW1 8027   6.694   2.752   4.213
 2376SOL    HW2 8028   6.603   2.842   4.112
 2377SOL     OW 8029   3.541   3.945   3.599
 2377SOL    HW1 8030   3.632   3.976   3.624
 2377SOL    HW2 8031   3.499   4.010   3.535
 2378SOL     OW 8032   5.044   1.781   0.246
 2378SOL    HW1 8033   4.990   1.710   0.200
 2378SOL    HW2 8034   5.124   1.803   0.189
 2379SOL     OW 8035   6.626   1.000   0.461
 2379SOL    HW1 8036   6.619   0.903   0.485
 2379SOL    HW2 8037   6.647   1.053   0.543
 2380SOL     OW 8038   6.794   2.404   0.310
 2380SOL    HW1 8039   6.813   2.496   0.346
 2380SOL    HW2 8040   6.806   2.337   0.384
 2381SOL     OW 8041   2.682   5.617   3.117
 2381SOL    HW1 8042   2.635   5.664   3.192
 2381SOL    HW2 8043   2.713   5.684   3.050
 2382SOL     OW 8044   1.873   4.230   4.474
 2382SOL    HW1 8045   1.906   4.189   4.389
 2382SOL    HW2 8046   1.905   4.176   4.552
 2383SOL     OW 8047   6.279   6.946   0.782
 2383SOL    HW1 8048   6.339   7.022   0.756
 2383SOL    HW2 8049   6.228   6.914   0.702
 2384SOL     OW 8050   5.666   1.136   2.638
 2384SOL    HW1 8051   5.657   1.076   2.717
 2384SOL    HW2 8052   5.719   1.090   2.566
 2385SOL     OW 8053   0.001   0.591   0.207
 2385SOL    HW1 8054   6.958   0.658   0.237
 2385SOL    HW2 8055   0.060   0.632   0.137
 2386SOL     OW 8056   5.426   5.934   4.587
 2386SOL    HW1 8057   5.347   5.922   4.526
 2386SOL    HW2 8058   5.432   5.857   4.649
 2387SOL     OW 8059   2.255   1.531   4.034
 2387SOL    HW1 8060   2.308   1.562   3.955
 2387SOL    HW2 8061   2.317   1.493   4.103
 2388SOL     OW 8062   7.015   2.180   3.481
 2388SOL    HW1 8063   0.001   2.088   3.443
 2388SOL    HW2 8064   6.935   2.183   3.541
 2389SOL     OW 8065   4.361   4.778   3.411
 2389SOL    HW1 8066   4.315   4.803   3.326
 2389SOL    HW2 8067   4.439   4.719   3.390
 2390SOL     OW 8068   3.798   3.192   3.917
 2390SOL    HW1 8069   3.726   3.233   3.861
 2390SOL    HW2 8070   3.758   3.133   3.987
 2391SOL     OW 8071   5.613   4.462   6.297
 2391SOL    HW1 8072   5.598   4.452   6.396
 2391SOL    HW2 8073   5.530   4.434   6.248
 2392SOL     OW 8074   2.957   6.497   6.060
 2392SOL    HW1 8075   2.893   6.420   6.054
 2392SOL    HW2 8076   3.050   6.464   6.044
 2393SOL     OW 8077   5.237   3.622   6.350
 2393SOL    HW1 8078   5.216   3.701   6.291
 2393SOL    HW2 8079   5.179   3.545   6.324
 2394SOL     OW 8080   0.727   3.980   4.927
 2394SOL    HW1 8081   0.784   3.998   5.007
 2394SOL    HW2 8082   0.719   3.881   4.914
 2395SOL     OW 8083   4.954   7.013   6.051
 2395SOL    HW1 8084   4.962   0.088   6.036
 2395SOL    HW2 8085   4.960   6.965   5.963
 2396SOL     OW 8086   4.063   5.007   1.165
 2396SOL    HW1 8087   4.109   5.092   1.189
 2396SOL    HW2 8088   4.049   4.952   1.248
 2397SOL     OW 8089   0.507   4.011   5.300
 2397SOL    HW1 8090   0.544   3.919   5.307
 2397SOL    HW2 8091   0.521   4.046   5.207
 2398SOL     OW 8092   4.610   4.258   6.702
 2398SOL    HW1 8093   4.563   4.170   6.698
 2398SOL    HW2 8094   4.707   4.243   6.723
 2399SOL     OW 8095   5.018   0.700   0.920
 2399SOL    HW1 8096   5.106   0.729   0.883
 2399SOL    HW2 8097   4.960   0.780   0.936
 2400SOL     OW 8098   2.886   3.843   0.800
 2400SOL    HW1 8099   2.933   3.831   0.713
 2400SOL    HW2 8100   2.864   3.754   0.840
 2401SOL     OW 8101   5.428   6.104   0.411
 2401SOL    HW1 8102   5.399   6.051   0.332
 2401SOL    HW2 8103   5.501   6.055   0.460
 2402SOL     OW 8104   0.468   0.360   4.018
 2402SOL    HW1 8105   0.498   0.292   3.951
 2402SOL    HW2 8106   0.396   0.417   3.979
 2403SOL     OW 8107   1.624   2.163   6.571
 2403SOL    HW1 8108   1.613   2.068   6.602
 2403SOL    HW2 8109   1.598   2.170   6.475
 2404SOL     OW 8110   2.839   1.221   1.099
 2404SOL    HW1 8111   2.741   1.233   1.087
 2404SOL    HW2 8112   2.857   1.159   1.176
 2405SOL     OW 8113   3.512   3.559   2.251
 2405SOL    HW1 8114   3.526   3.466   2.284
 2405SOL    HW2 8115   3.543   3.624   2.320
 2406SOL     OW 8116   3.408   0.933   0.948
 2406SOL    HW1 8117   3.401   0.916   0.850
 2406SOL    HW2 8118   3.334   0.994   0.977
 2407SOL     OW 8119   5.861   2.074   3.153
 2407SOL    HW1 8120   5.764   2.097   3.163
 2407SOL    HW2 8121   5.871   1.975   3.150
 2408SOL     OW 8122   4.502   4.457   2.224
 2408SOL    HW1 8123   4.505   4.388   2.152
 2408SOL    HW2 8124   4.593   4.497   2.235
 2409SOL     OW 8125   2.393   4.402   2.169
 2409SOL    HW1 8126   2.417   4.451   2.086
 2409SOL    HW2 8127   2.313   4.344   2.153
 2410SOL     OW 8128   3.654   2.853   4.813
 2410SOL    HW1 8129   3.557   2.873   4.823
 2410SOL    HW2 8130   3.708   2.933   4.838
 2411SOL     OW 8131   5.501   6.092   4.325
 2411SOL    HW1 8132   5.502   6.183   4.368
 2411SOL    HW2 8133   5.470   6.024   4.390
 2412SOL     OW 8134   5.535   4.490   1.501
 2412SOL    HW1 8135   5.507   4.452   1.589
 2412SOL    HW2 8136   5.634   4.481   1.490
 2413SOL     OW 8137   6.495   0.858   1.323
 2413SOL    HW1 8138   6.465   0.780   1.269
 2413SOL    HW2 8139   6.564   0.910   1.271
 2414SOL     OW 8140   4.847   4.302   3.250
 2414SOL    HW1 8141   4.762   4.322   3.299
 2414SOL    HW2 8142   4.870   4.205   3.261
 2415SOL     OW 8143   6.036   1.764   2.826
 2415SOL    HW1 8144   6.089   1.706   2.887
 2415SOL    HW2 8145   5.941   1.733   2.824
 2416SOL     OW 8146   5.232   2.279   5.165
 2416SOL    HW1 8147   5.167   2.335   5.114
 2416SOL    HW2 8148   5.189   2.193   5.192
 2417SOL     OW 8149   3.203   3.722   4.913
 2417SOL    HW1 8150   3.229   3.649   4.977
 2417SOL    HW2 8151   3.222   3.692   4.819
 2418SOL     OW 8152   4.077   3.162   4.358
 2418SOL    HW1 8153   4.132   3.096   4.410
 2418SOL    HW2 8154   4.070   3.131   4.263
 2419SOL     OW 8155   7.016   6.389   3.715
 2419SOL    HW1 8156   6.998   6.472   3.767
 2419SOL    HW2 8157   7.007   6.310   3.776
 2420SOL     OW 8158   3.385   0.229   2.385
 2420SOL    HW1 8159   3.430   0.167   2.321
 2420SOL    HW2 8160   3.313   0.280   2.337
 2421SOL     OW 8161   1.701   2.775   4.811
 2421SOL    HW1 8162   1.784   2.735   4.850
 2421SOL    HW2 8163   1.626   2.709   4.818
 2422SOL     OW 8164   4.819   1.722   0.675
 2422SOL    HW1 8165   4.765   1.803   0.698
 2422SOL    HW2 8166   4.901   1.719   0.732
 2423SOL     OW 8167   1.837   6.610   2.200
 2423SOL    HW1 8168   1.750   6.561   2.193
 2423SOL    HW2 8169   1.905   6.564   2.142
 2424SOL     OW 8170   6.376   0.080   0.138
 2424SOL    HW1 8171   6.281   0.055   0.158
 2424SOL    HW2 8172   6.384   0.108   0.042
 2425SOL     OW 8173   5.708   0.357   3.716
 2425SOL    HW1 8174   5.695   0.455   3.729
 2425SOL    HW2 8175   5.625   0.308   3.743
 2426SOL     OW 8176   1.726   5.301   5.501
 2426SOL    HW1 8177   1.656   5.290   5.431
 2426SOL    HW2 8178   1.701   5.247   5.582
 2427SOL     OW 8179   5.855   5.579   5.691
 2427SOL    HW1 8180   5.877   5.483   5.669
 2427SOL    HW2 8181   5.794   5.615   5.620
 2428SOL     OW 8182   0.728   0.629   1.821
 2428SOL    HW1 8183   0.685   0.715   1.849
 2428SOL    HW2 8184   0.705   0.557   1.886
 2429SOL     OW 8185   5.608   5.404   1.834
 2429SOL    HW1 8186   5.572   5.495   1.817
 2429SOL    HW2 8187   5.572   5.368   1.920
 2430SOL     OW 8188   6.468   1.055   2.057
 2430SOL    HW1 8189   6.490   0.964   2.091
 2430SOL    HW2 8190   6.544   1.117   2.076
 2431SOL     OW 8191   4.442   1.423   2.274
 2431SOL    HW1 8192   4.409   1.342   2.324
 2431SOL    HW2 8193   4.390   1.503   2.303
 2432SOL     OW 8194   4.557   6.353   2.015
 2432SOL    HW1 8195   4.551   6.448   2.045
 2432SOL    HW2 8196   4.648   6.335   1.978
 2433SOL     OW 8197   4.618   0.912   6.999
 2433SOL    HW1 8198   4.681   0.971   6.950
 2433SOL    HW2 8199   4.650   0.900   0.070
 2434SOL     OW 8200   3.752   0.905   5.640
 2434SOL    HW1 8201   3.817   0.946   5.576
 2434SOL    HW2 8202   3.736   0.810   5.615
 2435SOL     OW 8203   5.700   5.592   5.059
 2435SOL    HW1 8204   5.601   5.602   5.071
 2435SOL    HW2 8205   5.728   5.502   5.093
 2436SOL     OW 8206   2.201   5.860   6.807
 2436SOL    HW1 8207   2.235   5.766   6.811
 2436SOL    HW2 8208   2.235   5.904   6.724
 2437SOL     OW 8209   6.296   6.775   6.068
 2437SOL    HW1 8210   6.268   6.691   6.023
 2437SOL    HW2 8211   6.377   6.757   6.124
 2438SOL     OW 8212   2.970   2.223   1.003
 2438SOL    HW1 8213   2.973   2.321   1.022
 2438SOL    HW2 8214   3.063   2.186   1.007
 2439SOL     OW 8215   6.936   4.423   6.007
 2439SOL    HW1 8216   6.902   4.450   6.097
 2439SOL    HW2 8217   6.859   4.416   5.943
 2440SOL     OW 8218   4.975   5.170   5.782
 2440SOL    HW1 8219   5.048   5.101   5.776
 2440SOL    HW2 8220   4.917   5.150   5.861
 2441SOL     OW 8221   6.842   2.165   0.947
 2441SOL    HW1 8222   6.769   2.147   1.012
 2441SOL    HW2 8223   6.903   2.236   0.983
 2442SOL     OW 8224   1.289   3.731   5.273
 2442SOL    HW1 8225   1.357   3.724   5.346
 2442SOL    HW2 8226   1.296   3.820   5.229
 2443SOL     OW 8227   3.028   3.803   6.403
 2443SOL    HW1 8228   3.071   3.889   6.375
 2443SOL    HW2 8229   2.954   3.781   6.341
 2444SOL     OW 8230   2.298   4.399   6.081
 2444SOL    HW1 8231   2.386   4.380   6.123
 2444SOL    HW2 8232   2.245   4.315   6.074
 2445SOL     OW 8233   0.173   1.054   0.454
 2445SOL    HW1 8234   0.138   1.112   0.528
 2445SOL    HW2 8235   0.266   1.024   0.475
 2446SOL     OW 8236   6.041   4.468   4.483
 2446SOL    HW1 8237   5.994   4.389   4.523
 2446SOL    HW2 8238   6.137   4.445   4.469
 2447SOL     OW 8239   1.287   1.530   0.659
 2447SOL    HW1 8240   1.190   1.511   0.673
 2447SOL    HW2 8241   1.312   1.507   0.565
 2448SOL     OW 8242   0.868   6.992   4.739
 2448SOL    HW1 8243   0.869   6.895   4.765
 2448SOL    HW2 8244   0.864   7.000   4.640
 2449SOL     OW 8245   6.961   3.744   6.324
 2449SOL    HW1 8246   6.942   3.672   6.391
 2449SOL    HW2 8247   0.035   3.747   6.305
 2450SOL     OW 8248   2.485   4.506   2.945
 2450SOL    HW1 8249   2.411   4.521   3.011
 2450SOL    HW2 8250   2.471   4.419   2.899
 2451SOL     OW 8251   2.300   5.924   3.736
 2451SOL    HW1 8252   2.285   5.933   3.637
 2451SOL    HW2 8253   2.319   5.828   3.758
 2452SOL     OW 8254   1.359   3.193   3.051
 2452SOL    HW1 8255   1.385   3.239   2.967
 2452SOL    HW2 8256   1.441   3.167   3.102
 2453SOL     OW 8257   6.590   4.959   1.529
 2453SOL    HW1 8258   6.526   4.892   1.565
 2453SOL    HW2 8259   6.550   5.006   1.451
 2454SOL     OW 8260   3.549   0.613   1.486
 2454SOL    HW1 8261   3.634   0.610   1.539
 2454SOL    HW2 8262   3.493   0.690   1.517
 2455SOL     OW 8263   4.948   5.668   0.335
 2455SOL    HW1 8264   4.923   5.764   0.340
 2455SOL    HW2 8265   4.890   5.615   0.396
 2456SOL     OW 8266   5.038   6.045   1.573
 2456SOL    HW1 8267   5.034   6.025   1.671
 2456SOL    HW2 8268   5.039   5.959   1.522
 2457SOL     OW 8269   5.551   6.641   1.454
 2457SOL    HW1 8270   5.520   6.668   1.363
 2457SOL    HW2 8271   5.641   6.598   1.448
 2458SOL     OW 8272   1.162   5.369   2.703
 2458SOL    HW1 8273   1.196   5.459   2.733
 2458SOL    HW2 8274   1.093   5.382   2.632
 2459SOL     OW 8275   2.183   0.596   0.842
 2459SOL    HW1 8276   2.263   0.541   0.820
 2459SOL    HW2 8277   2.177   0.608   0.941
 2460SOL     OW 8278   3.242   5.951   1.395
 2460SOL    HW1 8279   3.277   5.951   1.489
 2460SOL    HW2 8280   3.276   6.032   1.347
 2461SOL     OW 8281   5.382   0.592   1.981
 2461SOL    HW1 8282   5.412   0.624   2.071
 2461SOL    HW2 8283   5.447   0.525   1.946
 2462SOL     OW 8284   2.034   5.690   6.399
 2462SOL    HW1 8285   2.131   5.713   6.401
 2462SOL    HW2 8286   2.022   5.593   6.421
 2463SOL     OW 8287   6.103   1.998   3.491
 2463SOL    HW1 8288   6.128   1.977   3.585
 2463SOL    HW2 8289   6.084   1.913   3.441
 2464SOL     OW 8290   1.013   3.488   1.251
 2464SOL    HW1 8291   1.083   3.418   1.245
 2464SOL    HW2 8292   0.926   3.447   1.278
 2465SOL     OW 8293   6.456   6.131   3.030
 2465SOL    HW1 8294   6.536   6.088   3.072
 2465SOL    HW2 8295   6.375   6.073   3.045
 2466SOL     OW 8296   3.408   1.749   2.579
 2466SOL    HW1 8297   3.435   1.787   2.491
 2466SOL    HW2 8298   3.323   1.791   2.610
 2467SOL     OW 8299   6.576   0.997   5.973
 2467SOL    HW1 8300   6.605   1.038   6.059
 2467SOL    HW2 8301   6.657   0.965   5.923
 2468SOL     OW 8302   0.322   5.155   1.291
 2468SOL    HW1 8303   0.288   5.078   1.345
 2468SOL    HW2 8304   0.378   5.215   1.349
 2469SOL     OW 8305   2.165   2.828   5.541
 2469SOL    HW1 8306   2.262   2.827   5.566
 2469SOL    HW2 8307   2.153   2.877   5.455
 2470SOL     OW 8308   4.889   2.485   0.246
 2470SOL    HW1 8309   4.848   2.423   0.313
 2470SOL    HW2 8310   4.962   2.537   0.290
 2471SOL     OW 8311   0.827   0.031   2.967
 2471SOL    HW1 8312   0.746   0.007   3.021
 2471SOL    HW2 8313   0.844   6.984   2.899
 2472SOL     OW 8314   5.763   1.757   3.517
 2472SOL    HW1 8315   5.731   1.829   3.456
 2472SOL    HW2 8316   5.695   1.739   3.587
 2473SOL     OW 8317   1.055   5.985   4.036
 2473SOL    HW1 8318   1.148   6.021   4.037
 2473SOL    HW2 8319   1.030   5.956   4.129
 2474SOL     OW 8320   7.009   4.464   5.235
 2474SOL    HW1 8321   6.924   4.423   5.269
 2474SOL    HW2 8322   7.017   4.446   5.137
 2475SOL     OW 8323   4.842   2.410   6.979
 2475SOL    HW1 8324   4.857   2.459   0.041
 2475SOL    HW2 8325   4.867   2.314   6.991
 2476SOL     OW 8326   1.369   1.813   4.666
 2476SOL    HW1 8327   1.352   1.741   4.599
 2476SOL    HW2 8328   1.295   1.879   4.664
 2477SOL     OW 8329   4.711   4.570   0.938
 2477SOL    HW1 8330   4.623   4.577   0.986
 2477SOL    HW2 8331   4.784   4.553   1.004
 2478SOL     OW 8332   6.619   0.025   2.899
 2478SOL    HW1 8333   6.690   0.012   2.969
 2478SOL    HW2 8334   6.624   0.118   2.863
 2479SOL     OW 8335   0.044   3.333   0.326
 2479SOL    HW1 8336   0.135   3.360   0.358
 2479SOL    HW2 8337   6.999   3.397   0.360
 2480SOL     OW 8338   0.388   3.430   1.513
 2480SOL    HW1 8339   0.426   3.343   1.544
 2480SOL    HW2 8340   0.406   3.500   1.582
 2481SOL     OW 8341   4.489   4.928   2.128
 2481SOL    HW1 8342   4.575   4.916   2.080
 2481SOL    HW2 8343   4.445   4.839   2.140
 2482SOL     OW 8344   4.887   2.130   4.675
 2482SOL    HW1 8345   4.917   2.042   4.636
 2482SOL    HW2 8346   4.883   2.198   4.603
 2483SOL     OW 8347   0.907   2.171   6.601
 2483SOL    HW1 8348   0.911   2.071   6.607
 2483SOL    HW2 8349   0.814   2.199   6.576
 2484SOL     OW 8350   3.473   2.115   6.506
 2484SOL    HW1 8351   3.379   2.147   6.498
 2484SOL    HW2 8352   3.494   2.054   6.429
 2485SOL     OW 8353   0.176   5.770   2.198
 2485SOL    HW1 8354   0.132   5.682   2.177
 2485SOL    HW2 8355   0.125   5.843   2.152
 2486SOL     OW 8356   1.401   5.319   3.121
 2486SOL    HW1 8357   1.425   5.366   3.205
 2486SOL    HW2 8358   1.314   5.271   3.132
 2487SOL     OW 8359   3.134   1.093   0.965
 2487SOL    HW1 8360   3.069   1.162   0.998
 2487SOL    HW2 8361   3.143   1.101   0.866
 2488SOL     OW 8362   3.034   6.314   0.091
 2488SOL    HW1 8363   2.984   6.400   0.094
 2488SOL    HW2 8364   3.127   6.331   0.058
 2489SOL     OW 8365   0.731   5.525   4.702
 2489SOL    HW1 8366   0.693   5.438   4.670
 2489SOL    HW2 8367   0.676   5.600   4.666
 2490SOL     OW 8368   5.057   3.182   1.386
 2490SOL    HW1 8369   5.060   3.082   1.384
 2490SOL    HW2 8370   5.004   3.213   1.465
 2491SOL     OW 8371   1.697   4.716   2.091
 2491SOL    HW1 8372   1.723   4.665   2.172
 2491SOL    HW2 8373   1.639   4.659   2.033
 2492SOL     OW 8374   4.036   3.062   6.518
 2492SOL    HW1 8375   3.968   3.043   6.589
 2492SOL    HW2 8376   4.025   3.156   6.485
 2493SOL     OW 8377   6.701   2.016   3.366
 2493SOL    HW1 8378   6.801   2.027   3.364
 2493SOL    HW2 8379   6.660   2.076   3.297
 2494SOL     OW 8380   4.952   3.421   1.939
 2494SOL    HW1 8381   4.943   3.322   1.936
 2494SOL    HW2 8382   4.941   3.458   1.847
 2495SOL     OW 8383   6.077   1.144   4.645
 2495SOL    HW1 8384   6.028   1.224   4.679
 2495SOL    HW2 8385   6.172   1.168   4.626
 2496SOL     OW 8386   1.142   6.665   0.388
 2496SOL    HW1 8387   1.236   6.633   0.398
 2496SOL    HW2 8388   1.082   6.610   0.446
 2497SOL     OW 8389   5.669   1.951   6.215
 2497SOL    HW1 8390   5.600   1.988   6.152
 2497SOL    HW2 8391   5.626   1.926   6.301
 2498SOL     OW 8392   1.504   3.518   4.872
 2498SOL    HW1 8393   1.419   3.512   4.819
 2498SOL    HW2 8394   1.483   3.512   4.969
 2499SOL     OW 8395   6.064   7.016   5.360
 2499SOL    HW1 8396   6.080   7.010   5.261
 2499SOL    HW2 8397   6.144   6.982   5.409
 2500SOL     OW 8398   4.440   3.423   6.801
 2500SOL    HW1 8399   4.530   3.457   6.829
 2500SOL    HW2 8400   4.449   3.374   6.714
 2501SOL     OW 8401   6.697   4.566   0.122
 2501SOL    HW1 8402   6.607   4.576   0.081
 2501SOL    HW2 8403   6.764   4.544   0.050
 2502SOL     OW 8404   2.211   6.398   3.390
 2502SOL    HW1 8405   2.293   6.442   3.356
 2502SOL    HW2 8406   2.229   6.356   3.479
 2503SOL     OW 8407   4.643   5.034   4.921
 2503SOL    HW1 8408   4.719   5.077   4.873
 2503SOL    HW2 8409   4.607   5.097   4.990
 2504SOL     OW 8410   1.512   4.181   3.916
 2504SOL    HW1 8411   1.568   4.226   3.985
 2504SOL    HW2 8412   1.415   4.200   3.933
 2505SOL     OW 8413   4.787   5.838   3.841
 2505SOL    HW1 8414   4.689   5.828   3.823
 2505SOL    HW2 8415   4.814   5.775   3.913
 2506SOL     OW 8416   0.151   1.936   6.579
 2506SOL    HW1 8417   0.237   1.978   6.609
 2506SOL    HW2 8418   0.172   1.849   6.532
 2507SOL     OW 8419   7.016   5.977   0.341
 2507SOL    HW1 8420   6.922   6.000   0.368
 2507SOL    HW2 8421   0.044   6.060   0.323
 2508SOL     OW 8422   2.327   2.368   2.778
 2508SOL    HW1 8423   2.302   2.322   2.693
 2508SOL    HW2 8424   2.287   2.318   2.855
 2509SOL     OW 8425   5.029   2.528   3.857
 2509SOL    HW1 8426   4.980   2.538   3.771
 2509SOL    HW2 8427   5.025   2.433   3.888
 2510SOL     OW 8428   3.972   5.967   0.988
 2510SOL    HW1 8429   3.897   5.924   0.939
 2510SOL    HW2 8430   3.958   6.066   0.991
 2511SOL     OW 8431   1.597   0.014   4.598
 2511SOL    HW1 8432   1.510   0.030   4.646
 2511SOL    HW2 8433   1.615   6.939   4.596
 2512SOL     OW 8434   4.754   2.954   4.789
 2512SOL    HW1 8435   4.850   2.950   4.816
 2512SOL    HW2 8436   4.707   3.024   4.842
 2513SOL     OW 8437   0.585   3.958   0.813
 2513SOL    HW1 8438   0.679   3.929   0.797
 2513SOL    HW2 8439   0.584   4.055   0.840
 2514SOL     OW 8440   1.422   1.114   3.651
 2514SOL    HW1 8441   1.430   1.175   3.729
 2514SOL    HW2 8442   1.369   1.033   3.676
 2515SOL     OW 8443   1.082   5.518   0.451
 2515SOL    HW1 8444   0.991   5.478   0.466
 2515SOL    HW2 8445   1.152   5.455   0.485
 2516SOL     OW 8446   5.358   6.199   4.097
 2516SOL    HW1 8447   5.438   6.227   4.043
 2516SOL    HW2 8448   5.388   6.175   4.189
 2517SOL     OW 8449   2.463   4.884   0.183
 2517SOL    HW1 8450   2.377   4.833   0.181
 2517SOL    HW2 8451   2.539   4.820   0.179
 2518SOL     OW 8452   2.503   2.406   6.702
 2518SOL    HW1 8453   2.562   2.486   6.704
 2518SOL    HW2 8454   2.450   2.400   6.786
 2519SOL     OW 8455   5.136   4.015   4.112
 2519SOL    HW1 8456   5.102   3.931   4.155
 2519SOL    HW2 8457   5.224   4.039   4.152
 2520SOL     OW 8458   2.105   4.338   2.245
 2520SOL    HW1 8459   2.121   4.436   2.261
 2520SOL    HW2 8460   2.015   4.313   2.282
 2521SOL     OW 8461   5.513   6.541   5.130
 2521SOL    HW1 8462   5.493   6.491   5.045
 2521SOL    HW2 8463   5.511   6.639   5.113
 2522SOL     OW 8464   1.109   3.028   4.836
 2522SOL    HW1 8465   1.061   3.019   4.924
 2522SOL    HW2 8466   1.172   3.105   4.840
 2523SOL     OW 8467   0.488   3.060   6.759
 2523SOL    HW1 8468   0.457   3.062   6.854
 2523SOL    HW2 8469   0.450   3.138   6.710
 2524SOL     OW 8470   1.021   6.718   5.017
 2524SOL    HW1 8471   1.061   6.712   4.926
 2524SOL    HW2 8472   1.031   6.630   5.064
 2525SOL     OW 8473   1.460   3.906   3.039
 2525SOL    HW1 8474   1.461   3.863   3.129
 2525SOL    HW2 8475   1.391   3.862   2.981
 2526SOL     OW 8476   6.703   1.400   5.403
 2526SOL    HW1 8477   6.605   1.391   5.383
 2526SOL    HW2 8478   6.737   1.314   5.441
 2527SOL     OW 8479   6.560   6.806   4.108
 2527SOL    HW1 8480   6.526   6.842   4.022
 2527SOL    HW2 8481   6.649   6.762   4.093
 2528SOL     OW 8482   6.373   5.796   0.422
 2528SOL    HW1 8483   6.338   5.720   0.367
 2528SOL    HW2 8484   6.468   5.814   0.398
 2529SOL     OW 8485   5.079   3.529   4.604
 2529SOL    HW1 8486   5.068   3.618   4.558
 2529SOL    HW2 8487   5.003   3.515   4.668
 2530SOL     OW 8488   0.139   0.732   4.379
 2530SOL    HW1 8489   0.184   0.761   4.463
 2530SOL    HW2 8490   0.053   0.688   4.400
 2531SOL     OW 8491   4.624   1.231   6.556
 2531SOL    HW1 8492   4.630   1.153   6.493
 2531SOL    HW2 8493   4.537   1.278   6.543
 2532SOL     OW 8494   1.675   4.561   6.066
 2532SOL    HW1 8495   1.703   4.470   6.097
 2532SOL    HW2 8496   1.590   4.587   6.112
 2533SOL     OW 8497   5.871   6.740   5.364
 2533SOL    HW1 8498   5.931   6.723   5.286
 2533SOL    HW2 8499   5.790   6.681   5.358
 2534SOL     OW 8500   0.777   2.042   3.985
 2534SOL    HW1 8501   0.855   2.068   4.042
 2534SOL    HW2 8502   0.785   1.946   3.959
 2535SOL     OW 8503   2.076   1.168   2.756
 2535SOL    HW1 8504   2.099   1.074   2.783
 2535SOL    HW2 8505   2.062   1.171   2.657
 2536SOL     OW 8506   6.606   0.872   3.829
 2536SOL    HW1 8507   6.528   0.929   3.855
 2536SOL    HW2 8508   6.629   0.810   3.904
 2537SOL     OW 8509   4.223   5.254   1.223
 2537SOL    HW1 8510   4.267   5.254   1.133
 2537SOL    HW2 8511   4.166   5.335   1.233
 2538SOL     OW 8512   1.953   4.233   5.074
 2538SOL    HW1 8513   1.880   4.228   5.006
 2538SOL    HW2 8514   1.954   4.325   5.114
 2539SOL     OW 8515   2.624   0.331   5.228
 2539SOL    HW1 8516   2.608   0.421   5.186
 2539SOL    HW2 8517   2.716   0.300   5.205
 2540SOL     OW 8518   5.781   2.097   2.332
 2540SOL    HW1 8519   5.721   2.017   2.329
 2540SOL    HW2 8520   5.851   2.089   2.260
 2541SOL     OW 8521   1.019   6.285   5.640
 2541SOL    HW1 8522   0.930   6.245   5.658
 2541SOL    HW2 8523   1.075   6.280   5.723
 2542SOL     OW 8524   3.860   1.847   4.148
 2542SOL    HW1 8525   3.878   1.751   4.124
 2542SOL    HW2 8526   3.935   1.881   4.204
 2543SOL     OW 8527   0.274   1.945   4.600
 2543SOL    HW1 8528   0.276   2.037   4.639
 2543SOL    HW2 8529   0.313   1.880   4.664
 2544SOL     OW 8530   6.418   5.385   2.153
 2544SOL    HW1 8531   6.470   5.447   2.213
 2544SOL    HW2 8532   6.436   5.407   2.058
 2545SOL     OW 8533   6.631   1.914   1.185
 2545SOL    HW1 8534   6.725   1.943   1.166
 2545SOL    HW2 8535   6.631   1.818   1.212
 2546SOL     OW 8536   6.760   4.092   2.789
 2546SOL    HW1 8537   6.771   4.192   2.796
 2546SOL    HW2 8538   6.679   4.071   2.734
 2547SOL     OW 8539   5.859   3.333   1.329
 2547SOL    HW1 8540   5.818   3.382   1.252
 2547SOL    HW2 8541   5.953   3.308   1.307
 2548SOL     OW 8542   0.352   6.560   5.302
 2548SOL    HW1 8543   0.413   6.638   5.290
 2548SOL    HW2 8544   0.331   6.549   5.399
 2549SOL     OW 8545   2.648   2.795   0.494
 2549SOL    HW1 8546   2.673   2.698   0.490
 2549SOL    HW2 8547   2.650   2.826   0.589
 2550SOL     OW 8548   4.048   6.378   6.372
 2550SOL    HW1 8549   4.010   6.312   6.308
 2550SOL    HW2 8550   4.062   6.466   6.326
 2551SOL     OW 8551   3.041   5.282   0.837
 2551SOL    HW1 8552   2.941   5.283   0.829
 2551SOL    HW2 8553   3.081   5.304   0.748
 2552SOL     OW 8554   2.293   5.952   1.262
 2552SOL    HW1 8555   2.206   5.981   1.302
 2552SOL    HW2 8556   2.364   5.952   1.333
 2553SOL     OW 8557   4.450   1.429   6.902
 2553SOL    HW1 8558   4.503   1.449   6.984
 2553SOL    HW2 8559   4.512   1.418   6.824
 2554SOL     OW 8560   1.569   6.067   2.024
 2554SOL    HW1 8561   1.609   6.018   1.946
 2554SOL    HW2 8562   1.637   6.130   2.062
 2555SOL     OW 8563   5.391   6.713   5.442
 2555SOL    HW1 8564   5.466   6.701   5.508
 2555SOL    HW2 8565   5.349   6.625   5.423
 2556SOL     OW 8566   4.143   0.887   0.492
 2556SOL    HW1 8567   4.099   0.975   0.476
 2556SOL    HW2 8568   4.178   0.851   0.405
 2557SOL     OW 8569   3.415   0.217   6.770
 2557SOL    HW1 8570   3.394   0.128   6.811
 2557SOL    HW2 8571   3.416   0.208   6.670
 2558SOL     OW 8572   5.548   3.689   6.867
 2558SOL    HW1 8573   5.519   3.758   6.932
 2558SOL    HW2 8574   5.530   3.721   6.774
 2559SOL     OW 8575   1.045   4.529   4.990
 2559SOL    HW1 8576   1.010   4.552   4.899
 2559SOL    HW2 8577   1.037   4.431   5.005
 2560SOL     OW 8578   4.913   2.299   3.638
 2560SOL    HW1 8579   4.861   2.215   3.620
 2560SOL    HW2 8580   5.010   2.277   3.641
 2561SOL     OW 8581   3.807   0.552   4.133
 2561SOL    HW1 8582   3.855   0.623   4.185
 2561SOL    HW2 8583   3.784   0.587   4.042
 2562SOL     OW 8584   3.823   6.366   3.668
 2562SOL    HW1 8585   3.724   6.370   3.680
 2562SOL    HW2 8586   3.867   6.426   3.735
 2563SOL     OW 8587   3.355   1.801   0.211
 2563SOL    HW1 8588   3.338   1.788   0.309
 2563SOL    HW2 8589   3.277   1.767   0.159
 2564SOL     OW 8590   2.444   1.992   0.346
 2564SOL    HW1 8591   2.458   1.903   0.390
 2564SOL    HW2 8592   2.382   1.982   0.268
 2565SOL     OW 8593   1.154   2.046   0.528
 2565SOL    HW1 8594   1.203   2.010   0.449
 2565SOL    HW2 8595   1.152   2.146   0.524
 2566SOL     OW 8596   2.354   0.947   0.787
 2566SOL    HW1 8597   2.442   0.992   0.805
 2566SOL    HW2 8598   2.312   0.922   0.874
 2567SOL     OW 8599   1.976   0.497   0.337
 2567SOL    HW1 8600   2.031   0.424   0.377
 2567SOL    HW2 8601   1.894   0.511   0.393
 2568SOL     OW 8602   2.981   6.246   0.922
 2568SOL    HW1 8603   2.990   6.166   0.862
 2568SOL    HW2 8604   3.066   6.298   0.921
 2569SOL     OW 8605   1.672   0.051   1.081
 2569SOL    HW1 8606   1.766   0.017   1.070
 2569SOL    HW2 8607   1.609   7.015   1.033
 2570SOL     OW 8608   6.583   6.887   5.970
 2570SOL    HW1 8609   6.552   6.894   5.875
 2570SOL    HW2 8610   6.602   6.791   5.992
 2571SOL     OW 8611   3.726   2.990   4.122
 2571SOL    HW1 8612   3.696   3.037   4.205
 2571SOL    HW2 8613   3.654   2.929   4.090
 2572SOL     OW 8614   1.986   6.229   1.957
 2572SOL    HW1 8615   2.029   6.147   1.993
 2572SOL    HW2 8616   2.039   6.264   1.880
 2573SOL     OW 8617   0.096   2.071   4.333
 2573SOL    HW1 8618   0.087   2.135   4.409
 2573SOL    HW2 8619   0.193   2.061   4.310
 2574SOL     OW 8620   0.688   3.660   2.217
 2574SOL    HW1 8621   0.648   3.729   2.158
 2574SOL    HW2 8622   0.773   3.626   2.176
 2575SOL     OW 8623   5.936   3.515   0.327
 2575SOL    HW1 8624   6.022   3.473   0.358
 2575SOL    HW2 8625   5.903   3.578   0.396
 2576SOL     OW 8626   2.336   7.021   3.675
 2576SOL    HW1 8627   2.379   7.021   3.765
 2576SOL    HW2 8628   2.324   6.927   3.644
 2577SOL     OW 8629   2.832   6.037   2.044
 2577SOL    HW1 8630   2.810   6.093   2.124
 2577SOL    HW2 8631   2.929   6.015   2.044
 2578SOL     OW 8632   4.856   1.986   3.968
 2578SOL    HW1 8633   4.771   2.038   3.972
 2578SOL    HW2 8634   4.934   2.049   3.971
 2579SOL     OW 8635   0.019   2.144   6.424
 2579SOL    HW1 8636   0.069   2.153   6.338
 2579SOL    HW2 8637   0.078   2.099   6.492
 2580SOL     OW 8638   1.276   2.551   6.150
 2580SOL    HW1 8639   1.261   2.531   6.247
 2580SOL    HW2 8640   1.217   2.625   6.121
 2581SOL     OW 8641   6.810   6.634   4.050
 2581SOL    HW1 8642   6.882   6.700   4.028
 2581SOL    HW2 8643   6.799   6.629   4.150
 2582SOL     OW 8644   0.450   5.447   2.753
 2582SOL    HW1 8645   0.405   5.474   2.838
 2582SOL    HW2 8646   0.457   5.348   2.748
 2583SOL     OW 8647   2.250   0.772   0.587
 2583SOL    HW1 8648   2.283   0.854   0.634
 2583SOL    HW2 8649   2.213   0.708   0.653
 2584SOL     OW 8650   4.950   6.985   1.953
 2584SOL    HW1 8651   4.931   0.058   1.935
 2584SOL    HW2 8652   4.908   6.958   2.040
 2585SOL     OW 8653   3.605   0.890   1.684
 2585SOL    HW1 8654   3.647   0.979   1.698
 2585SOL    HW2 8655   3.510   0.901   1.655
 2586SOL     OW 8656   6.720   2.490   4.221
 2586SOL    HW1 8657   6.803   2.522   4.175
 2586SOL    HW2 8658   6.640   2.526   4.174
 2587SOL     OW 8659   5.732   6.660   3.113
 2587SOL    HW1 8660   5.717   6.748   3.068
 2587SOL    HW2 8661   5.648   6.606   3.112
 2588SOL     OW 8662   5.316   1.384   1.510
 2588SOL    HW1 8663   5.256   1.412   1.585
 2588SOL    HW2 8664   5.395   1.445   1.505
 2589SOL     OW 8665   6.679   6.635   0.408
 2589SOL    HW1 8666   6.642   6.608   0.497
 2589SOL    HW2 8667   6.737   6.716   0.419
 2590SOL     OW 8668   4.312   6.451   2.610
 2590SOL    HW1 8669   4.257   6.531   2.585
 2590SOL    HW2 8670   4.292   6.426   2.705
 2591SOL     OW 8671   5.837   0.509   1.377
 2591SOL    HW1 8672   5.829   0.604   1.406
 2591SOL    HW2 8673   5.924   0.495   1.329
 2592SOL     OW 8674   3.748   5.883   1.657
 2592SOL    HW1 8675   3.679   5.813   1.675
 2592SOL    HW2 8676   3.753   5.901   1.559
 2593SOL     OW 8677   3.015   6.402   2.824
 2593SOL    HW1 8678   3.068   6.466   2.881
 2593SOL    HW2 8679   2.963   6.340   2.883
 2594SOL     OW 8680   1.300   6.443   6.263
 2594SOL    HW1 8681   1.247   6.359   6.280
 2594SOL    HW2 8682   1.248   6.503   6.203
 2595SOL     OW 8683   6.531   3.504   4.063
 2595SOL    HW1 8684   6.561   3.522   4.156
 2595SOL    HW2 8685   6.445   3.454   4.064
 2596SOL     OW 8686   3.885   2.013   2.086
 2596SOL    HW1 8687   3.900   2.059   1.998
 2596SOL    HW2 8688   3.793   2.034   2.119
 2597SOL     OW 8689   2.198   3.203   0.077
 2597SOL    HW1 8690   2.286   3.246   0.055
 2597SOL    HW2 8691   2.141   3.200   7.019
 2598SOL     OW 8692   6.905   3.138   2.793
 2598SOL    HW1 8693   7.004   3.148   2.783
 2598SOL    HW2 8694   6.886   3.076   2.869
 2599SOL     OW 8695   4.350   5.331   0.121
 2599SOL    HW1 8696   4.436   5.339   0.171
 2599SOL    HW2 8697   4.366   5.286   0.033
 2600SOL     OW 8698   6.692   3.492   3.608
 2600SOL    HW1 8699   6.670   3.437   3.527
 2600SOL    HW2 8700   6.781   3.535   3.595
 2601SOL     OW 8701   3.838   3.080   5.930
 2601SOL    HW1 8702   3.757   3.047   5.881
 2601SOL    HW2 8703   3.917   3.025   5.905
 2602SOL     OW 8704   6.480   5.984   4.574
 2602SOL    HW1 8705   6.398   5.960   4.522
 2602SOL    HW2 8706   6.475   6.080   4.602
 2603SOL     OW 8707   3.025   3.013   1.238
 2603SOL    HW1 8708   3.072   3.008   1.150
 2603SOL    HW2 8709   2.946   3.073   1.230
 2604SOL     OW 8710   6.157   0.893   1.356
 2604SOL    HW1 8711   6.138   0.927   1.265
 2604SOL    HW2 8712   6.256   0.888   1.371
 2605SOL     OW 8713   4.415   4.971   4.346
 2605SOL    HW1 8714   4.488   4.939   4.286
 2605SOL    HW2 8715   4.361   4.893   4.378
 2606SOL     OW 8716   6.781   4.477   0.941
 2606SOL    HW1 8717   6.702   4.438   0.987
 2606SOL    HW2 8718   6.851   4.407   0.929
 2607SOL     OW 8719   0.728   1.566   4.427
 2607SOL    HW1 8720   0.774   1.514   4.499
 2607SOL    HW2 8721   0.795   1.597   4.360
 2608SOL     OW 8722   4.799   0.773   1.170
 2608SOL    HW1 8723   4.725   0.807   1.112
 2608SOL    HW2 8724   4.839   0.849   1.222
 2609SOL     OW 8725   0.750   2.240   3.740
 2609SOL    HW1 8726   0.660   2.280   3.725
 2609SOL    HW2 8727   0.752   2.194   3.829
 2610SOL     OW 8728   6.130   5.451   4.755
 2610SOL    HW1 8729   6.045   5.491   4.789
 2610SOL    HW2 8730   6.191   5.524   4.724
 2611SOL     OW 8731   3.924   6.151   1.547
 2611SOL    HW1 8732   3.971   6.209   1.614
 2611SOL    HW2 8733   3.987   6.129   1.472
 2612SOL     OW 8734   6.518   6.561   4.454
 2612SOL    HW1 8735   6.493   6.483   4.397
 2612SOL    HW2 8736   6.550   6.636   4.395
 2613SOL     OW 8737   4.016   0.507   1.827
 2613SOL    HW1 8738   4.028   0.606   1.823
 2613SOL    HW2 8739   4.071   0.464   1.756
 2614SOL     OW 8740   0.174   6.571   6.773
 2614SOL    HW1 8741   0.138   6.508   6.703
 2614SOL    HW2 8742   0.186   6.522   6.859
 2615SOL     OW 8743   5.215   5.044   2.182
 2615SOL    HW1 8744   5.266   5.040   2.268
 2615SOL    HW2 8745   5.279   5.051   2.106
 2616SOL     OW 8746   4.116   3.283   3.006
 2616SOL    HW1 8747   4.058   3.204   3.022
 2616SOL    HW2 8748   4.136   3.291   2.908
 2617SOL     OW 8749   4.176   7.020   1.184
 2617SOL    HW1 8750   4.199   7.018   1.087
 2617SOL    HW2 8751   4.123   0.079   1.204
 2618SOL     OW 8752   1.099   0.680   1.048
 2618SOL    HW1 8753   1.064   0.646   1.135
 2618SOL    HW2 8754   1.060   0.771   1.030
 2619SOL     OW 8755   4.681   2.078   1.576
 2619SOL    HW1 8756   4.685   2.088   1.476
 2619SOL    HW2 8757   4.598   2.028   1.601
 2620SOL     OW 8758   1.559   4.377   4.455
 2620SOL    HW1 8759   1.527   4.347   4.365
 2620SOL    HW2 8760   1.644   4.328   4.478
 2621SOL     OW 8761   1.001   5.095   3.765
 2621SOL    HW1 8762   0.983   5.174   3.824
 2621SOL    HW2 8763   0.917   5.043   3.751
 2622SOL     OW 8764   2.403   3.110   6.863
 2622SOL    HW1 8765   2.380   3.194   6.814
 2622SOL    HW2 8766   2.497   3.116   6.897
 2623SOL     OW 8767   3.058   0.487   5.569
 2623SOL    HW1 8768   3.070   0.581   5.537
 2623SOL    HW2 8769   3.068   0.483   5.668
 2624SOL     OW 8770   6.384   1.873   3.625
 2624SOL    HW1 8771   6.330   1.894   3.706
 2624SOL    HW2 8772   6.437   1.953   3.598
 2625SOL     OW 8773   3.457   1.416   5.295
 2625SOL    HW1 8774   3.553   1.404   5.273
 2625SOL    HW2 8775   3.404   1.338   5.260
 2626SOL     OW 8776   2.398   6.629   2.709
 2626SOL    HW1 8777   2.337   6.662   2.781
 2626SOL    HW2 8778   2.441   6.707   2.664
 2627SOL     OW 8779   6.819   7.007   4.367
 2627SOL    HW1 8780   6.897   7.007   4.431
 2627SOL    HW2 8781   6.741   0.029   4.410
 2628SOL     OW 8782   4.165   5.945   6.342
 2628SOL    HW1 8783   4.208   5.855   6.349
 2628SOL    HW2 8784   4.231   6.015   6.368
 2629SOL     OW 8785   3.745   4.134   1.201
 2629SOL    HW1 8786   3.683   4.055   1.196
 2629SOL    HW2 8787   3.728   4.184   1.285
 2630SOL     OW 8788   2.571   2.461   2.789
 2630SOL    HW1 8789   2.488   2.405   2.792
 2630SOL    HW2 8790   2.608   2.461   2.696
 2631SOL     OW 8791   4.799   6.106   4.303
 2631SOL    HW1 8792   4.804   6.178   4.233
 2631SOL    HW2 8793   4.882   6.107   4.358
 2632SOL     OW 8794   4.000   2.336   0.117
 2632SOL    HW1 8795   4.073   2.333   0.186
 2632SOL    HW2 8796   4.026   2.398   0.043
 2633SOL     OW 8797   5.658   1.954   6.932
 2633SOL    HW1 8798   5.646   2.053   6.946
 2633SOL    HW2 8799   5.753   1.929   6.948
 2634SOL     OW 8800   2.598   4.761   1.003
 2634SOL    HW1 8801   2.619   4.751   1.100
 2634SOL    HW2 8802   2.680   4.793   0.955
 2635SOL     OW 8803   5.293   4.451   4.552
 2635SOL    HW1 8804   5.202   4.414   4.536
 2635SOL    HW2 8805   5.297   4.493   4.643
 2636SOL     OW 8806   5.825   0.239   5.080
 2636SOL    HW1 8807   5.905   0.229   5.021
 2636SOL    HW2 8808   5.786   0.330   5.069
 2637SOL     OW 8809   5.646   6.989   2.687
 2637SOL    HW1 8810   5.739   6.998   2.723
 2637SOL    HW2 8811   5.638   0.018   2.603
 2638SOL     OW 8812   5.368   6.110   0.833
 2638SOL    HW1 8813   5.459   6.076   0.809
 2638SOL    HW2 8814   5.324   6.046   0.896
 2639SOL     OW 8815   6.200   5.995   0.431
 2639SOL    HW1 8816   6.282   5.938   0.431
 2639SOL    HW2 8817   6.207   6.064   0.504
 2640SOL     OW 8818   0.206   6.278   5.433
 2640SOL    HW1 8819   0.260   6.353   5.472
 2640SOL    HW2 8820   0.134   6.316   5.375
 2641SOL     OW 8821   5.394   4.736   0.321
 2641SOL    HW1 8822   5.316   4.712   0.265
 2641SOL    HW2 8823   5.392   4.833   0.343
 2642SOL     OW 8824   5.138   0.088   4.164
 2642SOL    HW1 8825   5.133   0.181   4.128
 2642SOL    HW2 8826   5.072   0.030   4.116
 2643SOL     OW 8827   0.973   0.665   2.324
 2643SOL    HW1 8828   0.959   0.696   2.418
 2643SOL    HW2 8829   0.885   0.661   2.277
 2644SOL     OW 8830   0.128   4.482   6.338
 2644SOL    HW1 8831   0.154   4.402   6.285
 2644SOL    HW2 8832   0.194   4.496   6.412
 2645SOL     OW 8833   5.504   5.789   5.954
 2645SOL    HW1 8834   5.450   5.734   6.018
 2645SOL    HW2 8835   5.448   5.815   5.876
 2646SOL     OW 8836   6.649   6.451   0.177
 2646SOL    HW1 8837   6.732   6.399   0.156
 2646SOL    HW2 8838   6.672   6.529   0.233
 2647SOL     OW 8839   3.601   1.794   1.317
 2647SOL    HW1 8840   3.585   1.883   1.274
 2647SOL    HW2 8841   3.514   1.746   1.327
 2648SOL     OW 8842   4.936   0.685   2.463
 2648SOL    HW1 8843   4.931   0.753   2.536
 2648SOL    HW2 8844   4.845   0.649   2.443
 2649SOL     OW 8845   3.521   1.578   5.879
 2649SOL    HW1 8846   3.579   1.648   5.920
 2649SOL    HW2 8847   3.435   1.572   5.929
 2650SOL     OW 8848   0.087   6.233   2.766
 2650SOL    HW1 8849   0.146   6.162   2.727
 2650SOL    HW2 8850   0.102   6.319   2.719
 2651SOL     OW 8851   6.558   1.473   3.023
 2651SOL    HW1 8852   6.510   1.559   3.044
 2651SOL    HW2 8853   6.527   1.440   2.933
 2652SOL     OW 8854   3.448   3.210   2.866
 2652SOL    HW1 8855   3.496   3.298   2.872
 2652SOL    HW2 8856   3.358   3.224   2.825
 2653SOL     OW 8857   6.666   6.422   6.268
 2653SOL    HW1 8858   6.679   6.509   6.221
 2653SOL    HW2 8859   6.714   6.424   6.356
 2654SOL     OW 8860   5.580   2.976   5.703
 2654SOL    HW1 8861   5.507   2.931   5.652
 2654SOL    HW2 8862   5.593   2.931   5.791
 2655SOL     OW 8863   5.119   6.528   4.587
 2655SOL    HW1 8864   5.026   6.524   4.624
 2655SOL    HW2 8865   5.120   6.588   4.507
 2656SOL     OW 8866   5.268   3.384   3.982
 2656SOL    HW1 8867   5.237   3.475   3.955
 2656SOL    HW2 8868   5.190   3.322   3.986
 2657SOL     OW 8869   1.761   3.936   6.612
 2657SOL    HW1 8870   1.818   3.912   6.534
 2657SOL    HW2 8871   1.704   3.858   6.639
 2658SOL     OW 8872   6.113   3.919   6.022
 2658SOL    HW1 8873   6.056   3.971   5.958
 2658SOL    HW2 8874   6.162   3.983   6.081
 2659SOL     OW 8875   6.866   2.661   3.799
 2659SOL    HW1 8876   6.847   2.756   3.822
 2659SOL    HW2 8877   6.806   2.601   3.852
 2660SOL     OW 8878   6.992   2.471   2.664
 2660SOL    HW1 8879   0.029   2.531   2.612
 2660SOL    HW2 8880   6.988   2.381   2.620
 2661SOL     OW 8881   4.350   6.349   0.996
 2661SOL    HW1 8882   4.267   6.404   0.996
 2661SOL    HW2 8883   4.419   6.392   1.054
 2662SOL     OW 8884   3.826   6.455   4.077
 2662SOL    HW1 8885   3.760   6.382   4.059
 2662SOL    HW2 8886   3.797   6.507   4.157
 2663SOL     OW 8887   1.191   4.419   2.690
 2663SOL    HW1 8888   1.129   4.455   2.620
 2663SOL    HW2 8889   1.225   4.495   2.746
 2664SOL     OW 8890   4.036   3.640   2.203
 2664SOL    HW1 8891   4.039   3.723   2.259
 2664SOL    HW2 8892   4.030   3.560   2.262
 2665SOL     OW 8893   4.059   1.178   4.354
 2665SOL    HW1 8894   3.982   1.241   4.362
 2665SOL    HW2 8895   4.142   1.230   4.331
 2666SOL     OW 8896   5.278   5.061   1.081
 2666SOL    HW1 8897   5.220   4.983   1.106
 2666SOL    HW2 8898   5.259   5.086   0.985
 2667SOL     OW 8899   2.154   5.431   4.081
 2667SOL    HW1 8900   2.218   5.395   4.149
 2667SOL    HW2 8901   2.111   5.355   4.032
 2668SOL     OW 8902   0.115   2.862   5.859
 2668SOL    HW1 8903   0.092   2.958   5.843
 2668SOL    HW2 8904   0.193   2.857   5.923
 2669SOL     OW 8905   4.418   4.820   5.127
 2669SOL    HW1 8906   4.352   4.846   5.056
 2669SOL    HW2 8907   4.461   4.902   5.164
 2670SOL     OW 8908   1.297   1.184   6.789
 2670SOL    HW1 8909   1.334   1.091   6.792
 2670SOL    HW2 8910   1.244   1.196   6.706
 2671SOL     OW 8911   2.292   3.493   6.446
 2671SOL    HW1 8912   2.268   3.485   6.349
 2671SOL    HW2 8913   2.277   3.405   6.491
 2672SOL     OW 8914   1.697   5.471   1.042
 2672SOL    HW1 8915   1.747   5.543   1.089
 2672SOL    HW2 8916   1.759   5.424   0.978
 2673SOL     OW 8917   3.362   2.025   2.820
 2673SOL    HW1 8918   3.399   2.024   2.913
 2673SOL    HW2 8919   3.293   1.953   2.811
 2674SOL     OW 8920   5.856   4.936   5.259
 2674SOL    HW1 8921   5.945   4.891   5.249
 2674SOL    HW2 8922   5.836   4.948   5.356
 2675SOL     OW 8923   0.188   4.506   5.793
 2675SOL    HW1 8924   0.171   4.574   5.722
 2675SOL    HW2 8925   0.273   4.527   5.840
 2676SOL     OW 8926   4.135   1.216   1.517
 2676SOL    HW1 8927   4.235   1.223   1.516
 2676SOL    HW2 8928   4.101   1.200   1.424
 2677SOL     OW 8929   2.309   5.167   1.908
 2677SOL    HW1 8930   2.223   5.117   1.922
 2677SOL    HW2 8931   2.386   5.104   1.919
 2678SOL     OW 8932   0.653   4.763   5.662
 2678SOL    HW1 8933   0.611   4.832   5.721
 2678SOL    HW2 8934   0.627   4.780   5.567
 2679SOL     OW 8935   3.054   4.680   1.095
 2679SOL    HW1 8936   3.058   4.581   1.082
 2679SOL    HW2 8937   3.146   4.715   1.113
 2680SOL     OW 8938   1.556   1.646   1.580
 2680SOL    HW1 8939   1.511   1.669   1.493
 2680SOL    HW2 8940   1.495   1.588   1.634
 2681SOL     OW 8941   1.716   2.521   3.192
 2681SOL    HW1 8942   1.746   2.451   3.127
 2681SOL    HW2 8943   1.736   2.491   3.286
 2682SOL     OW 8944   5.453   2.505   2.450
 2682SOL    HW1 8945   5.483   2.592   2.488
 2682SOL    HW2 8946   5.353   2.504   2.445
 2683SOL     OW 8947   1.253   5.775   1.426
 2683SOL    HW1 8948   1.271   5.837   1.503
 2683SOL    HW2 8949   1.331   5.776   1.364
 2684SOL     OW 8950   2.248   6.424   3.061
 2684SOL    HW1 8951   2.266   6.332   3.026
 2684SOL    HW2 8952   2.294   6.435   3.149
 2685SOL     OW 8953   5.516   5.941   4.867
 2685SOL    HW1 8954   5.598   5.914   4.917
 2685SOL    HW2 8955   5.540   5.959   4.771
 2686SOL     OW 8956   2.244   3.046   4.469
 2686SOL    HW1 8957   2.251   3.127   4.527
 2686SOL    HW2 8958   2.186   3.067   4.390
 2687SOL     OW 8959   4.294   5.430   2.675
 2687SOL    HW1 8960   4.369   5.483   2.716
 2687SOL    HW2 8961   4.209   5.449   2.725
 2688SOL     OW 8962   3.815   4.841   6.139
 2688SOL    HW1 8963   3.833   4.771   6.070
 2688SOL    HW2 8964   3.760   4.914   6.100
 2689SOL     OW 8965   0.174   3.246   4.083
 2689SOL    HW1 8966   0.170   3.161   4.032
 2689SOL    HW2 8967   0.088   3.297   4.071
 2690SOL     OW 8968   3.822   3.907   3.735
 2690SOL    HW1 8969   3.741   3.881   3.788
 2690SOL    HW2 8970   3.904   3.880   3.786
 2691SOL     OW 8971   1.738   6.182   2.423
 2691SOL    HW1 8972   1.737   6.093   2.379
 2691SOL    HW2 8973   1.646   6.221   2.421
 2692SOL     OW 8974   0.214   6.557   3.895
 2692SOL    HW1 8975   0.251   6.477   3.942
 2692SOL    HW2 8976   0.259   6.567   3.807
 2693SOL     OW 8977   1.756   3.936   3.487
 2693SOL    HW1 8978   1.778   3.851   3.536
 2693SOL    HW2 8979   1.679   3.921   3.426
 2694SOL     OW 8980   1.569   6.762   3.775
 2694SOL    HW1 8981   1.669   6.768   3.772
 2694SOL    HW2 8982   1.539   6.691   3.710
 2695SOL     OW 8983   4.447   2.282   2.899
 2695SOL    HW1 8984   4.440   2.290   2.999
 2695SOL    HW2 8985   4.536   2.243   2.875
 2696SOL     OW 8986   4.116   3.958   5.230
 2696SOL    HW1 8987   4.127   3.882   5.294
 2696SOL    HW2 8988   4.169   4.037   5.263
 2697SOL     OW 8989   2.808   1.791   4.373
 2697SOL    HW1 8990   2.785   1.820   4.280
 2697SOL    HW2 8991   2.806   1.692   4.378
 2698SOL     OW 8992   1.591   3.847   0.399
 2698SOL    HW1 8993   1.661   3.893   0.452
 2698SOL    HW2 8994   1.501   3.884   0.423
 2699SOL     OW 8995   3.577   6.420   1.591
 2699SOL    HW1 8996   3.593   6.468   1.677
 2699SOL    HW2 8997   3.613   6.474   1.515
 2700SOL     OW 8998   2.041   3.508   2.672
 2700SOL    HW1 8999   2.110   3.448   2.711
 2700SOL    HW2 9000   1.950   3.478   2.701
 2701SOL     OW 9001   3.806   6.748   6.774
 2701SOL    HW1 9002   3.761   6.773   6.688
 2701SOL    HW2 9003   3.820   6.830   6.829
 2702SOL     OW 9004   6.880   0.903   3.713
 2702SOL    HW1 9005   6.800   0.913   3.772
 2702SOL    HW2 9006   6.916   0.994   3.689
 2703SOL     OW 9007   1.804   1.755   2.720
 2703SOL    HW1 9008   1.861   1.805   2.655
 2703SOL    HW2 9009   1.821   1.789   2.813
 2704SOL     OW 9010   2.439   5.297   1.738
 2704SOL    HW1 9011   2.527   5.279   1.782
 2704SOL    HW2 9012   2.364   5.267   1.797
 2705SOL     OW 9013   6.382   5.399   3.206
 2705SOL    HW1 9014   6.319   5.388   3.283
 2705SOL    HW2 9015   6.433   5.485   3.218
 2706SOL     OW 9016   6.540   1.652   1.884
 2706SOL    HW1 9017   6.637   1.628   1.879
 2706SOL    HW2 9018   6.486   1.583   1.836
 2707SOL     OW 9019   2.080   1.047   6.023
 2707SOL    HW1 9020   1.991   1.062   5.979
 2707SOL    HW2 9021   2.131   1.133   6.024
 2708SOL     OW 9022   1.497   2.843   1.554
 2708SOL    HW1 9023   1.403   2.808   1.557
 2708SOL    HW2 9024   1.495   2.943   1.557
 2709SOL     OW 9025   4.492   6.024   0.592
 2709SOL    HW1 9026   4.490   5.951   0.660
 2709SOL    HW2 9027   4.540   5.993   0.510
 2710SOL     OW 9028   0.214   4.240   3.242
 2710SOL    HW1 9029   0.291   4.191   3.284
 2710SOL    HW2 9030   0.249   4.316   3.187
 2711SOL     OW 9031   1.430   0.621   2.346
 2711SOL    HW1 9032   1.438   0.614   2.446
 2711SOL    HW2 9033   1.408   0.532   2.308
 2712SOL     OW 9034   2.947   4.438   0.333
 2712SOL    HW1 9035   3.005   4.508   0.292
 2712SOL    HW2 9036   2.917   4.373   0.263
 2713SOL     OW 9037   2.153   3.200   5.506
 2713SOL    HW1 9038   2.122   3.106   5.516
 2713SOL    HW2 9039   2.092   3.261   5.556
 2714SOL     OW 9040   4.878   0.241   5.787
 2714SOL    HW1 9041   4.855   0.297   5.867
 2714SOL    HW2 9042   4.962   0.190   5.805
 2715SOL     OW 9043   5.619   1.212   6.927
 2715SOL    HW1 9044   5.708   1.168   6.920
 2715SOL    HW2 9045   5.551   1.158   6.876
 2716SOL     OW 9046   0.511   6.467   2.423
 2716SOL    HW1 9047   0.523   6.368   2.422
 2716SOL    HW2 9048   0.598   6.512   2.402
 2717SOL     OW 9049   1.083   0.201   3.019
 2717SOL    HW1 9050   1.128   0.142   2.952
 2717SOL    HW2 9051   0.987   0.212   2.994
 2718SOL     OW 9052   2.492   4.466   3.473
 2718SOL    HW1 9053   2.469   4.407   3.395
 2718SOL    HW2 9054   2.538   4.548   3.441
 2719SOL     OW 9055   4.182   5.179   1.910
 2719SOL    HW1 9056   4.114   5.112   1.941
 2719SOL    HW2 9057   4.272   5.156   1.947
 2720SOL     OW 9058   2.045   6.600   3.821
 2720SOL    HW1 9059   1.990   6.524   3.787
 2720SOL    HW2 9060   2.047   6.598   3.921
 2721SOL     OW 9061   3.758   0.080   4.080
 2721SOL    HW1 9062   3.816   0.134   4.141
 2721SOL    HW2 9063   3.690   0.140   4.038
 2722SOL     OW 9064   1.392   6.367   2.629
 2722SOL    HW1 9065   1.293   6.358   2.629
 2722SOL    HW2 9066   1.417   6.463   2.639
 2723SOL     OW 9067   1.412   1.652   5.723
 2723SOL    HW1 9068   1.390   1.749   5.711
 2723SOL    HW2 9069   1.330   1.602   5.751
 2724SOL     OW 9070   3.974   5.862   6.011
 2724SOL    HW1 9071   4.066   5.900   6.014
 2724SOL    HW2 9072   3.953   5.818   6.099
 2725SOL     OW 9073   3.774   5.323   4.013
 2725SOL    HW1 9074   3.795   5.261   4.089
 2725SOL    HW2 9075   3.803   5.281   3.927
 2726SOL     OW 9076   4.731   5.469   2.204
 2726SOL    HW1 9077   4.714   5.386   2.257
 2726SOL    HW2 9078   4.742   5.547   2.266
 2727SOL     OW 9079   1.420   5.779   2.492
 2727SOL    HW1 9080   1.437   5.773   2.393
 2727SOL    HW2 9081   1.497   5.738   2.541
 2728SOL     OW 9082   3.069   6.793   5.272
 2728SOL    HW1 9083   3.090   6.867   5.336
 2728SOL    HW2 9084   3.007   6.826   5.201
 2729SOL     OW 9085   5.639   5.124   2.714
 2729SOL    HW1 9086   5.729   5.156   2.744
 2729SOL    HW2 9087   5.604   5.186   2.643
 2730SOL     OW 9088   1.870   6.598   1.154
 2730SOL    HW1 9089   1.945   6.650   1.114
 2730SOL    HW2 9090   1.843   6.639   1.241
 2731SOL     OW 9091   2.940   3.767   1.879
 2731SOL    HW1 9092   2.948   3.778   1.978
 2731SOL    HW2 9093   2.997   3.690   1.849
 2732SOL     OW 9094   5.719   1.601   2.400
 2732SOL    HW1 9095   5.798   1.552   2.436
 2732SOL    HW2 9096   5.648   1.535   2.374
 2733SOL     OW 9097   1.261   6.942   6.075
 2733SOL    HW1 9098   1.357   6.946   6.103
 2733SOL    HW2 9099   1.217   6.864   6.121
 2734SOL     OW 9100   1.988   5.908   4.067
 2734SOL    HW1 9101   1.966   5.821   4.022
 2734SOL    HW2 9102   1.976   5.899   4.165
 2735SOL     OW 9103   1.613   5.198   2.561
 2735SOL    HW1 9104   1.664   5.253   2.627
 2735SOL    HW2 9105   1.678   5.157   2.496
 2736SOL     OW 9106   4.779   0.199   5.122
 2736SOL    HW1 9107   4.846   0.145   5.173
 2736SOL    HW2 9108   4.688   0.186   5.162
 2737SOL     OW 9109   4.546   3.656   6.333
 2737SOL    HW1 9110   4.486   3.694   6.262
 2737SOL    HW2 9111   4.499   3.661   6.421
 2738SOL     OW 9112   5.788   5.082   4.886
 2738SOL    HW1 9113   5.855   5.100   4.814
 2738SOL    HW2 9114   5.802   5.146   4.961
 2739SOL     OW 9115   5.698   3.436   1.114
 2739SOL    HW1 9116   5.766   3.380   1.066
 2739SOL    HW2 9117   5.631   3.470   1.049
 2740SOL     OW 9118   6.041   2.314   3.090
 2740SOL    HW1 9119   5.967   2.382   3.088
 2740SOL    HW2 9120   6.003   2.224   3.109
 2741SOL     OW 9121   0.597   2.641   6.051
 2741SOL    HW1 9122   0.564   2.685   5.968
 2741SOL    HW2 9123   0.655   2.705   6.102
 2742SOL     OW 9124   2.192   0.096   6.486
 2742SOL    HW1 9125   2.248   0.025   6.442
 2742SOL    HW2 9126   2.246   0.180   6.495
 2743SOL     OW 9127   5.547   5.034   1.138
 2743SOL    HW1 9128   5.454   5.066   1.124
 2743SOL    HW2 9129   5.549   4.970   1.214
 2744SOL     OW 9130   4.476   1.515   5.819
 2744SOL    HW1 9131   4.500   1.560   5.733
 2744SOL    HW2 9132   4.418   1.435   5.800
 2745SOL     OW 9133   2.843   6.582   0.946
 2745SOL    HW1 9134   2.894   6.626   0.872
 2745SOL    HW2 9135   2.808   6.494   0.914
 2746SOL     OW 9136   1.881   2.241   6.726
 2746SOL    HW1 9137   1.856   2.184   6.804
 2746SOL    HW2 9138   1.798   2.269   6.677
 2747SOL     OW 9139   4.681   6.417   4.493
 2747SOL    HW1 9140   4.657   6.345   4.428
 2747SOL    HW2 9141   4.743   6.380   4.562
 2748SOL     OW 9142   4.075   1.183   3.054
 2748SOL    HW1 9143   4.164   1.139   3.049
 2748SOL    HW2 9144   4.088   1.282   3.067
 2749SOL     OW 9145   4.581   5.597   3.759
 2749SOL    HW1 9146   4.599   5.654   3.838
 2749SOL    HW2 9147   4.666   5.552   3.730
 2750SOL     OW 9148   0.320   6.102   2.666
 2750SOL    HW1 9149   0.382   6.048   2.723
 2750SOL    HW2 9150   0.277   6.042   2.598
 2751SOL     OW 9151   1.514   0.171   6.458
 2751SOL    HW1 9152   1.483   0.085   6.417
 2751SOL    HW2 9153   1.534   0.237   6.385
 2752SOL     OW 9154   6.149   6.067   6.101
 2752SOL    HW1 9155   6.232   6.038   6.054
 2752SOL    HW2 9156   6.073   6.009   6.073
 2753SOL     OW 9157   2.947   5.589   6.039
 2753SOL    HW1 9158   2.912   5.517   6.099
 2753SOL    HW2 9159   2.952   5.675   6.090
 2754SOL     OW 9160   1.016   0.582   4.637
 2754SOL    HW1 9161   1.003   0.671   4.682
 2754SOL    HW2 9162   0.934   0.527   4.647
 2755SOL     OW 9163   3.231   6.219   1.976
 2755SOL    HW1 9164   3.200   6.313   1.964
 2755SOL    HW2 9165   3.281   6.190   1.894
 2756SOL     OW 9166   0.342   2.857   6.044
 2756SOL    HW1 9167   0.407   2.914   5.994
 2756SOL    HW2 9168   0.331   2.892   6.137
 2757SOL     OW 9169   4.294   3.164   6.658
 2757SOL    HW1 9170   4.238   3.084   6.639
 2757SOL    HW2 9171   4.377   3.161   6.602
 2758SOL     OW 9172   6.457   6.015   2.185
 2758SOL    HW1 9173   6.518   6.019   2.265
 2758SOL    HW2 9174   6.495   5.952   2.118
 2759SOL     OW 9175   3.144   3.592   5.832
 2759SOL    HW1 9176   3.061   3.643   5.852
 2759SOL    HW2 9177   3.132   3.496   5.859
 2760SOL     OW 9178   5.334   6.431   3.335
 2760SOL    HW1 9179   5.278   6.513   3.324
 2760SOL    HW2 9180   5.279   6.357   3.374
 2761SOL     OW 9181   1.848   3.266   3.128
 2761SOL    HW1 9182   1.776   3.319   3.083
 2761SOL    HW2 9183   1.920   3.328   3.158
 2762SOL     OW 9184   2.731   2.517   0.622
 2762SOL    HW1 9185   2.714   2.428   0.664
 2762SOL    HW2 9186   2.829   2.535   0.621
 2763SOL     OW 9187   5.475   2.133   4.750
 2763SOL    HW1 9188   5.445   2.181   4.668
 2763SOL    HW2 9189   5.453   2.187   4.831
 2764SOL     OW 9190   0.912   3.386   2.182
 2764SOL    HW1 9191   0.877   3.293   2.197
 2764SOL    HW2 9192   0.886   3.416   2.090
 2765SOL     OW 9193   6.665   6.705   6.656
 2765SOL    HW1 9194   6.736   6.761   6.613
 2765SOL    HW2 9195   6.653   6.733   6.751
 2766SOL     OW 9196   4.974   1.211   6.484
 2766SOL    HW1 9197   4.957   1.116   6.513
 2766SOL    HW2 9198   4.887   1.254   6.459
 2767SOL     OW 9199   6.791   5.102   6.315
 2767SOL    HW1 9200   6.785   5.062   6.223
 2767SOL    HW2 9201   6.709   5.156   6.334
 2768SOL     OW 9202   4.410   7.017   0.990
 2768SOL    HW1 9203   4.397   0.047   1.073
 2768SOL    HW2 9204   4.502   0.010   0.953
 2769SOL     OW 9205   1.264   4.301   5.769
 2769SOL    HW1 9206   1.232   4.314   5.675
 2769SOL    HW2 9207   1.322   4.378   5.795
 2770SOL     OW 9208   3.107   6.923   0.706
 2770SOL    HW1 9209   3.181   6.882   0.652
 2770SOL    HW2 9210   3.113   6.890   0.800
 2771SOL     OW 9211   4.773   6.736   4.447
 2771SOL    HW1 9212   4.708   6.675   4.401
 2771SOL    HW2 9213   4.861   6.733   4.399
 2772SOL     OW 9214   4.367   0.007   3.079
 2772SOL    HW1 9215   4.462   7.022   3.048
 2772SOL    HW2 9216   4.320   0.074   3.022
 2773SOL     OW 9217   5.820   2.655   4.898
 2773SOL    HW1 9218   5.907   2.626   4.936
 2773SOL    HW2 9219   5.829   2.667   4.799
 2774SOL     OW 9220   5.511   1.885   4.109
 2774SOL    HW1 9221   5.508   1.953   4.182
 2774SOL    HW2 9222   5.418   1.868   4.076
 2775SOL     OW 9223   0.668   3.607   4.103
 2775SOL    HW1 9224   0.594   3.555   4.144
 2775SOL    HW2 9225   0.756   3.565   4.126
 2776SOL     OW 9226   5.111   4.271   5.944
 2776SOL    HW1 9227   5.038   4.216   5.984
 2776SOL    HW2 9228   5.102   4.365   5.975
 2777SOL     OW 9229   3.269   2.001   5.888
 2777SOL    HW1 9230   3.269   1.945   5.805
 2777SOL    HW2 9231   3.266   1.942   5.969
 2778SOL     OW 9232   3.050   6.587   5.762
 2778SOL    HW1 9233   3.088   6.650   5.829
 2778SOL    HW2 9234   3.058   6.627   5.670
 2779SOL     OW 9235   5.642   0.649   1.214
 2779SOL    HW1 9236   5.685   0.572   1.260
 2779SOL    HW2 9237   5.596   0.706   1.281
 2780SOL     OW 9238   6.632   1.552   4.654
 2780SOL    HW1 9239   6.594   1.514   4.739
 2780SOL    HW2 9240   6.670   1.642   4.672
 2781SOL     OW 9241   5.673   1.333   3.188
 2781SOL    HW1 9242   5.574   1.321   3.203
 2781SOL    HW2 9243   5.716   1.243   3.178
 2782SOL     OW 9244   4.724   0.619   6.241
 2782SOL    HW1 9245   4.801   0.659   6.190
 2782SOL    HW2 9246   4.727   0.652   6.336
 2783SOL     OW 9247   5.817   4.408   1.491
 2783SOL    HW1 9248   5.794   4.315   1.518
 2783SOL    HW2 9249   5.913   4.426   1.513
 2784SOL     OW 9250   1.451   1.911   1.144
 2784SOL    HW1 9251   1.494   1.957   1.067
 2784SOL    HW2 9252   1.355   1.939   1.151
 2785SOL     OW 9253   6.196   2.703   1.718
 2785SOL    HW1 9254   6.267   2.637   1.742
 2785SOL    HW2 9255   6.222   2.793   1.753
 2786SOL     OW 9256   6.917   6.334   0.117
 2786SOL    HW1 9257   6.856   6.258   0.141
 2786SOL    HW2 9258   6.946   6.381   0.200
 2787SOL     OW 9259   6.469   5.038   6.523
 2787SOL    HW1 9260   6.505   5.108   6.462
 2787SOL    HW2 9261   6.513   5.047   6.613
 2788SOL     OW 9262   3.129   6.070   5.771
 2788SOL    HW1 9263   3.146   6.110   5.680
 2788SOL    HW2 9264   3.216   6.039   5.810
 2789SOL     OW 9265   1.075   2.152   5.376
 2789SOL    HW1 9266   0.991   2.100   5.362
 2789SOL    HW2 9267   1.056   2.235   5.428
 2790SOL     OW 9268   1.877   5.667   2.024
 2790SOL    HW1 9269   1.910   5.611   2.100
 2790SOL    HW2 9270   1.877   5.612   1.941
 2791SOL     OW 9271   0.172   3.661   3.167
 2791SOL    HW1 9272   0.230   3.743   3.163
 2791SOL    HW2 9273   0.094   3.679   3.226
 2792SOL     OW 9274   3.197   1.645   5.502
 2792SOL    HW1 9275   3.282   1.602   5.472
 2792SOL    HW2 9276   3.124   1.576   5.503
 2793SOL     OW 9277   3.694   4.473   0.700
 2793SOL    HW1 9278   3.632   4.426   0.638
 2793SOL    HW2 9279   3.700   4.570   0.675
 2794SOL     OW 9280   0.870   2.385   0.115
 2794SOL    HW1 9281   0.827   2.407   0.027
 2794SOL    HW2 9282   0.804   2.340   0.174
 2795SOL     OW 9283   1.020   4.991   1.868
 2795SOL    HW1 9284   1.017   4.911   1.808
 2795SOL    HW2 9285   1.111   5.032   1.865
 2796SOL     OW 9286   2.046   6.600   6.501
 2796SOL    HW1 9287   2.079   6.694   6.503
 2796SOL    HW2 9288   1.982   6.588   6.425
 2797SOL     OW 9289   5.370   6.842   3.548
 2797SOL    HW1 9290   5.288   6.787   3.531
 2797SOL    HW2 9291   5.371   6.871   3.643
 2798SOL     OW 9292   5.222   0.466   1.804
 2798SOL    HW1 9293   5.277   0.502   1.728
 2798SOL    HW2 9294   5.268   0.487   1.891
 2799SOL     OW 9295   3.600   6.225   4.993
 2799SOL    HW1 9296   3.533   6.151   5.002
 2799SOL    HW2 9297   3.564   6.296   4.932
 2800SOL     OW 9298   5.689   6.916   6.759
 2800SOL    HW1 9299   5.627   6.941   6.833
 2800SOL    HW2 9300   5.740   6.834   6.784
 2801SOL     OW 9301   0.637   4.554   4.870
 2801SOL    HW1 9302   0.673   4.622   4.934
 2801SOL    HW2 9303   0.638   4.592   4.777
 2802SOL     OW 9304   0.996   5.298   5.669
 2802SOL    HW1 9305   1.060   5.270   5.598
 2802SOL    HW2 9306   1.043   5.358   5.735
 2803SOL     OW 9307   3.734   2.205   6.211
 2803SOL    HW1 9308   3.693   2.164   6.293
 2803SOL    HW2 9309   3.698   2.297   6.198
 2804SOL     OW 9310   0.421   2.654   3.928
 2804SOL    HW1 9311   0.392   2.559   3.942
 2804SOL    HW2 9312   0.400   2.682   3.834
 2805SOL     OW 9313   3.929   3.445   0.976
 2805SOL    HW1 9314   4.004   3.379   0.978
 2805SOL    HW2 9315   3.939   3.508   1.053
 2806SOL     OW 9316   0.728   4.222   6.019
 2806SOL    HW1 9317   0.768   4.300   5.971
 2806SOL    HW2 9318   0.800   4.172   6.067
 2807SOL     OW 9319   4.039   0.167   3.615
 2807SOL    HW1 9320   3.968   0.219   3.567
 2807SOL    HW2 9321   4.002   0.077   3.640
 2808SOL     OW 9322   0.105   5.370   5.998
 2808SOL    HW1 9323   0.131   5.401   5.907
 2808SOL    HW2 9324   0.127   5.441   6.065
 2809SOL     OW 9325   6.855   5.108   1.896
 2809SOL    HW1 9326   6.830   5.204   1.881
 2809SOL    HW2 9327   6.775   5.058   1.930
 2810SOL     OW 9328   2.788   6.079   3.258
 2810SOL    HW1 9329   2.721   6.153   3.259
 2810SOL    HW2 9330   2.796   6.042   3.165
 2811SOL     OW 9331   0.881   0.792   1.564
 2811SOL    HW1 9332   0.817   0.862   1.597
 2811SOL    HW2 9333   0.953   0.778   1.632
 2812SOL     OW 9334   0.426   1.815   0.946
 2812SOL    HW1 9335   0.520   1.812   0.912
 2812SOL    HW2 9336   0.419   1.881   1.021
 2813SOL     OW 9337   0.685   1.802   1.499
 2813SOL    HW1 9338   0.777   1.821   1.465
 2813SOL    HW2 9339   0.687   1.794   1.599
 2814SOL     OW 9340   2.297   4.610   0.174
 2814SOL    HW1 9341   2.222   4.653   0.224
 2814SOL    HW2 9342   2.312   4.518   0.209
 2815SOL     OW 9343   0.542   5.015   5.799
 2815SOL    HW1 9344   0.444   5.029   5.781
 2815SOL    HW2 9345   0.594   5.089   5.756
 2816SOL     OW 9346   0.775   6.292   6.202
 2816SOL    HW1 9347   0.805   6.232   6.277
 2816SOL    HW2 9348   0.680   6.272   6.180
 2817SOL     OW 9349   4.242   0.520   2.028
 2817SOL    HW1 9350   4.217   0.477   1.941
 2817SOL    HW2 9351   4.259   0.449   2.096
 2818SOL     OW 9352   1.491   0.691   0.343
 2818SOL    HW1 9353   1.412   0.729   0.391
 2818SOL    HW2 9354   1.520   0.607   0.389
 2819SOL     OW 9355   0.528   0.732   0.535
 2819SOL    HW1 9356   0.604   0.668   0.524
 2819SOL    HW2 9357   0.448   0.696   0.487
 2820SOL     OW 9358   1.804   2.476   0.827
 2820SOL    HW1 9359   1.817   2.494   0.925
 2820SOL    HW2 9360   1.829   2.558   0.775
 2821SOL     OW 9361   2.636   3.352   6.242
 2821SOL    HW1 9362   2.632   3.451   6.255
 2821SOL    HW2 9363   2.576   3.326   6.165
 2822SOL     OW 9364   4.321   2.793   0.795
 2822SOL    HW1 9365   4.279   2.744   0.871
 2822SOL    HW2 9366   4.263   2.785   0.714
 2823SOL     OW 9367   5.358   2.374   1.503
 2823SOL    HW1 9368   5.395   2.363   1.596
 2823SOL    HW2 9369   5.349   2.472   1.483
 2824SOL     OW 9370   1.188   3.165   4.527
 2824SOL    HW1 9371   1.231   3.174   4.617
 2824SOL    HW2 9372   1.209   3.075   4.489
 2825SOL     OW 9373   5.168   1.695   5.779
 2825SOL    HW1 9374   5.262   1.703   5.811
 2825SOL    HW2 9375   5.107   1.749   5.838
 2826SOL     OW 9376   2.444   2.971   0.142
 2826SOL    HW1 9377   2.359   3.008   0.104
 2826SOL    HW2 9378   2.476   2.896   0.085
 2827SOL     OW 9379   6.013   1.186   6.316
 2827SOL    HW1 9380   5.920   1.153   6.327
 2827SOL    HW2 9381   6.047   1.222   6.403
 2828SOL     OW 9382   1.657   3.337   0.323
 2828SOL    HW1 9383   1.650   3.300   0.231
 2828SOL    HW2 9384   1.665   3.436   0.319
 2829SOL     OW 9385   3.014   3.858   2.721
 2829SOL    HW1 9386   3.013   3.860   2.821
 2829SOL    HW2 9387   3.028   3.951   2.686
 2830SOL     OW 9388   3.239   5.112   5.798
 2830SOL    HW1 9389   3.252   5.101   5.699
 2830SOL    HW2 9390   3.328   5.124   5.842
 2831SOL     OW 9391   5.576   1.723   1.227
 2831SOL    HW1 9392   5.509   1.787   1.265
 2831SOL    HW2 9393   5.527   1.651   1.176
 2832SOL     OW 9394   0.808   4.047   1.923
 2832SOL    HW1 9395   0.749   4.127   1.929
 2832SOL    HW2 9396   0.903   4.076   1.909
 2833SOL     OW 9397   2.290   2.217   2.247
 2833SOL    HW1 9398   2.240   2.303   2.250
 2833SOL    HW2 9399   2.237   2.146   2.294
 2834SOL     OW 9400   3.385   5.728   5.288
 2834SOL    HW1 9401   3.377   5.728   5.388
 2834SOL    HW2 9402   3.308   5.778   5.249
 2835SOL     OW 9403   6.610   0.510   0.776
 2835SOL    HW1 9404   6.521   0.545   0.807
 2835SOL    HW2 9405   6.599   0.467   0.687
 2836SOL     OW 9406   3.720   5.485   2.238
 2836SOL    HW1 9407   3.769   5.548   2.178
 2836SOL    HW2 9408   3.647   5.534   2.285
 2837SOL     OW 9409   5.475   4.373   1.757
 2837SOL    HW1 9410   5.424   4.437   1.814
 2837SOL    HW2 9411   5.456   4.280   1.786
 2838SOL     OW 9412   5.804   4.351   6.658
 2838SOL    HW1 9413   5.783   4.448   6.667
 2838SOL    HW2 9414   5.826   4.331   6.562
 2839SOL     OW 9415   6.011   3.010   4.950
 2839SOL    HW1 9416   5.912   2.999   4.943
 2839SOL    HW2 9417   6.032   3.066   5.030
 2840SOL     OW 9418   6.989   6.212   3.927
 2840SOL    HW1 9419   0.049   6.158   3.937
 2840SOL    HW2 9420   6.969   6.258   4.014
 2841SOL     OW 9421   6.438   3.771   2.451
 2841SOL    HW1 9422   6.452   3.787   2.548
 2841SOL    HW2 9423   6.419   3.857   2.405
 2842SOL     OW 9424   1.178   6.973   3.878
 2842SOL    HW1 9425   1.193   7.022   3.964
 2842SOL    HW2 9426   1.262   6.978   3.822
 2843SOL     OW 9427   1.873   2.808   3.779
 2843SOL    HW1 9428   1.928   2.875   3.830
 2843SOL    HW2 9429   1.910   2.799   3.686
 2844SOL     OW 9430   4.832   4.328   0.438
 2844SOL    HW1 9431   4.927   4.305   0.458
 2844SOL    HW2 9432   4.828   4.394   0.363
 2845SOL     OW 9433   3.153   2.144   3.094
 2845SOL    HW1 9434   3.110   2.055   3.111
 2845SOL    HW2 9435   3.150   2.164   2.997
 2846SOL     OW 9436   6.294   0.303   0.358
 2846SOL    HW1 9437   6.352   0.246   0.300
 2846SOL    HW2 9438   6.271   0.253   0.441
 2847SOL     OW 9439   4.470   4.544   1.538
 2847SOL    HW1 9440   4.512   4.494   1.613
 2847SOL    HW2 9441   4.386   4.498   1.510
 2848SOL     OW 9442   0.362   4.280   5.756
 2848SOL    HW1 9443   0.287   4.340   5.727
 2848SOL    HW2 9444   0.357   4.194   5.705
 2849SOL     OW 9445   4.959   0.334   1.799
 2849SOL    HW1 9446   4.981   0.272   1.724
 2849SOL    HW2 9447   5.031   0.403   1.808
 2850SOL     OW 9448   2.192   0.219   2.252
 2850SOL    HW1 9449   2.159   0.141   2.198
 2850SOL    HW2 9450   2.122   0.291   2.251
 2851SOL     OW 9451   3.804   3.174   1.153
 2851SOL    HW1 9452   3.711   3.136   1.155
 2851SOL    HW2 9453   3.803   3.263   1.108
 2852SOL     OW 9454   6.355   4.885   0.113
 2852SOL    HW1 9455   6.272   4.856   0.160
 2852SOL    HW2 9456   6.334   4.907   0.018
 2853SOL     OW 9457   0.023   4.208   5.839
 2853SOL    HW1 9458   0.111   4.167   5.862
 2853SOL    HW2 9459   0.005   4.284   5.902
 2854SOL     OW 9460   4.080   1.142   5.225
 2854SOL    HW1 9461   4.110   1.132   5.320
 2854SOL    HW2 9462   4.150   1.104   5.164
 2855SOL     OW 9463   2.286   1.911   5.774
 2855SOL    HW1 9464   2.277   1.964   5.689
 2855SOL    HW2 9465   2.196   1.895   5.814
 2856SOL     OW 9466   1.086   5.274   4.017
 2856SOL    HW1 9467   1.098   5.354   4.076
 2856SOL    HW2 9468   1.145   5.200   4.048
 2857SOL     OW 9469   0.163   3.789   0.434
 2857SOL    HW1 9470   0.203   3.745   0.353
 2857SOL    HW2 9471   0.235   3.815   0.497
 2858SOL     OW 9472   4.472   4.859   2.498
 2858SOL    HW1 9473   4.436   4.778   2.544
 2858SOL    HW2 9474   4.418   4.877   2.416
 2859SOL     OW 9475   5.098   4.732   0.837
 2859SOL    HW1 9476   5.176   4.669   0.849
 2859SOL    HW2 9477   5.118   4.795   0.762
 2860SOL     OW 9478   0.601   0.259   2.359
 2860SOL    HW1 9479   0.625   0.348   2.397
 2860SOL    HW2 9480   0.607   0.189   2.430
 2861SOL     OW 9481   4.696   5.604   6.199
 2861SOL    HW1 9482   4.791   5.634   6.194
 2861SOL    HW2 9483   4.691   5.505   6.184
 2862SOL     OW 9484   4.209   2.818   0.009
 2862SOL    HW1 9485   4.205   2.917   7.019
 2862SOL    HW2 9486   4.118   2.784   0.032
 2863SOL     OW 9487   5.769   0.000   5.348
 2863SOL    HW1 9488   5.779   6.995   5.252
 2863SOL    HW2 9489   5.856   7.012   5.396
 2864SOL     OW 9490   3.476   4.479   0.035
 2864SOL    HW1 9491   3.404   4.418   0.003
 2864SOL    HW2 9492   3.551   4.480   6.992
 2865SOL     OW 9493   5.647   5.665   4.269
 2865SOL    HW1 9494   5.594   5.732   4.217
 2865SOL    HW2 9495   5.732   5.708   4.300
 2866SOL     OW 9496   4.514   4.413   0.512
 2866SOL    HW1 9497   4.517   4.399   0.413
 2866SOL    HW2 9498   4.604   4.393   0.552
 2867SOL     OW 9499   5.489   6.536   1.741
 2867SOL    HW1 9500   5.542   6.572   1.818
 2867SOL    HW2 9501   5.532   6.565   1.656
 2868SOL     OW 9502   0.953   0.723   5.795
 2868SOL    HW1 9503   0.948   0.644   5.856
 2868SOL    HW2 9504   0.892   0.709   5.717
 2869SOL     OW 9505   6.248   5.496   5.143
 2869SOL    HW1 9506   6.292   5.561   5.082
 2869SOL    HW2 9507   6.308   5.476   5.220
 2870SOL     OW 9508   6.891   2.403   1.789
 2870SOL    HW1 9509   6.867   2.500   1.790
 2870SOL    HW2 9510   6.938   2.381   1.703
 2871SOL     OW 9511   5.448   1.511   2.385
 2871SOL    HW1 9512   5.460   1.441   2.456
 2871SOL    HW2 9513   5.357   1.550   2.391
 2872SOL     OW 9514   2.862   2.263   2.310
 2872SOL    HW1 9515   2.881   2.265   2.212
 2872SOL    HW2 9516   2.841   2.356   2.342
 2873SOL     OW 9517   0.940   6.885   1.541
 2873SOL    HW1 9518   1.034   6.899   1.510
 2873SOL    HW2 9519   0.878   6.903   1.464
 2874SOL     OW 9520   2.884   0.531   2.445
 2874SOL    HW1 9521   2.856   0.564   2.355
 2874SOL    HW2 9522   2.809   0.478   2.485
 2875SOL     OW 9523   2.641   6.713   3.038
 2875SOL    HW1 9524   2.644   6.753   2.947
 2875SOL    HW2 9525   2.643   6.613   3.031
 2876SOL     OW 9526   1.453   0.163   2.679
 2876SOL    HW1 9527   1.364   0.158   2.725
 2876SOL    HW2 9528   1.526   0.162   2.748
 2877SOL     OW 9529   1.532   2.265   0.059
 2877SOL    HW1 9530   1.568   2.357   0.069
 2877SOL    HW2 9531   1.511   2.247   6.986
 2878SOL     OW 9532   4.116   3.497   3.883
 2878SOL    HW1 9533   4.185   3.448   3.830
 2878SOL    HW2 9534   4.096   3.445   3.966
 2879SOL     OW 9535   4.040   4.228   6.840
 2879SOL    HW1 9536   4.011   4.141   6.800
 2879SOL    HW2 9537   3.965   4.293   6.836
 2880SOL     OW 9538   2.140   0.980   4.012
 2880SOL    HW1 9539   2.104   1.003   3.921
 2880SOL    HW2 9540   2.114   0.887   4.036
 2881SOL     OW 9541   4.768   5.831   6.512
 2881SOL    HW1 9542   4.748   5.863   6.419
 2881SOL    HW2 9543   4.698   5.766   6.541
 2882SOL     OW 9544   4.747   6.267   0.404
 2882SOL    HW1 9545   4.660   6.294   0.363
 2882SOL    HW2 9546   4.813   6.343   0.395
 2883SOL     OW 9547   6.065   6.097   4.034
 2883SOL    HW1 9548   6.031   6.175   3.983
 2883SOL    HW2 9549   6.088   6.023   3.970
 2884SOL     OW 9550   6.932   4.876   3.721
 2884SOL    HW1 9551   6.928   4.843   3.815
 2884SOL    HW2 9552   6.870   4.821   3.664
 2885SOL     OW 9553   1.157   2.718   3.288
 2885SOL    HW1 9554   1.068   2.673   3.297
 2885SOL    HW2 9555   1.152   2.811   3.325
 2886SOL     OW 9556   1.964   4.314   5.764
 2886SOL    HW1 9557   2.001   4.236   5.714
 2886SOL    HW2 9558   2.037   4.358   5.816
 2887SOL     OW 9559   0.060   5.605   3.356
 2887SOL    HW1 9560   7.015   5.623   3.286
 2887SOL    HW2 9561   0.133   5.549   3.318
 2888SOL     OW 9562   6.398   6.780   0.257
 2888SOL    HW1 9563   6.366   6.853   0.318
 2888SOL    HW2 9564   6.475   6.733   0.299
 2889SOL     OW 9565   3.304   6.428   2.312
 2889SOL    HW1 9566   3.345   6.491   2.246
 2889SOL    HW2 9567   3.265   6.481   2.388
 2890SOL     OW 9568   1.864   1.443   1.380
 2890SOL    HW1 9569   1.904   1.491   1.458
 2890SOL    HW2 9570   1.933   1.435   1.308
 2891SOL     OW 9571   0.761   2.143   4.714
 2891SOL    HW1 9572   0.797   2.211   4.649
 2891SOL    HW2 9573   0.815   2.059   4.707
 2892SOL     OW 9574   6.270   4.080   2.864
 2892SOL    HW1 9575   6.239   4.137   2.939
 2892SOL    HW2 9576   6.359   4.040   2.886
 2893SOL     OW 9577   6.586   5.229   4.943
 2893SOL    HW1 9578   6.510   5.188   4.995
 2893SOL    HW2 9579   6.662   5.164   4.939
 2894SOL     OW 9580   1.979   6.128   2.546
 2894SOL    HW1 9581   1.889   6.123   2.504
 2894SOL    HW2 9582   1.993   6.218   2.585
 2895SOL     OW 9583   4.270   6.890   6.472
 2895SOL    HW1 9584   4.339   6.960   6.453
 2895SOL    HW2 9585   4.313   6.800   6.476
 2896SOL     OW 9586   5.290   5.940   5.002
 2896SOL    HW1 9587   5.381   5.921   4.965
 2896SOL    HW2 9588   5.294   6.019   5.063
 2897SOL     OW 9589   4.065   5.161   3.403
 2897SOL    HW1 9590   4.125   5.199   3.473
 2897SOL    HW2 9591   3.971   5.157   3.437
 2898SOL     OW 9592   5.499   3.167   2.781
 2898SOL    HW1 9593   5.410   3.132   2.751
 2898SOL    HW2 9594   5.504   3.163   2.881
 2899SOL     OW 9595   6.934   3.943   0.988
 2899SOL    HW1 9596   6.987   3.936   0.904
 2899SOL    HW2 9597   6.952   4.031   1.032
 2900SOL     OW 9598   2.589   2.927   6.304
 2900SOL    HW1 9599   2.635   2.927   6.215
 2900SOL    HW2 9600   2.658   2.936   6.377
 2901SOL     OW 9601   0.872   4.190   3.747
 2901SOL    HW1 9602   0.875   4.226   3.841
 2901SOL    HW2 9603   0.837   4.096   3.748
 2902SOL     OW 9604   6.741   5.960   3.794
 2902SOL    HW1 9605   6.821   5.900   3.795
 2902SOL    HW2 9606   6.736   6.007   3.706
 2903SOL     OW 9607   4.403   4.948   0.491
 2903SOL    HW1 9608   4.405   4.964   0.392
 2903SOL    HW2 9609   4.494   4.920   0.522
 2904SOL     OW 9610   2.364   4.181   5.323
 2904SOL    HW1 9611   2.446   4.229   5.354
 2904SOL    HW2 9612   2.390   4.106   5.263
 2905SOL     OW 9613   0.725   5.817   1.532
 2905SOL    HW1 9614   0.819   5.804   1.501
 2905SOL    HW2 9615   0.662   5.786   1.461
 2906SOL     OW 9616   6.355   6.426   3.970
 2906SOL    HW1 9617   6.435   6.390   4.018
 2906SOL    HW2 9618   6.280   6.359   3.974
 2907SOL     OW 9619   0.520   0.887   4.047
 2907SOL    HW1 9620   0.603   0.938   4.070
 2907SOL    HW2 9621   0.539   0.826   3.971
 2908SOL     OW 9622   4.209   6.145   2.842
 2908SOL    HW1 9623   4.228   6.240   2.867
 2908SOL    HW2 9624   4.249   6.084   2.909
 2909SOL     OW 9625   0.510   6.233   2.179
 2909SOL    HW1 9626   0.462   6.183   2.107
 2909SOL    HW2 9627   0.490   6.191   2.268
 2910SOL     OW 9628   6.530   0.892   4.085
 2910SOL    HW1 9629   6.520   0.990   4.102
 2910SOL    HW2 9630   6.603   0.855   4.144
 2911SOL     OW 9631   6.880   4.226   5.148
 2911SOL    HW1 9632   6.781   4.232   5.153
 2911SOL    HW2 9633   6.908   4.200   5.056
 2912SOL     OW 9634   0.417   0.532   1.336
 2912SOL    HW1 9635   0.439   0.453   1.279
 2912SOL    HW2 9636   0.434   0.616   1.284
 2913SOL     OW 9637   2.971   6.949   1.671
 2913SOL    HW1 9638   2.897   6.932   1.606
 2913SOL    HW2 9639   2.935   7.000   1.749
 2914SOL     OW 9640   4.333   5.443   0.462
 2914SOL    HW1 9641   4.383   5.510   0.407
 2914SOL    HW2 9642   4.396   5.373   0.495
 2915SOL     OW 9643   2.442   0.333   2.435
 2915SOL    HW1 9644   2.383   0.399   2.480
 2915SOL    HW2 9645   2.452   0.357   2.339
 2916SOL     OW 9646   1.813   6.360   0.701
 2916SOL    HW1 9647   1.786   6.353   0.797
 2916SOL    HW2 9648   1.910   6.339   0.691
 2917SOL     OW 9649   2.514   6.001   4.288
 2917SOL    HW1 9650   2.553   6.087   4.255
 2917SOL    HW2 9651   2.428   6.019   4.335
 2918SOL     OW 9652   5.098   2.847   1.611
 2918SOL    HW1 9653   5.107   2.900   1.695
 2918SOL    HW2 9654   5.190   2.827   1.575
 2919SOL     OW 9655   1.019   5.562   4.649
 2919SOL    HW1 9656   1.000   5.574   4.747
 2919SOL    HW2 9657   0.946   5.506   4.608
 2920SOL     OW 9658   1.240   2.952   2.500
 2920SOL    HW1 9659   1.238   2.854   2.482
 2920SOL    HW2 9660   1.224   2.969   2.597
 2921SOL     OW 9661   1.153   0.082   4.130
 2921SOL    HW1 9662   1.159   0.163   4.189
 2921SOL    HW2 9663   1.186   0.002   4.181
 2922SOL     OW 9664   3.933   6.453   3.416
 2922SOL    HW1 9665   3.851   6.463   3.360
 2922SOL    HW2 9666   3.918   6.386   3.488
 2923SOL     OW 9667   6.775   6.248   4.999
 2923SOL    HW1 9668   6.824   6.163   5.020
 2923SOL    HW2 9669   6.698   6.259   5.062
 2924SOL     OW 9670   5.827   2.024   5.026
 2924SOL    HW1 9671   5.823   2.028   4.926
 2924SOL    HW2 9672   5.737   2.046   5.063
 2925SOL     OW 9673   5.007   6.658   6.295
 2925SOL    HW1 9674   4.986   6.625   6.387
 2925SOL    HW2 9675   5.083   6.723   6.299
 2926SOL     OW 9676   6.889   2.607   3.492
 2926SOL    HW1 9677   6.841   2.527   3.456
 2926SOL    HW2 9678   6.881   2.609   3.591
 2927SOL     OW 9679   1.329   2.164   2.055
 2927SOL    HW1 9680   1.230   2.172   2.045
 2927SOL    HW2 9681   1.351   2.078   2.103
 2928SOL     OW 9682   6.866   2.654   6.915
 2928SOL    HW1 9683   6.879   2.753   6.924
 2928SOL    HW2 9684   6.856   2.630   6.819
 2929SOL     OW 9685   2.646   2.353   4.570
 2929SOL    HW1 9686   2.615   2.446   4.590
 2929SOL    HW2 9687   2.568   2.290   4.570
 2930SOL     OW 9688   7.013   4.435   4.926
 2930SOL    HW1 9689   0.009   4.533   4.927
 2930SOL    HW2 9690   6.988   4.408   4.833
 2931SOL     OW 9691   5.320   4.129   5.575
 2931SOL    HW1 9692   5.253   4.092   5.640
 2931SOL    HW2 9693   5.359   4.053   5.522
 2932SOL     OW 9694   6.782   5.446   0.757
 2932SOL    HW1 9695   6.845   5.378   0.795
 2932SOL    HW2 9696   6.688   5.416   0.772
 2933SOL     OW 9697   1.287   0.485   0.440
 2933SOL    HW1 9698   1.340   0.540   0.505
 2933SOL    HW2 9699   1.240   0.546   0.376
 2934SOL     OW 9700   4.132   4.469   0.234
 2934SOL    HW1 9701   4.100   4.528   0.160
 2934SOL    HW2 9702   4.136   4.521   0.319
 2935SOL     OW 9703   6.782   2.042   6.426
 2935SOL    HW1 9704   6.713   2.114   6.433
 2935SOL    HW2 9705   6.872   2.082   6.415
 2936SOL     OW 9706   4.434   6.426   0.744
 2936SOL    HW1 9707   4.423   6.399   0.840
 2936SOL    HW2 9708   4.513   6.378   0.705
 2937SOL     OW 9709   4.739   4.850   2.432
 2937SOL    HW1 9710   4.640   4.854   2.448
 2937SOL    HW2 9711   4.766   4.927   2.374
 2938SOL     OW 9712   6.705   5.372   6.671
 2938SOL    HW1 9713   6.795   5.389   6.631
 2938SOL    HW2 9714   6.713   5.367   6.771
 2939SOL     OW 9715   0.701   5.860   1.818
 2939SOL    HW1 9716   0.734   5.766   1.813
 2939SOL    HW2 9717   0.696   5.899   1.726
 2940SOL     OW 9718   4.392   6.600   3.426
 2940SOL    HW1 9719   4.407   6.674   3.492
 2940SOL    HW2 9720   4.300   6.608   3.388
 2941SOL     OW 9721   1.797   4.084   3.718
 2941SOL    HW1 9722   1.711   4.070   3.767
 2941SOL    HW2 9723   1.789   4.048   3.625
 2942SOL     OW 9724   3.344   1.702   1.301
 2942SOL    HW1 9725   3.316   1.725   1.208
 2942SOL    HW2 9726   3.279   1.637   1.340
 2943SOL     OW 9727   5.969   3.778   3.208
 2943SOL    HW1 9728   6.066   3.782   3.185
 2943SOL    HW2 9729   5.915   3.813   3.131
 2944SOL     OW 9730   2.034   5.907   2.703
 2944SOL    HW1 9731   2.071   5.965   2.775
 2944SOL    HW2 9732   1.960   5.955   2.656
 2945SOL     OW 9733   5.068   4.353   1.462
 2945SOL    HW1 9734   4.998   4.306   1.408
 2945SOL    HW2 9735   5.124   4.285   1.510
 2946SOL     OW 9736   3.848   3.697   5.492
 2946SOL    HW1 9737   3.866   3.626   5.561
 2946SOL    HW2 9738   3.760   3.679   5.448
 2947SOL     OW 9739   6.347   6.698   0.651
 2947SOL    HW1 9740   6.419   6.629   0.644
 2947SOL    HW2 9741   6.384   6.780   0.694
 2948SOL     OW 9742   6.714   3.882   1.721
 2948SOL    HW1 9743   6.659   3.819   1.775
 2948SOL    HW2 9744   6.770   3.830   1.656
 2949SOL     OW 9745   1.091   0.300   0.457
 2949SOL    HW1 9746   1.146   0.384   0.452
 2949SOL    HW2 9747   1.000   0.322   0.494
 2950SOL     OW 9748   6.290   4.607   2.953
 2950SOL    HW1 9749   6.259   4.631   2.861
 2950SOL    HW2 9750   6.211   4.587   3.011
 2951SOL     OW 9751   6.681   1.249   2.143
 2951SOL    HW1 9752   6.739   1.172   2.170
 2951SOL    HW2 9753   6.638   1.288   2.224
 2952SOL     OW 9754   6.050   2.156   3.897
 2952SOL    HW1 9755   6.070   2.172   3.993
 2952SOL    HW2 9756   5.957   2.186   3.877
 2953SOL     OW 9757   0.850   5.350   4.459
 2953SOL    HW1 9758   0.871   5.438   4.417
 2953SOL    HW2 9759   0.855   5.277   4.390
 2954SOL     OW 9760   6.851   4.375   6.441
 2954SOL    HW1 9761   6.815   4.429   6.364
 2954SOL    HW2 9762   6.931   4.324   6.411
 2955SOL     OW 9763   1.818   4.262   6.139
 2955SOL    HW1 9764   1.752   4.198   6.100
 2955SOL    HW2 9765   1.895   4.212   6.178
 2956SOL     OW 9766   5.888   4.878   3.126
 2956SOL    HW1 9767   5.906   4.782   3.149
 2956SOL    HW2 9768   5.974   4.922   3.099
 2957SOL     OW 9769   2.369   5.352   1.080
 2957SOL    HW1 9770   2.291   5.407   1.108
 2957SOL    HW2 9771   2.425   5.331   1.161
 2958SOL     OW 9772   1.636   5.714   2.237
 2958SOL    HW1 9773   1.615   5.626   2.280
 2958SOL    HW2 9774   1.711   5.702   2.172
 2959SOL     OW 9775   7.001   3.725   2.745
 2959SOL    HW1 9776   7.004   3.642   2.689
 2959SOL    HW2 9777   0.069   3.763   2.754
 2960SOL     OW 9778   5.355   0.353   0.467
 2960SOL    HW1 9779   5.282   0.313   0.522
 2960SOL    HW2 9780   5.400   0.280   0.415
 2961SOL     OW 9781   5.399   4.099   1.890
 2961SOL    HW1 9782   5.375   4.007   1.859
 2961SOL    HW2 9783   5.401   4.102   1.990
 2962SOL     OW 9784   6.850   0.232   3.026
 2962SOL    HW1 9785   6.896   0.290   3.093
 2962SOL    HW2 9786   6.779   0.285   2.979
 2963SOL     OW 9787   2.179   1.078   5.207
 2963SOL    HW1 9788   2.166   1.012   5.133
 2963SOL    HW2 9789   2.133   1.046   5.290
 2964SOL     OW 9790   1.718   1.753   0.179
 2964SOL    HW1 9791   1.758   1.827   0.232
 2964SOL    HW2 9792   1.680   1.684   0.241
 2965SOL     OW 9793   0.503   6.769   5.224
 2965SOL    HW1 9794   0.465   6.851   5.181
 2965SOL    HW2 9795   0.583   6.794   5.279
 2966SOL     OW 9796   3.316   6.256   2.502
 2966SOL    HW1 9797   3.290   6.305   2.419
 2966SOL    HW2 9798   3.237   6.206   2.537
 2967SOL     OW 9799   5.656   0.298   5.394
 2967SOL    HW1 9800   5.745   0.343   5.408
 2967SOL    HW2 9801   5.671   0.200   5.379
 2968SOL     OW 9802   1.796   3.473   1.041
 2968SOL    HW1 9803   1.789   3.572   1.058
 2968SOL    HW2 9804   1.803   3.425   1.129
 2969SOL     OW 9805   5.195   3.327   4.451
 2969SOL    HW1 9806   5.172   3.420   4.481
 2969SOL    HW2 9807   5.284   3.328   4.405
 2970SOL     OW 9808   2.221   1.780   4.145
 2970SOL    HW1 9809   2.237   1.685   4.119
 2970SOL    HW2 9810   2.177   1.829   4.070
 2971SOL     OW 9811   5.410   2.798   6.231
 2971SOL    HW1 9812   5.359   2.879   6.201
 2971SOL    HW2 9813   5.352   2.744   6.293
 2972SOL     OW 9814   5.874   5.735   6.892
 2972SOL    HW1 9815   5.950   5.776   6.841
 2972SOL    HW2 9816   5.789   5.750   6.842
 2973SOL     OW 9817   4.513   1.292   2.919
 2973SOL    HW1 9818   4.527   1.386   2.889
 2973SOL    HW2 9819   4.593   1.237   2.896
 2974SOL     OW 9820   5.193   6.373   2.508
 2974SOL    HW1 9821   5.160   6.295   2.456
 2974SOL    HW2 9822   5.117   6.436   2.524
 2975SOL     OW 9823   4.656   4.296   3.640
 2975SOL    HW1 9824   4.682   4.321   3.733
 2975SOL    HW2 9825   4.680   4.201   3.623
 2976SOL     OW 9826   4.165   2.000   2.026
 2976SOL    HW1 9827   4.230   2.075   2.019
 2976SOL    HW2 9828   4.075   2.036   2.052
 2977SOL     OW 9829   1.297   1.042   1.672
 2977SOL    HW1 9830   1.359   1.096   1.615
 2977SOL    HW2 9831   1.345   0.961   1.707
 2978SOL     OW 9832   4.754   5.324   6.693
 2978SOL    HW1 9833   4.693   5.395   6.731
 2978SOL    HW2 9834   4.738   5.316   6.595
 2979SOL     OW 9835   3.492   0.522   4.301
 2979SOL    HW1 9836   3.490   0.589   4.375
 2979SOL    HW2 9837   3.569   0.460   4.313
 2980SOL     OW 9838   3.894   3.565   5.068
 2980SOL    HW1 9839   3.849   3.528   4.987
 2980SOL    HW2 9840   3.847   3.649   5.096
 2981SOL     OW 9841   1.952   1.483   1.616
 2981SOL    HW1 9842   1.910   1.571   1.638
 2981SOL    HW2 9843   2.040   1.475   1.664
 2982SOL     OW 9844   1.183   0.324   1.863
 2982SOL    HW1 9845   1.188   0.266   1.781
 2982SOL    HW2 9846   1.202   0.419   1.838
 2983SOL     OW 9847   6.350   3.272   5.623
 2983SOL    HW1 9848   6.353   3.370   5.605
 2983SOL    HW2 9849   6.301   3.256   5.709
 2984SOL     OW 9850   0.786   4.886   1.215
 2984SOL    HW1 9851   0.691   4.908   1.194
 2984SOL    HW2 9852   0.792   4.849   1.308
 2985SOL     OW 9853   0.536   6.988   5.422
 2985SOL    HW1 9854   0.468   0.025   5.464
 2985SOL    HW2 9855   0.628   7.017   5.448
 2986SOL     OW 9856   3.809   3.361   2.295
 2986SOL    HW1 9857   3.795   3.420   2.215
 2986SOL    HW2 9858   3.857   3.412   2.366
 2987SOL     OW 9859   2.087   6.979   5.101
 2987SOL    HW1 9860   1.990   7.004   5.100
 2987SOL    HW2 9861   2.111   6.937   5.014
 2988SOL     OW 9862   0.362   1.538   6.296
 2988SOL    HW1 9863   0.461   1.537   6.287
 2988SOL    HW2 9864   0.337   1.533   6.393
 2989SOL     OW 9865   5.045   3.794   4.250
 2989SOL    HW1 9866   4.975   3.723   4.246
 2989SOL    HW2 9867   5.133   3.752   4.271
 2990SOL     OW 9868   5.453   1.694   4.349
 2990SOL    HW1 9869   5.502   1.776   4.319
 2990SOL    HW2 9870   5.510   1.642   4.413
 2991SOL     OW 9871   0.495   3.998   1.580
 2991SOL    HW1 9872   0.463   4.049   1.500
 2991SOL    HW2 9873   0.591   4.018   1.596
 2992SOL     OW 9874   0.313   3.170   5.651
 2992SOL    HW1 9875   0.386   3.228   5.687
 2992SOL    HW2 9876   0.352   3.106   5.584
 2993SOL     OW 9877   1.695   4.075   0.589
 2993SOL    HW1 9878   1.653   4.163   0.610
 2993SOL    HW2 9879   1.763   4.087   0.516
 2994SOL     OW 9880   4.215   6.274   6.095
 2994SOL    HW1 9881   4.275   6.194   6.091
 2994SOL    HW2 9882   4.206   6.313   6.003
 2995SOL     OW 9883   5.232   0.779   0.752
 2995SOL    HW1 9884   5.327   0.764   0.777
 2995SOL    HW2 9885   5.199   0.865   0.791
 2996SOL     OW 9886   6.559   0.472   4.327
 2996SOL    HW1 9887   6.568   0.572   4.332
 2996SOL    HW2 9888   6.650   0.431   4.322
 2997SOL     OW 9889   5.348   6.933   4.159
 2997SOL    HW1 9890   5.327   6.860   4.224
 2997SOL    HW2 9891   5.280   7.006   4.168
 2998SOL     OW 9892   2.858   1.367   3.532
 2998SOL    HW1 9893   2.863   1.269   3.553
 2998SOL    HW2 9894   2.830   1.417   3.615
 2999SOL     OW 9895   2.935   4.293   0.779
 2999SOL    HW1 9896   2.888   4.210   0.747
 2999SOL    HW2 9897   3.005   4.319   0.713
 3000SOL     OW 9898   3.008   4.089   5.419
 3000SOL    HW1 9899   3.072   4.133   5.482
 3000SOL    HW2 9900   2.945   4.158   5.383
 3001SOL     OW 9901   5.865   0.425   5.515
 3001SOL    HW1 9902   5.828   0.438   5.606
 3001SOL    HW2 9903   5.950   0.374   5.520
 3002SOL     OW 9904   1.573   2.088   1.715
 3002SOL    HW1 9905   1.549   2.168   1.770
 3002SOL    HW2 9906   1.526   2.092   1.627
 3003SOL     OW 9907   1.674   6.543   0.537
 3003SOL    HW1 9908   1.732   6.543   0.455
 3003SOL    HW2 9909   1.717   6.489   0.608
 3004SOL     OW 9910   2.665   6.303   3.801
 3004SOL    HW1 9911   2.581   6.250   3.811
 3004SOL    HW2 9912   2.744   6.243   3.815
 3005SOL     OW 9913   0.968   2.392   6.456
 3005SOL    HW1 9914   0.954   2.300   6.492
 3005SOL    HW2 9915   0.883   2.445   6.465
 3006SOL     OW 9916   5.232   1.468   5.562
 3006SOL    HW1 9917   5.229   1.368   5.560
 3006SOL    HW2 9918   5.298   1.498   5.631
 3007SOL     OW 9919   4.977   5.692   0.049
 3007SOL    HW1 9920   4.980   5.657   0.143
 3007SOL    HW2 9921   4.989   5.616   7.009
 3008SOL     OW 9922   4.940   3.619   5.668
 3008SOL    HW1 9923   4.948   3.525   5.700
 3008SOL    HW2 9924   4.956   3.682   5.744
 3009SOL     OW 9925   0.329   3.372   2.369
 3009SOL    HW1 9926   0.292   3.334   2.454
 3009SOL    HW2 9927   0.429   3.359   2.367
 3010SOL     OW 9928   3.652   5.784   0.475
 3010SOL    HW1 9929   3.696   5.750   0.558
 3010SOL    HW2 9930   3.698   5.868   0.445
 3011SOL     OW 9931   6.642   0.025   1.045
 3011SOL    HW1 9932   6.550   7.015   1.065
 3011SOL    HW2 9933   6.710   6.986   1.084
 3012SOL     OW 9934   2.347   2.089   5.551
 3012SOL    HW1 9935   2.386   2.181   5.547
 3012SOL    HW2 9936   2.256   2.089   5.509
 3013SOL     OW 9937   1.101   4.341   5.251
 3013SOL    HW1 9938   1.033   4.306   5.186
 3013SOL    HW2 9939   1.186   4.361   5.202
 3014SOL     OW 9940   5.520   6.496   6.248
 3014SOL    HW1 9941   5.609   6.481   6.291
 3014SOL    HW2 9942   5.518   6.451   6.159
 3015SOL     OW 9943   1.141   0.588   6.981
 3015SOL    HW1 9944   1.136   0.491   6.960
 3015SOL    HW2 9945   1.128   0.642   6.898
 3016SOL     OW 9946   1.833   6.105   4.409
 3016SOL    HW1 9947   1.861   6.157   4.328
 3016SOL    HW2 9948   1.889   6.022   4.415
 3017SOL     OW 9949   0.833   5.135   0.834
 3017SOL    HW1 9950   0.843   5.221   0.784
 3017SOL    HW2 9951   0.809   5.061   0.770
 3018SOL     OW 9952   3.531   0.085   0.870
 3018SOL    HW1 9953   3.515   0.048   0.961
 3018SOL    HW2 9954   3.542   0.009   0.805
 3019SOL     OW 9955   2.228   1.271   6.013
 3019SOL    HW1 9956   2.223   1.353   6.071
 3019SOL    HW2 9957   2.307   1.216   6.040
 3020SOL     OW 9958   6.586   4.048   6.731
 3020SOL    HW1 9959   6.620   3.962   6.694
 3020SOL    HW2 9960   6.637   4.124   6.691
 3021SOL     OW 9961   4.455   0.048   4.702
 3021SOL    HW1 9962   4.529   0.002   4.751
 3021SOL    HW2 9963   4.490   0.133   4.663
 3022SOL     OW 9964   3.703   5.878   3.902
 3022SOL    HW1 9965   3.784   5.936   3.910
 3022SOL    HW2 9966   3.731   5.784   3.886
 3023SOL     OW 9967   5.321   5.895   3.816
 3023SOL    HW1 9968   5.256   5.833   3.774
 3023SOL    HW2 9969   5.335   5.869   3.912
 3024SOL     OW 9970   0.056   6.677   0.306
 3024SOL    HW1 9971   0.010   6.766   0.298
 3024SOL    HW2 9972   0.145   6.682   0.260
 3025SOL     OW 9973   3.571   5.142   0.074
 3025SOL    HW1 9974   3.670   5.156   0.062
 3025SOL    HW2 9975   3.526   5.230   0.085
 3026SOL     OW 9976   7.023   0.810   1.702
 3026SOL    HW1 9977   0.054   0.776   1.626
 3026SOL    HW2 9978   0.043   0.785   1.788
 3027SOL     OW 9979   4.706   1.127   0.865
 3027SOL    HW1 9980   4.635   1.069   0.823
 3027SOL    HW2 9981   4.664   1.210   0.902
 3028SOL     OW 9982   2.917   3.285   5.660
 3028SOL    HW1 9983   2.821   3.292   5.687
 3028SOL    HW2 9984   2.955   3.376   5.647
 3029SOL     OW 9985   0.352   3.008   4.110
 3029SOL    HW1 9986   0.281   2.999   4.180
 3029SOL    HW2 9987   0.384   3.103   4.107
 3030SOL     OW 9988   2.325   3.291   0.425
 3030SOL    HW1 9989   2.389   3.349   0.375
 3030SOL    HW2 9990   2.232   3.308   0.391
 3031SOL     OW 9991   1.281   6.313   0.588
 3031SOL    HW1 9992   1.219   6.378   0.632
 3031SOL    HW2 9993   1.338   6.361   0.521
 3032SOL     OW 9994   2.449   0.438   2.753
 3032SOL    HW1 9995   2.531   0.389   2.722
 3032SOL    HW2 9996   2.388   0.374   2.801
 3033SOL     OW 9997   6.877   2.058   4.662
 3033SOL    HW1 9998   6.964   2.064   4.613
 3033SOL    HW2 9999   6.806   2.106   4.610
 3034SOL     OW10000   6.463   5.033   3.194
 3034SOL    HW110001   6.535   4.992   3.250
 3034SOL    HW210002   6.388   5.063   3.253
 3035SOL     OW10003   0.871   2.868   0.402
 3035SOL    HW110004   0.969   2.858   0.421
 3035SOL    HW210005   0.821   2.874   0.489
 3036SOL     OW10006   3.134   2.249   5.863
 3036SOL    HW110007   3.202   2.314   5.896
 3036SOL    HW210008   3.172   2.156   5.865
 3037SOL     OW10009   0.443   6.009   6.903
 3037SOL    HW110010   0.393   5.953   6.969
 3037SOL    HW210011   0.383   6.032   6.826
 3038SOL     OW10012   6.072   4.741   6.682
 3038SOL    HW110013   6.019   4.691   6.614
 3038SOL    HW210014   6.013   4.804   6.732
 3039SOL     OW10015   6.784   3.434   6.346
 3039SOL    HW110016   6.824   3.473   6.263
 3039SOL    HW210017   6.754   3.340   6.327
 3040SOL     OW10018   5.124   4.714   5.829
 3040SOL    HW110019   5.199   4.648   5.828
 3040SOL    HW210020   5.114   4.752   5.921
 3041SOL     OW10021   1.495   4.483   5.801
 3041SOL    HW110022   1.543   4.559   5.846
 3041SOL    HW210023   1.538   4.397   5.827
 3042SOL     OW10024   6.595   5.347   3.477
 3042SOL    HW110025   6.605   5.267   3.535
 3042SOL    HW210026   6.505   5.388   3.492
 3043SOL     OW10027   2.768   5.214   0.745
 3043SOL    HW110028   2.738   5.150   0.815
 3043SOL    HW210029   2.727   5.304   0.762
 3044SOL     OW10030   3.976   3.517   4.588
 3044SOL    HW110031   4.047   3.579   4.623
 3044SOL    HW210032   3.895   3.569   4.562
 3045SOL     OW10033   4.386   1.820   2.026
 3045SOL    HW110034   4.381   1.786   2.120
 3045SOL    HW210035   4.297   1.859   2.000
 3046SOL     OW10036   4.969   6.127   0.814
 3046SOL    HW110037   5.052   6.075   0.834
 3046SOL    HW210038   4.990   6.199   0.747
 3047SOL     OW10039   5.938   1.342   5.025
 3047SOL    HW110040   5.878   1.409   5.068
 3047SOL    HW210041   5.991   1.294   5.095
 3048SOL     OW10042   3.861   4.652   0.878
 3048SOL    HW110043   3.955   4.650   0.844
 3048SOL    HW210044   3.802   4.693   0.808
 3049SOL     OW10045   1.054   1.449   3.307
 3049SOL    HW110046   1.029   1.520   3.373
 3049SOL    HW210047   1.098   1.490   3.228
 3050SOL     OW10048   3.366   1.957   0.829
 3050SOL    HW110049   3.445   1.998   0.784
 3050SOL    HW210050   3.293   1.942   0.762
 3051SOL     OW10051   2.230   5.478   5.839
 3051SOL    HW110052   2.227   5.391   5.888
 3051SOL    HW210053   2.169   5.474   5.760
 3052SOL     OW10054   6.786   6.735   1.941
 3052SOL    HW110055   6.721   6.761   2.012
 3052SOL    HW210056   6.879   6.737   1.978
 3053SOL     OW10057   0.916   4.348   0.107
 3053SOL    HW110058   0.986   4.382   0.169
 3053SOL    HW210059   0.829   4.339   0.156
 3054SOL     OW10060   5.425   0.862   2.472
 3054SOL    HW110061   5.426   0.766   2.499
 3054SOL    HW210062   5.334   0.900   2.489
 3055SOL     OW10063   6.037   6.120   6.602
 3055SOL    HW110064   6.080   6.057   6.538
 3055SOL    HW210065   6.017   6.073   6.688
 3056SOL     OW10066   4.918   1.671   5.377
 3056SOL    HW110067   4.948   1.644   5.468
 3056SOL    HW210068   4.998   1.678   5.316
 3057SOL     OW10069   5.459   4.017   3.150
 3057SOL    HW110070   5.459   3.988   3.054
 3057SOL    HW210071   5.469   3.936   3.208
 3058SOL     OW10072   0.237   4.409   6.726
 3058SOL    HW110073   0.271   4.461   6.647
 3058SOL    HW210074   0.143   4.437   6.747
 3059SOL     OW10075   1.788   1.889   3.770
 3059SOL    HW110076   1.834   1.826   3.707
 3059SOL    HW210077   1.748   1.837   3.845
 3060SOL     OW10078   5.524   5.174   5.184
 3060SOL    HW110079   5.511   5.159   5.086
 3060SOL    HW210080   5.620   5.199   5.201
 3061SOL     OW10081   6.018   6.122   4.902
 3061SOL    HW110082   5.992   6.072   4.819
 3061SOL    HW210083   6.080   6.197   4.878
 3062SOL     OW10084   4.025   4.231   1.195
 3062SOL    HW110085   3.940   4.178   1.197
 3062SOL    HW210086   4.102   4.172   1.220
 3063SOL     OW10087   0.423   4.317   2.112
 3063SOL    HW110088   0.431   4.271   2.201
 3063SOL    HW210089   0.326   4.334   2.093
 3064SOL     OW10090   4.948   2.114   6.160
 3064SOL    HW110091   4.985   2.040   6.104
 3064SOL    HW210092   5.001   2.121   6.245
 3065SOL     OW10093   6.183   1.198   0.284
 3065SOL    HW110094   6.100   1.143   0.297
 3065SOL    HW210095   6.263   1.138   0.287
 3066SOL     OW10096   5.057   6.084   5.590
 3066SOL    HW110097   5.130   6.123   5.647
 3066SOL    HW210098   5.038   6.146   5.514
 3067SOL     OW10099   1.197   2.148   5.918
 3067SOL    HW110100   1.207   2.073   5.853
 3067SOL    HW210101   1.167   2.112   6.006
 3068SOL     OW10102   0.543   1.130   0.244
 3068SOL    HW110103   0.541   1.091   0.336
 3068SOL    HW210104   0.449   1.142   0.211
 3069SOL     OW10105   5.303   0.252   2.991
 3069SOL    HW110106   5.348   0.248   2.902
 3069SOL    HW210107   5.363   0.299   3.056
 3070SOL     OW10108   2.313   1.259   1.050
 3070SOL    HW110109   2.287   1.288   0.958
 3070SOL    HW210110   2.254   1.304   1.117
 3071SOL     OW10111   6.661   4.037   4.397
 3071SOL    HW110112   6.714   4.024   4.481
 3071SOL    HW210113   6.566   4.057   4.420
 3072SOL     OW10114   1.936   0.013   6.394
 3072SOL    HW110115   1.860   0.052   6.447
 3072SOL    HW210116   2.023   0.048   6.428
 3073SOL     OW10117   6.540   5.099   1.317
 3073SOL    HW110118   6.587   5.162   1.255
 3073SOL    HW210119   6.468   5.052   1.267
 3074SOL     OW10120   2.278   3.234   1.708
 3074SOL    HW110121   2.222   3.184   1.774
 3074SOL    HW210122   2.312   3.318   1.749
 3075SOL     OW10123   3.226   5.509   1.944
 3075SOL    HW110124   3.266   5.438   2.002
 3075SOL    HW210125   3.127   5.507   1.953
 3076SOL     OW10126   0.790   0.429   5.246
 3076SOL    HW110127   0.773   0.365   5.321
 3076SOL    HW210128   0.887   0.431   5.226
 3077SOL     OW10129   6.869   3.887   2.920
 3077SOL    HW110130   6.912   3.832   2.848
 3077SOL    HW210131   6.810   3.957   2.880
 3078SOL     OW10132   0.138   3.632   1.963
 3078SOL    HW110133   0.178   3.543   1.984
 3078SOL    HW210134   0.211   3.699   1.947
 3079SOL     OW10135   2.162   3.333   5.118
 3079SOL    HW110136   2.238   3.292   5.169
 3079SOL    HW210137   2.117   3.402   5.174
 3080SOL     OW10138   3.717   4.740   0.658
 3080SOL    HW110139   3.650   4.810   0.631
 3080SOL    HW210140   3.806   4.761   0.618
 3081SOL     OW10141   0.934   3.734   0.367
 3081SOL    HW110142   0.987   3.816   0.390
 3081SOL    HW210143   0.994   3.655   0.365
 3082SOL     OW10144   4.423   5.230   4.252
 3082SOL    HW110145   4.349   5.296   4.267
 3082SOL    HW210146   4.418   5.157   4.320
 3083SOL     OW10147   3.721   6.163   1.806
 3083SOL    HW110148   3.772   6.133   1.725
 3083SOL    HW210149   3.734   6.098   1.880
 3084SOL     OW10150   0.324   3.904   4.198
 3084SOL    HW110151   0.236   3.952   4.202
 3084SOL    HW210152   0.351   3.877   4.291
 3085SOL     OW10153   5.374   5.010   0.367
 3085SOL    HW110154   5.419   5.038   0.283
 3085SOL    HW210155   5.298   5.071   0.387
 3086SOL     OW10156   6.469   6.786   6.287
 3086SOL    HW110157   6.443   6.714   6.351
 3086SOL    HW210158   6.445   6.875   6.325
 3087SOL     OW10159   3.221   6.761   1.943
 3087SOL    HW110160   3.216   6.706   1.860
 3087SOL    HW210161   3.310   6.806   1.948
 3088SOL     OW10162   2.067   2.772   6.058
 3088SOL    HW110163   1.971   2.781   6.033
 3088SOL    HW210164   2.078   2.700   6.125
 3089SOL     OW10165   4.340   5.745   5.051
 3089SOL    HW110166   4.347   5.816   5.122
 3089SOL    HW210167   4.253   5.697   5.061
 3090SOL     OW10168   1.229   2.148   2.388
 3090SOL    HW110169   1.268   2.070   2.338
 3090SOL    HW210170   1.215   2.123   2.484
 3091SOL     OW10171   1.160   2.140   1.081
 3091SOL    HW110172   1.103   2.222   1.078
 3091SOL    HW210173   1.221   2.139   1.001
 3092SOL     OW10174   5.976   1.174   2.929
 3092SOL    HW110175   5.891   1.224   2.916
 3092SOL    HW210176   5.961   1.077   2.912
 3093SOL     OW10177   5.952   5.482   0.220
 3093SOL    HW110178   5.923   5.387   0.210
 3093SOL    HW210179   6.007   5.491   0.304
 3094SOL     OW10180   3.091   1.968   6.638
 3094SOL    HW110181   3.187   1.955   6.665
 3094SOL    HW210182   3.034   1.900   6.683
 3095SOL     OW10183   1.394   3.817   4.808
 3095SOL    HW110184   1.397   3.833   4.709
 3095SOL    HW210185   1.473   3.762   4.835
 3096SOL     OW10186   0.699   3.296   4.122
 3096SOL    HW110187   0.645   3.325   4.043
 3096SOL    HW210188   0.760   3.222   4.095
 3097SOL     OW10189   5.331   2.769   5.602
 3097SOL    HW110190   5.307   2.744   5.509
 3097SOL    HW210191   5.384   2.696   5.645
 3098SOL     OW10192   1.724   3.387   2.336
 3098SOL    HW110193   1.775   3.303   2.322
 3098SOL    HW210194   1.720   3.408   2.433
 3099SOL     OW10195   0.431   5.999   4.329
 3099SOL    HW110196   0.345   6.049   4.325
 3099SOL    HW210197   0.500   6.054   4.375
 3100SOL     OW10198   6.155   4.791   1.759
 3100SOL    HW110199   6.120   4.789   1.853
 3100SOL    HW210200   6.091   4.745   1.698
 3101SOL     OW10201   3.658   6.739   5.448
 3101SOL    HW110202   3.565   6.766   5.424
 3101SOL    HW210203   3.723   6.785   5.387
 3102SOL     OW10204   6.828   4.728   1.019
 3102SOL    HW110205   6.814   4.633   0.990
 3102SOL    HW210206   6.838   4.731   1.119
 3103SOL     OW10207   3.279   1.271   1.243
 3103SOL    HW110208   3.194   1.324   1.251
 3103SOL    HW210209   3.353   1.332   1.215
 3104SOL     OW10210   4.657   1.194   5.457
 3104SOL    HW110211   4.594   1.163   5.529
 3104SOL    HW210212   4.746   1.152   5.472
 3105SOL     OW10213   6.210   3.597   0.598
 3105SOL    HW110214   6.219   3.529   0.525
 3105SOL    HW210215   6.252   3.683   0.569
 3106SOL     OW10216   6.339   0.262   6.429
 3106SOL    HW110217   6.246   0.297   6.420
 3106SOL    HW210218   6.390   0.279   6.345
 3107SOL     OW10219   3.744   1.252   5.540
 3107SOL    HW110220   3.837   1.245   5.577
 3107SOL    HW210221   3.711   1.346   5.553
 3108SOL     OW10222   2.202   4.165   3.876
 3108SOL    HW110223   2.205   4.065   3.877
 3108SOL    HW210224   2.110   4.195   3.901
 3109SOL     OW10225   6.738   6.211   4.278
 3109SOL    HW110226   6.816   6.263   4.243
 3109SOL    HW210227   6.741   6.118   4.240
 3110SOL     OW10228   0.826   4.305   3.077
 3110SOL    HW110229   0.804   4.386   3.131
 3110SOL    HW210230   0.849   4.331   2.984
 3111SOL     OW10231   6.116   4.739   4.162
 3111SOL    HW110232   6.103   4.703   4.254
 3111SOL    HW210233   6.110   4.664   4.096
 3112SOL     OW10234   4.055   1.529   5.888
 3112SOL    HW110235   4.036   1.431   5.881
 3112SOL    HW210236   4.127   1.553   5.823
 3113SOL     OW10237   2.705   6.016   3.008
 3113SOL    HW110238   2.607   5.999   2.996
 3113SOL    HW210239   2.757   5.940   2.970
 3114SOL     OW10240   4.690   1.077   5.872
 3114SOL    HW110241   4.706   1.173   5.896
 3114SOL    HW210242   4.774   1.039   5.832
 3115SOL     OW10243   5.000   5.270   5.257
 3115SOL    HW110244   4.901   5.268   5.247
 3115SOL    HW210245   5.027   5.348   5.313
 3116SOL     OW10246   0.286   1.159   0.797
 3116SOL    HW110247   0.226   1.235   0.775
 3116SOL    HW210248   0.365   1.159   0.735
 3117SOL     OW10249   5.201   1.169   5.563
 3117SOL    HW110250   5.201   1.090   5.502
 3117SOL    HW210251   5.287   1.171   5.616
 3118SOL     OW10252   1.030   0.956   3.246
 3118SOL    HW110253   1.104   1.005   3.292
 3118SOL    HW210254   1.049   0.952   3.148
 3119SOL     OW10255   4.460   5.201   5.050
 3119SOL    HW110256   4.367   5.176   5.023
 3119SOL    HW210257   4.485   5.151   5.133
 3120SOL     OW10258   1.489   5.743   5.448
 3120SOL    HW110259   1.551   5.767   5.522
 3120SOL    HW210260   1.537   5.683   5.383
 3121SOL     OW10261   4.474   1.122   4.153
 3121SOL    HW110262   4.555   1.178   4.137
 3121SOL    HW210263   4.462   1.060   4.075
 3122SOL     OW10264   4.791   5.510   4.545
 3122SOL    HW110265   4.797   5.435   4.480
 3122SOL    HW210266   4.874   5.513   4.600
 3123SOL     OW10267   2.418   1.118   3.492
 3123SOL    HW110268   2.393   1.022   3.482
 3123SOL    HW210269   2.405   1.146   3.587
 3124SOL     OW10270   4.719   6.914   3.915
 3124SOL    HW110271   4.693   6.870   3.829
 3124SOL    HW210272   4.649   6.896   3.984
 3125SOL     OW10273   1.310   0.770   5.182
 3125SOL    HW110274   1.240   0.770   5.110
 3125SOL    HW210275   1.267   0.787   5.270
 3126SOL     OW10276   5.531   5.510   5.445
 3126SOL    HW110277   5.479   5.563   5.512
 3126SOL    HW210278   5.468   5.457   5.388
 3127SOL     OW10279   0.420   1.048   5.030
 3127SOL    HW110280   0.364   1.118   5.074
 3127SOL    HW210281   0.370   0.962   5.026
 3128SOL     OW10282   4.229   0.385   0.631
 3128SOL    HW110283   4.224   0.441   0.548
 3128SOL    HW210284   4.260   0.442   0.707
 3129SOL     OW10285   4.697   3.983   7.005
 3129SOL    HW110286   4.779   3.963   6.951
 3129SOL    HW210287   4.642   3.900   7.015
 3130SOL     OW10288   0.336   4.504   2.435
 3130SOL    HW110289   0.239   4.484   2.427
 3130SOL    HW210290   0.376   4.511   2.344
 3131SOL     OW10291   6.533   4.091   3.402
 3131SOL    HW110292   6.612   4.152   3.404
 3131SOL    HW210293   6.563   4.000   3.374
 3132SOL     OW10294   4.442   4.897   6.842
 3132SOL    HW110295   4.376   4.839   6.890
 3132SOL    HW210296   4.399   4.933   6.759
 3133SOL     OW10297   4.123   0.139   4.347
 3133SOL    HW110298   4.102   0.180   4.436
 3133SOL    HW210299   4.177   0.056   4.361
 3134SOL     OW10300   4.447   5.086   2.673
 3134SOL    HW110301   4.353   5.121   2.672
 3134SOL    HW210302   4.459   5.020   2.600
 3135SOL     OW10303   4.744   6.090   6.654
 3135SOL    HW110304   4.742   6.164   6.588
 3135SOL    HW210305   4.740   6.002   6.606
 3136SOL     OW10306   6.300   1.869   2.704
 3136SOL    HW110307   6.223   1.809   2.728
 3136SOL    HW210308   6.303   1.881   2.605
 3137SOL     OW10309   5.811   6.688   6.833
 3137SOL    HW110310   5.864   6.666   6.915
 3137SOL    HW210311   5.816   6.612   6.768
 3138SOL     OW10312   5.948   5.959   3.480
 3138SOL    HW110313   5.886   6.004   3.416
 3138SOL    HW210314   5.952   6.012   3.565
 3139SOL     OW10315   3.002   4.959   1.722
 3139SOL    HW110316   2.978   4.909   1.805
 3139SOL    HW210317   2.937   4.936   1.649
 3140SOL     OW10318   6.831   6.885   6.521
 3140SOL    HW110319   6.925   6.851   6.515
 3140SOL    HW210320   6.831   6.984   6.510
 3141SOL     OW10321   6.735   2.320   6.424
 3141SOL    HW110322   6.666   2.392   6.419
 3141SOL    HW210323   6.799   2.330   6.347
 3142SOL     OW10324   4.406   1.298   3.225
 3142SOL    HW110325   4.495   1.318   3.267
 3142SOL    HW210326   4.418   1.280   3.128
 3143SOL     OW10327   6.335   1.051   0.501
 3143SOL    HW110328   6.245   1.023   0.533
 3143SOL    HW210329   6.383   0.973   0.461
 3144SOL     OW10330   3.958   3.700   6.142
 3144SOL    HW110331   3.917   3.729   6.229
 3144SOL    HW210332   3.981   3.603   6.146
 3145SOL     OW10333   0.349   6.298   1.037
 3145SOL    HW110334   0.276   6.293   0.969
 3145SOL    HW210335   0.428   6.246   1.005
 3146SOL     OW10336   0.399   0.149   5.535
 3146SOL    HW110337   0.446   0.232   5.564
 3146SOL    HW210338   0.309   0.173   5.498
 3147SOL     OW10339   3.844   5.155   0.100
 3147SOL    HW110340   3.885   5.071   0.064
 3147SOL    HW210341   3.897   5.186   0.179
 3148SOL     OW10342   6.871   5.241   2.605
 3148SOL    HW110343   6.854   5.295   2.688
 3148SOL    HW210344   6.889   5.146   2.631
 3149SOL     OW10345   3.168   1.748   0.402
 3149SOL    HW110346   3.106   1.818   0.437
 3149SOL    HW210347   3.144   1.659   0.441
 3150SOL     OW10348   6.634   5.736   4.856
 3150SOL    HW110349   6.648   5.769   4.762
 3150SOL    HW210350   6.649   5.637   4.859
 3151SOL     OW10351   6.809   1.016   5.798
 3151SOL    HW110352   6.879   1.083   5.823
 3151SOL    HW210353   6.854   0.932   5.765
 3152SOL     OW10354   1.159   3.248   6.042
 3152SOL    HW110355   1.114   3.179   6.100
 3152SOL    HW210356   1.200   3.318   6.101
 3153SOL     OW10357   6.688   5.188   1.107
 3153SOL    HW110358   6.714   5.103   1.061
 3153SOL    HW210359   6.753   5.260   1.082
 3154SOL     OW10360   4.763   1.346   0.132
 3154SOL    HW110361   4.685   1.405   0.151
 3154SOL    HW210362   4.742   1.252   0.160
 3155SOL     OW10363   1.098   4.879   0.906
 3155SOL    HW110364   1.061   4.789   0.929
 3155SOL    HW210365   1.073   4.944   0.978
 3156SOL     OW10366   3.574   4.133   1.862
 3156SOL    HW110367   3.577   4.219   1.812
 3156SOL    HW210368   3.662   4.116   1.906
 3157SOL     OW10369   0.993   1.135   5.483
 3157SOL    HW110370   0.923   1.166   5.419
 3157SOL    HW210371   1.047   1.213   5.514
 3158SOL     OW10372   1.728   1.246   5.739
 3158SOL    HW110373   1.777   1.185   5.802
 3158SOL    HW210374   1.667   1.306   5.791
 3159SOL     OW10375   6.287   6.948   0.451
 3159SOL    HW110376   6.203   6.912   0.492
 3159SOL    HW210377   6.263   7.003   0.371
 3160SOL     OW10378   1.764   0.497   6.916
 3160SOL    HW110379   1.743   0.453   7.003
 3160SOL    HW210380   1.812   0.583   6.934
 3161SOL     OW10381   2.245   2.117   2.596
 3161SOL    HW110382   2.157   2.112   2.549
 3161SOL    HW210383   2.254   2.039   2.658
 3162SOL     OW10384   2.122   5.360   1.257
 3162SOL    HW110385   2.026   5.388   1.263
 3162SOL    HW210386   2.127   5.261   1.252
 3163SOL     OW10387   4.266   4.374   6.836
 3163SOL    HW110388   4.194   4.306   6.847
 3163SOL    HW210389   4.253   4.422   6.750
 3164SOL     OW10390   2.879   6.704   2.798
 3164SOL    HW110391   2.916   6.679   2.708
 3164SOL    HW210392   2.788   6.743   2.787
 3165SOL     OW10393   1.068   6.577   6.660
 3165SOL    HW110394   1.058   6.648   6.729
 3165SOL    HW210395   0.998   6.506   6.675
 3166SOL     OW10396   4.721   0.610   5.186
 3166SOL    HW110397   4.687   0.597   5.279
 3166SOL    HW210398   4.644   0.626   5.124
 3167SOL     OW10399   5.692   3.340   0.602
 3167SOL    HW110400   5.625   3.341   0.529
 3167SOL    HW210401   5.770   3.283   0.575
 3168SOL     OW10402   4.799   2.085   0.481
 3168SOL    HW110403   4.833   2.153   0.545
 3168SOL    HW210404   4.871   2.018   0.461
 3169SOL     OW10405   1.828   4.505   1.905
 3169SOL    HW110406   1.831   4.602   1.927
 3169SOL    HW210407   1.740   4.468   1.934
 3170SOL     OW10408   2.805   4.722   3.219
 3170SOL    HW110409   2.901   4.743   3.236
 3170SOL    HW210410   2.770   4.662   3.291
 3171SOL     OW10411   5.104   2.723   3.415
 3171SOL    HW110412   5.038   2.649   3.407
 3171SOL    HW210413   5.065   2.798   3.469
 3172SOL     OW10414   6.931   4.581   1.636
 3172SOL    HW110415   7.009   4.591   1.697
 3172SOL    HW210416   6.917   4.665   1.585
 3173SOL     OW10417   3.830   2.886   0.829
 3173SOL    HW110418   3.875   2.903   0.917
 3173SOL    HW210419   3.757   2.820   0.842
 3174SOL     OW10420   2.950   3.773   5.918
 3174SOL    HW110421   2.861   3.732   5.943
 3174SOL    HW210422   2.944   3.872   5.927
 3175SOL     OW10423   6.202   0.613   3.942
 3175SOL    HW110424   6.202   0.547   4.018
 3175SOL    HW210425   6.262   0.689   3.965
 3176SOL     OW10426   1.090   4.710   5.208
 3176SOL    HW110427   1.074   4.683   5.113
 3176SOL    HW210428   1.183   4.683   5.235
 3177SOL     OW10429   5.476   3.280   3.691
 3177SOL    HW110430   5.404   3.220   3.726
 3177SOL    HW210431   5.530   3.316   3.767
 3178SOL     OW10432   0.134   0.476   1.075
 3178SOL    HW110433   0.058   0.519   1.124
 3178SOL    HW210434   0.161   0.392   1.122
 3179SOL     OW10435   1.206   1.595   2.469
 3179SOL    HW110436   1.186   1.693   2.465
 3179SOL    HW210437   1.304   1.582   2.488
 3180SOL     OW10438   6.631   5.865   0.223
 3180SOL    HW110439   6.661   5.864   0.319
 3180SOL    HW210440   6.710   5.857   0.163
 3181SOL     OW10441   1.046   0.191   4.876
 3181SOL    HW110442   1.109   0.118   4.905
 3181SOL    HW210443   1.013   0.172   4.784
 3182SOL     OW10444   2.848   1.108   0.725
 3182SOL    HW110445   2.814   1.040   0.791
 3182SOL    HW210446   2.888   1.061   0.647
 3183SOL     OW10447   4.036   4.623   1.772
 3183SOL    HW110448   4.000   4.582   1.688
 3183SOL    HW210449   3.998   4.715   1.783
 3184SOL     OW10450   0.285   2.068   5.536
 3184SOL    HW110451   0.349   2.091   5.609
 3184SOL    HW210452   0.279   1.968   5.527
 3185SOL     OW10453   0.453   5.388   6.098
 3185SOL    HW110454   0.525   5.361   6.033
 3185SOL    HW210455   0.388   5.313   6.109
 3186SOL     OW10456   0.028   1.483   6.398
 3186SOL    HW110457   0.072   1.416   6.457
 3186SOL    HW210458   6.977   1.528   6.448
 3187SOL     OW10459   3.825   5.983   2.295
 3187SOL    HW110460   3.862   6.067   2.334
 3187SOL    HW210461   3.899   5.928   2.257
 3188SOL     OW10462   2.052   4.729   5.651
 3188SOL    HW110463   2.098   4.798   5.707
 3188SOL    HW210464   2.116   4.690   5.586
 3189SOL     OW10465   3.539   1.959   6.233
 3189SOL    HW110466   3.586   1.964   6.145
 3189SOL    HW210467   3.595   1.906   6.297
 3190SOL     OW10468   6.364   5.666   4.987
 3190SOL    HW110469   6.429   5.596   4.959
 3190SOL    HW210470   6.357   5.736   4.916
 3191SOL     OW10471   4.503   5.566   1.855
 3191SOL    HW110472   4.444   5.502   1.806
 3191SOL    HW210473   4.595   5.528   1.862
 3192SOL     OW10474   6.377   2.474   2.300
 3192SOL    HW110475   6.430   2.424   2.231
 3192SOL    HW210476   6.306   2.528   2.255
 3193SOL     OW10477   4.063   0.294   5.408
 3193SOL    HW110478   4.099   0.251   5.491
 3193SOL    HW210479   4.008   0.373   5.434
 3194SOL     OW10480   1.382   0.951   6.205
 3194SOL    HW110481   1.337   0.958   6.116
 3194SOL    HW210482   1.403   0.855   6.224
 3195SOL     OW10483   0.265   1.977   1.537
 3195SOL    HW110484   0.353   2.009   1.502
 3195SOL    HW210485   0.195   1.989   1.467
 3196SOL     OW10486   6.226   0.401   4.507
 3196SOL    HW110487   6.283   0.320   4.516
 3196SOL    HW210488   6.171   0.394   4.424
 3197SOL     OW10489   1.873   0.739   6.547
 3197SOL    HW110490   1.791   0.689   6.575
 3197SOL    HW210491   1.854   0.837   6.546
 3198SOL     OW10492   5.887   3.109   3.213
 3198SOL    HW110493   5.858   3.204   3.224
 3198SOL    HW210494   5.883   3.062   3.301
 3199SOL     OW10495   5.872   4.387   3.528
 3199SOL    HW110496   5.892   4.461   3.464
 3199SOL    HW210497   5.784   4.345   3.505
 3200SOL     OW10498   5.706   3.114   4.098
 3200SOL    HW110499   5.738   3.201   4.060
 3200SOL    HW210500   5.607   3.107   4.087
 3201SOL     OW10501   6.010   4.297   2.893
 3201SOL    HW110502   6.009   4.323   2.796
 3201SOL    HW210503   6.053   4.369   2.947
 3202SOL     OW10504   1.682   4.320   6.847
 3202SOL    HW110505   1.635   4.397   6.889
 3202SOL    HW210506   1.673   4.239   6.904
 3203SOL     OW10507   3.707   0.165   1.133
 3203SOL    HW110508   3.650   0.246   1.125
 3203SOL    HW210509   3.784   0.184   1.194
 3204SOL     OW10510   2.796   1.452   3.782
 3204SOL    HW110511   2.806   1.523   3.851
 3204SOL    HW210512   2.724   1.388   3.809
 3205SOL     OW10513   5.589   3.165   5.330
 3205SOL    HW110514   5.520   3.178   5.400
 3205SOL    HW210515   5.630   3.074   5.339
 3206SOL     OW10516   2.557   3.135   1.668
 3206SOL    HW110517   2.621   3.139   1.591
 3206SOL    HW210518   2.490   3.209   1.660
 3207SOL     OW10519   1.028   5.907   5.296
 3207SOL    HW110520   1.068   5.976   5.357
 3207SOL    HW210521   1.066   5.817   5.317
 3208SOL     OW10522   6.382   5.070   6.198
 3208SOL    HW110523   6.413   4.990   6.146
 3208SOL    HW210524   6.354   5.041   6.290
 3209SOL     OW10525   4.976   5.715   6.682
 3209SOL    HW110526   4.916   5.787   6.647
 3209SOL    HW210527   5.038   5.754   6.750
 3210SOL     OW10528   6.571   5.356   1.394
 3210SOL    HW110529   6.559   5.257   1.391
 3210SOL    HW210530   6.649   5.378   1.453
 3211SOL     OW10531   0.663   5.110   6.434
 3211SOL    HW110532   0.616   5.127   6.521
 3211SOL    HW210533   0.699   5.196   6.398
 3212SOL     OW10534   2.400   0.027   3.109
 3212SOL    HW110535   2.356   0.030   3.199
 3212SOL    HW210536   2.491   0.069   3.115
 3213SOL     OW10537   1.429   0.697   6.155
 3213SOL    HW110538   1.387   0.688   6.065
 3213SOL    HW210539   1.528   0.706   6.145
 3214SOL     OW10540   3.590   0.621   2.646
 3214SOL    HW110541   3.521   0.671   2.594
 3214SOL    HW210542   3.551   0.589   2.732
 3215SOL     OW10543   1.572   3.300   0.967
 3215SOL    HW110544   1.495   3.346   0.922
 3215SOL    HW210545   1.645   3.367   0.984
 3216SOL     OW10546   5.789   4.524   0.389
 3216SOL    HW110547   5.837   4.443   0.424
 3216SOL    HW210548   5.719   4.552   0.454
 3217SOL     OW10549   0.797   5.357   3.085
 3217SOL    HW110550   0.758   5.427   3.144
 3217SOL    HW210551   0.762   5.267   3.111
 3218SOL     OW10552   6.287   1.092   3.147
 3218SOL    HW110553   6.241   1.101   3.235
 3218SOL    HW210554   6.372   1.144   3.148
 3219SOL     OW10555   6.097   0.678   5.583
 3219SOL    HW110556   6.002   0.708   5.589
 3219SOL    HW210557   6.124   0.634   5.669
 3220SOL     OW10558   6.861   4.763   6.926
 3220SOL    HW110559   6.892   4.673   6.956
 3220SOL    HW210560   6.762   4.761   6.911
 3221SOL     OW10561   3.775   0.382   1.607
 3221SOL    HW110562   3.812   0.467   1.646
 3221SOL    HW210563   3.832   0.305   1.635
 3222SOL     OW10564   3.170   1.278   3.162
 3222SOL    HW110565   3.198   1.374   3.170
 3222SOL    HW210566   3.123   1.264   3.075
 3223SOL     OW10567   1.166   0.007   1.023
 3223SOL    HW110568   1.198   0.087   1.073
 3223SOL    HW210569   1.164   0.027   0.925
 3224SOL     OW10570   4.114   1.975   4.011
 3224SOL    HW110571   4.059   1.930   4.081
 3224SOL    HW210572   4.060   2.046   3.967
 3225SOL     OW10573   4.279   0.250   4.096
 3225SOL    HW110574   4.248   0.218   4.185
 3225SOL    HW210575   4.326   0.337   4.106
 3226SOL     OW10576   0.426   6.854   1.181
 3226SOL    HW110577   0.436   6.953   1.184
 3226SOL    HW210578   0.427   6.818   1.275
 3227SOL     OW10579   4.902   3.798   5.258
 3227SOL    HW110580   4.849   3.744   5.193
 3227SOL    HW210581   4.983   3.746   5.285
 3228SOL     OW10582   1.811   4.119   0.350
 3228SOL    HW110583   1.894   4.135   0.296
 3228SOL    HW210584   1.736   4.174   0.313
 3229SOL     OW10585   2.072   1.392   0.887
 3229SOL    HW110586   2.061   1.487   0.858
 3229SOL    HW210587   1.986   1.343   0.874
 3230SOL     OW10588   2.223   5.903   5.788
 3230SOL    HW110589   2.157   5.974   5.765
 3230SOL    HW210590   2.178   5.831   5.840
 3231SOL     OW10591   2.603   0.897   1.616
 3231SOL    HW110592   2.633   0.894   1.521
 3231SOL    HW210593   2.558   0.985   1.634
 3232SOL     OW10594   4.047   5.680   3.949
 3232SOL    HW110595   4.068   5.645   3.858
 3232SOL    HW210596   4.029   5.778   3.943
 3233SOL     OW10597   0.230   2.380   0.469
 3233SOL    HW110598   0.177   2.352   0.389
 3233SOL    HW210599   0.283   2.462   0.446
 3234SOL     OW10600   2.448   3.170   0.651
 3234SOL    HW110601   2.422   3.208   0.562
 3234SOL    HW210602   2.374   3.183   0.716
 3235SOL     OW10603   0.626   6.931   2.058
 3235SOL    HW110604   0.529   6.909   2.055
 3235SOL    HW210605   0.666   6.896   2.143
 3236SOL     OW10606   3.060   3.551   0.326
 3236SOL    HW110607   3.138   3.489   0.337
 3236SOL    HW210608   3.092   3.645   0.332
 3237SOL     OW10609   5.847   1.100   4.905
 3237SOL    HW110610   5.899   1.020   4.875
 3237SOL    HW210611   5.909   1.164   4.950
 3238SOL     OW10612   6.810   5.403   1.540
 3238SOL    HW110613   6.799   5.304   1.549
 3238SOL    HW210614   6.867   5.437   1.616
 3239SOL     OW10615   6.845   0.033   3.963
 3239SOL    HW110616   6.763   0.036   4.021
 3239SOL    HW210617   6.897   0.117   3.975
 3240SOL     OW10618   0.219   1.055   6.752
 3240SOL    HW110619   0.277   1.022   6.826
 3240SOL    HW210620   0.214   0.986   6.680
 3241SOL     OW10621   5.786   1.678   6.116
 3241SOL    HW110622   5.767   1.676   6.017
 3241SOL    HW210623   5.725   1.744   6.160
 3242SOL     OW10624   5.092   4.572   5.099
 3242SOL    HW110625   5.153   4.498   5.071
 3242SOL    HW210626   5.003   4.534   5.121
 3243SOL     OW10627   5.383   5.040   5.433
 3243SOL    HW110628   5.292   5.026   5.394
 3243SOL    HW210629   5.437   5.095   5.370
 3244SOL     OW10630   5.348   6.366   0.157
 3244SOL    HW110631   5.283   6.440   0.177
 3244SOL    HW210632   5.439   6.392   0.189
 3245SOL     OW10633   4.329   1.296   4.343
 3245SOL    HW110634   4.364   1.385   4.374
 3245SOL    HW210635   4.400   1.247   4.293
 3246SOL     OW10636   6.853   0.671   2.827
 3246SOL    HW110637   6.922   0.629   2.887
 3246SOL    HW210638   6.892   0.753   2.784
 3247SOL     OW10639   0.523   3.992   3.213
 3247SOL    HW110640   0.522   3.948   3.123
 3247SOL    HW210641   0.582   3.940   3.274
 3248SOL     OW10642   5.593   2.186   3.157
 3248SOL    HW110643   5.589   2.278   3.196
 3248SOL    HW210644   5.506   2.165   3.112
 3249SOL     OW10645   2.892   3.517   3.625
 3249SOL    HW110646   2.882   3.465   3.540
 3249SOL    HW210647   2.984   3.505   3.661
 3250SOL     OW10648   5.211   5.387   2.440
 3250SOL    HW110649   5.114   5.388   2.462
 3250SOL    HW210650   5.242   5.292   2.427
 3251SOL     OW10651   2.890   1.091   3.524
 3251SOL    HW110652   2.860   1.021   3.460
 3251SOL    HW210653   2.825   1.099   3.599
 3252SOL     OW10654   2.322   1.187   3.800
 3252SOL    HW110655   2.287   1.272   3.762
 3252SOL    HW210656   2.256   1.113   3.786
 3253SOL     OW10657   6.363   3.663   0.888
 3253SOL    HW110658   6.345   3.761   0.896
 3253SOL    HW210659   6.363   3.637   0.792
 3254SOL     OW10660   5.916   0.547   0.902
 3254SOL    HW110661   5.960   0.480   0.962
 3254SOL    HW210662   5.964   0.549   0.814
 3255SOL     OW10663   5.129   5.347   1.126
 3255SOL    HW110664   5.224   5.339   1.157
 3255SOL    HW210665   5.119   5.304   1.036
 3256SOL     OW10666   5.003   2.139   0.826
 3256SOL    HW110667   5.002   2.044   0.796
 3256SOL    HW210668   5.084   2.156   0.882
 3257SOL     OW10669   2.617   2.124   3.067
 3257SOL    HW110670   2.577   2.052   3.010
 3257SOL    HW210671   2.546   2.165   3.124
 3258SOL     OW10672   2.362   6.164   3.177
 3258SOL    HW110673   2.275   6.133   3.215
 3258SOL    HW210674   2.400   6.093   3.118
 3259SOL     OW10675   4.481   4.517   3.672
 3259SOL    HW110676   4.394   4.500   3.625
 3259SOL    HW210677   4.548   4.447   3.645
 3260SOL     OW10678   1.150   4.434   2.142
 3260SOL    HW110679   1.065   4.400   2.183
 3260SOL    HW210680   1.225   4.373   2.166
 3261SOL     OW10681   4.785   0.235   3.188
 3261SOL    HW110682   4.806   0.173   3.263
 3261SOL    HW210683   4.859   0.230   3.120
 3262SOL     OW10684   2.997   2.179   2.544
 3262SOL    HW110685   2.935   2.102   2.530
 3262SOL    HW210686   2.980   2.249   2.475
 3263SOL     OW10687   1.174   1.385   2.670
 3263SOL    HW110688   1.100   1.323   2.645
 3263SOL    HW210689   1.168   1.469   2.615
 3264SOL     OW10690   2.316   6.124   0.578
 3264SOL    HW110691   2.398   6.144   0.525
 3264SOL    HW210692   2.342   6.098   0.671
 3265SOL     OW10693   5.472   4.921   5.817
 3265SOL    HW110694   5.523   4.902   5.901
 3265SOL    HW210695   5.478   4.842   5.756
 3266SOL     OW10696   3.103   5.198   6.464
 3266SOL    HW110697   3.020   5.250   6.443
 3266SOL    HW210698   3.177   5.228   6.404
 3267SOL     OW10699   4.019   0.061   0.501
 3267SOL    HW110700   4.110   0.080   0.465
 3267SOL    HW210701   4.013   0.094   0.595
 3268SOL     OW10702   6.646   4.975   1.983
 3268SOL    HW110703   6.583   4.902   1.959
 3268SOL    HW210704   6.599   5.044   2.038
 3269SOL     OW10705   1.772   5.064   2.390
 3269SOL    HW110706   1.772   5.095   2.294
 3269SOL    HW210707   1.864   5.032   2.414
 3270SOL     OW10708   0.433   2.392   5.340
 3270SOL    HW110709   0.463   2.342   5.259
 3270SOL    HW210710   0.442   2.490   5.324
 3271SOL     OW10711   0.694   3.400   2.749
 3271SOL    HW110712   0.626   3.336   2.787
 3271SOL    HW210713   0.647   3.481   2.714
 3272SOL     OW10714   4.390   6.540   0.413
 3272SOL    HW110715   4.404   6.472   0.341
 3272SOL    HW210716   4.479   6.568   0.450
 3273SOL     OW10717   4.722   2.394   6.674
 3273SOL    HW110718   4.761   2.383   6.766
 3273SOL    HW210719   4.734   2.489   6.645
 3274SOL     OW10720   5.529   0.335   6.982
 3274SOL    HW110721   5.466   0.412   6.989
 3274SOL    HW210722   5.592   0.336   0.036
 3275SOL     OW10723   4.698   0.262   1.135
 3275SOL    HW110724   4.711   0.357   1.161
 3275SOL    HW210725   4.621   0.223   1.185
 3276SOL     OW10726   4.968   6.794   0.148
 3276SOL    HW110727   4.907   6.716   0.135
 3276SOL    HW210728   4.967   6.852   0.067
 3277SOL     OW10729   3.550   1.853   2.328
 3277SOL    HW110730   3.534   1.832   2.232
 3277SOL    HW210731   3.552   1.952   2.340
 3278SOL     OW10732   6.840   6.933   6.813
 3278SOL    HW110733   6.871   6.888   6.730
 3278SOL    HW210734   6.891   6.897   6.892
 3279SOL     OW10735   3.820   6.970   1.336
 3279SOL    HW110736   3.736   6.989   1.386
 3279SOL    HW210737   3.895   6.956   1.401
 3280SOL     OW10738   5.534   3.552   4.712
 3280SOL    HW110739   5.441   3.575   4.742
 3280SOL    HW210740   5.554   3.458   4.738
 3281SOL     OW10741   6.145   3.479   1.475
 3281SOL    HW110742   6.099   3.499   1.388
 3281SOL    HW210743   6.233   3.436   1.456
 3282SOL     OW10744   0.267   4.446   4.691
 3282SOL    HW110745   0.169   4.467   4.697
 3282SOL    HW210746   0.286   4.404   4.602
 3283SOL     OW10747   4.075   1.635   0.841
 3283SOL    HW110748   4.170   1.668   0.837
 3283SOL    HW210749   4.028   1.661   0.756
 3284SOL     OW10750   1.419   5.718   4.447
 3284SOL    HW110751   1.412   5.710   4.546
 3284SOL    HW210752   1.491   5.657   4.414
 3285SOL     OW10753   4.880   1.267   4.902
 3285SOL    HW110754   4.900   1.335   4.972
 3285SOL    HW210755   4.959   1.257   4.841
 3286SOL     OW10756   3.038   1.378   1.223
 3286SOL    HW110757   3.018   1.476   1.229
 3286SOL    HW210758   2.978   1.336   1.154
 3287SOL     OW10759   2.256   0.551   6.453
 3287SOL    HW110760   2.163   0.564   6.418
 3287SOL    HW210761   2.267   0.604   6.537
 3288SOL     OW10762   1.823   6.809   1.340
 3288SOL    HW110763   1.850   6.774   1.430
 3288SOL    HW210764   1.725   6.800   1.328
 3289SOL     OW10765   3.922   1.642   6.875
 3289SOL    HW110766   4.002   1.583   6.864
 3289SOL    HW210767   3.948   1.737   6.857
 3290SOL     OW10768   6.466   4.674   0.954
 3290SOL    HW110769   6.501   4.675   1.048
 3290SOL    HW210770   6.480   4.764   0.912
 3291SOL     OW10771   4.963   7.021   5.285
 3291SOL    HW110772   5.008   7.019   5.195
 3291SOL    HW210773   4.935   6.928   5.310
 3292SOL     OW10774   6.948   2.288   1.549
 3292SOL    HW110775   6.948   2.276   1.450
 3292SOL    HW210776   6.980   2.204   1.593
 3293SOL     OW10777   6.145   4.990   3.120
 3293SOL    HW110778   6.217   5.010   3.186
 3293SOL    HW210779   6.185   4.947   3.038
 3294SOL     OW10780   5.089   2.481   5.031
 3294SOL    HW110781   5.035   2.563   5.052
 3294SOL    HW210782   5.030   2.413   4.986
 3295SOL     OW10783   1.549   3.045   2.217
 3295SOL    HW110784   1.528   3.076   2.125
 3295SOL    HW210785   1.640   3.077   2.243
 3296SOL     OW10786   1.165   6.990   6.502
 3296SOL    HW110787   1.218   7.012   6.420
 3296SOL    HW210788   1.119   6.902   6.489
 3297SOL     OW10789   2.854   1.872   4.822
 3297SOL    HW110790   2.873   1.914   4.911
 3297SOL    HW210791   2.900   1.783   4.816
 3298SOL     OW10792   5.547   4.364   5.502
 3298SOL    HW110793   5.625   4.344   5.561
 3298SOL    HW210794   5.465   4.322   5.539
 3299SOL     OW10795   2.900   4.863   4.581
 3299SOL    HW110796   2.923   4.859   4.484
 3299SOL    HW210797   2.841   4.785   4.605
 3300SOL     OW10798   1.999   6.951   4.403
 3300SOL    HW110799   1.991   0.023   4.373
 3300SOL    HW210800   2.095   6.923   4.397
 3301SOL     OW10801   2.093   2.324   3.411
 3301SOL    HW110802   2.127   2.237   3.448
 3301SOL    HW210803   2.145   2.399   3.451
 3302SOL     OW10804   2.283   4.909   6.263
 3302SOL    HW110805   2.256   4.849   6.188
 3302SOL    HW210806   2.374   4.947   6.245
 3303SOL     OW10807   3.316   3.204   0.328
 3303SOL    HW110808   3.291   3.285   0.380
 3303SOL    HW210809   3.262   3.126   0.358
 3304SOL     OW10810   2.511   4.691   6.049
 3304SOL    HW110811   2.611   4.697   6.039
 3304SOL    HW210812   2.489   4.653   6.138
 3305SOL     OW10813   3.431   1.398   0.443
 3305SOL    HW110814   3.524   1.421   0.415
 3305SOL    HW210815   3.432   1.314   0.498
 3306SOL     OW10816   2.084   0.764   0.367
 3306SOL    HW110817   2.071   0.669   0.337
 3306SOL    HW210818   2.136   0.764   0.452
 3307SOL     OW10819   1.467   0.314   4.688
 3307SOL    HW110820   1.446   0.366   4.771
 3307SOL    HW210821   1.545   0.356   4.641
 3308SOL     OW10822   3.738   4.454   1.145
 3308SOL    HW110823   3.642   4.461   1.119
 3308SOL    HW210824   3.749   4.383   1.215
 3309SOL     OW10825   5.836   3.623   3.686
 3309SOL    HW110826   5.737   3.625   3.672
 3309SOL    HW210827   5.882   3.633   3.597
 3310SOL     OW10828   6.564   5.345   5.641
 3310SOL    HW110829   6.622   5.307   5.569
 3310SOL    HW210830   6.608   5.426   5.680
 3311SOL     OW10831   3.452   3.834   0.273
 3311SOL    HW110832   3.537   3.873   0.309
 3311SOL    HW210833   3.471   3.743   0.235
 3312SOL     OW10834   4.606   2.724   5.882
 3312SOL    HW110835   4.670   2.677   5.821
 3312SOL    HW210836   4.612   2.683   5.974
 3313SOL     OW10837   1.456   0.759   3.391
 3313SOL    HW110838   1.369   0.746   3.440
 3313SOL    HW210839   1.465   0.689   3.321
 3314SOL     OW10840   2.125   5.802   2.453
 3314SOL    HW110841   2.224   5.800   2.446
 3314SOL    HW210842   2.097   5.843   2.540
 3315SOL     OW10843   7.000   4.693   5.549
 3315SOL    HW110844   0.046   4.625   5.528
 3315SOL    HW210845   6.954   4.669   5.635
 3316SOL     OW10846   3.278   1.876   6.223
 3316SOL    HW110847   3.286   1.777   6.234
 3316SOL    HW210848   3.369   1.918   6.227
 3317SOL     OW10849   5.536   2.420   2.882
 3317SOL    HW110850   5.462   2.377   2.831
 3317SOL    HW210851   5.517   2.412   2.980
 3318SOL     OW10852   3.014   2.490   0.641
 3318SOL    HW110853   3.071   2.571   0.629
 3318SOL    HW210854   3.071   2.408   0.640
 3319SOL     OW10855   6.774   6.481   3.385
 3319SOL    HW110856   6.870   6.506   3.398
 3319SOL    HW210857   6.716   6.550   3.427
 3320SOL     OW10858   6.316   0.384   1.085
 3320SOL    HW110859   6.394   0.341   1.040
 3320SOL    HW210860   6.261   0.434   1.017
 3321SOL     OW10861   5.192   1.374   0.151
 3321SOL    HW110862   5.213   1.277   0.141
 3321SOL    HW210863   5.111   1.385   0.210
 3322SOL     OW10864   6.993   3.706   1.116
 3322SOL    HW110865   6.975   3.718   1.214
 3322SOL    HW210866   6.959   3.786   1.067
 3323SOL     OW10867   1.513   1.641   2.126
 3323SOL    HW110868   1.612   1.635   2.119
 3323SOL    HW210869   1.486   1.655   2.221
 3324SOL     OW10870   5.213   5.407   5.927
 3324SOL    HW110871   5.304   5.395   5.888
 3324SOL    HW210872   5.150   5.438   5.855
 3325SOL     OW10873   1.642   3.686   6.636
 3325SOL    HW110874   1.560   3.688   6.578
 3325SOL    HW210875   1.624   3.632   6.718
 3326SOL     OW10876   4.693   1.075   2.849
 3326SOL    HW110877   4.686   1.012   2.926
 3326SOL    HW210878   4.790   1.093   2.829
 3327SOL     OW10879   1.462   5.996   1.469
 3327SOL    HW110880   1.423   6.041   1.389
 3327SOL    HW210881   1.390   5.977   1.535
 3328SOL     OW10882   4.543   2.417   0.492
 3328SOL    HW110883   4.520   2.440   0.586
 3328SOL    HW210884   4.504   2.485   0.430
 3329SOL     OW10885   5.855   5.427   5.955
 3329SOL    HW110886   5.807   5.501   5.908
 3329SOL    HW210887   5.822   5.339   5.921
 3330SOL     OW10888   6.212   3.458   2.631
 3330SOL    HW110889   6.232   3.498   2.542
 3330SOL    HW210890   6.248   3.365   2.635
 3331SOL     OW10891   2.245   2.926   1.703
 3331SOL    HW110892   2.219   2.863   1.776
 3331SOL    HW210893   2.182   3.003   1.700
 3332SOL     OW10894   6.136   4.473   0.698
 3332SOL    HW110895   6.080   4.489   0.779
 3332SOL    HW210896   6.228   4.447   0.726
 3333SOL     OW10897   4.202   5.194   5.612
 3333SOL    HW110898   4.250   5.109   5.635
 3333SOL    HW210899   4.109   5.173   5.582
 3334SOL     OW10900   2.498   4.278   1.785
 3334SOL    HW110901   2.571   4.228   1.739
 3334SOL    HW210902   2.411   4.229   1.771
 3335SOL     OW10903   4.933   4.487   5.438
 3335SOL    HW110904   4.863   4.422   5.469
 3335SOL    HW210905   5.024   4.452   5.460
 3336SOL     OW10906   3.651   5.056   6.020
 3336SOL    HW110907   3.582   4.989   5.993
 3336SOL    HW210908   3.606   5.138   6.056
 3337SOL     OW10909   3.304   2.527   1.260
 3337SOL    HW110910   3.350   2.537   1.348
 3337SOL    HW210911   3.362   2.473   1.199
 3338SOL     OW10912   0.235   4.198   0.847
 3338SOL    HW110913   0.195   4.146   0.771
 3338SOL    HW210914   0.252   4.136   0.924
 3339SOL     OW10915   7.003   5.663   6.506
 3339SOL    HW110916   6.922   5.645   6.449
 3339SOL    HW210917   7.012   5.761   6.520
 3340SOL     OW10918   3.349   6.195   1.304
 3340SOL    HW110919   3.339   6.245   1.390
 3340SOL    HW210920   3.445   6.198   1.275
 3341SOL     OW10921   0.668   0.803   2.877
 3341SOL    HW110922   0.741   0.858   2.835
 3341SOL    HW210923   0.697   0.773   2.968
 3342SOL     OW10924   2.197   6.654   4.106
 3342SOL    HW110925   2.179   6.746   4.070
 3342SOL    HW210926   2.281   6.619   4.064
 3343SOL     OW10927   5.278   2.920   0.680
 3343SOL    HW110928   5.353   2.977   0.647
 3343SOL    HW210929   5.204   2.919   0.612
 3344SOL     OW10930   6.413   3.018   5.962
 3344SOL    HW110931   6.399   2.966   6.046
 3344SOL    HW210932   6.329   3.018   5.908
 3345SOL     OW10933   2.915   3.284   6.329
 3345SOL    HW110934   2.925   3.190   6.295
 3345SOL    HW210935   2.828   3.322   6.300
 3346SOL     OW10936   0.380   0.296   1.494
 3346SOL    HW110937   0.463   0.264   1.539
 3346SOL    HW210938   0.404   0.363   1.424
 3347SOL     OW10939   5.751   3.703   4.802
 3347SOL    HW110940   5.716   3.680   4.892
 3347SOL    HW210941   5.696   3.657   4.732
 3348SOL     OW10942   3.655   3.143   4.359
 3348SOL    HW110943   3.617   3.236   4.358
 3348SOL    HW210944   3.684   3.120   4.452
 3349SOL     OW10945   6.054   3.637   4.375
 3349SOL    HW110946   6.054   3.693   4.292
 3349SOL    HW210947   6.055   3.697   4.455
 3350SOL     OW10948   1.651   1.217   1.204
 3350SOL    HW110949   1.639   1.162   1.121
 3350SOL    HW210950   1.580   1.287   1.208
 3351SOL     OW10951   5.166   1.864   1.356
 3351SOL    HW110952   5.084   1.920   1.362
 3351SOL    HW210953   5.160   1.788   1.421
 3352SOL     OW10954   0.662   3.093   0.789
 3352SOL    HW110955   0.687   3.148   0.710
 3352SOL    HW210956   0.628   3.153   0.862
 3353SOL     OW10957   1.961   6.894   6.157
 3353SOL    HW110958   2.032   6.824   6.163
 3353SOL    HW210959   1.944   6.933   6.247
 3354SOL     OW10960   0.601   2.652   3.626
 3354SOL    HW110961   0.612   2.710   3.707
 3354SOL    HW210962   0.505   2.654   3.596
 3355SOL     OW10963   6.467   1.243   2.370
 3355SOL    HW110964   6.510   1.224   2.458
 3355SOL    HW210965   6.433   1.158   2.329
 3356SOL     OW10966   2.711   3.888   0.199
 3356SOL    HW110967   2.689   3.920   0.291
 3356SOL    HW210968   2.628   3.850   0.157
 3357SOL     OW10969   2.868   5.151   2.130
 3357SOL    HW110970   2.835   5.229   2.183
 3357SOL    HW210971   2.950   5.113   2.174
 3358SOL     OW10972   4.856   5.731   2.322
 3358SOL    HW110973   4.943   5.716   2.274
 3358SOL    HW210974   4.864   5.698   2.416
 3359SOL     OW10975   2.126   0.897   2.833
 3359SOL    HW110976   2.066   0.833   2.786
 3359SOL    HW210977   2.194   0.846   2.886
 3360SOL     OW10978   0.893   0.802   0.360
 3360SOL    HW110979   0.845   0.746   0.292
 3360SOL    HW210980   0.968   0.851   0.315
 3361SOL     OW10981   6.172   6.374   3.114
 3361SOL    HW110982   6.119   6.458   3.104
 3361SOL    HW210983   6.118   6.296   3.084
 3362SOL     OW10984   1.991   1.053   5.408
 3362SOL    HW110985   2.038   1.077   5.492
 3362SOL    HW210986   1.937   1.131   5.377
 3363SOL     OW10987   7.003   1.753   0.054
 3363SOL    HW110988   0.018   1.812   0.125
 3363SOL    HW210989   6.932   1.804   0.005
 3364SOL     OW10990   1.903   5.156   6.307
 3364SOL    HW110991   1.843   5.178   6.231
 3364SOL    HW210992   1.861   5.086   6.364
 3365SOL     OW10993   6.099   2.017   4.720
 3365SOL    HW110994   6.024   1.987   4.661
 3365SOL    HW210995   6.069   2.098   4.772
 3366SOL     OW10996   5.538   0.522   5.600
 3366SOL    HW110997   5.553   0.526   5.698
 3366SOL    HW210998   5.529   0.426   5.571
 3367SOL     OW10999   1.450   1.457   2.614
 3367SOL    HW111000   1.535   1.483   2.660
 3367SOL    HW211001   1.383   1.429   2.682
 3368SOL     OW11002   6.453   5.809   6.318
 3368SOL    HW111003   6.369   5.780   6.271
 3368SOL    HW211004   6.444   5.904   6.347
 3369SOL     OW11005   4.044   0.316   6.980
 3369SOL    HW111006   4.039   0.415   6.971
 3369SOL    HW211007   4.137   0.289   7.007
 3370SOL     OW11008   6.140   6.623   5.450
 3370SOL    HW111009   6.148   6.722   5.456
 3370SOL    HW211010   6.052   6.594   5.488
 3371SOL     OW11011   0.479   5.450   2.195
 3371SOL    HW111012   0.488   5.540   2.236
 3371SOL    HW211013   0.545   5.441   2.121
 3372SOL     OW11014   0.931   0.444   3.034
 3372SOL    HW111015   1.015   0.406   2.994
 3372SOL    HW211016   0.852   0.408   2.985
 3373SOL     OW11017   6.349   2.096   5.083
 3373SOL    HW111018   6.291   2.177   5.089
 3373SOL    HW211019   6.295   2.017   5.054
 3374SOL     OW11020   2.651   5.150   5.962
 3374SOL    HW111021   2.613   5.061   5.936
 3374SOL    HW211022   2.747   5.154   5.932
 3375SOL     OW11023   4.631   4.617   5.303
 3375SOL    HW111024   4.666   4.689   5.363
 3375SOL    HW211025   4.671   4.529   5.331
 3376SOL     OW11026   3.212   3.503   2.188
 3376SOL    HW111027   3.173   3.587   2.150
 3376SOL    HW211028   3.312   3.513   2.192
 3377SOL     OW11029   1.496   6.389   5.363
 3377SOL    HW111030   1.549   6.471   5.386
 3377SOL    HW211031   1.399   6.413   5.359
 3378SOL     OW11032   6.623   1.633   1.262
 3378SOL    HW111033   6.717   1.600   1.254
 3378SOL    HW211034   6.560   1.557   1.253
 3379SOL     OW11035   0.609   4.435   5.716
 3379SOL    HW111036   0.688   4.375   5.729
 3379SOL    HW211037   0.531   4.399   5.767
 3380SOL     OW11038   6.753   4.255   6.657
 3380SOL    HW111039   6.820   4.226   6.726
 3380SOL    HW211040   6.801   4.294   6.579
 3381SOL     OW11041   3.207   2.730   0.565
 3381SOL    HW111042   3.285   2.687   0.519
 3381SOL    HW211043   3.202   2.697   0.659
 3382SOL     OW11044   0.077   1.601   1.050
 3382SOL    HW111045   0.159   1.636   1.096
 3382SOL    HW211046   0.068   1.644   0.960
 3383SOL     OW11047   5.714   4.813   2.727
 3383SOL    HW111048   5.728   4.758   2.645
 3383SOL    HW211049   5.697   4.908   2.701
 3384SOL     OW11050   3.815   2.978   4.595
 3384SOL    HW111051   3.809   3.055   4.659
 3384SOL    HW211052   3.774   2.897   4.636
 3385SOL     OW11053   6.359   3.828   3.825
 3385SOL    HW111054   6.449   3.787   3.812
 3385SOL    HW211055   6.294   3.785   3.762
 3386SOL     OW11056   6.055   4.746   5.339
 3386SOL    HW111057   5.991   4.673   5.318
 3386SOL    HW211058   6.048   4.769   5.436
 3387SOL     OW11059   2.432   1.915   3.201
 3387SOL    HW111060   2.383   1.860   3.134
 3387SOL    HW211061   2.500   1.972   3.155
 3388SOL     OW11062   5.438   1.896   1.400
 3388SOL    HW111063   5.492   1.973   1.434
 3388SOL    HW211064   5.348   1.899   1.442
 3389SOL     OW11065   4.949   4.734   3.605
 3389SOL    HW111066   4.865   4.775   3.639
 3389SOL    HW211067   4.970   4.770   3.514
 3390SOL     OW11068   5.000   3.088   5.716
 3390SOL    HW111069   4.912   3.125   5.687
 3390SOL    HW211070   4.997   2.988   5.712
 3391SOL     OW11071   3.774   2.104   4.883
 3391SOL    HW111072   3.759   2.203   4.878
 3391SOL    HW211073   3.849   2.079   4.822
 3392SOL     OW11074   3.291   0.582   3.988
 3392SOL    HW111075   3.274   0.500   4.043
 3392SOL    HW211076   3.233   0.580   3.907
 3393SOL     OW11077   6.716   6.321   6.879
 3393SOL    HW111078   6.754   6.409   6.907
 3393SOL    HW211079   6.703   6.264   6.960
 3394SOL     OW11080   5.922   2.535   1.153
 3394SOL    HW111081   5.857   2.610   1.152
 3394SOL    HW211082   5.877   2.453   1.190
 3395SOL     OW11083   0.833   3.083   4.321
 3395SOL    HW111084   0.809   3.047   4.231
 3395SOL    HW211085   0.763   3.055   4.387
 3396SOL     OW11086   0.022   3.828   4.015
 3396SOL    HW111087   0.050   3.902   4.076
 3396SOL    HW211088   0.102   3.789   3.970
 3397SOL     OW11089   3.798   6.437   6.048
 3397SOL    HW111090   3.854   6.378   6.106
 3397SOL    HW211091   3.781   6.392   5.960
 3398SOL     OW11092   1.338   6.939   4.258
 3398SOL    HW111093   1.367   6.901   4.170
 3398SOL    HW211094   1.364   6.877   4.332
 3399SOL     OW11095   5.062   4.769   3.867
 3399SOL    HW111096   5.130   4.702   3.895
 3399SOL    HW211097   5.048   4.763   3.768
 3400SOL     OW11098   4.956   2.206   6.659
 3400SOL    HW111099   4.871   2.257   6.674
 3400SOL    HW211100   4.996   2.182   6.748
 3401SOL     OW11101   5.950   4.335   0.538
 3401SOL    HW111102   5.893   4.260   0.571
 3401SOL    HW211103   6.023   4.352   0.604
 3402SOL     OW11104   5.392   5.498   1.233
 3402SOL    HW111105   5.397   5.598   1.233
 3402SOL    HW211106   5.343   5.467   1.314
 3403SOL     OW11107   3.713   0.565   5.026
 3403SOL    HW111108   3.637   0.523   5.075
 3403SOL    HW211109   3.735   0.652   5.068
 3404SOL     OW11110   4.947   1.076   0.368
 3404SOL    HW111111   4.949   1.082   0.468
 3404SOL    HW211112   4.980   0.986   0.339
 3405SOL     OW11113   6.472   3.702   6.680
 3405SOL    HW111114   6.460   3.620   6.624
 3405SOL    HW211115   6.560   3.745   6.658
 3406SOL     OW11116   2.122   3.910   2.444
 3406SOL    HW111117   2.208   3.957   2.423
 3406SOL    HW211118   2.102   3.843   2.373
 3407SOL     OW11119   1.149   5.758   2.141
 3407SOL    HW111120   1.238   5.803   2.132
 3407SOL    HW211121   1.090   5.813   2.201
 3408SOL     OW11122   5.358   4.189   2.207
 3408SOL    HW111123   5.308   4.233   2.133
 3408SOL    HW211124   5.293   4.160   2.278
 3409SOL     OW11125   3.380   0.124   6.185
 3409SOL    HW111126   3.418   0.055   6.123
 3409SOL    HW211127   3.281   0.133   6.168
 3410SOL     OW11128   6.430   6.383   0.354
 3410SOL    HW111129   6.448   6.473   0.395
 3410SOL    HW211130   6.491   6.370   0.276
 3411SOL     OW11131   4.453   1.546   2.779
 3411SOL    HW111132   4.513   1.495   2.717
 3411SOL    HW211133   4.496   1.633   2.803
 3412SOL     OW11134   3.646   4.272   0.180
 3412SOL    HW111135   3.735   4.286   0.223
 3412SOL    HW211136   3.644   4.319   0.092
 3413SOL     OW11137   3.731   1.418   3.319
 3413SOL    HW111138   3.725   1.420   3.219
 3413SOL    HW211139   3.675   1.343   3.354
 3414SOL     OW11140   2.940   2.246   5.194
 3414SOL    HW111141   2.875   2.322   5.187
 3414SOL    HW211142   3.026   2.271   5.151
 3415SOL     OW11143   0.655   4.725   4.060
 3415SOL    HW111144   0.597   4.665   4.006
 3415SOL    HW211145   0.738   4.676   4.088
 3416SOL     OW11146   0.471   5.125   5.318
 3416SOL    HW111147   0.458   5.030   5.288
 3416SOL    HW211148   0.556   5.132   5.369
 3417SOL     OW11149   0.055   6.953   2.598
 3417SOL    HW111150   7.021   6.894   2.540
 3417SOL    HW211151   0.121   7.001   2.541
 3418SOL     OW11152   2.681   1.552   5.207
 3418SOL    HW111153   2.771   1.567   5.166
 3418SOL    HW211154   2.657   1.456   5.201
 3419SOL     OW11155   4.143   4.729   6.704
 3419SOL    HW111156   4.191   4.815   6.687
 3419SOL    HW211157   4.142   4.675   6.619
 3420SOL     OW11158   4.452   2.144   3.697
 3420SOL    HW111159   4.404   2.229   3.674
 3420SOL    HW211160   4.401   2.096   3.768
 3421SOL     OW11161   0.024   5.882   5.826
 3421SOL    HW111162   7.019   5.906   5.733
 3421SOL    HW211163   6.968   5.856   5.880
 3422SOL     OW11164   3.663   0.687   1.258
 3422SOL    HW111165   3.607   0.657   1.336
 3422SOL    HW211166   3.610   0.676   1.174
 3423SOL     OW11167   2.531   1.169   0.815
 3423SOL    HW111168   2.449   1.227   0.806
 3423SOL    HW211169   2.585   1.199   0.893
 3424SOL     OW11170   4.414   1.218   2.470
 3424SOL    HW111171   4.458   1.133   2.499
 3424SOL    HW211172   4.357   1.253   2.544
 3425SOL     OW11173   4.785   4.402   2.016
 3425SOL    HW111174   4.697   4.356   2.007
 3425SOL    HW211175   4.840   4.356   2.086
 3426SOL     OW11176   4.107   3.870   0.434
 3426SOL    HW111177   4.155   3.824   0.508
 3426SOL    HW211178   4.141   3.963   0.425
 3427SOL     OW11179   6.958   1.137   0.241
 3427SOL    HW111180   7.012   1.053   0.250
 3427SOL    HW211181   7.003   1.197   0.174
 3428SOL     OW11182   4.204   4.757   2.379
 3428SOL    HW111183   4.248   4.755   2.289
 3428SOL    HW211184   4.114   4.799   2.370
 3429SOL     OW11185   1.081   3.253   0.813
 3429SOL    HW111186   1.057   3.333   0.759
 3429SOL    HW211187   1.162   3.210   0.775
 3430SOL     OW11188   1.906   6.919   0.561
 3430SOL    HW111189   1.914   7.010   0.600
 3430SOL    HW211190   1.809   6.895   0.551
 3431SOL     OW11191   1.679   6.127   1.102
 3431SOL    HW111192   1.624   6.194   1.153
 3431SOL    HW211193   1.698   6.163   1.011
 3432SOL     OW11194   3.389   1.428   5.566
 3432SOL    HW111195   3.421   1.401   5.475
 3432SOL    HW211196   3.429   1.516   5.591
 3433SOL     OW11197   3.473   1.065   5.170
 3433SOL    HW111198   3.544   1.079   5.239
 3433SOL    HW211199   3.490   0.979   5.122
 3434SOL     OW11200   4.549   2.569   1.645
 3434SOL    HW111201   4.494   2.568   1.561
 3434SOL    HW211202   4.585   2.478   1.662
 3435SOL     OW11203   0.241   2.187   2.357
 3435SOL    HW111204   0.322   2.234   2.393
 3435SOL    HW211205   0.266   2.138   2.273
 3436SOL     OW11206   4.669   6.919   4.952
 3436SOL    HW111207   4.662   6.898   4.855
 3436SOL    HW211208   4.764   6.935   4.976
 3437SOL     OW11209   4.225   0.048   5.081
 3437SOL    HW111210   4.242   0.143   5.108
 3437SOL    HW211211   4.311   7.022   5.076
 3438SOL     OW11212   1.381   2.910   6.265
 3438SOL    HW111213   1.351   2.952   6.351
 3438SOL    HW211214   1.448   2.839   6.284
 3439SOL     OW11215   2.881   6.952   4.720
 3439SOL    HW111216   2.906   6.902   4.638
 3439SOL    HW211217   2.785   6.932   4.744
 3440SOL     OW11218   4.609   3.352   0.993
 3440SOL    HW111219   4.605   3.286   0.918
 3440SOL    HW211220   4.688   3.332   1.051
 3441SOL     OW11221   3.740   6.878   3.884
 3441SOL    HW111222   3.817   6.820   3.909
 3441SOL    HW211223   3.769   6.974   3.886
 3442SOL     OW11224   2.067   5.185   3.286
 3442SOL    HW111225   2.107   5.136   3.363
 3442SOL    HW211226   2.032   5.274   3.317
 3443SOL     OW11227   5.608   1.859   3.071
 3443SOL    HW111228   5.681   1.799   3.105
 3443SOL    HW211229   5.523   1.839   3.121
 3444SOL     OW11230   4.946   5.153   6.749
 3444SOL    HW111231   4.877   5.221   6.726
 3444SOL    HW211232   4.966   5.156   6.846
 3445SOL     OW11233   6.419   4.515   3.970
 3445SOL    HW111234   6.502   4.464   3.948
 3445SOL    HW211235   6.436   4.573   4.050
 3446SOL     OW11236   4.250   0.375   2.746
 3446SOL    HW111237   4.191   0.413   2.675
 3446SOL    HW211238   4.328   0.435   2.761
 3447SOL     OW11239   5.852   5.957   0.203
 3447SOL    HW111240   5.905   5.873   0.188
 3447SOL    HW211241   5.914   6.034   0.217
 3448SOL     OW11242   3.105   0.825   1.055
 3448SOL    HW111243   3.134   0.914   1.019
 3448SOL    HW211244   3.015   0.834   1.097
 3449SOL     OW11245   7.004   6.956   2.250
 3449SOL    HW111246   6.938   6.953   2.325
 3449SOL    HW211247   0.062   7.005   2.280
 3450SOL     OW11248   1.094   1.540   2.010
 3450SOL    HW111249   1.009   1.592   2.014
 3450SOL    HW211250   1.155   1.581   1.942
 3451SOL     OW11251   1.547   5.452   3.880
 3451SOL    HW111252   1.626   5.461   3.819
 3451SOL    HW211253   1.508   5.543   3.896
 3452SOL     OW11254   6.313   0.958   0.140
 3452SOL    HW111255   6.336   0.871   0.184
 3452SOL    HW211256   6.384   1.025   0.160
 3453SOL     OW11257   5.406   5.515   5.115
 3453SOL    HW111258   5.423   5.463   5.031
 3453SOL    HW211259   5.381   5.452   5.189
 3454SOL     OW11260   1.233   1.415   1.190
 3454SOL    HW111261   1.225   1.346   1.119
 3454SOL    HW211262   1.159   1.404   1.256
 3455SOL     OW11263   1.479   3.025   4.468
 3455SOL    HW111264   1.548   2.959   4.439
 3455SOL    HW211265   1.388   2.985   4.454
 3456SOL     OW11266   5.794   6.883   1.351
 3456SOL    HW111267   5.795   6.799   1.405
 3456SOL    HW211268   5.761   6.863   1.259
 3457SOL     OW11269   2.755   5.011   3.507
 3457SOL    HW111270   2.833   4.998   3.568
 3457SOL    HW211271   2.741   5.109   3.492
 3458SOL     OW11272   6.054   6.793   0.284
 3458SOL    HW111273   5.983   6.828   0.345
 3458SOL    HW211274   6.015   6.778   0.193
 3459SOL     OW11275   0.380   4.266   3.597
 3459SOL    HW111276   0.387   4.167   3.607
 3459SOL    HW211277   0.398   4.310   3.686
 3460SOL     OW11278   3.499   2.656   7.020
 3460SOL    HW111279   3.444   2.596   0.055
 3460SOL    HW211280   3.483   2.751   0.023
 3461SOL     OW11281   3.681   5.224   4.904
 3461SOL    HW111282   3.624   5.155   4.949
 3461SOL    HW211283   3.774   5.188   4.891
 3462SOL     OW11284   5.214   3.479   2.707
 3462SOL    HW111285   5.263   3.487   2.794
 3462SOL    HW211286   5.147   3.405   2.714
 3463SOL     OW11287   1.911   3.233   1.989
 3463SOL    HW111288   1.942   3.315   2.038
 3463SOL    HW211289   1.847   3.260   1.917
 3464SOL     OW11290   5.259   3.228   6.329
 3464SOL    HW111291   5.278   3.142   6.281
 3464SOL    HW211292   5.171   3.265   6.298
 3465SOL     OW11293   2.147   3.782   1.875
 3465SOL    HW111294   2.154   3.694   1.922
 3465SOL    HW211295   2.051   3.808   1.868
 3466SOL     OW11296   5.490   4.439   5.114
 3466SOL    HW111297   5.401   4.444   5.159
 3466SOL    HW211298   5.532   4.349   5.133
 3467SOL     OW11299   2.947   2.659   0.943
 3467SOL    HW111300   2.987   2.588   1.002
 3467SOL    HW211301   2.868   2.699   0.990
 3468SOL     OW11302   4.685   1.341   1.267
 3468SOL    HW111303   4.719   1.292   1.347
 3468SOL    HW211304   4.622   1.282   1.217
 3469SOL     OW11305   4.603   6.862   5.986
 3469SOL    HW111306   4.645   6.849   6.076
 3469SOL    HW211307   4.587   6.959   5.971
 3470SOL     OW11308   0.228   2.458   1.122
 3470SOL    HW111309   0.277   2.371   1.116
 3470SOL    HW211310   0.294   2.532   1.137
 3471SOL     OW11311   4.267   4.632   3.020
 3471SOL    HW111312   4.318   4.582   3.090
 3471SOL    HW211313   4.301   4.606   2.930
 3472SOL     OW11314   4.437   2.275   3.176
 3472SOL    HW111315   4.490   2.239   3.252
 3472SOL    HW211316   4.340   2.256   3.191
 3473SOL     OW11317   0.268   3.725   3.734
 3473SOL    HW111318   0.341   3.750   3.797
 3473SOL    HW211319   0.301   3.656   3.670
 3474SOL     OW11320   6.701   4.739   4.423
 3474SOL    HW111321   6.735   4.709   4.334
 3474SOL    HW211322   6.667   4.661   4.475
 3475SOL     OW11323   7.016   4.472   4.629
 3475SOL    HW111324   0.014   4.510   4.539
 3475SOL    HW211325   6.992   4.376   4.620
 3476SOL     OW11326   1.918   1.624   3.556
 3476SOL    HW111327   1.978   1.577   3.492
 3476SOL    HW211328   1.924   1.580   3.645
 3477SOL     OW11329   0.295   3.930   1.758
 3477SOL    HW111330   0.380   3.944   1.708
 3477SOL    HW211331   0.241   3.859   1.713
 3478SOL     OW11332   2.334   0.252   0.244
 3478SOL    HW111333   2.327   0.351   0.237
 3478SOL    HW211334   2.395   0.228   0.320
 3479SOL     OW11335   0.561   3.128   3.431
 3479SOL    HW111336   0.473   3.162   3.396
 3479SOL    HW211337   0.555   3.117   3.530
 3480SOL     OW11338   1.172   5.897   6.640
 3480SOL    HW111339   1.225   5.954   6.703
 3480SOL    HW211340   1.225   5.880   6.558
 3481SOL     OW11341   5.728   0.348   0.193
 3481SOL    HW111342   5.822   0.323   0.219
 3481SOL    HW211343   5.719   0.447   0.195
 3482SOL     OW11344   6.070   2.610   4.295
 3482SOL    HW111345   6.137   2.629   4.224
 3482SOL    HW211346   6.074   2.681   4.365
 3483SOL     OW11347   4.731   2.396   3.232
 3483SOL    HW111348   4.740   2.315   3.174
 3483SOL    HW211349   4.680   2.372   3.315
 3484SOL     OW11350   1.831   3.336   6.070
 3484SOL    HW111351   1.794   3.291   6.150
 3484SOL    HW211352   1.893   3.274   6.022
 3485SOL     OW11353   6.639   1.656   5.481
 3485SOL    HW111354   6.672   1.735   5.430
 3485SOL    HW211355   6.675   1.572   5.440
 3486SOL     OW11356   2.245   6.636   4.841
 3486SOL    HW111357   2.199   6.722   4.862
 3486SOL    HW211358   2.185   6.578   4.786
 3487SOL     OW11359   5.607   1.521   6.758
 3487SOL    HW111360   5.613   1.616   6.726
 3487SOL    HW211361   5.670   1.507   6.834
 3488SOL     OW11362   5.990   0.173   4.536
 3488SOL    HW111363   6.018   0.125   4.618
 3488SOL    HW211364   6.043   0.140   4.458
 3489SOL     OW11365   3.099   0.167   1.342
 3489SOL    HW111366   3.163   0.168   1.265
 3489SOL    HW211367   3.006   0.162   1.308
 3490SOL     OW11368   4.194   4.881   0.933
 3490SOL    HW111369   4.195   4.924   1.024
 3490SOL    HW211370   4.222   4.786   0.941
 3491SOL     OW11371   5.273   3.727   0.033
 3491SOL    HW111372   5.327   3.664   0.089
 3491SOL    HW211373   5.184   3.685   0.013
 3492SOL     OW11374   6.485   3.969   2.758
 3492SOL    HW111375   6.500   4.016   2.671
 3492SOL    HW211376   6.484   3.871   2.742
 3493SOL     OW11377   6.346   3.714   4.180
 3493SOL    HW111378   6.398   3.723   4.095
 3493SOL    HW211379   6.277   3.786   4.185
 3494SOL     OW11380   2.933   1.863   2.572
 3494SOL    HW111381   2.946   1.764   2.571
 3494SOL    HW211382   2.857   1.887   2.512
 3495SOL     OW11383   1.111   3.756   2.057
 3495SOL    HW111384   1.203   3.788   2.076
 3495SOL    HW211385   1.116   3.663   2.018
 3496SOL     OW11386   6.168   4.861   0.293
 3496SOL    HW111387   6.143   4.922   0.369
 3496SOL    HW211388   6.136   4.769   0.314
 3497SOL     OW11389   4.220   0.580   3.206
 3497SOL    HW111390   4.212   0.680   3.198
 3497SOL    HW211391   4.217   0.539   3.115
 3498SOL     OW11392   2.348   1.503   2.235
 3498SOL    HW111393   2.415   1.431   2.250
 3498SOL    HW211394   2.258   1.473   2.266
 3499SOL     OW11395   6.123   5.861   5.830
 3499SOL    HW111396   6.091   5.807   5.752
 3499SOL    HW211397   6.046   5.880   5.891
 3500SOL     OW11398   1.600   1.486   4.143
 3500SOL    HW111399   1.656   1.403   4.139
 3500SOL    HW211400   1.584   1.510   4.239
 3501SOL     OW11401   2.575   6.961   6.789
 3501SOL    HW111402   2.511   6.976   6.864
 3501SOL    HW211403   2.558   0.005   6.717
 3502SOL     OW11404   5.764   2.941   1.701
 3502SOL    HW111405   5.669   2.969   1.692
 3502SOL    HW211406   5.779   2.899   1.790
 3503SOL     OW11407   0.176   6.046   6.042
 3503SOL    HW111408   0.108   6.022   5.972
 3503SOL    HW211409   0.268   6.024   6.008
 3504SOL     OW11410   1.475   0.870   2.021
 3504SOL    HW111411   1.557   0.815   2.030
 3504SOL    HW211412   1.498   0.958   1.980
 3505SOL     OW11413   5.453   5.336   5.848
 3505SOL    HW111414   5.464   5.299   5.756
 3505SOL    HW211415   5.529   5.398   5.868
 3506SOL     OW11416   5.669   4.519   4.881
 3506SOL    HW111417   5.603   4.477   4.944
 3506SOL    HW211418   5.747   4.553   4.933
 3507SOL     OW11419   2.593   0.646   0.748
 3507SOL    HW111420   2.661   0.577   0.721
 3507SOL    HW211421   2.509   0.633   0.695
 3508SOL     OW11422   3.159   2.658   5.362
 3508SOL    HW111423   3.179   2.575   5.310
 3508SOL    HW211424   3.143   2.635   5.458
 3509SOL     OW11425   4.624   6.622   0.532
 3509SOL    HW111426   4.716   6.586   0.550
 3509SOL    HW211427   4.627   6.722   0.531
 3510SOL     OW11428   2.083   1.040   1.461
 3510SOL    HW111429   1.996   1.073   1.425
 3510SOL    HW211430   2.147   1.025   1.386
 3511SOL     OW11431   1.792   4.751   1.295
 3511SOL    HW111432   1.886   4.780   1.276
 3511SOL    HW211433   1.784   4.652   1.278
 3512SOL     OW11434   0.633   3.968   0.015
 3512SOL    HW111435   0.685   3.936   0.094
 3512SOL    HW211436   0.551   4.016   0.046
 3513SOL     OW11437   6.322   2.255   1.131
 3513SOL    HW111438   6.331   2.192   1.054
 3513SOL    HW211439   6.392   2.233   1.199
 3514SOL     OW11440   5.652   0.950   2.815
 3514SOL    HW111441   5.558   0.918   2.802
 3514SOL    HW211442   5.708   0.875   2.849
 3515SOL     OW11443   5.830   5.979   3.911
 3515SOL    HW111444   5.784   6.046   3.968
 3515SOL    HW211445   5.769   5.951   3.837
 3516SOL     OW11446   4.726   0.044   0.974
 3516SOL    HW111447   4.702   0.131   1.017
 3516SOL    HW211448   4.707   6.993   1.037
 3517SOL     OW11449   6.631   1.404   0.980
 3517SOL    HW111450   6.685   1.469   0.928
 3517SOL    HW211451   6.662   1.311   0.959
 3518SOL     OW11452   5.897   1.964   4.575
 3518SOL    HW111453   5.835   2.026   4.623
 3518SOL    HW211454   5.900   1.989   4.478
 3519SOL     OW11455   2.940   1.089   6.714
 3519SOL    HW111456   2.972   1.181   6.690
 3519SOL    HW211457   3.017   1.026   6.715
 3520SOL     OW11458   3.473   5.455   5.682
 3520SOL    HW111459   3.479   5.384   5.754
 3520SOL    HW211460   3.377   5.475   5.664
 3521SOL     OW11461   3.266   2.906   6.656
 3521SOL    HW111462   3.355   2.937   6.691
 3521SOL    HW211463   3.214   2.985   6.624
 3522SOL     OW11464   6.595   5.269   6.411
 3522SOL    HW111465   6.586   5.340   6.342
 3522SOL    HW211466   6.620   5.310   6.499
 3523SOL     OW11467   1.106   5.256   4.892
 3523SOL    HW111468   1.099   5.156   4.894
 3523SOL    HW211469   1.178   5.285   4.955
 3524SOL     OW11470   5.576   1.985   2.812
 3524SOL    HW111471   5.492   2.038   2.806
 3524SOL    HW211472   5.579   1.938   2.900
 3525SOL     OW11473   6.170   3.941   4.155
 3525SOL    HW111474   6.079   3.902   4.139
 3525SOL    HW211475   6.163   4.014   4.224
 3526SOL     OW11476   1.451   5.482   3.355
 3526SOL    HW111477   1.534   5.524   3.393
 3526SOL    HW211478   1.421   5.408   3.415
 3527SOL     OW11479   6.015   2.591   6.128
 3527SOL    HW111480   6.102   2.616   6.171
 3527SOL    HW211481   5.950   2.666   6.139
 3528SOL     OW11482   2.494   6.463   5.370
 3528SOL    HW111483   2.585   6.495   5.396
 3528SOL    HW211484   2.501   6.369   5.336
 3529SOL     OW11485   4.061   6.026   6.687
 3529SOL    HW111486   4.142   5.967   6.689
 3529SOL    HW211487   4.000   5.997   6.613
 3530SOL     OW11488   0.137   5.504   2.005
 3530SOL    HW111489   0.205   5.457   2.060
 3530SOL    HW211490   0.051   5.509   2.055
 3531SOL     OW11491   4.969   1.879   1.945
 3531SOL    HW111492   4.942   1.936   1.867
 3531SOL    HW211493   5.065   1.897   1.968
 3532SOL     OW11494   2.449   1.125   2.054
 3532SOL    HW111495   2.523   1.178   2.095
 3532SOL    HW211496   2.483   1.034   2.028
 3533SOL     OW11497   0.084   1.795   2.830
 3533SOL    HW111498   0.111   1.755   2.917
 3533SOL    HW211499   0.127   1.885   2.819
 3534SOL     OW11500   0.649   2.420   2.408
 3534SOL    HW111501   0.664   2.329   2.447
 3534SOL    HW211502   0.716   2.436   2.335
 3535SOL     OW11503   2.765   4.925   5.255
 3535SOL    HW111504   2.800   4.832   5.262
 3535SOL    HW211505   2.670   4.922   5.223
 3536SOL     OW11506   3.378   1.899   3.063
 3536SOL    HW111507   3.389   1.812   3.015
 3536SOL    HW211508   3.282   1.912   3.087
 3537SOL     OW11509   1.249   5.826   2.957
 3537SOL    HW111510   1.309   5.853   2.882
 3537SOL    HW211511   1.286   5.745   3.002
 3538SOL     OW11512   2.975   5.448   5.035
 3538SOL    HW111513   2.972   5.397   5.121
 3538SOL    HW211514   2.912   5.525   5.040
 3539SOL     OW11515   3.530   3.876   4.358
 3539SOL    HW111516   3.589   3.948   4.323
 3539SOL    HW211517   3.502   3.898   4.451
 3540SOL     OW11518   1.938   2.248   4.031
 3540SOL    HW111519   1.965   2.292   4.116
 3540SOL    HW211520   1.916   2.152   4.049
 3541SOL     OW11521   3.029   3.346   5.253
 3541SOL    HW111522   2.997   3.259   5.216
 3541SOL    HW211523   3.011   3.419   5.186
 3542SOL     OW11524   1.614   4.855   2.889
 3542SOL    HW111525   1.591   4.849   2.791
 3542SOL    HW211526   1.559   4.789   2.940
 3543SOL     OW11527   5.097   2.434   4.316
 3543SOL    HW111528   5.192   2.418   4.292
 3543SOL    HW211529   5.075   2.530   4.304
 3544SOL     OW11530   1.881   4.172   7.013
 3544SOL    HW111531   1.850   4.088   6.969
 3544SOL    HW211532   1.958   4.210   6.962
 3545SOL     OW11533   4.183   6.259   6.580
 3545SOL    HW111534   4.129   6.293   6.503
 3545SOL    HW211535   4.128   6.193   6.632
 3546SOL     OW11536   0.030   5.760   3.561
 3546SOL    HW111537   0.016   5.850   3.519
 3546SOL    HW211538   0.039   5.691   3.490
 3547SOL     OW11539   3.858   5.581   4.098
 3547SOL    HW111540   3.926   5.628   4.041
 3547SOL    HW211541   3.831   5.495   4.054
 3548SOL     OW11542   4.884   2.384   5.817
 3548SOL    HW111543   4.793   2.416   5.841
 3548SOL    HW211544   4.897   2.391   5.718
 3549SOL     OW11545   6.468   4.928   4.052
 3549SOL    HW111546   6.400   4.957   4.119
 3549SOL    HW211547   6.518   5.008   4.018
 3550SOL     OW11548   5.330   2.246   3.334
 3550SOL    HW111549   5.326   2.338   3.296
 3550SOL    HW211550   5.356   2.181   3.262
 3551SOL     OW11551   3.655   6.239   3.105
 3551SOL    HW111552   3.678   6.317   3.163
 3551SOL    HW211553   3.676   6.154   3.153
 3552SOL     OW11554   5.763   5.420   3.077
 3552SOL    HW111555   5.853   5.447   3.112
 3552SOL    HW211556   5.761   5.321   3.063
 3553SOL     OW11557   5.428   2.676   2.179
 3553SOL    HW111558   5.344   2.698   2.227
 3553SOL    HW211559   5.501   2.737   2.209
 3554SOL     OW11560   4.178   4.023   6.592
 3554SOL    HW111561   4.132   3.993   6.509
 3554SOL    HW211562   4.252   4.086   6.569
 3555SOL     OW11563   0.686   3.590   3.012
 3555SOL    HW111564   0.661   3.532   3.089
 3555SOL    HW211565   0.708   3.533   2.933
 3556SOL     OW11566   3.255   0.303   5.487
 3556SOL    HW111567   3.315   0.308   5.566
 3556SOL    HW211568   3.168   0.348   5.509
 3557SOL     OW11569   1.132   0.494   4.917
 3557SOL    HW111570   1.094   0.426   4.854
 3557SOL    HW211571   1.226   0.469   4.940
 3558SOL     OW11572   0.464   5.662   1.792
 3558SOL    HW111573   0.492   5.758   1.782
 3558SOL    HW211574   0.508   5.607   1.721
 3559SOL     OW11575   0.258   0.142   5.222
 3559SOL    HW111576   0.238   0.169   5.316
 3559SOL    HW211577   0.253   0.222   5.163
 3560SOL     OW11578   1.315   6.026   1.023
 3560SOL    HW111579   1.237   5.971   1.053
 3560SOL    HW211580   1.393   5.967   1.005
 3561SOL     OW11581   4.674   4.403   5.753
 3561SOL    HW111582   4.684   4.365   5.661
 3561SOL    HW211583   4.607   4.349   5.804
 3562SOL     OW11584   5.072   0.240   3.919
 3562SOL    HW111585   5.170   0.261   3.923
 3562SOL    HW211586   5.059   0.141   3.910
 3563SOL     OW11587   5.457   1.337   1.219
 3563SOL    HW111588   5.545   1.334   1.265
 3563SOL    HW211589   5.444   1.427   1.177
 3564SOL     OW11590   0.540   4.143   5.051
 3564SOL    HW111591   0.607   4.203   5.096
 3564SOL    HW211592   0.588   4.082   4.987
 3565SOL     OW11593   2.538   0.054   4.536
 3565SOL    HW111594   2.457   0.052   4.477
 3565SOL    HW211595   2.586   0.141   4.522
 3566SOL     OW11596   0.103   3.130   5.847
 3566SOL    HW111597   0.119   3.148   5.944
 3566SOL    HW211598   0.179   3.169   5.794
 3567SOL     OW11599   0.590   3.288   1.020
 3567SOL    HW111600   0.536   3.250   1.095
 3567SOL    HW211601   0.687   3.280   1.041
 3568SOL     OW11602   4.896   4.825   2.653
 3568SOL    HW111603   4.922   4.734   2.686
 3568SOL    HW211604   4.830   4.816   2.578
 3569SOL     OW11605   2.925   3.360   4.455
 3569SOL    HW111606   2.879   3.401   4.377
 3569SOL    HW211607   2.927   3.425   4.532
 3570SOL     OW11608   6.340   1.904   5.693
 3570SOL    HW111609   6.430   1.872   5.722
 3570SOL    HW211610   6.340   1.916   5.593
 3571SOL     OW11611   1.968   0.467   5.307
 3571SOL    HW111612   2.024   0.396   5.266
 3571SOL    HW211613   1.942   0.440   5.400
 3572SOL     OW11614   5.220   3.906   1.936
 3572SOL    HW111615   5.197   3.862   1.849
 3572SOL    HW211616   5.158   3.873   2.007
 3573SOL     OW11617   6.230   3.958   2.113
 3573SOL    HW111618   6.171   3.931   2.189
 3573SOL    HW211619   6.313   3.903   2.113
 3574SOL     OW11620   2.531   3.248   6.008
 3574SOL    HW111621   2.448   3.228   6.060
 3574SOL    HW211622   2.594   3.170   6.014
 3575SOL     OW11623   4.654   6.097   0.973
 3575SOL    HW111624   4.683   6.122   0.880
 3575SOL    HW211625   4.555   6.095   0.977
 3576SOL     OW11626   0.075   3.317   6.929
 3576SOL    HW111627   0.138   3.329   7.006
 3576SOL    HW211628   0.046   3.406   6.895
 3577SOL     OW11629   1.994   2.751   4.951
 3577SOL    HW111630   2.084   2.773   4.914
 3577SOL    HW211631   1.953   2.832   4.991
 3578SOL     OW11632   3.058   3.073   0.293
 3578SOL    HW111633   2.979   3.134   0.298
 3578SOL    HW211634   3.059   3.026   0.205
 3579SOL     OW11635   0.235   3.367   2.082
 3579SOL    HW111636   0.189   3.345   2.168
 3579SOL    HW211637   0.331   3.341   2.088
 3580SOL     OW11638   0.520   3.435   1.279
 3580SOL    HW111639   0.477   3.455   1.367
 3580SOL    HW211640   0.461   3.376   1.226
 3581SOL     OW11641   0.760   0.290   2.873
 3581SOL    HW111642   0.670   0.294   2.916
 3581SOL    HW211643   0.794   0.195   2.876
 3582SOL     OW11644   3.670   4.061   5.879
 3582SOL    HW111645   3.635   4.078   5.787
 3582SOL    HW211646   3.671   3.962   5.897
 3583SOL     OW11647   0.057   4.756   0.935
 3583SOL    HW111648   0.042   4.775   0.838
 3583SOL    HW211649   6.996   4.772   0.986
 3584SOL     OW11650   5.358   4.548   4.889
 3584SOL    HW111651   5.293   4.472   4.888
 3584SOL    HW211652   5.413   4.544   4.972
 3585SOL     OW11653   2.407   2.149   4.432
 3585SOL    HW111654   2.412   2.072   4.368
 3585SOL    HW211655   2.428   2.117   4.524
 3586SOL     OW11656   6.652   3.118   3.479
 3586SOL    HW111657   6.708   3.046   3.437
 3586SOL    HW211658   6.566   3.126   3.429
 3587SOL     OW11659   3.784   6.765   6.177
 3587SOL    HW111660   3.783   6.782   6.079
 3587SOL    HW211661   3.708   6.704   6.202
 3588SOL     OW11662   6.274   3.840   4.611
 3588SOL    HW111663   6.236   3.749   4.631
 3588SOL    HW211664   6.345   3.862   4.678
 3589SOL     OW11665   6.894   0.083   6.113
 3589SOL    HW111666   6.971   0.033   6.073
 3589SOL    HW211667   6.920   0.116   6.204
 3590SOL     OW11668   0.571   4.156   0.456
 3590SOL    HW111669   0.535   4.070   0.420
 3590SOL    HW211670   0.499   4.226   0.453
 3591SOL     OW11671   5.442   2.505   6.792
 3591SOL    HW111672   5.527   2.549   6.765
 3591SOL    HW211673   5.441   2.411   6.759
 3592SOL     OW11674   1.307   0.363   2.269
 3592SOL    HW111675   1.329   0.308   2.188
 3592SOL    HW211676   1.214   0.399   2.261
 3593SOL     OW11677   5.909   3.579   5.783
 3593SOL    HW111678   5.943   3.597   5.875
 3593SOL    HW211679   5.926   3.659   5.725
 3594SOL     OW11680   4.018   5.309   4.555
 3594SOL    HW111681   4.082   5.369   4.603
 3594SOL    HW211682   3.983   5.356   4.473
 3595SOL     OW11683   5.550   5.912   6.303
 3595SOL    HW111684   5.573   5.815   6.318
 3595SOL    HW211685   5.626   5.969   6.335
 3596SOL     OW11686   3.652   1.163   2.796
 3596SOL    HW111687   3.740   1.212   2.804
 3596SOL    HW211688   3.668   1.072   2.759
 3597SOL     OW11689   1.501   3.164   5.016
 3597SOL    HW111690   1.543   3.122   4.936
 3597SOL    HW211691   1.569   3.173   5.089
 3598SOL     OW11692   1.385   5.639   4.718
 3598SOL    HW111693   1.330   5.555   4.722
 3598SOL    HW211694   1.332   5.715   4.755
 3599SOL     OW11695   4.654   1.732   5.370
 3599SOL    HW111696   4.751   1.715   5.351
 3599SOL    HW211697   4.641   1.830   5.386
 3600SOL     OW11698   3.638   3.726   0.663
 3600SOL    HW111699   3.654   3.660   0.737
 3600SOL    HW211700   3.726   3.759   0.629
 3601SOL     OW11701   4.912   1.102   5.446
 3601SOL    HW111702   4.988   1.163   5.469
 3601SOL    HW211703   4.922   1.016   5.496
 3602SOL     OW11704   1.905   2.533   1.121
 3602SOL    HW111705   1.999   2.566   1.113
 3602SOL    HW211706   1.903   2.455   1.184
 3603SOL     OW11707   3.128   0.845   5.716
 3603SOL    HW111708   3.050   0.800   5.674
 3603SOL    HW211709   3.112   0.943   5.721
 3604SOL     OW11710   6.662   0.450   3.501
 3604SOL    HW111711   6.676   0.375   3.436
 3604SOL    HW211712   6.579   0.499   3.478
 3605SOL     OW11713   0.594   5.413   3.464
 3605SOL    HW111714   0.534   5.364   3.401
 3605SOL    HW211715   0.656   5.471   3.412
 3606SOL     OW11716   1.997   6.500   1.673
 3606SOL    HW111717   1.901   6.514   1.649
 3606SOL    HW211718   2.054   6.517   1.592
 3607SOL     OW11719   5.363   2.323   2.691
 3607SOL    HW111720   5.271   2.362   2.698
 3607SOL    HW211721   5.412   2.367   2.616
 3608SOL     OW11722   3.801   2.167   4.391
 3608SOL    HW111723   3.786   2.069   4.409
 3608SOL    HW211724   3.861   2.204   4.462
 3609SOL     OW11725   2.175   6.912   4.856
 3609SOL    HW111726   2.086   6.949   4.829
 3609SOL    HW211727   2.238   6.987   4.876
 3610SOL     OW11728   2.241   0.160   5.249
 3610SOL    HW111729   2.197   0.227   5.189
 3610SOL    HW211730   2.267   0.080   5.196
 3611SOL     OW11731   4.593   4.370   3.368
 3611SOL    HW111732   4.578   4.341   3.462
 3611SOL    HW211733   4.623   4.466   3.367
 3612SOL     OW11734   5.315   1.606   6.780
 3612SOL    HW111735   5.389   1.637   6.839
 3612SOL    HW211736   5.344   1.525   6.730
 3613SOL     OW11737   3.579   5.167   1.193
 3613SOL    HW111738   3.517   5.169   1.271
 3613SOL    HW211739   3.555   5.091   1.133
 3614SOL     OW11740   3.434   4.346   6.453
 3614SOL    HW111741   3.490   4.428   6.461
 3614SOL    HW211742   3.418   4.325   6.357
 3615SOL     OW11743   6.444   2.515   5.279
 3615SOL    HW111744   6.451   2.610   5.311
 3615SOL    HW211745   6.454   2.513   5.179
 3616SOL     OW11746   1.894   1.950   6.664
 3616SOL    HW111747   1.881   1.931   6.567
 3616SOL    HW211748   1.927   2.044   6.675
 3617SOL     OW11749   4.010   6.836   5.839
 3617SOL    HW111750   3.988   6.742   5.812
 3617SOL    HW211751   4.081   6.834   5.910
 3618SOL     OW11752   1.889   4.021   4.749
 3618SOL    HW111753   1.840   3.934   4.749
 3618SOL    HW211754   1.963   4.018   4.682
 3619SOL     OW11755   6.674   2.727   1.345
 3619SOL    HW111756   6.627   2.784   1.412
 3619SOL    HW211757   6.692   2.637   1.385
 3620SOL     OW11758   6.507   6.540   5.179
 3620SOL    HW111759   6.463   6.571   5.263
 3620SOL    HW211760   6.584   6.600   5.157
 3621SOL     OW11761   3.570   2.880   3.768
 3621SOL    HW111762   3.489   2.907   3.820
 3621SOL    HW211763   3.620   2.811   3.820
 3622SOL     OW11764   1.140   0.032   0.476
 3622SOL    HW111765   1.129   0.131   0.464
 3622SOL    HW211766   1.102   0.005   0.565
 3623SOL     OW11767   1.133   5.317   6.188
 3623SOL    HW111768   1.064   5.299   6.118
 3623SOL    HW211769   1.117   5.257   6.267
 3624SOL     OW11770   3.194   0.906   2.007
 3624SOL    HW111771   3.261   0.851   2.056
 3624SOL    HW211772   3.134   0.845   1.953
 3625SOL     OW11773   6.917   2.566   6.666
 3625SOL    HW111774   6.981   2.492   6.690
 3625SOL    HW211775   6.825   2.528   6.656
 3626SOL     OW11776   0.851   2.679   5.182
 3626SOL    HW111777   0.841   2.767   5.229
 3626SOL    HW211778   0.849   2.605   5.249
 3627SOL     OW11779   4.079   2.599   1.283
 3627SOL    HW111780   4.093   2.604   1.184
 3627SOL    HW211781   4.018   2.673   1.312
 3628SOL     OW11782   0.020   1.387   2.567
 3628SOL    HW111783   0.034   1.288   2.572
 3628SOL    HW211784   0.083   1.433   2.629
 3629SOL     OW11785   1.633   1.192   4.420
 3629SOL    HW111786   1.719   1.244   4.417
 3629SOL    HW211787   1.650   1.103   4.463
 3630SOL     OW11788   6.774   2.880   3.406
 3630SOL    HW111789   6.835   2.807   3.437
 3630SOL    HW211790   6.685   2.840   3.380
 3631SOL     OW11791   1.712   6.925   2.582
 3631SOL    HW111792   1.785   6.994   2.580
 3631SOL    HW211793   1.696   6.890   2.490
 3632SOL     OW11794   4.525   3.455   0.643
 3632SOL    HW111795   4.446   3.463   0.704
 3632SOL    HW211796   4.581   3.377   0.671
 3633SOL     OW11797   3.702   2.767   6.147
 3633SOL    HW111798   3.723   2.716   6.231
 3633SOL    HW211799   3.667   2.704   6.078
 3634SOL     OW11800   2.849   5.380   6.191
 3634SOL    HW111801   2.757   5.380   6.152
 3634SOL    HW211802   2.905   5.310   6.145
 3635SOL     OW11803   2.679   1.176   1.642
 3635SOL    HW111804   2.766   1.137   1.611
 3635SOL    HW211805   2.687   1.200   1.739
 3636SOL     OW11806   1.054   5.420   0.084
 3636SOL    HW111807   1.028   5.325   0.097
 3636SOL    HW211808   0.998   5.479   0.143
 3637SOL     OW11809   6.974   2.911   6.971
 3637SOL    HW111810   0.033   2.894   6.916
 3637SOL    HW211811   6.987   2.992   0.004
 3638SOL     OW11812   5.731   4.430   2.594
 3638SOL    HW111813   5.672   4.391   2.664
 3638SOL    HW211814   5.736   4.367   2.516
 3639SOL     OW11815   3.032   4.006   4.512
 3639SOL    HW111816   2.953   4.040   4.461
 3639SOL    HW211817   3.007   3.922   4.560
 3640SOL     OW11818   5.416   2.067   0.689
 3640SOL    HW111819   5.489   2.061   0.620
 3640SOL    HW211820   5.381   2.161   0.692
 3641SOL     OW11821   6.729   4.232   2.182
 3641SOL    HW111822   6.634   4.221   2.210
 3641SOL    HW211823   6.786   4.165   2.230
 3642SOL     OW11824   6.084   2.710   6.711
 3642SOL    HW111825   5.987   2.732   6.699
 3642SOL    HW211826   6.095   2.610   6.715
 3643SOL     OW11827   3.653   5.417   5.458
 3643SOL    HW111828   3.608   5.429   5.547
 3643SOL    HW211829   3.702   5.500   5.434
 3644SOL     OW11830   3.343   1.023   1.729
 3644SOL    HW111831   3.322   1.083   1.651
 3644SOL    HW211832   3.292   0.938   1.720
 3645SOL     OW11833   1.732   4.542   4.272
 3645SOL    HW111834   1.762   4.634   4.248
 3645SOL    HW211835   1.709   4.538   4.369
 3646SOL     OW11836   2.399   4.520   4.922
 3646SOL    HW111837   2.467   4.540   4.993
 3646SOL    HW211838   2.325   4.466   4.962
 3647SOL     OW11839   2.621   0.317   0.328
 3647SOL    HW111840   2.643   0.415   0.325
 3647SOL    HW211841   2.705   0.263   0.333
 3648SOL     OW11842   4.245   5.302   3.569
 3648SOL    HW111843   4.327   5.269   3.523
 3648SOL    HW211844   4.260   5.303   3.668
 3649SOL     OW11845   5.778   2.869   0.462
 3649SOL    HW111846   5.866   2.908   0.438
 3649SOL    HW211847   5.774   2.774   0.431
 3650SOL     OW11848   5.621   5.342   0.281
 3650SOL    HW111849   5.630   5.380   0.188
 3650SOL    HW211850   5.689   5.385   0.340
 3651SOL     OW11851   0.955   2.678   6.141
 3651SOL    HW111852   0.954   2.603   6.075
 3651SOL    HW211853   1.026   2.744   6.116
 3652SOL     OW11854   4.972   1.598   1.967
 3652SOL    HW111855   4.949   1.696   1.961
 3652SOL    HW211856   4.889   1.545   1.977
 3653SOL     OW11857   0.388   1.239   1.354
 3653SOL    HW111858   0.434   1.175   1.416
 3653SOL    HW211859   0.449   1.259   1.276
 3654SOL     OW11860   5.975   0.237   0.753
 3654SOL    HW111861   5.879   0.265   0.753
 3654SOL    HW211862   5.996   0.190   0.839
 3655SOL     OW11863   1.724   2.315   4.562
 3655SOL    HW111864   1.694   2.255   4.635
 3655SOL    HW211865   1.749   2.261   4.482
 3656SOL     OW11866   0.266   6.348   1.315
 3656SOL    HW111867   0.314   6.428   1.350
 3656SOL    HW211868   0.306   6.320   1.227
 3657SOL     OW11869   5.065   6.274   4.874
 3657SOL    HW111870   5.069   6.273   4.974
 3657SOL    HW211871   5.119   6.199   4.837
 3658SOL     OW11872   1.626   5.163   6.238
 3658SOL    HW111873   1.656   5.155   6.334
 3658SOL    HW211874   1.591   5.075   6.207
 3659SOL     OW11875   6.735   1.489   6.223
 3659SOL    HW111876   6.669   1.436   6.170
 3659SOL    HW211877   6.691   1.573   6.257
 3660SOL     OW11878   5.464   5.191   6.090
 3660SOL    HW111879   5.394   5.120   6.092
 3660SOL    HW211880   5.450   5.250   6.011
 3661SOL     OW11881   0.054   1.805   4.364
 3661SOL    HW111882   0.078   1.898   4.336
 3661SOL    HW211883   0.129   1.768   4.419
 3662SOL     OW11884   3.053   0.974   5.339
 3662SOL    HW111885   3.152   0.970   5.356
 3662SOL    HW211886   3.035   0.958   5.242
 3663SOL     OW11887   2.288   2.652   6.408
 3663SOL    HW111888   2.303   2.746   6.379
 3663SOL    HW211889   2.353   2.591   6.362
 3664SOL     OW11890   3.660   1.589   2.142
 3664SOL    HW111891   3.718   1.508   2.135
 3664SOL    HW211892   3.654   1.634   2.053
 3665SOL     OW11893   1.194   5.912   5.952
 3665SOL    HW111894   1.167   5.933   5.858
 3665SOL    HW211895   1.258   5.835   5.952
 3666SOL     OW11896   2.345   2.089   4.934
 3666SOL    HW111897   2.362   2.112   5.029
 3666SOL    HW211898   2.334   2.173   4.881
 3667SOL     OW11899   2.305   0.235   2.905
 3667SOL    HW111900   2.241   0.211   2.832
 3667SOL    HW211901   2.338   0.151   2.949
 3668SOL     OW11902   0.561   0.695   1.536
 3668SOL    HW111903   0.646   0.661   1.576
 3668SOL    HW211904   0.523   0.627   1.473
 3669SOL     OW11905   6.834   1.251   3.883
 3669SOL    HW111906   6.813   1.345   3.855
 3669SOL    HW211907   6.886   1.206   3.810
 3670SOL     OW11908   3.233   5.320   1.698
 3670SOL    HW111909   3.324   5.311   1.657
 3670SOL    HW211910   3.233   5.394   1.765
 3671SOL     OW11911   6.954   0.358   3.235
 3671SOL    HW111912   6.923   0.453   3.235
 3671SOL    HW211913   0.018   0.352   3.282
 3672SOL     OW11914   4.711   6.581   2.644
 3672SOL    HW111915   4.675   6.648   2.709
 3672SOL    HW211916   4.636   6.546   2.587
 3673SOL     OW11917   4.748   6.002   1.372
 3673SOL    HW111918   4.789   6.073   1.314
 3673SOL    HW211919   4.818   5.935   1.398
 3674SOL     OW11920   1.325   5.238   5.977
 3674SOL    HW111921   1.269   5.273   6.053
 3674SOL    HW211922   1.337   5.139   5.988
 3675SOL     OW11923   0.808   0.889   3.784
 3675SOL    HW111924   0.849   0.844   3.863
 3675SOL    HW211925   0.716   0.921   3.807
 3676SOL     OW11926   3.757   1.692   3.334
 3676SOL    HW111927   3.762   1.594   3.353
 3676SOL    HW211928   3.786   1.708   3.239
 3677SOL     OW11929   1.993   0.191   4.037
 3677SOL    HW111930   1.969   0.111   3.982
 3677SOL    HW211931   2.033   0.261   3.978
 3678SOL     OW11932   1.273   0.482   3.790
 3678SOL    HW111933   1.326   0.551   3.740
 3678SOL    HW211934   1.175   0.501   3.779
 3679SOL     OW11935   4.727   1.014   2.280
 3679SOL    HW111936   4.699   1.107   2.254
 3679SOL    HW211937   4.669   0.948   2.233
 3680SOL     OW11938   4.266   1.400   4.051
 3680SOL    HW111939   4.170   1.372   4.049
 3680SOL    HW211940   4.311   1.356   4.128
 3681SOL     OW11941   1.471   6.144   4.841
 3681SOL    HW111942   1.445   6.171   4.934
 3681SOL    HW211943   1.393   6.104   4.795
 3682SOL     OW11944   5.521   2.241   1.296
 3682SOL    HW111945   5.528   2.314   1.227
 3682SOL    HW211946   5.458   2.269   1.368
 3683SOL     OW11947   6.305   0.809   6.160
 3683SOL    HW111948   6.217   0.852   6.179
 3683SOL    HW211949   6.339   0.841   6.072
 3684SOL     OW11950   2.256   6.812   5.278
 3684SOL    HW111951   2.210   6.882   5.224
 3684SOL    HW211952   2.355   6.826   5.273
 3685SOL     OW11953   2.073   6.274   5.576
 3685SOL    HW111954   2.092   6.231   5.664
 3685SOL    HW211955   2.120   6.224   5.504
 3686SOL     OW11956   0.921   4.702   3.876
 3686SOL    HW111957   0.888   4.676   3.967
 3686SOL    HW211958   1.008   4.751   3.885
 3687SOL     OW11959   5.927   5.742   4.038
 3687SOL    HW111960   5.912   5.734   4.136
 3687SOL    HW211961   5.888   5.828   4.005
 3688SOL     OW11962   5.934   3.239   0.554
 3688SOL    HW111963   6.016   3.293   0.538
 3688SOL    HW211964   5.948   3.146   0.520
 3689SOL     OW11965   1.769   0.008   5.993
 3689SOL    HW111966   1.793   0.105   5.996
 3689SOL    HW211967   1.823   6.982   6.061
 3690SOL     OW11968   4.986   4.548   1.039
 3690SOL    HW111969   5.025   4.577   1.127
 3690SOL    HW211970   5.022   4.606   0.966
 3691SOL     OW11971   2.351   2.360   0.608
 3691SOL    HW111972   2.395   2.270   0.617
 3691SOL    HW211973   2.415   2.431   0.635
 3692SOL     OW11974   0.571   3.635   6.405
 3692SOL    HW111975   0.647   3.699   6.396
 3692SOL    HW211976   0.585   3.559   6.342
 3693SOL     OW11977   0.209   1.454   2.769
 3693SOL    HW111978   0.252   1.431   2.856
 3693SOL    HW211979   0.262   1.525   2.723
 3694SOL     OW11980   6.845   0.285   1.346
 3694SOL    HW111981   6.817   0.219   1.415
 3694SOL    HW211982   6.910   0.242   1.282
 3695SOL     OW11983   6.489   2.728   2.031
 3695SOL    HW111984   6.576   2.679   2.040
 3695SOL    HW211985   6.471   2.780   2.114
 3696SOL     OW11986   4.812   0.745   4.262
 3696SOL    HW111987   4.733   0.775   4.207
 3696SOL    HW211988   4.798   0.771   4.357
 3697SOL     OW11989   0.034   6.494   3.466
 3697SOL    HW111990   0.022   6.428   3.540
 3697SOL    HW211991   0.112   6.467   3.410
 3698SOL     OW11992   2.191   0.487   3.195
 3698SOL    HW111993   2.140   0.521   3.274
 3698SOL    HW211994   2.161   0.394   3.173
 3699SOL     OW11995   2.597   2.391   3.644
 3699SOL    HW111996   2.647   2.403   3.559
 3699SOL    HW211997   2.512   2.444   3.640
 3700SOL     OW11998   0.954   4.958   5.117
 3700SOL    HW111999   0.982   4.867   5.149
 3700SOL    HW212000   1.015   4.987   5.043
 3701SOL     OW12001   1.904   0.783   2.680
 3701SOL    HW112002   1.935   0.787   2.585
 3701SOL    HW212003   1.812   0.820   2.687
 3702SOL     OW12004   5.267   4.476   3.696
 3702SOL    HW112005   5.177   4.443   3.724
 3702SOL    HW212006   5.309   4.527   3.772
 3703SOL     OW12007   1.362   2.025   4.341
 3703SOL    HW112008   1.378   2.096   4.410
 3703SOL    HW212009   1.383   2.061   4.250
 3704SOL     OW12010   6.907   2.281   0.705
 3704SOL    HW112011   6.880   2.222   0.781
 3704SOL    HW212012   6.863   2.370   0.714
 3705SOL     OW12013   5.469   5.135   3.339
 3705SOL    HW112014   5.424   5.179   3.262
 3705SOL    HW212015   5.472   5.036   3.325
 3706SOL     OW12016   0.374   3.875   0.113
 3706SOL    HW112017   0.323   3.958   0.094
 3706SOL    HW212018   0.310   3.800   0.129
 3707SOL     OW12019   1.214   5.329   3.807
 3707SOL    HW112020   1.156   5.313   3.887
 3707SOL    HW212021   1.300   5.280   3.818
 3708SOL     OW12022   3.453   0.043   0.552
 3708SOL    HW112023   3.532   0.040   0.614
 3708SOL    HW212024   3.484   0.039   0.458
 3709SOL     OW12025   1.796   1.076   2.948
 3709SOL    HW112026   1.809   1.161   2.897
 3709SOL    HW212027   1.884   1.028   2.956
 3710SOL     OW12028   6.506   4.894   5.850
 3710SOL    HW112029   6.560   4.910   5.767
 3710SOL    HW212030   6.564   4.910   5.930
 3711SOL     OW12031   1.570   5.457   4.328
 3711SOL    HW112032   1.523   5.398   4.393
 3711SOL    HW212033   1.508   5.481   4.253
 3712SOL     OW12034   2.086   5.455   5.197
 3712SOL    HW112035   2.124   5.384   5.139
 3712SOL    HW212036   2.033   5.519   5.141
 3713SOL     OW12037   6.156   6.464   4.487
 3713SOL    HW112038   6.106   6.474   4.400
 3713SOL    HW212039   6.216   6.384   4.481
 3714SOL     OW12040   0.648   4.614   0.400
 3714SOL    HW112041   0.630   4.523   0.361
 3714SOL    HW212042   0.562   4.664   0.410
 3715SOL     OW12043   6.544   5.195   3.873
 3715SOL    HW112044   6.608   5.260   3.914
 3715SOL    HW212045   6.450   5.223   3.892
 3716SOL     OW12046   5.076   5.523   3.743
 3716SOL    HW112047   5.094   5.620   3.730
 3716SOL    HW212048   5.159   5.471   3.720
 3717SOL     OW12049   4.488   1.146   1.228
 3717SOL    HW112050   4.433   1.066   1.252
 3717SOL    HW212051   4.460   1.224   1.284
 3718SOL     OW12052   0.466   6.748   5.537
 3718SOL    HW112053   0.515   6.816   5.481
 3718SOL    HW212054   0.529   6.711   5.606
 3719SOL     OW12055   3.387   4.298   6.147
 3719SOL    HW112056   3.352   4.215   6.189
 3719SOL    HW212057   3.403   4.283   6.049
 3720SOL     OW12058   0.123   2.501   1.388
 3720SOL    HW112059   0.162   2.500   1.296
 3720SOL    HW212060   0.077   2.415   1.407
 3721SOL     OW12061   6.028   5.032   5.874
 3721SOL    HW112062   6.111   4.988   5.839
 3721SOL    HW212063   6.042   5.131   5.880
 3722SOL     OW12064   4.711   6.800   3.287
 3722SOL    HW112065   4.640   6.786   3.218
 3722SOL    HW212066   4.675   6.775   3.377
 3723SOL     OW12067   4.534   4.413   0.229
 3723SOL    HW112068   4.600   4.351   0.186
 3723SOL    HW212069   4.456   4.426   0.168
 3724SOL     OW12070   1.286   5.052   5.154
 3724SOL    HW112071   1.258   5.004   5.071
 3724SOL    HW212072   1.298   5.149   5.134
 3725SOL     OW12073   0.917   5.988   6.555
 3725SOL    HW112074   1.005   6.022   6.587
 3725SOL    HW212075   0.889   5.911   6.612
 3726SOL     OW12076   6.328   3.331   4.007
 3726SOL    HW112077   6.240   3.320   4.052
 3726SOL    HW212078   6.313   3.352   3.910
 3727SOL     OW12079   6.693   3.306   4.365
 3727SOL    HW112080   6.686   3.277   4.269
 3727SOL    HW212081   6.670   3.403   4.372
 3728SOL     OW12082   2.813   3.505   0.261
 3728SOL    HW112083   2.794   3.564   0.183
 3728SOL    HW212084   2.910   3.512   0.286
 3729SOL     OW12085   0.734   6.907   5.623
 3729SOL    HW112086   0.759   6.946   5.711
 3729SOL    HW212087   0.739   6.807   5.629
 3730SOL     OW12088   3.564   6.000   4.733
 3730SOL    HW112089   3.645   6.045   4.696
 3730SOL    HW212090   3.574   5.901   4.725
 3731SOL     OW12091   0.328   2.655   6.450
 3731SOL    HW112092   0.417   2.649   6.404
 3731SOL    HW212093   0.291   2.563   6.464
 3732SOL     OW12094   3.238   2.339   6.992
 3732SOL    HW112095   3.166   2.409   6.993
 3732SOL    HW212096   3.196   2.249   7.008
 3733SOL     OW12097   1.955   1.472   3.772
 3733SOL    HW112098   1.960   1.513   3.862
 3733SOL    HW212099   2.047   1.449   3.740
 3734SOL     OW12100   4.199   6.768   0.831
 3734SOL    HW112101   4.178   6.865   0.844
 3734SOL    HW212102   4.290   6.758   0.791
 3735SOL     OW12103   4.568   6.903   2.257
 3735SOL    HW112104   4.530   6.826   2.206
 3735SOL    HW212105   4.513   6.985   2.238
 3736SOL     OW12106   6.678   1.287   1.265
 3736SOL    HW112107   6.766   1.335   1.256
 3736SOL    HW212108   6.617   1.315   1.191
 3737SOL     OW12109   0.167   2.928   2.958
 3737SOL    HW112110   0.201   2.899   3.048
 3737SOL    HW212111   0.193   2.860   2.889
 3738SOL     OW12112   6.841   6.644   1.014
 3738SOL    HW112113   6.747   6.625   1.043
 3738SOL    HW212114   6.861   6.741   1.029
 3739SOL     OW12115   2.982   4.424   1.008
 3739SOL    HW112116   2.915   4.416   1.082
 3739SOL    HW212117   2.959   4.360   0.935
 3740SOL     OW12118   5.171   5.415   6.643
 3740SOL    HW112119   5.156   5.396   6.546
 3740SOL    HW212120   5.172   5.514   6.657
 3741SOL     OW12121   5.040   3.196   6.766
 3741SOL    HW112122   5.121   3.253   6.779
 3741SOL    HW212123   5.003   3.169   6.855
 3742SOL     OW12124   3.837   5.412   6.934
 3742SOL    HW112125   3.795   5.397   7.023
 3742SOL    HW212126   3.901   5.338   6.914
 3743SOL     OW12127   4.264   3.307   1.744
 3743SOL    HW112128   4.259   3.371   1.667
 3743SOL    HW212129   4.175   3.263   1.756
 3744SOL     OW12130   0.669   6.780   2.531
 3744SOL    HW112131   0.684   6.822   2.621
 3744SOL    HW212132   0.692   6.683   2.535
 3745SOL     OW12133   4.966   3.973   2.294
 3745SOL    HW112134   4.903   4.038   2.252
 3745SOL    HW212135   4.916   3.913   2.356
 3746SOL     OW12136   6.403   0.398   4.826
 3746SOL    HW112137   6.424   0.477   4.769
 3746SOL    HW212138   6.411   0.315   4.771
 3747SOL     OW12139   3.803   6.405   5.723
 3747SOL    HW112140   3.778   6.500   5.701
 3747SOL    HW212141   3.738   6.343   5.681
 3748SOL     OW12142   5.386   1.524   2.728
 3748SOL    HW112143   5.390   1.436   2.680
 3748SOL    HW212144   5.475   1.570   2.722
 3749SOL     OW12145   0.027   6.629   3.079
 3749SOL    HW112146   6.982   6.559   3.098
 3749SOL    HW212147   0.035   6.643   2.980
 3750SOL     OW12148   5.630   3.965   0.445
 3750SOL    HW112149   5.676   3.931   0.363
 3750SOL    HW212150   5.695   4.013   0.503
 3751SOL     OW12151   2.216   4.023   2.121
 3751SOL    HW112152   2.190   3.927   2.126
 3751SOL    HW212153   2.240   4.056   2.213
 3752SOL     OW12154   1.268   6.511   6.985
 3752SOL    HW112155   1.297   6.577   0.031
 3752SOL    HW212156   1.171   6.522   6.967
 3753SOL     OW12157   6.920   6.615   4.728
 3753SOL    HW112158   6.885   6.540   4.672
 3753SOL    HW212159   6.925   6.587   4.824
 3754SOL     OW12160   6.949   5.575   1.742
 3754SOL    HW112161   6.931   5.667   1.709
 3754SOL    HW212162   0.024   5.563   1.754
 3755SOL     OW12163   5.070   3.782   3.648
 3755SOL    HW112164   5.014   3.744   3.575
 3755SOL    HW212165   5.021   3.775   3.735
 3756SOL     OW12166   2.743   1.055   6.506
 3756SOL    HW112167   2.662   1.110   6.524
 3756SOL    HW212168   2.807   1.065   6.582
 3757SOL     OW12169   2.865   5.722   6.427
 3757SOL    HW112170   2.940   5.742   6.364
 3757SOL    HW212171   2.778   5.747   6.384
 3758SOL     OW12172   1.970   0.999   4.283
 3758SOL    HW112173   2.023   0.975   4.202
 3758SOL    HW212174   2.018   0.965   4.365
 3759SOL     OW12175   4.829   4.752   6.070
 3759SOL    HW112176   4.791   4.826   6.015
 3759SOL    HW212177   4.834   4.668   6.015
 3760SOL     OW12178   1.520   2.568   4.904
 3760SOL    HW112179   1.427   2.585   4.938
 3760SOL    HW212180   1.586   2.594   4.975
 3761SOL     OW12181   0.229   6.191   4.302
 3761SOL    HW112182   0.176   6.257   4.357
 3761SOL    HW212183   0.257   6.234   4.216
 3762SOL     OW12184   0.482   3.923   0.370
 3762SOL    HW112185   0.477   3.879   0.280
 3762SOL    HW212186   0.545   3.871   0.428
 3763SOL     OW12187   6.958   2.824   6.532
 3763SOL    HW112188   6.962   2.728   6.560
 3763SOL    HW212189   6.866   2.860   6.547
 3764SOL     OW12190   2.794   6.774   3.470
 3764SOL    HW112191   2.701   6.807   3.455
 3764SOL    HW212192   2.805   6.683   3.430
 3765SOL     OW12193   5.650   0.637   3.812
 3765SOL    HW112194   5.710   0.650   3.891
 3765SOL    HW212195   5.625   0.726   3.774
 3766SOL     OW12196   0.728   0.512   4.454
 3766SOL    HW112197   0.725   0.611   4.464
 3766SOL    HW212198   0.746   0.469   4.542
 3767SOL     OW12199   2.017   5.059   0.533
 3767SOL    HW112200   2.001   5.150   0.573
 3767SOL    HW212201   2.001   4.989   0.602
 3768SOL     OW12202   5.136   6.240   0.358
 3768SOL    HW112203   5.212   6.276   0.302
 3768SOL    HW212204   5.077   6.316   0.386
 3769SOL     OW12205   4.817   6.446   5.604
 3769SOL    HW112206   4.863   6.391   5.534
 3769SOL    HW212207   4.848   6.541   5.598
 3770SOL     OW12208   2.241   1.621   6.631
 3770SOL    HW112209   2.172   1.655   6.566
 3770SOL    HW212210   2.208   1.634   6.724
 3771SOL     OW12211   5.836   2.135   6.071
 3771SOL    HW112212   5.926   2.101   6.044
 3771SOL    HW212213   5.782   2.060   6.110
 3772SOL     OW12214   5.528   1.153   1.603
 3772SOL    HW112215   5.501   1.130   1.697
 3772SOL    HW212216   5.522   1.252   1.591
 3773SOL     OW12217   6.614   2.558   6.467
 3773SOL    HW112218   6.640   2.612   6.387
 3773SOL    HW212219   6.616   2.616   6.549
 3774SOL     OW12220   0.009   0.562   0.749
 3774SOL    HW112221   0.062   0.554   0.665
 3774SOL    HW212222   0.050   0.631   0.808
 3775SOL     OW12223   6.349   3.399   3.723
 3775SOL    HW112224   6.316   3.330   3.659
 3775SOL    HW212225   6.446   3.383   3.741
 3776SOL     OW12226   2.270   3.283   1.264
 3776SOL    HW112227   2.237   3.201   1.218
 3776SOL    HW212228   2.209   3.307   1.339
 3777SOL     OW12229   2.387   4.457   4.047
 3777SOL    HW112230   2.363   4.362   4.066
 3777SOL    HW212231   2.303   4.513   4.045
 3778SOL     OW12232   2.760   5.682   1.754
 3778SOL    HW112233   2.790   5.620   1.681
 3778SOL    HW212234   2.703   5.633   1.819
 3779SOL     OW12235   2.393   4.581   6.274
 3779SOL    HW112236   2.364   4.611   6.365
 3779SOL    HW212237   2.319   4.529   6.231
 3780SOL     OW12238   3.095   6.233   4.996
 3780SOL    HW112239   3.000   6.203   4.989
 3780SOL    HW212240   3.155   6.153   5.007
 3781SOL     OW12241   3.157   6.472   4.358
 3781SOL    HW112242   3.161   6.501   4.454
 3781SOL    HW212243   3.062   6.467   4.329
 3782SOL     OW12244   2.552   1.316   3.852
 3782SOL    HW112245   2.518   1.405   3.881
 3782SOL    HW212246   2.476   1.251   3.850
 3783SOL     OW12247   5.525   6.438   4.863
 3783SOL    HW112248   5.426   6.423   4.869
 3783SOL    HW212249   5.573   6.355   4.894
 3784SOL     OW12250   5.415   1.506   3.106
 3784SOL    HW112251   5.349   1.542   3.040
 3784SOL    HW212252   5.505   1.501   3.063
 3785SOL     OW12253   2.248   2.374   1.559
 3785SOL    HW112254   2.289   2.291   1.597
 3785SOL    HW212255   2.310   2.451   1.571
 3786SOL     OW12256   3.352   5.201   3.111
 3786SOL    HW112257   3.260   5.236   3.129
 3786SOL    HW212258   3.379   5.224   3.018
 3787SOL     OW12259   3.957   1.272   3.480
 3787SOL    HW112260   3.941   1.314   3.391
 3787SOL    HW212261   3.869   1.254   3.525
 3788SOL     OW12262   5.539   2.757   2.554
 3788SOL    HW112263   5.591   2.804   2.482
 3788SOL    HW212264   5.601   2.733   2.629
 3789SOL     OW12265   2.066   5.385   3.691
 3789SOL    HW112266   2.102   5.453   3.627
 3789SOL    HW212267   2.109   5.297   3.673
 3790SOL     OW12268   2.063   3.374   4.167
 3790SOL    HW112269   2.062   3.418   4.077
 3790SOL    HW212270   2.095   3.438   4.236
 3791SOL     OW12271   4.728   6.822   1.172
 3791SOL    HW112272   4.777   6.746   1.215
 3791SOL    HW212273   4.648   6.845   1.227
 3792SOL     OW12274   6.474   6.416   5.656
 3792SOL    HW112275   6.428   6.360   5.587
 3792SOL    HW212276   6.409   6.482   5.694
 3793SOL     OW12277   2.043   1.399   3.083
 3793SOL    HW112278   2.138   1.375   3.063
 3793SOL    HW212279   2.000   1.324   3.133
 3794SOL     OW12280   4.186   5.712   2.026
 3794SOL    HW112281   4.280   5.695   2.055
 3794SOL    HW212282   4.186   5.784   1.956
 3795SOL     OW12283   5.262   0.072   6.506
 3795SOL    HW112284   5.355   0.037   6.513
 3795SOL    HW212285   5.262   0.172   6.516
 3796SOL     OW12286   1.484   2.556   1.790
 3796SOL    HW112287   1.486   2.465   1.832
 3796SOL    HW212288   1.574   2.577   1.753
 3797SOL     OW12289   0.938   4.781   2.715
 3797SOL    HW112290   0.876   4.728   2.658
 3797SOL    HW212291   1.001   4.834   2.657
 3798SOL     OW12292   2.183   5.383   2.346
 3798SOL    HW112293   2.265   5.328   2.330
 3798SOL    HW212294   2.140   5.404   2.259
 3799SOL     OW12295   1.634   0.934   5.612
 3799SOL    HW112296   1.695   0.863   5.646
 3799SOL    HW212297   1.647   1.017   5.666
 3800SOL     OW12298   4.630   2.401   4.476
 3800SOL    HW112299   4.554   2.418   4.539
 3800SOL    HW212300   4.715   2.396   4.527
 3801SOL     OW12301   0.117   6.347   5.739
 3801SOL    HW112302   0.180   6.278   5.774
 3801SOL    HW212303   0.059   6.306   5.668
 3802SOL     OW12304   1.307   1.953   5.709
 3802SOL    HW112305   1.400   1.990   5.707
 3802SOL    HW212306   1.274   1.942   5.615
 3803SOL     OW12307   3.624   0.974   1.165
 3803SOL    HW112308   3.679   0.899   1.203
 3803SOL    HW212309   3.542   0.936   1.121
 3804SOL     OW12310   4.746   2.135   4.305
 3804SOL    HW112311   4.704   2.165   4.219
 3804SOL    HW212312   4.675   2.103   4.367
 3805SOL     OW12313   2.815   4.377   1.608
 3805SOL    HW112314   2.854   4.415   1.692
 3805SOL    HW212315   2.762   4.295   1.630
 3806SOL     OW12316   2.662   2.137   0.251
 3806SOL    HW112317   2.740   2.137   0.314
 3806SOL    HW212318   2.590   2.078   0.288
 3807SOL     OW12319   1.426   6.390   3.673
 3807SOL    HW112320   1.365   6.469   3.681
 3807SOL    HW212321   1.372   6.306   3.674
 3808SOL     OW12322   3.579   0.000   1.494
 3808SOL    HW112323   3.542   0.087   1.461
 3808SOL    HW212324   3.517   6.949   1.471
 3809SOL     OW12325   5.301   0.866   7.013
 3809SOL    HW112326   5.299   0.827   6.921
 3809SOL    HW212327   5.340   0.800   0.053
 3810SOL     OW12328   2.956   3.073   5.194
 3810SOL    HW112329   2.875   3.036   5.149
 3810SOL    HW212330   3.032   3.009   5.184
 3811SOL     OW12331   0.392   5.154   5.050
 3811SOL    HW112332   0.427   5.153   5.144
 3811SOL    HW212333   0.317   5.221   5.043
 3812SOL     OW12334   5.908   1.680   5.353
 3812SOL    HW112335   5.936   1.626   5.433
 3812SOL    HW212336   5.826   1.732   5.376
 3813SOL     OW12337   3.204   5.474   0.166
 3813SOL    HW112338   3.180   5.566   0.135
 3813SOL    HW212339   3.122   5.418   0.174
 3814SOL     OW12340   7.011   5.969   2.138
 3814SOL    HW112341   7.006   6.031   2.216
 3814SOL    HW212342   7.001   6.020   2.053
 3815SOL     OW12343   5.281   1.938   1.630
 3815SOL    HW112344   5.214   1.865   1.619
 3815SOL    HW212345   5.247   2.022   1.588
 3816SOL     OW12346   0.916   0.189   1.520
 3816SOL    HW112347   0.824   0.200   1.557
 3816SOL    HW212348   0.913   0.129   1.440
 3817SOL     OW12349   4.689   1.758   4.712
 3817SOL    HW112350   4.677   1.698   4.791
 3817SOL    HW212351   4.674   1.853   4.739
 3818SOL     OW12352   4.644   5.831   2.167
 3818SOL    HW112353   4.682   5.789   2.250
 3818SOL    HW212354   4.603   5.919   2.191
 3819SOL     OW12355   5.028   5.186   0.001
 3819SOL    HW112356   5.040   5.259   0.068
 3819SOL    HW212357   5.093   5.113   0.020
 3820SOL     OW12358   5.218   5.942   4.104
 3820SOL    HW112359   5.227   6.036   4.135
 3820SOL    HW212360   5.123   5.924   4.079
 3821SOL     OW12361   1.377   3.793   1.597
 3821SOL    HW112362   1.293   3.791   1.653
 3821SOL    HW212363   1.441   3.725   1.631
 3822SOL     OW12364   2.727   5.795   1.486
 3822SOL    HW112365   2.770   5.749   1.564
 3822SOL    HW212366   2.788   5.867   1.453
 3823SOL     OW12367   3.058   2.941   5.713
 3823SOL    HW112368   3.109   2.917   5.630
 3823SOL    HW212369   2.960   2.939   5.694
 3824SOL     OW12370   6.762   2.186   5.833
 3824SOL    HW112371   6.809   2.128   5.766
 3824SOL    HW212372   6.765   2.281   5.803
 3825SOL     OW12373   6.933   6.490   6.015
 3825SOL    HW112374   7.024   6.518   6.046
 3825SOL    HW212375   6.916   6.396   6.042
 3826SOL     OW12376   6.890   3.249   1.811
 3826SOL    HW112377   6.948   3.311   1.758
 3826SOL    HW212378   6.916   3.253   1.908
 3827SOL     OW12379   4.153   3.282   1.084
 3827SOL    HW112380   4.172   3.302   1.181
 3827SOL    HW212381   4.162   3.184   1.068
 3828SOL     OW12382   5.126   1.867   2.998
 3828SOL    HW112383   5.060   1.940   2.981
 3828SOL    HW212384   5.156   1.870   3.093
 3829SOL     OW12385   2.528   4.643   4.248
 3829SOL    HW112386   2.473   4.587   4.185
 3829SOL    HW212387   2.561   4.585   4.322
 3830SOL     OW12388   2.590   0.725   4.874
 3830SOL    HW112389   2.542   0.775   4.946
 3830SOL    HW212390   2.529   0.712   4.795
 3831SOL     OW12391   3.795   1.755   2.424
 3831SOL    HW112392   3.836   1.812   2.496
 3831SOL    HW212393   3.711   1.798   2.391
 3832SOL     OW12394   6.823   0.803   2.110
 3832SOL    HW112395   6.921   0.800   2.132
 3832SOL    HW212396   6.811   0.794   2.011
 3833SOL     OW12397   1.014   4.734   0.168
 3833SOL    HW112398   0.932   4.786   0.192
 3833SOL    HW212399   1.045   4.682   0.247
 3834SOL     OW12400   3.030   1.953   0.502
 3834SOL    HW112401   3.059   2.036   0.454
 3834SOL    HW212402   2.932   1.957   0.521
 3835SOL     OW12403   3.906   5.324   5.248
 3835SOL    HW112404   3.867   5.279   5.328
 3835SOL    HW212405   4.000   5.351   5.268
 3836SOL     OW12406   1.272   4.096   6.164
 3836SOL    HW112407   1.291   4.058   6.074
 3836SOL    HW212408   1.251   4.023   6.229
 3837SOL     OW12409   3.892   3.801   0.594
 3837SOL    HW112410   3.934   3.854   0.520
 3837SOL    HW212411   3.938   3.713   0.601
 3838SOL     OW12412   6.444   2.728   5.032
 3838SOL    HW112413   6.442   2.629   5.030
 3838SOL    HW212414   6.398   2.765   4.951
 3839SOL     OW12415   6.099   5.701   5.599
 3839SOL    HW112416   6.123   5.760   5.522
 3839SOL    HW212417   6.052   5.620   5.565
 3840SOL     OW12418   1.635   0.945   3.987
 3840SOL    HW112419   1.669   0.930   4.079
 3840SOL    HW212420   1.554   1.002   3.990
 3841SOL     OW12421   0.719   3.622   5.371
 3841SOL    HW112422   0.702   3.546   5.308
 3841SOL    HW212423   0.692   3.595   5.463
 3842SOL     OW12424   1.034   4.848   6.928
 3842SOL    HW112425   0.975   4.815   6.854
 3842SOL    HW212426   1.014   4.797   7.012
 3843SOL     OW12427   5.874   3.067   0.905
 3843SOL    HW112428   5.811   3.039   0.833
 3843SOL    HW212429   5.960   3.018   0.896
 3844SOL     OW12430   1.593   4.586   6.681
 3844SOL    HW112431   1.585   4.585   6.780
 3844SOL    HW212432   1.549   4.505   6.642
 3845SOL     OW12433   3.216   3.952   3.272
 3845SOL    HW112434   3.278   3.879   3.243
 3845SOL    HW212435   3.244   4.038   3.228
 3846SOL     OW12436   0.201   4.703   5.144
 3846SOL    HW112437   0.152   4.694   5.057
 3846SOL    HW212438   0.277   4.638   5.146
 3847SOL     OW12439   0.697   0.075   0.278
 3847SOL    HW112440   0.751   0.076   0.362
 3847SOL    HW212441   0.606   0.112   0.295
 3848SOL     OW12442   2.357   5.154   1.510
 3848SOL    HW112443   2.446   5.130   1.471
 3848SOL    HW212444   2.370   5.226   1.579
 3849SOL     OW12445   1.041   2.009   5.648
 3849SOL    HW112446   1.126   1.973   5.687
 3849SOL    HW212447   1.040   1.993   5.549
 3850SOL     OW12448   3.291   3.955   1.547
 3850SOL    HW112449   3.194   3.945   1.570
 3850SOL    HW212450   3.304   3.943   1.448
 3851SOL     OW12451   2.339   2.481   2.530
 3851SOL    HW112452   2.353   2.570   2.574
 3851SOL    HW212453   2.427   2.433   2.525
 3852SOL     OW12454   3.904   0.967   4.507
 3852SOL    HW112455   3.916   0.993   4.602
 3852SOL    HW212456   3.968   1.018   4.449
 3853SOL     OW12457   0.970   3.218   1.694
 3853SOL    HW112458   0.987   3.214   1.792
 3853SOL    HW212459   0.913   3.298   1.674
 3854SOL     OW12460   1.426   3.595   4.547
 3854SOL    HW112461   1.448   3.509   4.501
 3854SOL    HW212462   1.375   3.575   4.631
 3855SOL     OW12463   6.583   2.811   5.627
 3855SOL    HW112464   6.596   2.744   5.700
 3855SOL    HW212465   6.615   2.900   5.657
 3856SOL     OW12466   0.745   6.368   5.899
 3856SOL    HW112467   0.797   6.353   5.983
 3856SOL    HW212468   0.648   6.373   5.919
 3857SOL     OW12469   0.620   6.487   4.975
 3857SOL    HW112470   0.527   6.455   4.956
 3857SOL    HW212471   0.616   6.559   5.045
 3858SOL     OW12472   2.608   5.533   0.016
 3858SOL    HW112473   2.575   5.620   7.003
 3858SOL    HW212474   2.668   5.551   0.094
 3859SOL     OW12475   0.749   2.849   2.202
 3859SOL    HW112476   0.812   2.797   2.260
 3859SOL    HW212477   0.739   2.803   2.114
 3860SOL     OW12478   2.421   6.796   5.680
 3860SOL    HW112479   2.346   6.814   5.615
 3860SOL    HW212480   2.508   6.796   5.630
 3861SOL     OW12481   4.464   4.364   1.040
 3861SOL    HW112482   4.484   4.462   1.047
 3861SOL    HW212483   4.459   4.338   0.944
 3862SOL     OW12484   1.461   6.056   6.212
 3862SOL    HW112485   1.402   5.980   6.237
 3862SOL    HW212486   1.484   6.109   6.293
 3863SOL     OW12487   3.248   3.388   1.305
 3863SOL    HW112488   3.302   3.320   1.354
 3863SOL    HW212489   3.228   3.465   1.366
 3864SOL     OW12490   3.326   2.414   0.241
 3864SOL    HW112491   3.392   2.351   0.282
 3864SOL    HW212492   3.298   2.380   0.152
 3865SOL     OW12493   5.041   6.887   2.399
 3865SOL    HW112494   5.055   6.903   2.497
 3865SOL    HW212495   5.092   6.805   2.372
 3866SOL     OW12496   4.227   6.779   6.751
 3866SOL    HW112497   4.210   6.875   6.728
 3866SOL    HW212498   4.154   6.723   6.713
 3867SOL     OW12499   1.759   2.965   3.484
 3867SOL    HW112500   1.832   2.914   3.530
 3867SOL    HW212501   1.767   3.062   3.505
 3868SOL     OW12502   1.704   5.962   2.654
 3868SOL    HW112503   1.728   5.960   2.557
 3868SOL    HW212504   1.696   6.057   2.684
 3869SOL     OW12505   0.912   2.943   3.614
 3869SOL    HW112506   0.936   2.956   3.518
 3869SOL    HW212507   0.920   2.846   3.638
 3870SOL     OW12508   2.992   4.782   0.359
 3870SOL    HW112509   3.079   4.792   0.408
 3870SOL    HW212510   3.011   4.769   0.262
 3871SOL     OW12511   2.521   0.226   3.887
 3871SOL    HW112512   2.602   0.190   3.935
 3871SOL    HW212513   2.545   0.242   3.791
 3872SOL     OW12514   4.022   4.065   0.096
 3872SOL    HW112515   4.045   4.153   0.055
 3872SOL    HW212516   4.105   4.010   0.107
 3873SOL     OW12517   5.038   4.828   2.175
 3873SOL    HW112518   5.105   4.899   2.154
 3873SOL    HW212519   5.002   4.789   2.090
 3874SOL     OW12520   4.236   7.001   6.001
 3874SOL    HW112521   4.253   7.001   5.902
 3874SOL    HW212522   4.235   6.907   6.035
 3875SOL     OW12523   1.694   4.992   0.575
 3875SOL    HW112524   1.666   4.966   0.667
 3875SOL    HW212525   1.656   5.082   0.553
 3876SOL     OW12526   4.858   3.779   2.459
 3876SOL    HW112527   4.792   3.728   2.403
 3876SOL    HW212528   4.938   3.723   2.476
 3877SOL     OW12529   5.144   1.247   2.085
 3877SOL    HW112530   5.172   1.327   2.032
 3877SOL    HW212531   5.082   1.276   2.158
 3878SOL     OW12532   3.282   6.109   5.207
 3878SOL    HW112533   3.329   6.096   5.120
 3878SOL    HW212534   3.315   6.193   5.250
 3879SOL     OW12535   4.117   6.219   1.304
 3879SOL    HW112536   4.129   6.132   1.257
 3879SOL    HW212537   4.206   6.264   1.316
 3880SOL     OW12538   5.889   2.873   4.145
 3880SOL    HW112539   5.826   2.797   4.125
 3880SOL    HW212540   5.848   2.958   4.111
 3881SOL     OW12541   1.232   4.315   0.890
 3881SOL    HW112542   1.186   4.280   0.809
 3881SOL    HW212543   1.324   4.277   0.896
 3882SOL     OW12544   0.044   0.307   6.238
 3882SOL    HW112545   0.028   0.405   6.234
 3882SOL    HW212546   0.140   0.287   6.219
 3883SOL     OW12547   3.058   0.445   5.845
 3883SOL    HW112548   3.013   0.373   5.898
 3883SOL    HW212549   3.150   0.459   5.880
 3884SOL     OW12550   1.626   4.716   5.856
 3884SOL    HW112551   1.644   4.689   5.950
 3884SOL    HW212552   1.696   4.679   5.796
 3885SOL     OW12553   0.454   1.402   4.595
 3885SOL    HW112554   0.396   1.370   4.670
 3885SOL    HW212555   0.520   1.330   4.572
 3886SOL     OW12556   6.873   5.687   5.258
 3886SOL    HW112557   6.779   5.710   5.281
 3886SOL    HW212558   6.874   5.630   5.175
 3887SOL     OW12559   4.693   2.813   5.556
 3887SOL    HW112560   4.743   2.776   5.634
 3887SOL    HW212561   4.669   2.738   5.494
 3888SOL     OW12562   5.910   2.089   1.220
 3888SOL    HW112563   5.877   2.027   1.291
 3888SOL    HW212564   5.865   2.178   1.229
 3889SOL     OW12565   0.852   5.788   6.737
 3889SOL    HW112566   0.918   5.810   6.809
 3889SOL    HW212567   0.869   5.695   6.703
 3890SOL     OW12568   5.866   3.791   2.067
 3890SOL    HW112569   5.946   3.845   2.093
 3890SOL    HW212570   5.885   3.739   1.984
 3891SOL     OW12571   5.749   4.994   5.505
 3891SOL    HW112572   5.666   4.939   5.493
 3891SOL    HW212573   5.730   5.072   5.565
 3892SOL     OW12574   5.109   6.932   3.701
 3892SOL    HW112575   5.099   6.856   3.637
 3892SOL    HW212576   5.037   6.999   3.684
 3893SOL     OW12577   2.978   6.727   3.960
 3893SOL    HW112578   3.061   6.677   3.983
 3893SOL    HW212579   2.974   6.742   3.862
 3894SOL     OW12580   5.166   4.711   0.180
 3894SOL    HW112581   5.078   4.699   0.227
 3894SOL    HW212582   5.196   4.623   0.143
 3895SOL     OW12583   1.863   2.119   5.899
 3895SOL    HW112584   1.939   2.157   5.846
 3895SOL    HW212585   1.864   2.158   5.991
 3896SOL     OW12586   7.012   2.335   5.903
 3896SOL    HW112587   0.080   2.340   5.942
 3896SOL    HW212588   7.013   2.369   5.809
 3897SOL     OW12589   3.612   6.410   2.403
 3897SOL    HW112590   3.674   6.402   2.482
 3897SOL    HW212591   3.526   6.364   2.424
 3898SOL     OW12592   3.623   4.119   4.266
 3898SOL    HW112593   3.696   4.080   4.211
 3898SOL    HW212594   3.578   4.192   4.215
 3899SOL     OW12595   5.224   1.555   4.685
 3899SOL    HW112596   5.158   1.505   4.630
 3899SOL    HW212597   5.304   1.498   4.703
 3900SOL     OW12598   6.619   2.564   3.922
 3900SOL    HW112599   6.589   2.657   3.942
 3900SOL    HW212600   6.546   2.514   3.876
 3901SOL     OW12601   2.650   5.571   5.300
 3901SOL    HW112602   2.708   5.598   5.223
 3901SOL    HW212603   2.632   5.650   5.357
 3902SOL     OW12604   4.098   4.929   1.669
 3902SOL    HW112605   4.191   4.901   1.695
 3902SOL    HW212606   4.034   4.898   1.739
 3903SOL     OW12607   3.603   3.004   6.111
 3903SOL    HW112608   3.606   3.031   6.015
 3903SOL    HW212609   3.649   2.916   6.123
 3904SOL     OW12610   2.058   6.223   0.627
 3904SOL    HW112611   2.151   6.203   0.657
 3904SOL    HW212612   2.060   6.270   0.539
 3905SOL     OW12613   0.129   0.189   5.464
 3905SOL    HW112614   0.072   0.272   5.467
 3905SOL    HW212615   0.079   0.113   5.504
 3906SOL     OW12616   0.270   5.415   5.080
 3906SOL    HW112617   0.205   5.416   5.157
 3906SOL    HW212618   0.322   5.500   5.079
 3907SOL     OW12619   1.174   0.897   4.780
 3907SOL    HW112620   1.116   0.897   4.699
 3907SOL    HW212621   1.118   0.917   4.861
 3908SOL     OW12622   1.969   0.388   4.415
 3908SOL    HW112623   1.903   0.328   4.461
 3908SOL    HW212624   2.024   0.335   4.352
 3909SOL     OW12625   5.754   2.598   0.777
 3909SOL    HW112626   5.735   2.677   0.835
 3909SOL    HW212627   5.716   2.515   0.819
 3910SOL     OW12628   2.782   3.070   1.479
 3910SOL    HW112629   2.793   3.087   1.381
 3910SOL    HW212630   2.864   3.026   1.515
 3911SOL     OW12631   6.439   0.813   0.896
 3911SOL    HW112632   6.469   0.789   0.988
 3911SOL    HW212633   6.404   0.907   0.896
 3912SOL     OW12634   4.124   3.379   6.788
 3912SOL    HW112635   4.181   3.305   6.750
 3912SOL    HW212636   4.164   3.411   6.873
 3913SOL     OW12637   4.554   5.742   1.393
 3913SOL    HW112638   4.592   5.812   1.333
 3913SOL    HW212639   4.555   5.776   1.488
 3914SOL     OW12640   6.857   1.527   0.549
 3914SOL    HW112641   6.837   1.440   0.504
 3914SOL    HW212642   6.876   1.597   0.481
 3915SOL     OW12643   5.103   5.608   5.704
 3915SOL    HW112644   5.035   5.637   5.637
 3915SOL    HW212645   5.076   5.639   5.795
 3916SOL     OW12646   2.474   1.566   3.209
 3916SOL    HW112647   2.478   1.487   3.269
 3916SOL    HW212648   2.400   1.554   3.143
 3917SOL     OW12649   3.851   4.666   1.293
 3917SOL    HW112650   3.774   4.716   1.332
 3917SOL    HW212651   3.818   4.590   1.237
 3918SOL     OW12652   5.036   0.998   6.971
 3918SOL    HW112653   5.099   1.027   0.020
 3918SOL    HW212654   5.006   0.904   6.988
 3919SOL     OW12655   4.507   6.164   2.431
 3919SOL    HW112656   4.414   6.153   2.468
 3919SOL    HW212657   4.574   6.137   2.499
 3920SOL     OW12658   3.425   1.674   5.222
 3920SOL    HW112659   3.432   1.576   5.240
 3920SOL    HW212660   3.347   1.712   5.271
 3921SOL     OW12661   0.137   3.185   6.297
 3921SOL    HW112662   0.161   3.282   6.309
 3921SOL    HW212663   0.060   3.162   6.355
 3922SOL     OW12664   5.148   3.646   3.022
 3922SOL    HW112665   5.210   3.596   2.961
 3922SOL    HW212666   5.117   3.730   2.978
 3923SOL     OW12667   4.952   1.295   1.735
 3923SOL    HW112668   5.043   1.257   1.754
 3923SOL    HW212669   4.896   1.226   1.689
 3924SOL     OW12670   5.975   5.053   4.078
 3924SOL    HW112671   6.025   5.013   4.001
 3924SOL    HW212672   5.879   5.027   4.071
 3925SOL     OW12673   5.322   4.693   0.638
 3925SOL    HW112674   5.375   4.759   0.691
 3925SOL    HW212675   5.341   4.601   0.671
 3926SOL     OW12676   0.735   5.561   4.970
 3926SOL    HW112677   0.646   5.606   4.980
 3926SOL    HW212678   0.744   5.525   4.878
 3927SOL     OW12679   5.593   2.280   6.319
 3927SOL    HW112680   5.663   2.314   6.257
 3927SOL    HW212681   5.510   2.259   6.268
 3928SOL     OW12682   3.524   5.917   1.961
 3928SOL    HW112683   3.559   5.844   1.902
 3928SOL    HW212684   3.450   5.881   2.018
 3929SOL     OW12685   0.596   2.129   5.393
 3929SOL    HW112686   0.524   2.076   5.349
 3929SOL    HW212687   0.598   2.107   5.491
 3930SOL     OW12688   2.375   4.860   3.971
 3930SOL    HW112689   2.306   4.891   3.905
 3930SOL    HW212690   2.353   4.767   4.001
 3931SOL     OW12691   2.015   2.888   0.974
 3931SOL    HW112692   2.052   2.796   0.987
 3931SOL    HW212693   1.953   2.911   1.049
 3932SOL     OW12694   2.451   4.495   3.785
 3932SOL    HW112695   2.434   4.466   3.879
 3932SOL    HW212696   2.486   4.419   3.732
 3933SOL     OW12697   1.643   6.344   1.494
 3933SOL    HW112698   1.700   6.421   1.524
 3933SOL    HW212699   1.692   6.258   1.509
 3934SOL     OW12700   1.004   6.949   1.797
 3934SOL    HW112701   0.988   6.883   1.723
 3934SOL    HW212702   0.918   6.994   1.820
 3935SOL     OW12703   6.641   3.686   5.798
 3935SOL    HW112704   6.560   3.732   5.761
 3935SOL    HW212705   6.722   3.715   5.747
 3936SOL     OW12706   6.448   4.213   5.490
 3936SOL    HW112707   6.537   4.228   5.445
 3936SOL    HW212708   6.443   4.270   5.572
 3937SOL     OW12709   0.555   6.466   1.664
 3937SOL    HW112710   0.652   6.447   1.650
 3937SOL    HW212711   0.507   6.380   1.682
 3938SOL     OW12712   0.838   3.466   1.598
 3938SOL    HW112713   0.844   3.462   1.499
 3938SOL    HW212714   0.816   3.559   1.627
 3939SOL     OW12715   0.785   0.859   3.281
 3939SOL    HW112716   0.883   0.880   3.277
 3939SOL    HW212717   0.770   0.766   3.248
 3940SOL     OW12718   3.300   6.502   0.662
 3940SOL    HW112719   3.329   6.543   0.749
 3940SOL    HW212720   3.371   6.516   0.593
 3941SOL     OW12721   5.360   5.790   2.169
 3941SOL    HW112722   5.323   5.711   2.218
 3941SOL    HW212723   5.454   5.807   2.199
 3942SOL     OW12724   6.852   5.852   5.611
 3942SOL    HW112725   6.774   5.818   5.558
 3942SOL    HW212726   6.829   5.940   5.653
 3943SOL     OW12727   1.552   3.145   0.516
 3943SOL    HW112728   1.635   3.088   0.525
 3943SOL    HW212729   1.568   3.216   0.448
 3944SOL     OW12730   4.822   2.835   6.969
 3944SOL    HW112731   4.746   2.771   6.959
 3944SOL    HW212732   4.791   2.927   6.947
 3945SOL     OW12733   5.506   0.186   3.830
 3945SOL    HW112734   5.533   0.101   3.876
 3945SOL    HW212735   5.443   0.164   3.755
 3946SOL     OW12736   0.321   3.590   0.643
 3946SOL    HW112737   0.312   3.557   0.736
 3946SOL    HW212738   0.417   3.588   0.616
 3947SOL     OW12739   6.322   5.393   1.870
 3947SOL    HW112740   6.255   5.464   1.890
 3947SOL    HW212741   6.278   5.303   1.874
 3948SOL     OW12742   1.563   2.614   6.091
 3948SOL    HW112743   1.566   2.622   5.991
 3948SOL    HW212744   1.470   2.591   6.119
 3949SOL     OW12745   6.152   0.243   2.190
 3949SOL    HW112746   6.128   0.209   2.099
 3949SOL    HW212747   6.108   0.186   2.259
 3950SOL     OW12748   2.720   4.632   1.704
 3950SOL    HW112749   2.763   4.619   1.794
 3950SOL    HW212750   2.722   4.547   1.653
 3951SOL     OW12751   0.647   2.354   4.828
 3951SOL    HW112752   0.685   2.270   4.790
 3951SOL    HW212753   0.719   2.407   4.873
 3952SOL     OW12754   5.421   3.767   0.407
 3952SOL    HW112755   5.454   3.674   0.389
 3952SOL    HW212756   5.499   3.828   0.420
 3953SOL     OW12757   3.390   3.238   6.854
 3953SOL    HW112758   3.374   3.336   6.850
 3953SOL    HW212759   3.343   3.200   6.934
 3954SOL     OW12760   0.658   2.729   5.581
 3954SOL    HW112761   0.575   2.693   5.624
 3954SOL    HW212762   0.723   2.757   5.652
 3955SOL     OW12763   6.708   3.692   0.368
 3955SOL    HW112764   6.794   3.668   0.324
 3955SOL    HW212765   6.658   3.609   0.392
 3956SOL     OW12766   6.489   2.776   5.361
 3956SOL    HW112767   6.526   2.826   5.283
 3956SOL    HW212768   6.529   2.813   5.445
 3957SOL     OW12769   0.779   1.448   3.474
 3957SOL    HW112770   0.766   1.512   3.399
 3957SOL    HW212771   0.747   1.357   3.446
 3958SOL     OW12772   5.326   6.207   6.983
 3958SOL    HW112773   5.334   6.255   0.046
 3958SOL    HW212774   5.241   6.235   6.938
 3959SOL     OW12775   2.510   6.301   1.015
 3959SOL    HW112776   2.456   6.344   0.943
 3959SOL    HW212777   2.470   6.212   1.037
 3960SOL     OW12778   5.257   3.419   1.114
 3960SOL    HW112779   5.250   3.320   1.110
 3960SOL    HW212780   5.225   3.452   1.203
 3961SOL     OW12781   5.299   0.502   1.122
 3961SOL    HW112782   5.311   0.499   1.221
 3961SOL    HW212783   5.285   0.409   1.087
 3962SOL     OW12784   0.804   6.941   5.869
 3962SOL    HW112785   0.791   6.900   5.959
 3962SOL    HW212786   0.880   7.006   5.873
 3963SOL     OW12787   4.484   5.142   2.990
 3963SOL    HW112788   4.449   5.119   2.900
 3963SOL    HW212789   4.474   5.064   3.052
 3964SOL     OW12790   6.203   6.311   6.230
 3964SOL    HW112791   6.244   6.385   6.175
 3964SOL    HW212792   6.181   6.234   6.170
 3965SOL     OW12793   4.113   3.134   0.245
 3965SOL    HW112794   4.151   3.196   0.314
 3965SOL    HW212795   4.059   3.185   0.179
 3966SOL     OW12796   6.123   3.592   5.458
 3966SOL    HW112797   6.071   3.671   5.489
 3966SOL    HW212798   6.069   3.539   5.393
 3967SOL     OW12799   2.092   0.095   6.758
 3967SOL    HW112800   2.136   0.090   6.669
 3967SOL    HW212801   2.161   0.100   6.830
 3968SOL     OW12802   5.406   0.562   1.619
 3968SOL    HW112803   5.416   0.659   1.641
 3968SOL    HW212804   5.403   0.550   1.520
 3969SOL     OW12805   0.774   6.239   1.977
 3969SOL    HW112806   0.699   6.295   2.012
 3969SOL    HW212807   0.750   6.207   1.885
 3970SOL     OW12808   4.779   4.133   4.192
 3970SOL    HW112809   4.828   4.217   4.214
 3970SOL    HW212810   4.683   4.142   4.217
 3971SOL     OW12811   1.537   6.130   3.498
 3971SOL    HW112812   1.504   6.127   3.403
 3971SOL    HW212813   1.567   6.223   3.519
 3972SOL     OW12814   0.957   0.490   0.147
 3972SOL    HW112815   0.891   0.564   0.154
 3972SOL    HW212816   1.032   0.518   0.087
 3973SOL     OW12817   3.731   3.002   3.076
 3973SOL    HW112818   3.659   2.933   3.071
 3973SOL    HW212819   3.708   3.068   3.147
 3974SOL     OW12820   5.635   0.522   6.235
 3974SOL    HW112821   5.712   0.578   6.205
 3974SOL    HW212822   5.564   0.580   6.275
 3975SOL     OW12823   6.845   6.096   5.720
 3975SOL    HW112824   6.818   6.133   5.809
 3975SOL    HW212825   6.848   6.170   5.653
 3976SOL     OW12826   1.509   3.098   6.852
 3976SOL    HW112827   1.551   3.032   6.915
 3976SOL    HW212828   1.425   3.134   6.892
 3977SOL     OW12829   3.806   6.003   5.841
 3977SOL    HW112830   3.877   6.064   5.806
 3977SOL    HW212831   3.845   5.947   5.914
 3978SOL     OW12832   6.179   4.132   6.503
 3978SOL    HW112833   6.235   4.053   6.479
 3978SOL    HW212834   6.147   4.123   6.597
 3979SOL     OW12835   1.075   6.510   3.179
 3979SOL    HW112836   1.024   6.425   3.192
 3979SOL    HW212837   1.060   6.570   3.257
 3980SOL     OW12838   4.937   3.496   4.848
 3980SOL    HW112839   4.912   3.400   4.860
 3980SOL    HW212840   4.910   3.548   4.929
 3981SOL     OW12841   6.633   2.268   5.481
 3981SOL    HW112842   6.688   2.317   5.549
 3981SOL    HW212843   6.536   2.291   5.494
 3982SOL     OW12844   2.474   2.443   3.952
 3982SOL    HW112845   2.559   2.433   4.003
 3982SOL    HW212846   2.423   2.522   3.987
 3983SOL     OW12847   3.718   0.148   3.786
 3983SOL    HW112848   3.632   0.198   3.796
 3983SOL    HW212849   3.724   0.110   3.694
 3984SOL     OW12850   1.499   0.450   1.753
 3984SOL    HW112851   1.408   0.409   1.766
 3984SOL    HW212852   1.529   0.491   1.839
 3985SOL     OW12853   1.737   3.250   1.775
 3985SOL    HW112854   1.738   3.198   1.690
 3985SOL    HW212855   1.716   3.346   1.755
 3986SOL     OW12856   1.321   2.584   2.191
 3986SOL    HW112857   1.410   2.544   2.172
 3986SOL    HW212858   1.254   2.511   2.208
 3987SOL     OW12859   1.660   4.072   6.000
 3987SOL    HW112860   1.566   4.049   5.974
 3987SOL    HW212861   1.722   3.999   5.970
 3988SOL     OW12862   4.861   1.340   6.908
 3988SOL    HW112863   4.828   1.321   7.001
 3988SOL    HW212864   4.954   1.377   6.913
 3989SOL     OW12865   4.196   0.714   6.566
 3989SOL    HW112866   4.156   0.789   6.514
 3989SOL    HW212867   4.162   0.627   6.530
 3990SOL     OW12868   1.634   2.691   3.828
 3990SOL    HW112869   1.619   2.636   3.746
 3990SOL    HW212870   1.721   2.740   3.820
 3991SOL     OW12871   0.564   1.120   4.349
 3991SOL    HW112872   0.639   1.084   4.293
 3991SOL    HW212873   0.601   1.149   4.438
 3992SOL     OW12874   5.491   4.111   6.536
 3992SOL    HW112875   5.474   4.173   6.613
 3992SOL    HW212876   5.481   4.016   6.568
 3993SOL     OW12877   1.224   0.918   3.853
 3993SOL    HW112878   1.129   0.946   3.867
 3993SOL    HW212879   1.286   0.985   3.893
 3994SOL     OW12880   2.432   1.614   3.849
 3994SOL    HW112881   2.509   1.675   3.868
 3994SOL    HW212882   2.418   1.607   3.751
 3995SOL     OW12883   0.870   3.509   1.935
 3995SOL    HW112884   0.826   3.593   1.903
 3995SOL    HW212885   0.965   3.508   1.903
 3996SOL     OW12886   6.131   6.679   4.058
 3996SOL    HW112887   6.177   6.690   3.970
 3996SOL    HW212888   6.032   6.687   4.045
 3997SOL     OW12889   5.532   3.549   2.685
 3997SOL    HW112890   5.478   3.627   2.713
 3997SOL    HW212891   5.473   3.482   2.640
 3998SOL     OW12892   5.794   2.344   2.900
 3998SOL    HW112893   5.802   2.244   2.892
 3998SOL    HW212894   5.709   2.375   2.859
 3999SOL     OW12895   4.840   2.635   1.320
 3999SOL    HW112896   4.785   2.652   1.239
 3999SOL    HW212897   4.839   2.716   1.379
 4000SOL     OW12898   3.436   4.958   2.357
 4000SOL    HW112899   3.454   4.938   2.453
 4000SOL    HW212900   3.339   4.943   2.337
 4001SOL     OW12901   1.093   4.782   4.233
 4001SOL    HW112902   1.191   4.769   4.217
 4001SOL    HW212903   1.079   4.822   4.324
 4002SOL     OW12904   3.427   4.181   3.439
 4002SOL    HW112905   3.368   4.218   3.510
 4002SOL    HW212906   3.375   4.173   3.353
 4003SOL     OW12907   2.283   1.036   5.669
 4003SOL    HW112908   2.223   0.979   5.726
 4003SOL    HW212909   2.230   1.111   5.630
 4004SOL     OW12910   1.119   3.991   3.638
 4004SOL    HW112911   1.033   3.995   3.586
 4004SOL    HW212912   1.196   4.001   3.576
 4005SOL     OW12913   4.961   3.126   0.012
 4005SOL    HW112914   5.059   3.138   0.030
 4005SOL    HW212915   4.920   3.074   0.087
 4006SOL     OW12916   4.968   5.399   3.242
 4006SOL    HW112917   5.043   5.372   3.302
 4006SOL    HW212918   4.997   5.389   3.146
 4007SOL     OW12919   0.154   1.127   3.015
 4007SOL    HW112920   0.190   1.069   3.087
 4007SOL    HW212921   0.186   1.093   2.926
 4008SOL     OW12922   3.442   1.120   0.543
 4008SOL    HW112923   3.482   1.090   0.629
 4008SOL    HW212924   3.500   1.090   0.467
 4009SOL     OW12925   4.695   2.276   0.313
 4009SOL    HW112926   4.651   2.330   0.384
 4009SOL    HW212927   4.741   2.197   0.354
 4010SOL     OW12928   2.742   5.177   1.915
 4010SOL    HW112929   2.806   5.214   1.847
 4010SOL    HW212930   2.792   5.155   1.999
 4011SOL     OW12931   4.479   6.018   6.862
 4011SOL    HW112932   4.570   6.020   6.820
 4011SOL    HW212933   4.484   6.052   6.955
 4012SOL     OW12934   4.722   6.335   2.808
 4012SOL    HW112935   4.814   6.294   2.809
 4012SOL    HW212936   4.730   6.432   2.783
 4013SOL     OW12937   0.021   1.254   6.157
 4013SOL    HW112938   7.013   1.348   6.167
 4013SOL    HW212939   0.120   1.252   6.150
 4014SOL     OW12940   3.139   4.942   2.680
 4014SOL    HW112941   3.051   4.902   2.653
 4014SOL    HW212942   3.175   4.998   2.606
 4015SOL     OW12943   4.249   4.810   5.676
 4015SOL    HW112944   4.272   4.795   5.580
 4015SOL    HW212945   4.308   4.754   5.734
 4016SOL     OW12946   4.196   5.037   5.233
 4016SOL    HW112947   4.176   5.127   5.271
 4016SOL    HW212948   4.125   4.972   5.260
 4017SOL     OW12949   0.798   4.812   5.370
 4017SOL    HW112950   0.812   4.808   5.469
 4017SOL    HW212951   0.774   4.905   5.343
 4018SOL     OW12952   4.619   6.071   1.887
 4018SOL    HW112953   4.606   6.027   1.976
 4018SOL    HW212954   4.541   6.131   1.867
 4019SOL     OW12955   5.554   3.243   3.201
 4019SOL    HW112956   5.595   3.211   3.287
 4019SOL    HW212957   5.516   3.164   3.152
 4020SOL     OW12958   6.455   5.323   4.264
 4020SOL    HW112959   6.400   5.400   4.298
 4020SOL    HW212960   6.526   5.301   4.330
 4021SOL     OW12961   4.265   3.598   6.345
 4021SOL    HW112962   4.249   3.586   6.443
 4021SOL    HW212963   4.286   3.694   6.327
 4022SOL     OW12964   1.867   0.627   1.715
 4022SOL    HW112965   1.805   0.588   1.647
 4022SOL    HW212966   1.935   0.684   1.669
 4023SOL     OW12967   0.674   1.686   5.054
 4023SOL    HW112968   0.609   1.760   5.072
 4023SOL    HW212969   0.716   1.700   4.965
 4024SOL     OW12970   0.798   5.862   4.457
 4024SOL    HW112971   0.793   5.828   4.551
 4024SOL    HW212972   0.758   5.794   4.396
 4025SOL     OW12973   0.263   5.595   3.870
 4025SOL    HW112974   0.311   5.544   3.941
 4025SOL    HW212975   0.199   5.533   3.822
 4026SOL     OW12976   6.530   6.834   3.838
 4026SOL    HW112977   6.498   6.747   3.802
 4026SOL    HW212978   6.628   6.844   3.820
 4027SOL     OW12979   2.488   3.936   6.082
 4027SOL    HW112980   2.497   3.890   6.171
 4027SOL    HW212981   2.499   4.035   6.095
 4028SOL     OW12982   4.487   1.916   2.973
 4028SOL    HW112983   4.402   1.952   2.933
 4028SOL    HW212984   4.534   1.989   3.023
 4029SOL     OW12985   1.938   5.915   6.897
 4029SOL    HW112986   1.866   5.846   6.901
 4029SOL    HW212987   2.027   5.870   6.886
 4030SOL     OW12988   6.914   1.209   2.917
 4030SOL    HW112989   6.882   1.138   2.855
 4030SOL    HW212990   7.009   1.192   2.942
 4031SOL     OW12991   6.145   6.387   0.965
 4031SOL    HW112992   6.210   6.386   1.041
 4031SOL    HW212993   6.065   6.330   0.989
 4032SOL     OW12994   5.428   0.807   1.704
 4032SOL    HW112995   5.362   0.839   1.771
 4032SOL    HW212996   5.521   0.827   1.737
 4033SOL     OW12997   1.755   2.543   2.636
 4033SOL    HW112998   1.839   2.513   2.683
 4033SOL    HW212999   1.735   2.637   2.661
 4034SOL     OW13000   0.048   3.113   5.482
 4034SOL    HW113001   0.096   3.151   5.561
 4034SOL    HW213002   6.998   3.175   5.455
 4035SOL     OW13003   4.750   1.548   1.714
 4035SOL    HW113004   4.757   1.499   1.801
 4035SOL    HW213005   4.693   1.629   1.727
 4036SOL     OW13006   2.660   5.337   2.769
 4036SOL    HW113007   2.590   5.292   2.714
 4036SOL    HW213008   2.621   5.363   2.857
 4037SOL     OW13009   2.422   1.106   6.088
 4037SOL    HW113010   2.504   1.071   6.042
 4037SOL    HW213011   2.361   1.029   6.110
 4038SOL     OW13012   3.403   3.680   5.779
 4038SOL    HW113013   3.459   3.643   5.853
 4038SOL    HW213014   3.307   3.657   5.796
 4039SOL     OW13015   6.375   4.762   1.554
 4039SOL    HW113016   6.318   4.723   1.482
 4039SOL    HW213017   6.316   4.802   1.625
 4040SOL     OW13018   3.184   6.057   4.649
 4040SOL    HW113019   3.156   5.961   4.654
 4040SOL    HW213020   3.190   6.085   4.553
 4041SOL     OW13021   2.827   6.431   0.617
 4041SOL    HW113022   2.911   6.481   0.596
 4041SOL    HW213023   2.817   6.422   0.716
 4042SOL     OW13024   5.984   0.886   3.703
 4042SOL    HW113025   5.996   0.800   3.654
 4042SOL    HW213026   6.020   0.877   3.796
 4043SOL     OW13027   5.371   3.334   6.642
 4043SOL    HW113028   5.340   3.337   6.737
 4043SOL    HW213029   5.299   3.294   6.585
 4044SOL     OW13030   4.527   5.409   3.011
 4044SOL    HW113031   4.521   5.315   2.979
 4044SOL    HW213032   4.609   5.453   2.973
 4045SOL     OW13033   5.061   0.255   5.358
 4045SOL    HW113034   5.036   0.173   5.307
 4045SOL    HW213035   4.983   0.285   5.414
 4046SOL     OW13036   5.994   1.832   2.349
 4046SOL    HW113037   5.932   1.909   2.337
 4046SOL    HW213038   5.976   1.764   2.278
 4047SOL     OW13039   2.715   3.592   7.017
 4047SOL    HW113040   2.810   3.616   6.999
 4047SOL    HW213041   2.694   3.503   6.976
 4048SOL     OW13042   4.448   1.507   1.962
 4048SOL    HW113043   4.474   1.600   1.937
 4048SOL    HW213044   4.447   1.498   2.061
 4049SOL     OW13045   3.635   4.515   6.565
 4049SOL    HW113046   3.627   4.594   6.504
 4049SOL    HW213047   3.725   4.516   6.609
 4050SOL     OW13048   0.477   5.648   2.540
 4050SOL    HW113049   0.450   5.574   2.601
 4050SOL    HW213050   0.556   5.696   2.578
 4051SOL     OW13051   5.418   1.084   5.275
 4051SOL    HW113052   5.344   1.108   5.212
 4051SOL    HW213053   5.501   1.134   5.248
 4052SOL     OW13054   6.386   2.464   3.794
 4052SOL    HW113055   6.373   2.537   3.727
 4052SOL    HW213056   6.329   2.386   3.770
 4053SOL     OW13057   0.858   5.080   4.690
 4053SOL    HW113058   0.846   5.144   4.765
 4053SOL    HW213059   0.769   5.060   4.649
 4054SOL     OW13060   4.581   4.011   0.266
 4054SOL    HW113061   4.639   3.977   0.192
 4054SOL    HW213062   4.486   4.017   0.234
 4055SOL     OW13063   0.064   4.450   0.953
 4055SOL    HW113064   0.133   4.389   0.914
 4055SOL    HW213065   0.078   4.543   0.920
 4056SOL     OW13066   4.922   3.275   0.842
 4056SOL    HW113067   4.989   3.222   0.790
 4056SOL    HW213068   4.963   3.361   0.872
 4057SOL     OW13069   6.771   3.015   6.804
 4057SOL    HW113070   6.847   2.967   6.850
 4057SOL    HW213071   6.734   3.084   6.866
 4058SOL     OW13072   2.652   6.361   5.804
 4058SOL    HW113073   2.670   6.450   5.761
 4058SOL    HW213074   2.730   6.300   5.788
 4059SOL     OW13075   1.173   1.602   4.472
 4059SOL    HW113076   1.217   1.513   4.465
 4059SOL    HW213077   1.238   1.674   4.445
 4060SOL     OW13078   6.350   5.957   5.938
 4060SOL    HW113079   6.282   5.898   5.895
 4060SOL    HW213080   6.392   6.016   5.868
 4061SOL     OW13081   2.151   5.643   0.989
 4061SOL    HW113082   2.106   5.729   0.966
 4061SOL    HW213083   2.214   5.658   1.066
 4062SOL     OW13084   1.673   1.832   1.779
 4062SOL    HW113085   1.622   1.766   1.723
 4062SOL    HW213086   1.625   1.920   1.778
 4063SOL     OW13087   5.085   1.558   0.431
 4063SOL    HW113088   5.032   1.478   0.402
 4063SOL    HW213089   5.072   1.632   0.364
 4064SOL     OW13090   2.132   2.133   5.329
 4064SOL    HW113091   2.038   2.102   5.343
 4064SOL    HW213092   2.156   2.127   5.232
 4065SOL     OW13093   2.306   6.717   1.214
 4065SOL    HW113094   2.291   6.778   1.136
 4065SOL    HW213095   2.356   6.636   1.183
 4066SOL     OW13096   0.110   4.139   3.701
 4066SOL    HW113097   0.111   4.148   3.801
 4066SOL    HW213098   0.122   4.043   3.676
 4067SOL     OW13099   4.788   4.894   1.688
 4067SOL    HW113100   4.853   4.944   1.631
 4067SOL    HW213101   4.765   4.807   1.644
 4068SOL     OW13102   1.742   2.885   5.189
 4068SOL    HW113103   1.780   2.952   5.125
 4068SOL    HW213104   1.804   2.873   5.266
 4069SOL     OW13105   4.387   7.023   0.144
 4069SOL    HW113106   4.424   6.968   0.219
 4069SOL    HW213107   4.381   6.968   0.061
 4070SOL     OW13108   1.525   3.054   3.227
 4070SOL    HW113109   1.464   3.044   3.305
 4070SOL    HW213110   1.620   3.047   3.258
 4071SOL     OW13111   0.641   0.585   3.941
 4071SOL    HW113112   0.586   0.507   3.970
 4071SOL    HW213113   0.581   0.654   3.899
 4072SOL     OW13114   2.281   5.677   3.426
 4072SOL    HW113115   2.243   5.649   3.514
 4072SOL    HW213116   2.360   5.620   3.404
 4073SOL     OW13117   3.153   4.572   0.218
 4073SOL    HW113118   3.150   4.592   0.120
 4073SOL    HW213119   3.231   4.620   0.259
 4074SOL     OW13120   1.164   6.102   3.028
 4074SOL    HW113121   1.260   6.078   3.011
 4074SOL    HW213122   1.105   6.033   2.987
 4075SOL     OW13123   5.812   0.482   0.504
 4075SOL    HW113124   5.716   0.504   0.519
 4075SOL    HW213125   5.869   0.561   0.528
 4076SOL     OW13126   2.855   3.762   5.244
 4076SOL    HW113127   2.793   3.839   5.231
 4076SOL    HW213128   2.947   3.796   5.262
 4077SOL     OW13129   3.682   1.735   1.616
 4077SOL    HW113130   3.660   1.770   1.708
 4077SOL    HW213131   3.737   1.803   1.568
 4078SOL     OW13132   2.765   4.687   2.654
 4078SOL    HW113133   2.751   4.659   2.749
 4078SOL    HW213134   2.848   4.742   2.647
 4079SOL     OW13135   0.945   2.115   4.216
 4079SOL    HW113136   0.902   2.057   4.285
 4079SOL    HW213137   0.948   2.209   4.248
 4080SOL     OW13138   6.450   1.311   5.026
 4080SOL    HW113139   6.364   1.361   5.019
 4080SOL    HW213140   6.521   1.360   4.976
 4081SOL     OW13141   1.800   3.200   3.601
 4081SOL    HW113142   1.753   3.280   3.563
 4081SOL    HW213143   1.899   3.214   3.597
 4082SOL     OW13144   0.974   2.685   1.398
 4082SOL    HW113145   0.913   2.705   1.475
 4082SOL    HW213146   0.936   2.609   1.345
 4083SOL     OW13147   5.581   2.532   4.996
 4083SOL    HW113148   5.674   2.560   4.974
 4083SOL    HW213149   5.557   2.565   5.088
 4084SOL     OW13150   0.426   1.491   4.340
 4084SOL    HW113151   0.332   1.456   4.338
 4084SOL    HW213152   0.459   1.492   4.434
 4085SOL     OW13153   3.626   6.725   0.094
 4085SOL    HW113154   3.683   6.706   0.173
 4085SOL    HW213155   3.667   6.685   0.012
 4086SOL     OW13156   1.622   4.543   0.995
 4086SOL    HW113157   1.530   4.546   1.032
 4086SOL    HW213158   1.681   4.488   1.055
 4087SOL     OW13159   2.164   1.955   3.407
 4087SOL    HW113160   2.230   1.952   3.333
 4087SOL    HW213161   2.080   1.909   3.379
 4088SOL     OW13162   6.306   1.758   1.352
 4088SOL    HW113163   6.247   1.840   1.349
 4088SOL    HW213164   6.355   1.749   1.266
 4089SOL     OW13165   0.934   0.901   4.286
 4089SOL    HW113166   0.999   0.976   4.270
 4089SOL    HW213167   0.977   0.814   4.265
 4090SOL     OW13168   2.100   4.503   6.428
 4090SOL    HW113169   2.055   4.585   6.393
 4090SOL    HW213170   2.193   4.526   6.456
 4091SOL     OW13171   4.372   5.847   0.222
 4091SOL    HW113172   4.321   5.846   0.308
 4091SOL    HW213173   4.463   5.884   0.237
 4092SOL     OW13174   0.471   2.892   4.834
 4092SOL    HW113175   0.406   2.841   4.778
 4092SOL    HW213176   0.519   2.959   4.776
 4093SOL     OW13177   5.360   0.576   3.987
 4093SOL    HW113178   5.340   0.661   4.037
 4093SOL    HW213179   5.409   0.598   3.903
 4094SOL     OW13180   1.805   4.074   5.389
 4094SOL    HW113181   1.815   3.980   5.356
 4094SOL    HW213182   1.892   4.122   5.378
 4095SOL     OW13183   1.014   3.222   6.408
 4095SOL    HW113184   1.111   3.203   6.420
 4095SOL    HW213185   0.984   3.190   6.318
 4096SOL     OW13186   4.387   4.515   7.023
 4096SOL    HW113187   4.349   4.444   6.963
 4096SOL    HW213188   4.334   4.599   7.012
 4097SOL     OW13189   3.239   3.887   5.930
 4097SOL    HW113190   3.316   3.843   5.883
 4097SOL    HW213191   3.156   3.833   5.916
 4098SOL     OW13192   0.370   2.311   3.167
 4098SOL    HW113193   0.430   2.261   3.229
 4098SOL    HW213194   0.278   2.271   3.172
 4099SOL     OW13195   3.434   6.150   1.803
 4099SOL    HW113196   3.455   6.078   1.868
 4099SOL    HW213197   3.519   6.195   1.774
 4100SOL     OW13198   4.141   5.557   3.725
 4100SOL    HW113199   4.112   5.500   3.648
 4100SOL    HW213200   4.205   5.626   3.692
 4101SOL     OW13201   5.785   1.576   6.402
 4101SOL    HW113202   5.797   1.584   6.303
 4101SOL    HW213203   5.869   1.541   6.443
 4102SOL     OW13204   5.946   1.082   0.336
 4102SOL    HW113205   5.921   1.085   0.433
 4102SOL    HW213206   5.870   1.116   0.281
 4103SOL     OW13207   0.710   0.436   2.028
 4103SOL    HW113208   0.625   0.481   2.056
 4103SOL    HW213209   0.707   0.340   2.055
 4104SOL     OW13210   1.366   4.854   2.386
 4104SOL    HW113211   1.278   4.897   2.367
 4104SOL    HW213212   1.420   4.850   2.301
 4105SOL     OW13213   3.539   5.092   0.348
 4105SOL    HW113214   3.544   5.095   0.248
 4105SOL    HW213215   3.443   5.084   0.375
 4106SOL     OW13216   0.120   3.591   4.621
 4106SOL    HW113217   0.146   3.624   4.530
 4106SOL    HW213218   0.202   3.576   4.676
 4107SOL     OW13219   0.152   0.086   1.147
 4107SOL    HW113220   0.096   0.083   1.230
 4107SOL    HW213221   0.244   0.053   1.167
 4108SOL     OW13222   6.557   3.491   6.527
 4108SOL    HW113223   6.650   3.496   6.491
 4108SOL    HW213224   6.500   3.436   6.466
 4109SOL     OW13225   3.975   6.492   3.843
 4109SOL    HW113226   3.941   6.460   3.931
 4109SOL    HW213227   3.986   6.591   3.845
 4110SOL     OW13228   5.148   3.710   6.053
 4110SOL    HW113229   5.115   3.624   6.091
 4110SOL    HW213230   5.228   3.693   5.995
 4111SOL     OW13231   4.178   2.579   6.896
 4111SOL    HW113232   4.222   2.503   6.943
 4111SOL    HW213233   4.217   2.665   6.929
 4112SOL     OW13234   3.353   1.768   3.785
 4112SOL    HW113235   3.281   1.759   3.853
 4112SOL    HW213236   3.440   1.789   3.830
 4113SOL     OW13237   3.418   4.863   5.207
 4113SOL    HW113238   3.443   4.869   5.111
 4113SOL    HW213239   3.500   4.872   5.264
 4114SOL     OW13240   3.066   1.793   3.667
 4114SOL    HW113241   3.127   1.844   3.606
 4114SOL    HW213242   2.979   1.842   3.675
 4115SOL     OW13243   4.906   4.657   1.992
 4115SOL    HW113244   4.832   4.721   1.971
 4115SOL    HW213245   4.867   4.565   2.007
 4116SOL     OW13246   3.820   1.918   1.448
 4116SOL    HW113247   3.751   1.876   1.389
 4116SOL    HW213248   3.788   2.008   1.477
 4117SOL     OW13249   1.095   5.323   1.471
 4117SOL    HW113250   1.149   5.362   1.546
 4117SOL    HW213251   1.136   5.235   1.443
 4118SOL     OW13252   1.286   6.707   0.712
 4118SOL    HW113253   1.273   6.671   0.805
 4118SOL    HW213254   1.304   6.632   0.649
 4119SOL     OW13255   3.447   0.784   4.605
 4119SOL    HW113256   3.394   0.855   4.653
 4119SOL    HW213257   3.402   0.695   4.617
 4120SOL     OW13258   4.170   6.763   1.288
 4120SOL    HW113259   4.163   6.858   1.259
 4120SOL    HW213260   4.100   6.743   1.356
 4121SOL     OW13261   6.982   2.538   4.083
 4121SOL    HW113262   0.045   2.510   4.040
 4121SOL    HW213263   6.990   2.633   4.114
 4122SOL     OW13264   0.615   5.742   5.682
 4122SOL    HW113265   0.671   5.720   5.762
 4122SOL    HW213266   0.666   5.717   5.599
 4123SOL     OW13267   5.510   3.847   6.095
 4123SOL    HW113268   5.454   3.805   6.023
 4123SOL    HW213269   5.607   3.839   6.069
 4124SOL     OW13270   5.517   6.348   4.404
 4124SOL    HW113271   5.572   6.390   4.477
 4124SOL    HW213272   5.527   6.401   4.320
 4125SOL     OW13273   4.305   0.929   1.349
 4125SOL    HW113274   4.355   0.972   1.424
 4125SOL    HW213275   4.243   0.859   1.385
 4126SOL     OW13276   2.288   4.189   4.736
 4126SOL    HW113277   2.272   4.090   4.730
 4126SOL    HW213278   2.356   4.207   4.807
 4127SOL     OW13279   5.605   3.158   5.045
 4127SOL    HW113280   5.561   3.071   5.021
 4127SOL    HW213281   5.624   3.159   5.143
 4128SOL     OW13282   1.505   3.441   2.153
 4128SOL    HW113283   1.587   3.401   2.195
 4128SOL    HW213284   1.453   3.491   2.221
 4129SOL     OW13285   5.705   2.209   5.827
 4129SOL    HW113286   5.734   2.202   5.922
 4129SOL    HW213287   5.717   2.121   5.781
 4130SOL     OW13288   6.620   4.260   6.123
 4130SOL    HW113289   6.547   4.224   6.181
 4130SOL    HW213290   6.693   4.192   6.116
 4131SOL     OW13291   6.929   4.783   3.988
 4131SOL    HW113292   6.876   4.703   4.017
 4131SOL    HW213293   0.000   4.757   3.973
 4132SOL     OW13294   5.268   3.130   3.487
 4132SOL    HW113295   5.240   3.217   3.446
 4132SOL    HW213296   5.356   3.142   3.534
 4133SOL     OW13297   2.584   1.309   1.058
 4133SOL    HW113298   2.574   1.383   1.124
 4133SOL    HW213299   2.494   1.270   1.038
 4134SOL     OW13300   2.274   1.916   0.125
 4134SOL    HW113301   2.233   1.841   0.177
 4134SOL    HW213302   2.208   1.952   0.059
 4135SOL     OW13303   2.251   1.324   2.449
 4135SOL    HW113304   2.346   1.342   2.475
 4135SOL    HW213305   2.190   1.382   2.504
 4136SOL     OW13306   0.002   2.194   3.939
 4136SOL    HW113307   0.046   2.110   3.971
 4136SOL    HW213308   6.927   2.188   3.956
 4137SOL     OW13309   3.704   3.528   6.105
 4137SOL    HW113310   3.793   3.513   6.062
 4137SOL    HW213311   3.717   3.587   6.185
 4138SOL     OW13312   4.165   4.793   3.622
 4138SOL    HW113313   4.194   4.786   3.718
 4138SOL    HW213314   4.244   4.783   3.562
 4139SOL     OW13315   1.608   1.872   6.045
 4139SOL    HW113316   1.636   1.956   6.090
 4139SOL    HW213317   1.572   1.893   5.954
 4140SOL     OW13318   3.969   0.983   5.467
 4140SOL    HW113319   3.993   0.908   5.405
 4140SOL    HW213320   4.043   1.049   5.471
 4141SOL     OW13321   5.158   5.171   0.414
 4141SOL    HW113322   5.132   5.267   0.399
 4141SOL    HW213323   5.075   5.116   0.425
 4142SOL     OW13324   6.656   4.397   1.169
 4142SOL    HW113325   6.731   4.405   1.234
 4142SOL    HW213326   6.569   4.410   1.216
 4143SOL     OW13327   6.936   3.226   0.692
 4143SOL    HW113328   6.969   3.135   0.716
 4143SOL    HW213329   7.009   3.294   0.705
 4144SOL     OW13330   4.951   1.325   2.269
 4144SOL    HW113331   4.963   1.424   2.272
 4144SOL    HW213332   4.992   1.283   2.351
 4145SOL     OW13333   1.665   0.487   1.560
 4145SOL    HW113334   1.601   0.482   1.637
 4145SOL    HW213335   1.653   0.573   1.511
 4146SOL     OW13336   5.111   6.915   6.656
 4146SOL    HW113337   5.171   6.879   6.728
 4146SOL    HW213338   5.165   6.969   6.591
 4147SOL     OW13339   3.300   1.780   5.724
 4147SOL    HW113340   3.398   1.762   5.712
 4147SOL    HW213341   3.250   1.743   5.646
 4148SOL     OW13342   6.440   0.639   3.331
 4148SOL    HW113343   6.526   0.684   3.308
 4148SOL    HW213344   6.365   0.685   3.284
 4149SOL     OW13345   6.166   3.854   1.469
 4149SOL    HW113346   6.107   3.911   1.526
 4149SOL    HW213347   6.257   3.895   1.464
 4150SOL     OW13348   5.736   0.209   6.804
 4150SOL    HW113349   5.746   0.112   6.824
 4150SOL    HW213350   5.656   0.245   6.852
 4151SOL     OW13351   0.168   6.293   0.344
 4151SOL    HW113352   0.092   6.358   0.353
 4151SOL    HW213353   0.227   6.321   0.268
 4152SOL     OW13354   4.251   4.689   1.935
 4152SOL    HW113355   4.292   4.741   1.860
 4152SOL    HW213356   4.164   4.651   1.904
 4153SOL     OW13357   6.197   4.701   6.276
 4153SOL    HW113358   6.261   4.682   6.351
 4153SOL    HW213359   6.108   4.726   6.314
 4154SOL     OW13360   5.950   2.941   5.540
 4154SOL    HW113361   5.947   2.983   5.631
 4154SOL    HW213362   6.037   2.963   5.496
 4155SOL     OW13363   0.679   3.297   1.881
 4155SOL    HW113364   0.754   3.358   1.907
 4155SOL    HW213365   0.672   3.293   1.781
 4156SOL     OW13366   5.472   6.640   5.710
 4156SOL    HW113367   5.509   6.625   5.801
 4156SOL    HW213368   5.443   6.735   5.700
 4157SOL     OW13369   4.209   0.785   3.919
 4157SOL    HW113370   4.141   0.838   3.970
 4157SOL    HW213371   4.177   0.691   3.909
 4158SOL     OW13372   0.450   5.291   3.203
 4158SOL    HW113373   0.446   5.268   3.106
 4158SOL    HW213374   0.451   5.207   3.257
 4159SOL     OW13375   1.000   2.891   4.074
 4159SOL    HW113376   0.908   2.915   4.106
 4159SOL    HW213377   1.049   2.973   4.048
 4160SOL     OW13378   6.569   0.297   0.994
 4160SOL    HW113379   6.659   0.340   0.978
 4160SOL    HW213380   6.582   0.202   1.021
 4161SOL     OW13381   1.000   1.875   0.300
 4161SOL    HW113382   0.957   1.785   0.290
 4161SOL    HW213383   1.099   1.863   0.310
 4162SOL     OW13384   5.958   6.403   4.983
 4162SOL    HW113385   6.019   6.443   4.916
 4162SOL    HW213386   6.011   6.369   5.061
 4163SOL     OW13387   5.557   1.650   3.699
 4163SOL    HW113388   5.559   1.609   3.791
 4163SOL    HW213389   5.534   1.579   3.632
 4164SOL     OW13390   1.492   0.708   6.802
 4164SOL    HW113391   1.440   0.727   6.719
 4164SOL    HW213392   1.490   0.610   6.820
 4165SOL     OW13393   3.831   6.734   1.194
 4165SOL    HW113394   3.927   6.723   1.168
 4165SOL    HW213395   3.818   6.824   1.236
 4166SOL     OW13396   4.647   3.200   0.266
 4166SOL    HW113397   4.736   3.170   0.300
 4166SOL    HW213398   4.574   3.153   0.316
 4167SOL     OW13399   2.289   2.606   1.762
 4167SOL    HW113400   2.256   2.588   1.854
 4167SOL    HW213401   2.212   2.608   1.699
 4168SOL     OW13402   0.606   5.232   1.541
 4168SOL    HW113403   0.676   5.302   1.531
 4168SOL    HW213404   0.603   5.175   1.459
 4169SOL     OW13405   5.186   3.372   3.390
 4169SOL    HW113406   5.161   3.443   3.455
 4169SOL    HW213407   5.269   3.399   3.342
 4170SOL     OW13408   3.780   2.759   5.276
 4170SOL    HW113409   3.745   2.833   5.334
 4170SOL    HW213410   3.737   2.765   5.186
 4171SOL     OW13411   5.127   3.452   1.376
 4171SOL    HW113412   5.093   3.364   1.408
 4171SOL    HW213413   5.050   3.513   1.358
 4172SOL     OW13414   0.840   1.681   0.646
 4172SOL    HW113415   0.795   1.730   0.722
 4172SOL    HW213416   0.933   1.718   0.634
 4173SOL     OW13417   5.161   3.033   5.144
 4173SOL    HW113418   5.094   3.102   5.172
 4173SOL    HW213419   5.233   3.077   5.089
 4174SOL     OW13420   4.627   0.434   3.603
 4174SOL    HW113421   4.689   0.438   3.524
 4174SOL    HW213422   4.553   0.499   3.590
 4175SOL     OW13423   3.414   6.937   3.429
 4175SOL    HW113424   3.499   6.885   3.439
 4175SOL    HW213425   3.404   6.967   3.334
 4176SOL     OW13426   4.924   6.942   3.064
 4176SOL    HW113427   5.011   6.983   3.037
 4176SOL    HW213428   4.914   6.947   3.163
 4177SOL     OW13429   0.285   6.241   3.131
 4177SOL    HW113430   0.308   6.324   3.181
 4177SOL    HW213431   0.215   6.261   3.063
 4178SOL     OW13432   3.539   1.661   5.540
 4178SOL    HW113433   3.626   1.631   5.578
 4178SOL    HW213434   3.555   1.723   5.463
 4179SOL     OW13435   5.392   3.579   5.201
 4179SOL    HW113436   5.478   3.560   5.249
 4179SOL    HW213437   5.407   3.572   5.102
 4180SOL     OW13438   4.628   4.295   1.423
 4180SOL    HW113439   4.574   4.334   1.499
 4180SOL    HW213440   4.581   4.313   1.337
 4181SOL     OW13441   0.884   1.619   6.857
 4181SOL    HW113442   0.958   1.578   6.911
 4181SOL    HW213443   0.802   1.562   6.866
 4182SOL     OW13444   5.920   0.062   2.691
 4182SOL    HW113445   5.966   7.002   2.722
 4182SOL    HW213446   5.979   0.111   2.627
 4183SOL     OW13447   1.760   1.691   1.999
 4183SOL    HW113448   1.716   1.741   1.924
 4183SOL    HW213449   1.834   1.634   1.961
 4184SOL     OW13450   3.801   5.441   0.241
 4184SOL    HW113451   3.710   5.437   0.282
 4184SOL    HW213452   3.838   5.533   0.253
 4185SOL     OW13453   0.315   6.916   3.706
 4185SOL    HW113454   0.364   6.846   3.652
 4185SOL    HW213455   0.243   6.956   3.650
 4186SOL     OW13456   2.240   3.942   1.080
 4186SOL    HW113457   2.295   3.859   1.071
 4186SOL    HW213458   2.158   3.933   1.024
 4187SOL     OW13459   3.541   3.317   6.217
 4187SOL    HW113460   3.619   3.336   6.157
 4187SOL    HW213461   3.489   3.239   6.182
 4188SOL     OW13462   4.594   0.088   4.241
 4188SOL    HW113463   4.583   0.113   4.144
 4188SOL    HW213464   4.614   0.171   4.294
 4189SOL     OW13465   2.170   1.876   4.542
 4189SOL    HW113466   2.225   1.793   4.540
 4189SOL    HW213467   2.127   1.886   4.631
 4190SOL     OW13468   3.252   1.015   6.824
 4190SOL    HW113469   3.304   1.100   6.824
 4190SOL    HW213470   3.265   0.968   6.911
 4191SOL     OW13471   6.322   2.135   2.482
 4191SOL    HW113472   6.229   2.169   2.490
 4191SOL    HW213473   6.383   2.195   2.534
 4192SOL     OW13474   5.756   1.276   3.597
 4192SOL    HW113475   5.798   1.255   3.686
 4192SOL    HW213476   5.772   1.200   3.534
 4193SOL     OW13477   1.831   6.945   2.261
 4193SOL    HW113478   1.858   6.849   2.260
 4193SOL    HW213479   1.901   7.000   2.215
 4194SOL     OW13480   0.227   1.318   3.902
 4194SOL    HW113481   0.236   1.293   3.805
 4194SOL    HW213482   0.318   1.318   3.945
 4195SOL     OW13483   5.315   0.242   1.401
 4195SOL    HW113484   5.302   0.234   1.500
 4195SOL    HW213485   5.231   0.274   1.358
 4196SOL     OW13486   4.897   2.320   4.478
 4196SOL    HW113487   4.972   2.377   4.445
 4196SOL    HW213488   4.855   2.272   4.401
 4197SOL     OW13489   4.829   4.003   4.450
 4197SOL    HW113490   4.810   4.013   4.352
 4197SOL    HW213491   4.885   4.079   4.481
 4198SOL     OW13492   6.218   3.824   0.132
 4198SOL    HW113493   6.127   3.849   0.163
 4198SOL    HW213494   6.284   3.894   0.160
 4199SOL     OW13495   2.832   3.611   5.473
 4199SOL    HW113496   2.776   3.530   5.458
 4199SOL    HW213497   2.840   3.664   5.388
 4200SOL     OW13498   2.204   0.397   6.878
 4200SOL    HW113499   2.135   0.331   6.905
 4200SOL    HW213500   2.161   0.471   6.826
 4201SOL     OW13501   5.883   6.553   3.743
 4201SOL    HW113502   5.827   6.636   3.749
 4201SOL    HW213503   5.869   6.509   3.654
 4202SOL     OW13504   5.402   4.811   4.764
 4202SOL    HW113505   5.352   4.737   4.810
 4202SOL    HW213506   5.494   4.818   4.804
 4203SOL     OW13507   5.517   5.920   3.177
 4203SOL    HW113508   5.484   5.963   3.093
 4203SOL    HW213509   5.570   5.987   3.230
 4204SOL     OW13510   2.778   2.780   1.618
 4204SOL    HW113511   2.831   2.863   1.631
 4204SOL    HW213512   2.687   2.792   1.657
 4205SOL     OW13513   2.599   5.292   4.062
 4205SOL    HW113514   2.526   5.298   4.131
 4205SOL    HW213515   2.641   5.201   4.065
 4206SOL     OW13516   4.899   0.338   4.663
 4206SOL    HW113517   4.935   0.283   4.587
 4206SOL    HW213518   4.914   0.289   4.749
 4207SOL     OW13519   1.157   1.278   1.929
 4207SOL    HW113520   1.139   1.371   1.959
 4207SOL    HW213521   1.072   1.236   1.898
 4208SOL     OW13522   1.153   2.848   0.452
 4208SOL    HW113523   1.209   2.829   0.532
 4208SOL    HW213524   1.207   2.833   0.369
 4209SOL     OW13525   2.754   6.849   5.086
 4209SOL    HW113526   2.775   6.896   5.171
 4209SOL    HW213527   2.767   6.912   5.009
 4210SOL     OW13528   4.498   3.031   0.616
 4210SOL    HW113529   4.437   2.981   0.676
 4210SOL    HW213530   4.450   3.056   0.532
 4211SOL     OW13531   4.435   4.983   3.596
 4211SOL    HW113532   4.418   4.915   3.525
 4211SOL    HW213533   4.441   5.074   3.556
 4212SOL     OW13534   6.215   1.529   2.712
 4212SOL    HW113535   6.220   1.561   2.807
 4212SOL    HW213536   6.305   1.539   2.669
 4213SOL     OW13537   1.328   1.011   2.484
 4213SOL    HW113538   1.369   0.952   2.415
 4213SOL    HW213539   1.231   1.022   2.466
 4214SOL     OW13540   0.601   2.963   4.412
 4214SOL    HW113541   0.650   2.877   4.425
 4214SOL    HW213542   0.547   2.959   4.327
 4215SOL     OW13543   0.488   5.557   4.504
 4215SOL    HW113544   0.506   5.461   4.524
 4215SOL    HW213545   0.409   5.588   4.557
 4216SOL     OW13546   0.909   2.847   4.698
 4216SOL    HW113547   0.821   2.829   4.742
 4216SOL    HW213548   0.964   2.907   4.756
 4217SOL     OW13549   0.009   0.573   2.983
 4217SOL    HW113550   0.086   0.637   2.985
 4217SOL    HW213551   6.967   0.598   3.054
 4218SOL     OW13552   4.041   0.174   1.701
 4218SOL    HW113553   4.100   0.255   1.701
 4218SOL    HW213554   4.085   0.101   1.650
 4219SOL     OW13555   4.362   5.731   3.626
 4219SOL    HW113556   4.423   5.666   3.671
 4219SOL    HW213557   4.409   5.818   3.614
 4220SOL     OW13558   6.153   2.958   3.831
 4220SOL    HW113559   6.119   2.870   3.799
 4220SOL    HW213560   6.215   2.944   3.908
 4221SOL     OW13561   5.595   5.648   6.307
 4221SOL    HW113562   5.519   5.583   6.306
 4221SOL    HW213563   5.641   5.645   6.218
 4222SOL     OW13564   4.828   2.217   1.048
 4222SOL    HW113565   4.878   2.165   0.979
 4222SOL    HW213566   4.852   2.314   1.040
 4223SOL     OW13567   3.475   4.173   2.154
 4223SOL    HW113568   3.522   4.171   2.066
 4223SOL    HW213569   3.470   4.267   2.187
 4224SOL     OW13570   4.429   2.262   4.994
 4224SOL    HW113571   4.487   2.331   4.951
 4224SOL    HW213572   4.346   2.304   5.029
 4225SOL     OW13573   5.574   6.794   5.024
 4225SOL    HW113574   5.543   6.797   4.929
 4225SOL    HW213575   5.501   6.826   5.084
 4226SOL     OW13576   0.758   1.269   4.026
 4226SOL    HW113577   0.737   1.344   4.090
 4226SOL    HW213578   0.709   1.284   3.941
 4227SOL     OW13579   4.921   4.581   0.235
 4227SOL    HW113580   4.940   4.542   0.145
 4227SOL    HW213581   4.870   4.667   0.224
 4228SOL     OW13582   6.082   5.319   2.808
 4228SOL    HW113583   6.022   5.399   2.803
 4228SOL    HW213584   6.153   5.335   2.877
 4229SOL     OW13585   4.789   4.880   5.800
 4229SOL    HW113586   4.849   4.858   5.722
 4229SOL    HW213587   4.703   4.829   5.790
 4230SOL     OW13588   4.000   0.090   4.931
 4230SOL    HW113589   4.087   0.066   4.975
 4230SOL    HW213590   3.937   0.123   5.001
 4231SOL     OW13591   4.775   0.271   5.548
 4231SOL    HW113592   4.817   0.259   5.638
 4231SOL    HW213593   4.681   0.304   5.559
 4232SOL     OW13594   2.412   4.392   2.455
 4232SOL    HW113595   2.436   4.400   2.358
 4232SOL    HW213596   2.450   4.470   2.505
 4233SOL     OW13597   6.429   6.192   0.024
 4233SOL    HW113598   6.424   6.185   6.948
 4233SOL    HW213599   6.381   6.115   0.065
 4234SOL     OW13600   3.080   4.416   6.145
 4234SOL    HW113601   3.158   4.358   6.120
 4234SOL    HW213602   3.089   4.445   6.240
 4235SOL     OW13603   6.349   3.572   5.602
 4235SOL    HW113604   6.365   3.646   5.668
 4235SOL    HW213605   6.255   3.579   5.567
 4236SOL     OW13606   1.050   2.752   4.318
 4236SOL    HW113607   1.055   2.821   4.245
 4236SOL    HW213608   0.961   2.758   4.363
 4237SOL     OW13609   5.243   3.135   4.880
 4237SOL    HW113610   5.224   3.224   4.921
 4237SOL    HW213611   5.258   3.147   4.782
 4238SOL     OW13612   4.358   5.601   4.018
 4238SOL    HW113613   4.262   5.609   3.989
 4238SOL    HW213614   4.362   5.592   4.117
 4239SOL     OW13615   5.008   5.702   5.956
 4239SOL    HW113616   5.005   5.646   6.038
 4239SOL    HW213617   4.922   5.752   5.946
 4240SOL     OW13618   2.174   4.664   6.760
 4240SOL    HW113619   2.076   4.677   6.748
 4240SOL    HW213620   2.191   4.578   6.807
 4241SOL     OW13621   4.036   0.585   6.951
 4241SOL    HW113622   4.011   0.668   7.001
 4241SOL    HW213623   3.978   0.575   6.870
 4242SOL     OW13624   2.434   0.821   2.588
 4242SOL    HW113625   2.526   0.785   2.574
 4242SOL    HW213626   2.422   0.905   2.534
 4243SOL     OW13627   1.755   3.195   2.631
 4243SOL    HW113628   1.806   3.149   2.704
 4243SOL    HW213629   1.657   3.178   2.644
 4244SOL     OW13630   4.409   6.728   1.139
 4244SOL    HW113631   4.444   6.763   1.052
 4244SOL    HW213632   4.311   6.748   1.146
 4245SOL     OW13633   6.367   3.563   1.140
 4245SOL    HW113634   6.377   3.580   1.042
 4245SOL    HW213635   6.332   3.645   1.185
 4246SOL     OW13636   5.137   1.801   3.275
 4246SOL    HW113637   5.071   1.853   3.329
 4246SOL    HW213638   5.099   1.711   3.254
 4247SOL     OW13639   1.360   5.054   5.591
 4247SOL    HW113640   1.386   5.015   5.678
 4247SOL    HW213641   1.390   4.994   5.516
 4248SOL     OW13642   1.800   1.153   3.422
 4248SOL    HW113643   1.891   1.129   3.456
 4248SOL    HW213644   1.733   1.089   3.458
 4249SOL     OW13645   0.018   0.105   4.954
 4249SOL    HW113646   6.996   0.185   4.992
 4249SOL    HW213647   0.091   0.135   4.892
 4250SOL     OW13648   0.320   5.238   4.433
 4250SOL    HW113649   0.295   5.266   4.340
 4250SOL    HW213650   0.417   5.256   4.449
 4251SOL     OW13651   6.031   1.904   5.714
 4251SOL    HW113652   6.116   1.909   5.662
 4251SOL    HW213653   6.052   1.917   5.811
 4252SOL     OW13654   6.951   6.446   0.347
 4252SOL    HW113655   6.989   6.538   0.335
 4252SOL    HW213656   6.913   6.437   0.439
 4253SOL     OW13657   4.919   5.698   2.667
 4253SOL    HW113658   4.961   5.765   2.729
 4253SOL    HW213659   4.943   5.606   2.697
 4254SOL     OW13660   1.834   3.282   0.086
 4254SOL    HW113661   1.882   3.369   0.077
 4254SOL    HW213662   1.896   3.207   0.063
 4255SOL     OW13663   1.243   3.923   2.781
 4255SOL    HW113664   1.152   3.890   2.758
 4255SOL    HW213665   1.238   4.020   2.807
 4256SOL     OW13666   0.804   5.682   2.121
 4256SOL    HW113667   0.731   5.749   2.126
 4256SOL    HW213668   0.863   5.703   2.042
 4257SOL     OW13669   5.969   0.982   4.448
 4257SOL    HW113670   6.023   1.047   4.500
 4257SOL    HW213671   5.962   1.013   4.353
 4258SOL     OW13672   3.939   6.049   0.611
 4258SOL    HW113673   3.982   6.138   0.625
 4258SOL    HW213674   3.858   6.041   0.669
 4259SOL     OW13675   1.053   0.192   2.489
 4259SOL    HW113676   1.050   0.196   2.389
 4259SOL    HW213677   0.985   0.255   2.526
 4260SOL     OW13678   5.263   0.736   4.686
 4260SOL    HW113679   5.345   0.747   4.743
 4260SOL    HW213680   5.187   0.787   4.726
 4261SOL     OW13681   2.051   6.516   4.280
 4261SOL    HW113682   2.099   6.554   4.201
 4261SOL    HW213683   2.044   6.586   4.351
 4262SOL     OW13684   1.728   4.202   6.613
 4262SOL    HW113685   1.704   4.253   6.696
 4262SOL    HW213686   1.742   4.106   6.636
 4263SOL     OW13687   2.684   2.467   4.151
 4263SOL    HW113688   2.627   2.524   4.210
 4263SOL    HW213689   2.694   2.376   4.192
 4264SOL     OW13690   5.111   1.126   5.161
 4264SOL    HW113691   5.043   1.131   5.234
 4264SOL    HW213692   5.110   1.213   5.110
 4265SOL     OW13693   3.676   0.951   6.920
 4265SOL    HW113694   3.710   0.979   7.010
 4265SOL    HW213695   3.752   0.916   6.865
 4266SOL     OW13696   1.308   6.182   1.325
 4266SOL    HW113697   1.322   6.151   1.231
 4266SOL    HW213698   1.213   6.213   1.336
 4267SOL     OW13699   1.519   4.019   4.989
 4267SOL    HW113700   1.609   4.052   4.960
 4267SOL    HW213701   1.486   3.950   4.925
 4268SOL     OW13702   1.068   4.509   6.970
 4268SOL    HW113703   1.045   4.423   7.017
 4268SOL    HW213704   1.042   4.586   0.004
 4269SOL     OW13705   2.689   1.456   4.570
 4269SOL    HW113706   2.705   1.451   4.669
 4269SOL    HW213707   2.648   1.545   4.548
 4270SOL     OW13708   4.108   2.859   0.634
 4270SOL    HW113709   4.114   2.957   0.652
 4270SOL    HW213710   4.016   2.827   0.658
 4271SOL     OW13711   0.179   0.654   1.452
 4271SOL    HW113712   0.199   0.752   1.459
 4271SOL    HW213713   0.261   0.605   1.423
 4272SOL     OW13714   6.729   1.297   6.409
 4272SOL    HW113715   6.632   1.298   6.435
 4272SOL    HW213716   6.746   1.367   6.340
 4273SOL     OW13717   3.278   5.780   4.374
 4273SOL    HW113718   3.237   5.720   4.443
 4273SOL    HW213719   3.329   5.854   4.419
 4274SOL     OW13720   6.862   1.608   1.928
 4274SOL    HW113721   6.870   1.634   2.024
 4274SOL    HW213722   6.843   1.510   1.922
 4275SOL     OW13723   6.920   2.948   2.993
 4275SOL    HW113724   7.015   2.934   2.967
 4275SOL    HW213725   6.883   2.863   3.031
 4276SOL     OW13726   2.231   5.785   4.383
 4276SOL    HW113727   2.230   5.691   4.416
 4276SOL    HW213728   2.298   5.794   4.309
 4277SOL     OW13729   5.992   5.197   3.259
 4277SOL    HW113730   6.048   5.125   3.218
 4277SOL    HW213731   6.026   5.286   3.230
 4278SOL     OW13732   1.292   6.943   1.762
 4278SOL    HW113733   1.368   6.996   1.800
 4278SOL    HW213734   1.206   6.979   1.797
 4279SOL     OW13735   1.637   1.627   3.549
 4279SOL    HW113736   1.583   1.623   3.465
 4279SOL    HW213737   1.734   1.634   3.525
 4280SOL     OW13738   0.705   6.857   6.622
 4280SOL    HW113739   0.756   6.801   6.555
 4280SOL    HW213740   0.751   6.853   6.710
 4281SOL     OW13741   4.891   5.614   3.393
 4281SOL    HW113742   4.926   5.538   3.338
 4281SOL    HW213743   4.795   5.630   3.370
 4282SOL     OW13744   3.806   4.217   0.954
 4282SOL    HW113745   3.814   4.131   0.903
 4282SOL    HW213746   3.776   4.197   1.048
 4283SOL     OW13747   5.108   1.415   4.191
 4283SOL    HW113748   5.009   1.420   4.184
 4283SOL    HW213749   5.150   1.490   4.140
 4284SOL     OW13750   4.273   5.533   6.101
 4284SOL    HW113751   4.317   5.454   6.144
 4284SOL    HW213752   4.222   5.503   6.020
 4285SOL     OW13753   2.866   0.275   5.648
 4285SOL    HW113754   2.953   0.322   5.629
 4285SOL    HW213755   2.790   0.338   5.632
 4286SOL     OW13756   5.789   0.797   6.328
 4286SOL    HW113757   5.716   0.851   6.369
 4286SOL    HW213758   5.873   0.851   6.326
 4287SOL     OW13759   4.628   0.260   0.319
 4287SOL    HW113760   4.697   0.209   0.267
 4287SOL    HW213761   4.660   0.271   0.413
 4288SOL     OW13762   6.802   6.402   2.209
 4288SOL    HW113763   6.882   6.397   2.150
 4288SOL    HW213764   6.827   6.442   2.297
 4289SOL     OW13765   0.412   3.773   3.962
 4289SOL    HW113766   0.484   3.718   4.004
 4289SOL    HW213767   0.361   3.822   4.033
 4290SOL     OW13768   0.477   0.741   3.814
 4290SOL    HW113769   0.501   0.756   3.718
 4290SOL    HW213770   0.405   0.671   3.820
 4291SOL     OW13771   4.566   3.240   6.198
 4291SOL    HW113772   4.573   3.230   6.099
 4291SOL    HW213773   4.596   3.156   6.242
 4292SOL     OW13774   5.830   2.339   1.324
 4292SOL    HW113775   5.730   2.343   1.328
 4292SOL    HW213776   5.868   2.414   1.378
 4293SOL     OW13777   3.702   4.378   6.904
 4293SOL    HW113778   3.708   4.280   6.883
 4293SOL    HW213779   3.723   4.430   6.822
 4294SOL     OW13780   1.826   1.831   6.416
 4294SOL    HW113781   1.749   1.791   6.367
 4294SOL    HW213782   1.876   1.893   6.355
 4295SOL     OW13783   3.986   6.093   2.677
 4295SOL    HW113784   4.072   6.122   2.720
 4295SOL    HW213785   3.913   6.157   2.701
 4296SOL     OW13786   3.055   6.155   2.378
 4296SOL    HW113787   3.046   6.068   2.329
 4296SOL    HW213788   3.025   6.230   2.319
 4297SOL     OW13789   5.937   4.524   0.949
 4297SOL    HW113790   5.958   4.607   0.896
 4297SOL    HW213791   5.839   4.503   0.940
 4298SOL     OW13792   2.382   6.742   0.072
 4298SOL    HW113793   2.327   6.785   0.144
 4298SOL    HW213794   2.479   6.746   0.097
 4299SOL     OW13795   0.650   3.103   0.151
 4299SOL    HW113796   0.602   3.067   0.230
 4299SOL    HW213797   0.707   3.180   0.178
 4300SOL     OW13798   2.826   1.343   0.836
 4300SOL    HW113799   2.805   1.326   0.932
 4300SOL    HW213800   2.809   1.259   0.784
 4301SOL     OW13801   2.922   6.895   1.208
 4301SOL    HW113802   2.878   6.874   1.295
 4301SOL    HW213803   3.007   6.843   1.199
 4302SOL     OW13804   2.392   6.016   6.315
 4302SOL    HW113805   2.357   5.948   6.250
 4302SOL    HW213806   2.352   6.105   6.295
 4303SOL     OW13807   6.273   4.912   2.873
 4303SOL    HW113808   6.222   4.827   2.883
 4303SOL    HW213809   6.361   4.894   2.829
 4304SOL     OW13810   3.498   3.701   1.510
 4304SOL    HW113811   3.482   3.800   1.508
 4304SOL    HW213812   3.411   3.653   1.520
 4305SOL     OW13813   1.715   0.068   5.364
 4305SOL    HW113814   1.716   0.107   5.272
 4305SOL    HW213815   1.782   0.115   5.422
 4306SOL     OW13816   5.966   3.143   5.195
 4306SOL    HW113817   5.919   3.060   5.224
 4306SOL    HW213818   6.009   3.187   5.273
 4307SOL     OW13819   0.346   1.557   5.509
 4307SOL    HW113820   0.289   1.478   5.490
 4307SOL    HW213821   0.301   1.615   5.577
 4308SOL     OW13822   4.485   5.741   6.920
 4308SOL    HW113823   4.440   5.830   6.919
 4308SOL    HW213824   4.424   5.672   6.879
 4309SOL     OW13825   0.930   2.820   0.679
 4309SOL    HW113826   0.888   2.860   0.760
 4309SOL    HW213827   1.017   2.866   0.661
 4310SOL     OW13828   6.580   1.797   3.183
 4310SOL    HW113829   6.559   1.867   3.251
 4310SOL    HW213830   6.678   1.792   3.168
 4311SOL     OW13831   0.711   0.487   2.478
 4311SOL    HW113832   0.638   0.536   2.525
 4311SOL    HW213833   0.733   0.535   2.392
 4312SOL     OW13834   0.561   4.882   2.735
 4312SOL    HW113835   0.526   4.812   2.673
 4312SOL    HW213836   0.604   4.955   2.682
 4313SOL     OW13837   6.423   2.313   0.048
 4313SOL    HW113838   6.443   2.329   0.144
 4313SOL    HW213839   6.508   2.301   7.021
 4314SOL     OW13840   6.647   1.996   5.532
 4314SOL    HW113841   6.694   1.967   5.448
 4314SOL    HW213842   6.645   2.096   5.537
 4315SOL     OW13843   2.896   1.520   4.161
 4315SOL    HW113844   2.979   1.546   4.112
 4315SOL    HW213845   2.921   1.470   4.245
 4316SOL     OW13846   5.246   6.958   1.514
 4316SOL    HW113847   5.335   6.982   1.475
 4316SOL    HW213848   5.237   6.858   1.519
 4317SOL     OW13849   4.556   0.835   5.798
 4317SOL    HW113850   4.456   0.828   5.796
 4317SOL    HW213851   4.583   0.915   5.850
 4318SOL     OW13852   0.405   0.675   4.264
 4318SOL    HW113853   0.435   0.712   4.176
 4318SOL    HW213854   0.339   0.736   4.306
 4319SOL     OW13855   1.620   4.851   2.563
 4319SOL    HW113856   1.531   4.853   2.519
 4319SOL    HW213857   1.683   4.912   2.514
 4320SOL     OW13858   3.443   6.421   1.071
 4320SOL    HW113859   3.480   6.514   1.062
 4320SOL    HW213860   3.493   6.373   1.143
 4321SOL     OW13861   6.435   6.683   2.580
 4321SOL    HW113862   6.432   6.657   2.677
 4321SOL    HW213863   6.475   6.774   2.571
 4322SOL     OW13864   0.885   3.202   5.269
 4322SOL    HW113865   0.925   3.117   5.302
 4322SOL    HW213866   0.957   3.262   5.235
 4323SOL     OW13867   4.007   5.137   6.538
 4323SOL    HW113868   3.921   5.189   6.541
 4323SOL    HW213869   4.029   5.115   6.443
 4324SOL     OW13870   6.715   4.052   5.856
 4324SOL    HW113871   6.723   4.148   5.828
 4324SOL    HW213872   6.749   4.042   5.950
 4325SOL     OW13873   2.444   0.697   2.171
 4325SOL    HW113874   2.529   0.725   2.217
 4325SOL    HW213875   2.443   0.733   2.078
 4326SOL     OW13876   4.802   2.761   2.409
 4326SOL    HW113877   4.734   2.750   2.481
 4326SOL    HW213878   4.770   2.713   2.327
 4327SOL     OW13879   2.950   5.767   4.045
 4327SOL    HW113880   2.944   5.739   3.949
 4327SOL    HW213881   3.038   5.740   4.082
 4328SOL     OW13882   5.884   6.721   4.397
 4328SOL    HW113883   5.984   6.720   4.398
 4328SOL    HW213884   5.851   6.700   4.489
 4329SOL     OW13885   0.091   1.971   6.079
 4329SOL    HW113886   0.035   1.940   6.156
 4329SOL    HW213887   0.137   2.056   6.105
 4330SOL     OW13888   3.011   4.855   5.002
 4330SOL    HW113889   3.065   4.876   5.083
 4330SOL    HW213890   2.964   4.768   5.015
 4331SOL     OW13891   5.901   1.057   2.116
 4331SOL    HW113892   5.919   1.155   2.129
 4331SOL    HW213893   5.813   1.046   2.070
 4332SOL     OW13894   0.451   5.252   2.405
 4332SOL    HW113895   0.452   5.337   2.352
 4332SOL    HW213896   0.361   5.209   2.396
 4333SOL     OW13897   3.583   2.242   5.554
 4333SOL    HW113898   3.571   2.169   5.621
 4333SOL    HW213899   3.568   2.331   5.597
 4334SOL     OW13900   0.230   2.366   4.259
 4334SOL    HW113901   0.165   2.292   4.247
 4334SOL    HW213902   0.318   2.342   4.216
 4335SOL     OW13903   2.646   4.143   1.619
 4335SOL    HW113904   2.589   4.150   1.538
 4335SOL    HW213905   2.692   4.054   1.620
 4336SOL     OW13906   2.655   4.845   5.631
 4336SOL    HW113907   2.601   4.801   5.559
 4336SOL    HW213908   2.705   4.922   5.592
 4337SOL     OW13909   1.464   5.200   3.934
 4337SOL    HW113910   1.529   5.130   3.905
 4337SOL    HW213911   1.497   5.290   3.904
 4338SOL     OW13912   3.777   1.033   5.881
 4338SOL    HW113913   3.685   1.042   5.920
 4338SOL    HW213914   3.771   0.993   5.790
 4339SOL     OW13915   3.497   3.465   5.921
 4339SOL    HW113916   3.574   3.419   5.876
 4339SOL    HW213917   3.517   3.475   6.018
 4340SOL     OW13918   6.644   3.656   1.195
 4340SOL    HW113919   6.614   3.751   1.188
 4340SOL    HW213920   6.567   3.595   1.179
 4341SOL     OW13921   0.557   0.002   2.774
 4341SOL    HW113922   0.587   0.012   2.869
 4341SOL    HW213923   0.492   6.950   2.767
 4342SOL     OW13924   5.446   3.874   2.171
 4342SOL    HW113925   5.391   3.945   2.216
 4342SOL    HW213926   5.386   3.803   2.135
 4343SOL     OW13927   4.501   0.406   5.679
 4343SOL    HW113928   4.573   0.475   5.689
 4343SOL    HW213929   4.413   0.444   5.706
 4344SOL     OW13930   0.496   3.328   3.934
 4344SOL    HW113931   0.408   3.374   3.919
 4344SOL    HW213932   0.547   3.325   3.848
 4345SOL     OW13933   3.109   3.298   2.324
 4345SOL    HW113934   3.183   3.245   2.365
 4345SOL    HW213935   3.147   3.367   2.262
 4346SOL     OW13936   1.106   3.003   2.243
 4346SOL    HW113937   1.145   2.999   2.335
 4346SOL    HW213938   1.152   2.937   2.184
 4347SOL     OW13939   5.962   5.358   0.705
 4347SOL    HW113940   5.882   5.310   0.669
 4347SOL    HW213941   6.003   5.304   0.778
 4348SOL     OW13942   6.104   5.630   4.441
 4348SOL    HW113943   6.060   5.540   4.433
 4348SOL    HW213944   6.174   5.627   4.512
 4349SOL     OW13945   0.199   3.642   4.382
 4349SOL    HW113946   0.280   3.696   4.402
 4349SOL    HW213947   0.204   3.609   4.287
 4350SOL     OW13948   4.392   1.517   4.521
 4350SOL    HW113949   4.465   1.455   4.547
 4350SOL    HW213950   4.304   1.480   4.550
 4351SOL     OW13951   0.856   6.619   0.459
 4351SOL    HW113952   0.787   6.668   0.512
 4351SOL    HW213953   0.904   6.683   0.400
 4352SOL     OW13954   3.843   3.973   0.800
 4352SOL    HW113955   3.841   3.936   0.893
 4352SOL    HW213956   3.848   3.898   0.734
 4353SOL     OW13957   2.995   3.400   1.209
 4353SOL    HW113958   3.087   3.393   1.248
 4353SOL    HW213959   2.944   3.316   1.227
 4354SOL     OW13960   5.258   6.737   3.914
 4354SOL    HW113961   5.231   6.829   3.941
 4354SOL    HW213962   5.340   6.741   3.857
 4355SOL     OW13963   1.429   6.083   2.962
 4355SOL    HW113964   1.472   5.995   2.983
 4355SOL    HW213965   1.489   6.137   2.903
 4356SOL     OW13966   5.453   2.317   5.792
 4356SOL    HW113967   5.438   2.363   5.879
 4356SOL    HW213968   5.541   2.269   5.794
 4357SOL     OW13969   5.898   0.632   2.453
 4357SOL    HW113970   5.905   0.711   2.393
 4357SOL    HW213971   5.808   0.590   2.443
 4358SOL     OW13972   2.065   6.839   6.791
 4358SOL    HW113973   2.060   6.936   6.768
 4358SOL    HW213974   2.159   6.807   6.784
 4359SOL     OW13975   2.783   2.123   0.016
 4359SOL    HW113976   2.776   2.209   6.989
 4359SOL    HW213977   2.726   2.129   0.098
 4360SOL     OW13978   1.348   3.540   3.786
 4360SOL    HW113979   1.261   3.563   3.829
 4360SOL    HW213980   1.417   3.524   3.857
 4361SOL     OW13981   6.517   1.839   0.773
 4361SOL    HW113982   6.572   1.916   0.740
 4361SOL    HW213983   6.499   1.776   0.698
 4362SOL     OW13984   1.123   5.756   3.573
 4362SOL    HW113985   1.130   5.843   3.523
 4362SOL    HW213986   1.059   5.696   3.525
 4363SOL     OW13987   4.567   1.641   2.454
 4363SOL    HW113988   4.604   1.563   2.505
 4363SOL    HW213989   4.600   1.726   2.494
 4364SOL     OW13990   3.830   3.749   2.772
 4364SOL    HW113991   3.877   3.662   2.755
 4364SOL    HW213992   3.870   3.792   2.854
 4365SOL     OW13993   2.780   1.932   1.369
 4365SOL    HW113994   2.769   1.932   1.468
 4365SOL    HW213995   2.855   1.870   1.344
 4366SOL     OW13996   4.326   5.936   4.796
 4366SOL    HW113997   4.350   5.841   4.816
 4366SOL    HW213998   4.410   5.990   4.785
 4367SOL     OW13999   2.509   5.548   3.387
 4367SOL    HW114000   2.560   5.482   3.332
 4367SOL    HW214001   2.521   5.528   3.484
 4368SOL     OW14002   4.798   4.043   3.174
 4368SOL    HW114003   4.845   4.005   3.095
 4368SOL    HW214004   4.705   4.069   3.148
 4369SOL     OW14005   4.222   4.832   3.168
 4369SOL    HW114006   4.129   4.833   3.206
 4369SOL    HW214007   4.232   4.756   3.104
 4370SOL     OW14008   3.757   4.323   1.536
 4370SOL    HW114009   3.681   4.287   1.483
 4370SOL    HW214010   3.726   4.344   1.629
 4371SOL     OW14011   3.042   1.659   0.931
 4371SOL    HW114012   3.091   1.701   0.855
 4371SOL    HW214013   2.966   1.604   0.895
 4372SOL     OW14014   1.977   3.212   4.385
 4372SOL    HW114015   2.001   3.265   4.304
 4372SOL    HW214016   2.027   3.246   4.464
 4373SOL     OW14017   4.206   1.602   5.671
 4373SOL    HW114018   4.255   1.685   5.698
 4373SOL    HW214019   4.270   1.526   5.666
 4374SOL     OW14020   2.335   1.306   1.349
 4374SOL    HW114021   2.287   1.394   1.354
 4374SOL    HW214022   2.322   1.256   1.435
 4375SOL     OW14023   4.824   1.088   3.469
 4375SOL    HW114024   4.919   1.088   3.502
 4375SOL    HW214025   4.820   1.135   3.381
 4376SOL     OW14026   1.121   6.472   0.738
 4376SOL    HW114027   1.147   6.438   0.829
 4376SOL    HW214028   1.032   6.518   0.744
 4377SOL     OW14029   6.228   6.970   6.640
 4377SOL    HW114030   6.251   6.955   6.736
 4377SOL    HW214031   6.184   6.888   6.603
 4378SOL     OW14032   1.864   5.627   2.652
 4378SOL    HW114033   1.774   5.670   2.650
 4378SOL    HW214034   1.927   5.683   2.705
 4379SOL     OW14035   1.271   0.722   2.108
 4379SOL    HW114036   1.282   0.685   2.201
 4379SOL    HW214037   1.359   0.752   2.073
 4380SOL     OW14038   1.646   5.566   5.287
 4380SOL    HW114039   1.710   5.550   5.363
 4380SOL    HW214040   1.580   5.491   5.283
 4381SOL     OW14041   4.136   6.102   4.896
 4381SOL    HW114042   4.194   6.032   4.856
 4381SOL    HW214043   4.041   6.088   4.867
 4382SOL     OW14044   4.918   3.944   3.410
 4382SOL    HW114045   5.007   3.968   3.370
 4382SOL    HW214046   4.846   3.963   3.344
 4383SOL     OW14047   0.807   3.135   6.567
 4383SOL    HW114048   0.841   3.092   6.650
 4383SOL    HW214049   0.884   3.173   6.515
 4384SOL     OW14050   4.294   5.821   0.910
 4384SOL    HW114051   4.238   5.787   0.985
 4384SOL    HW214052   4.309   5.920   0.921
 4385SOL     OW14053   0.341   1.630   2.602
 4385SOL    HW114054   0.320   1.720   2.563
 4385SOL    HW214055   0.429   1.634   2.650
 4386SOL     OW14056   1.179   3.200   6.793
 4386SOL    HW114057   1.232   3.237   6.716
 4386SOL    HW214058   1.103   3.145   6.757
 4387SOL     OW14059   0.081   3.424   1.727
 4387SOL    HW114060   0.151   3.365   1.766
 4387SOL    HW214061   0.112   3.459   1.638
 4388SOL     OW14062   3.526   1.055   5.616
 4388SOL    HW114063   3.541   1.135   5.558
 4388SOL    HW214064   3.612   1.005   5.626
 4389SOL     OW14065   5.119   2.434   2.870
 4389SOL    HW114066   5.085   2.465   2.959
 4389SOL    HW214067   5.050   2.450   2.800
 4390SOL     OW14068   4.698   2.711   2.145
 4390SOL    HW114069   4.619   2.663   2.107
 4390SOL    HW214070   4.694   2.807   2.118
 4391SOL     OW14071   1.164   5.680   0.803
 4391SOL    HW114072   1.120   5.603   0.758
 4391SOL    HW214073   1.259   5.657   0.825
 4392SOL     OW14074   4.927   3.286   4.421
 4392SOL    HW114075   5.023   3.304   4.442
 4392SOL    HW214076   4.903   3.194   4.450
 4393SOL     OW14077   4.820   6.456   3.183
 4393SOL    HW114078   4.765   6.498   3.255
 4393SOL    HW214079   4.864   6.528   3.129
 4394SOL     OW14080   5.212   0.070   2.221
 4394SOL    HW114081   5.195   0.025   2.133
 4394SOL    HW214082   5.126   0.075   2.273
 4395SOL     OW14083   5.150   1.739   2.228
 4395SOL    HW114084   5.154   1.743   2.328
 4395SOL    HW214085   5.205   1.812   2.190
 4396SOL     OW14086   1.216   0.536   4.063
 4396SOL    HW114087   1.257   0.507   3.977
 4396SOL    HW214088   1.202   0.456   4.122
 4397SOL     OW14089   6.569   0.575   5.432
 4397SOL    HW114090   6.531   0.519   5.505
 4397SOL    HW214091   6.500   0.639   5.399
 4398SOL     OW14092   0.100   4.514   4.392
 4398SOL    HW114093   0.152   4.430   4.377
 4398SOL    HW214094   0.159   4.583   4.433
 4399SOL     OW14095   2.532   1.528   1.226
 4399SOL    HW114096   2.626   1.546   1.256
 4399SOL    HW214097   2.471   1.529   1.305
 4400SOL     OW14098   3.595   6.636   4.765
 4400SOL    HW114099   3.689   6.646   4.730
 4400SOL    HW214100   3.580   6.703   4.837
 4401SOL     OW14101   5.666   6.105   4.087
 4401SOL    HW114102   5.621   6.080   4.173
 4401SOL    HW214103   5.714   6.192   4.099
 4402SOL     OW14104   0.398   6.817   2.754
 4402SOL    HW114105   0.331   6.836   2.826
 4402SOL    HW214106   0.353   6.771   2.678
 4403SOL     OW14107   0.668   0.212   3.433
 4403SOL    HW114108   0.758   0.247   3.410
 4403SOL    HW214109   0.640   0.244   3.523
 4404SOL     OW14110   1.179   3.777   3.341
 4404SOL    HW114111   1.265   3.739   3.377
 4404SOL    HW214112   1.175   3.875   3.361
 4405SOL     OW14113   3.088   4.370   5.761
 4405SOL    HW114114   3.137   4.456   5.777
 4405SOL    HW214115   3.146   4.307   5.711
 4406SOL     OW14116   5.320   4.067   1.234
 4406SOL    HW114117   5.375   3.995   1.192
 4406SOL    HW214118   5.381   4.133   1.278
 4407SOL     OW14119   5.909   6.960   0.054
 4407SOL    HW114120   5.979   7.023   0.022
 4407SOL    HW214121   5.924   6.870   0.013
 4408SOL     OW14122   4.300   5.904   6.694
 4408SOL    HW114123   4.351   5.970   6.750
 4408SOL    HW214124   4.361   5.867   6.624
 4409SOL     OW14125   3.348   1.265   1.560
 4409SOL    HW114126   3.421   1.308   1.614
 4409SOL    HW214127   3.389   1.201   1.495
 4410SOL     OW14128   2.730   5.479   2.115
 4410SOL    HW114129   2.723   5.577   2.095
 4410SOL    HW214130   2.641   5.435   2.098
 4411SOL     OW14131   4.170   3.346   2.709
 4411SOL    HW114132   4.158   3.255   2.669
 4411SOL    HW214133   4.266   3.374   2.702
 4412SOL     OW14134   3.693   1.818   6.403
 4412SOL    HW114135   3.646   1.778   6.482
 4412SOL    HW214136   3.757   1.889   6.434
 4413SOL     OW14137   4.333   6.237   4.507
 4413SOL    HW114138   4.254   6.187   4.542
 4413SOL    HW214139   4.401   6.173   4.473
 4414SOL     OW14140   3.945   4.852   1.879
 4414SOL    HW114141   3.963   4.905   1.961
 4414SOL    HW214142   3.893   4.770   1.903
 4415SOL     OW14143   5.408   2.681   0.134
 4415SOL    HW114144   5.418   2.725   0.224
 4415SOL    HW214145   5.312   2.673   0.111
 4416SOL     OW14146   3.924   0.619   3.528
 4416SOL    HW114147   4.012   0.597   3.570
 4416SOL    HW214148   3.933   0.704   3.476
 4417SOL     OW14149   0.026   6.659   2.325
 4417SOL    HW114150   0.109   6.703   2.359
 4417SOL    HW214151   0.016   6.679   2.227
 4418SOL     OW14152   4.280   6.833   3.263
 4418SOL    HW114153   4.295   6.914   3.206
 4418SOL    HW214154   4.185   6.804   3.255
 4419SOL     OW14155   0.214   4.789   6.699
 4419SOL    HW114156   0.128   4.837   6.714
 4419SOL    HW214157   0.232   4.728   6.777
 4420SOL     OW14158   5.228   1.905   6.439
 4420SOL    HW114159   5.162   1.835   6.410
 4420SOL    HW214160   5.186   1.996   6.431
 4421SOL     OW14161   1.671   1.749   3.981
 4421SOL    HW114162   1.612   1.803   4.041
 4421SOL    HW214163   1.657   1.652   4.001
 4422SOL     OW14164   2.242   3.840   5.993
 4422SOL    HW114165   2.339   3.855   6.012
 4422SOL    HW214166   2.222   3.868   5.899
 4423SOL     OW14167   1.368   1.961   6.521
 4423SOL    HW114168   1.458   1.919   6.507
 4423SOL    HW214169   1.330   1.931   6.608
 4424SOL     OW14170   6.617   0.298   2.868
 4424SOL    HW114171   6.526   0.302   2.910
 4424SOL    HW214172   6.612   0.333   2.774
 4425SOL     OW14173   4.692   4.768   6.331
 4425SOL    HW114174   4.689   4.855   6.380
 4425SOL    HW214175   4.757   4.775   6.255
 4426SOL     OW14176   0.644   0.146   6.240
 4426SOL    HW114177   0.742   0.161   6.254
 4426SOL    HW214178   0.618   0.174   6.148
 4427SOL     OW14179   0.915   0.297   3.520
 4427SOL    HW114180   0.912   0.334   3.613
 4427SOL    HW214181   1.010   0.292   3.489
 4428SOL     OW14182   2.558   5.391   3.049
 4428SOL    HW114183   2.550   5.468   3.112
 4428SOL    HW214184   2.631   5.330   3.080
 4429SOL     OW14185   4.120   6.928   2.890
 4429SOL    HW114186   4.173   6.951   2.972
 4429SOL    HW214187   4.032   6.977   2.894
 4430SOL     OW14188   2.062   0.974   2.163
 4430SOL    HW114189   2.145   1.023   2.190
 4430SOL    HW214190   2.055   0.888   2.214
 4431SOL     OW14191   2.212   2.190   2.964
 4431SOL    HW114192   2.125   2.213   3.008
 4431SOL    HW214193   2.286   2.197   3.031
 4432SOL     OW14194   3.058   3.921   2.997
 4432SOL    HW114195   3.137   3.871   3.032
 4432SOL    HW214196   3.082   4.018   2.989
 4433SOL     OW14197   6.482   6.962   2.647
 4433SOL    HW114198   6.574   6.989   2.675
 4433SOL    HW214199   6.419   6.974   2.723
 4434SOL     OW14200   6.123   2.264   4.508
 4434SOL    HW114201   6.162   2.172   4.499
 4434SOL    HW214202   6.192   2.331   4.482
 4435SOL     OW14203   3.179   3.011   1.474
 4435SOL    HW114204   3.121   3.003   1.392
 4435SOL    HW214205   3.250   2.941   1.471
 4436SOL     OW14206   4.926   1.918   6.475
 4436SOL    HW114207   4.919   1.863   6.558
 4436SOL    HW214208   4.931   2.015   6.499
 4437SOL     OW14209   3.745   0.916   4.818
 4437SOL    HW114210   3.840   0.906   4.847
 4437SOL    HW214211   3.721   1.013   4.814
 4438SOL     OW14212   4.371   2.663   6.573
 4438SOL    HW114213   4.359   2.564   6.572
 4438SOL    HW214214   4.367   2.696   6.668
 4439SOL     OW14215   2.100   6.013   2.273
 4439SOL    HW114216   2.124   5.938   2.334
 4439SOL    HW214217   2.062   6.089   2.326
 4440SOL     OW14218   1.079   6.751   6.446
 4440SOL    HW114219   0.981   6.757   6.430
 4440SOL    HW214220   1.097   6.687   6.520
 4441SOL     OW14221   5.753   2.689   3.142
 4441SOL    HW114222   5.810   2.658   3.065
 4441SOL    HW214223   5.735   2.787   3.132
 4442SOL     OW14224   2.926   6.656   3.052
 4442SOL    HW114225   2.833   6.674   3.084
 4442SOL    HW214226   2.929   6.663   2.952
 4443SOL     OW14227   2.797   1.790   5.373
 4443SOL    HW114228   2.832   1.873   5.330
 4443SOL    HW214229   2.765   1.727   5.302
 4444SOL     OW14230   5.541   0.854   1.368
 4444SOL    HW114231   5.457   0.860   1.423
 4444SOL    HW214232   5.616   0.899   1.416
 4445SOL     OW14233   1.242   0.976   6.448
 4445SOL    HW114234   1.253   0.951   6.352
 4445SOL    HW214235   1.308   0.925   6.504
 4446SOL     OW14236   6.311   0.293   2.864
 4446SOL    HW114237   6.375   0.309   2.788
 4446SOL    HW214238   6.264   0.206   2.850
 4447SOL     OW14239   5.534   2.591   5.688
 4447SOL    HW114240   5.542   2.550   5.779
 4447SOL    HW214241   5.625   2.617   5.655
 4448SOL     OW14242   2.589   3.687   6.629
 4448SOL    HW114243   2.490   3.696   6.642
 4448SOL    HW214244   2.637   3.738   6.700
 4449SOL     OW14245   1.140   1.205   5.167
 4449SOL    HW114246   1.062   1.188   5.227
 4449SOL    HW214247   1.225   1.195   5.219
 4450SOL     OW14248   3.842   3.586   3.238
 4450SOL    HW114249   3.930   3.573   3.193
 4450SOL    HW214250   3.856   3.609   3.334
 4451SOL     OW14251   6.466   4.279   2.245
 4451SOL    HW114252   6.375   4.274   2.204
 4451SOL    HW214253   6.477   4.368   2.290
 4452SOL     OW14254   6.398   6.314   6.607
 4452SOL    HW114255   6.386   6.336   6.704
 4452SOL    HW214256   6.339   6.374   6.552
 4453SOL     OW14257   5.508   2.448   1.116
 4453SOL    HW114258   5.542   2.440   1.023
 4453SOL    HW214259   5.473   2.540   1.131
 4454SOL     OW14260   5.306   3.224   1.634
 4454SOL    HW114261   5.212   3.196   1.614
 4454SOL    HW214262   5.340   3.282   1.560
 4455SOL     OW14263   3.798   1.371   1.973
 4455SOL    HW114264   3.839   1.282   1.954
 4455SOL    HW214265   3.844   1.441   1.919
 4456SOL     OW14266   1.153   5.229   3.096
 4456SOL    HW114267   1.123   5.200   3.006
 4456SOL    HW214268   1.107   5.174   3.166
 4457SOL     OW14269   5.319   2.365   6.392
 4457SOL    HW114270   5.329   2.339   6.488
 4457SOL    HW214271   5.396   2.330   6.339
 4458SOL     OW14272   3.865   2.333   5.754
 4458SOL    HW114273   3.791   2.384   5.798
 4458SOL    HW214274   3.949   2.388   5.756
 4459SOL     OW14275   4.866   6.440   4.736
 4459SOL    HW114276   4.807   6.490   4.800
 4459SOL    HW214277   4.926   6.379   4.788
 4460SOL     OW14278   2.392   1.969   6.251
 4460SOL    HW114279   2.337   2.048   6.278
 4460SOL    HW214280   2.482   2.000   6.220
 4461SOL     OW14281   2.437   0.290   2.110
 4461SOL    HW114282   2.365   0.303   2.178
 4461SOL    HW214283   2.436   0.367   2.046
 4462SOL     OW14284   0.196   5.441   1.746
 4462SOL    HW114285   0.276   5.382   1.746
 4462SOL    HW214286   0.169   5.462   1.840
 4463SOL     OW14287   1.209   3.743   6.125
 4463SOL    HW114288   1.235   3.655   6.086
 4463SOL    HW214289   1.251   3.753   6.216
 4464SOL     OW14290   5.639   3.307   6.612
 4464SOL    HW114291   5.641   3.379   6.543
 4464SOL    HW214292   5.544   3.291   6.640
 4465SOL     OW14293   1.226   6.833   2.531
 4465SOL    HW114294   1.265   6.865   2.445
 4465SOL    HW214295   1.183   6.744   2.517
 4466SOL     OW14296   0.629   2.002   3.644
 4466SOL    HW114297   0.559   1.981   3.576
 4466SOL    HW214298   0.656   2.099   3.636
 4467SOL     OW14299   1.055   6.724   3.354
 4467SOL    HW114300   1.053   6.748   3.451
 4467SOL    HW214301   1.081   6.804   3.300
 4468SOL     OW14302   1.082   2.583   0.573
 4468SOL    HW114303   1.061   2.546   0.483
 4468SOL    HW214304   1.004   2.636   0.606
 4469SOL     OW14305   3.895   0.574   0.467
 4469SOL    HW114306   3.823   0.545   0.530
 4469SOL    HW214307   3.919   0.498   0.407
 4470SOL     OW14308   5.018   4.279   0.942
 4470SOL    HW114309   4.997   4.301   0.847
 4470SOL    HW214310   5.008   4.361   0.999
 4471SOL     OW14311   6.077   3.229   1.230
 4471SOL    HW114312   6.116   3.162   1.293
 4471SOL    HW214313   6.123   3.220   1.141
 4472SOL     OW14314   1.310   4.257   2.496
 4472SOL    HW114315   1.254   4.294   2.570
 4472SOL    HW214316   1.276   4.167   2.470
 4473SOL     OW14317   0.001   6.670   4.394
 4473SOL    HW114318   0.036   6.721   4.472
 4473SOL    HW214319   0.075   6.658   4.327
 4474SOL     OW14320   4.630   0.404   2.698
 4474SOL    HW114321   4.702   0.426   2.764
 4474SOL    HW214322   4.573   0.329   2.734
 4475SOL     OW14323   1.929   3.893   0.397
 4475SOL    HW114324   1.986   3.928   0.470
 4475SOL    HW214325   1.866   3.964   0.366
 4476SOL     OW14326   5.043   6.030   1.834
 4476SOL    HW114327   5.018   6.031   1.931
 4476SOL    HW214328   5.077   6.121   1.808
 4477SOL     OW14329   1.386   1.307   0.768
 4477SOL    HW114330   1.476   1.350   0.765
 4477SOL    HW214331   1.321   1.361   0.715
 4478SOL     OW14332   2.165   6.229   1.721
 4478SOL    HW114333   2.218   6.161   1.670
 4478SOL    HW214334   2.204   6.320   1.706
 4479SOL     OW14335   0.970   0.123   5.865
 4479SOL    HW114336   1.016   0.211   5.859
 4479SOL    HW214337   1.036   0.049   5.850
 4480SOL     OW14338   0.623   5.082   3.754
 4480SOL    HW114339   0.541   5.028   3.770
 4480SOL    HW214340   0.695   5.054   3.817
 4481SOL     OW14341   1.060   6.360   4.519
 4481SOL    HW114342   0.999   6.318   4.452
 4481SOL    HW214343   1.142   6.394   4.473
 4482SOL     OW14344   0.039   4.461   3.907
 4482SOL    HW114345   6.967   4.451   3.934
 4482SOL    HW214346   0.090   4.380   3.936
 4483SOL     OW14347   5.664   2.894   2.164
 4483SOL    HW114348   5.688   2.907   2.260
 4483SOL    HW214349   5.594   2.960   2.139
 4484SOL     OW14350   4.513   2.927   5.720
 4484SOL    HW114351   4.553   2.896   5.634
 4484SOL    HW214352   4.559   2.881   5.796
 4485SOL     OW14353   5.309   1.864   6.724
 4485SOL    HW114354   5.305   1.865   6.624
 4485SOL    HW214355   5.316   1.769   6.755
 4486SOL     OW14356   6.173   3.083   4.305
 4486SOL    HW114357   6.137   3.171   4.336
 4486SOL    HW214358   6.115   3.009   4.339
 4487SOL     OW14359   2.933   2.874   6.376
 4487SOL    HW114360   2.874   2.917   6.444
 4487SOL    HW214361   3.014   2.837   6.421
 4488SOL     OW14362   0.085   1.118   4.378
 4488SOL    HW114363   0.088   1.101   4.279
 4488SOL    HW214364   0.175   1.100   4.418
 4489SOL     OW14365   6.262   6.859   4.635
 4489SOL    HW114366   6.311   6.773   4.651
 4489SOL    HW214367   6.206   6.850   4.553
 4490SOL     OW14368   6.480   1.765   2.910
 4490SOL    HW114369   6.506   1.823   2.987
 4490SOL    HW214370   6.442   1.821   2.837
 4491SOL     OW14371   0.981   3.252   2.876
 4491SOL    HW114372   0.971   3.173   2.815
 4491SOL    HW214373   0.898   3.263   2.931
 4492SOL     OW14374   4.718   3.402   6.773
 4492SOL    HW114375   4.782   3.354   6.713
 4492SOL    HW214376   4.701   3.347   6.854
 4493SOL     OW14377   5.595   5.068   4.653
 4493SOL    HW114378   5.594   5.150   4.597
 4493SOL    HW214379   5.690   5.042   4.672
 4494SOL     OW14380   5.946   4.060   4.854
 4494SOL    HW114381   5.966   3.990   4.923
 4494SOL    HW214382   5.861   4.036   4.807
 4495SOL     OW14383   5.062   6.217   1.301
 4495SOL    HW114384   4.971   6.202   1.261
 4495SOL    HW214385   5.061   6.186   1.396
 4496SOL     OW14386   4.968   4.064   5.239
 4496SOL    HW114387   5.055   4.083   5.194
 4496SOL    HW214388   4.944   3.968   5.227
 4497SOL     OW14389   6.404   4.649   0.517
 4497SOL    HW114390   6.483   4.695   0.476
 4497SOL    HW214391   6.325   4.660   0.457
 4498SOL     OW14392   6.737   3.474   0.087
 4498SOL    HW114393   6.714   3.382   0.118
 4498SOL    HW214394   6.657   3.533   0.094
 4499SOL     OW14395   6.843   2.546   5.932
 4499SOL    HW114396   6.897   2.619   5.974
 4499SOL    HW214397   6.893   2.459   5.940
 4500SOL     OW14398   3.181   4.024   4.788
 4500SOL    HW114399   3.152   4.051   4.696
 4500SOL    HW214400   3.109   3.968   4.830
 4501SOL     OW14401   0.126   4.492   5.460
 4501SOL    HW114402   0.221   4.462   5.451
 4501SOL    HW214403   0.079   4.482   5.373
 4502SOL     OW14404   0.413   2.548   0.282
 4502SOL    HW114405   0.500   2.533   0.328
 4502SOL    HW214406   0.429   2.565   0.185
 4503SOL     OW14407   1.235   1.782   4.133
 4503SOL    HW114408   1.144   1.772   4.173
 4503SOL    HW214409   1.232   1.849   4.059
 4504SOL     OW14410   5.204   2.047   4.247
 4504SOL    HW114411   5.157   2.114   4.190
 4504SOL    HW214412   5.141   2.010   4.315
 4505SOL     OW14413   1.913   6.535   5.994
 4505SOL    HW114414   1.948   6.598   5.925
 4505SOL    HW214415   1.865   6.460   5.950
 4506SOL     OW14416   4.471   0.375   5.119
 4506SOL    HW114417   4.431   0.330   5.039
 4506SOL    HW214418   4.512   0.462   5.091
 4507SOL     OW14419   6.100   4.633   0.460
 4507SOL    HW114420   6.116   4.575   0.540
 4507SOL    HW214421   6.009   4.617   0.424
 4508SOL     OW14422   0.851   3.915   0.182
 4508SOL    HW114423   0.872   3.828   0.226
 4508SOL    HW214424   0.871   3.909   0.084
 4509SOL     OW14425   2.561   1.866   3.881
 4509SOL    HW114426   2.651   1.899   3.852
 4509SOL    HW214427   2.515   1.937   3.933
 4510SOL     OW14428   4.278   6.437   4.996
 4510SOL    HW114429   4.254   6.532   5.014
 4510SOL    HW214430   4.299   6.425   4.899
 4511SOL     OW14431   6.186   2.524   0.690
 4511SOL    HW114432   6.215   2.503   0.783
 4511SOL    HW214433   6.264   2.557   0.637
 4512SOL     OW14434   3.218   5.630   6.885
 4512SOL    HW114435   3.142   5.650   6.946
 4512SOL    HW214436   3.304   5.657   6.928
 4513SOL     OW14437   5.040   1.023   1.593
 4513SOL    HW114438   5.109   1.052   1.527
 4513SOL    HW214439   5.075   1.034   1.686
 4514SOL     OW14440   2.976   1.565   5.195
 4514SOL    HW114441   3.016   1.518   5.274
 4514SOL    HW214442   3.018   1.655   5.186
 4515SOL     OW14443   0.637   5.132   1.304
 4515SOL    HW114444   0.599   5.040   1.290
 4515SOL    HW214445   0.639   5.181   1.217
 4516SOL     OW14446   0.718   0.670   5.103
 4516SOL    HW114447   0.649   0.652   5.033
 4516SOL    HW214448   0.761   0.584   5.131
 4517SOL     OW14449   3.386   6.937   5.178
 4517SOL    HW114450   3.346   0.002   5.156
 4517SOL    HW214451   3.355   6.908   5.269
 4518SOL     OW14452   1.380   2.211   4.549
 4518SOL    HW114453   1.407   2.289   4.492
 4518SOL    HW214454   1.308   2.240   4.612
 4519SOL     OW14455   0.028   3.079   3.718
 4519SOL    HW114456   0.047   3.008   3.785
 4519SOL    HW214457   6.953   3.095   3.714
 4520SOL     OW14458   6.863   3.967   3.491
 4520SOL    HW114459   6.959   3.960   3.518
 4520SOL    HW214460   6.834   4.063   3.492
 4521SOL     OW14461   5.389   2.431   0.049
 4521SOL    HW114462   5.426   2.518   0.083
 4521SOL    HW214463   5.458   2.385   7.017
 4522SOL     OW14464   5.976   0.386   4.244
 4522SOL    HW114465   5.993   0.483   4.262
 4522SOL    HW214466   5.888   0.376   4.196
 4523SOL     OW14467   3.378   4.174   0.249
 4523SOL    HW114468   3.301   4.214   0.201
 4523SOL    HW214469   3.453   4.240   0.253
 4524SOL     OW14470   5.583   0.107   4.698
 4524SOL    HW114471   5.617   0.197   4.671
 4524SOL    HW214472   5.545   0.060   4.618
 4525SOL     OW14473   6.369   1.647   5.363
 4525SOL    HW114474   6.454   1.657   5.415
 4525SOL    HW214475   6.387   1.668   5.267
 4526SOL     OW14476   4.939   6.813   0.808
 4526SOL    HW114477   4.847   6.853   0.805
 4526SOL    HW214478   4.968   6.803   0.904
 4527SOL     OW14479   4.918   0.859   2.664
 4527SOL    HW114480   4.899   0.948   2.623
 4527SOL    HW214481   4.994   0.868   2.729
 4528SOL     OW14482   5.765   0.139   0.525
 4528SOL    HW114483   5.719   0.179   0.604
 4528SOL    HW214484   5.729   0.182   0.441
 4529SOL     OW14485   3.905   6.570   3.077
 4529SOL    HW114486   3.919   6.471   3.071
 4529SOL    HW214487   3.808   6.591   3.066
 4530SOL     OW14488   0.622   3.521   5.602
 4530SOL    HW114489   0.684   3.536   5.678
 4530SOL    HW214490   0.534   3.488   5.636
 4531SOL     OW14491   0.243   3.512   4.146
 4531SOL    HW114492   0.241   3.471   4.055
 4531SOL    HW214493   0.338   3.518   4.179
 4532SOL     OW14494   6.397   1.447   0.847
 4532SOL    HW114495   6.476   1.418   0.901
 4532SOL    HW214496   6.427   1.471   0.755
 4533SOL     OW14497   2.361   5.651   2.598
 4533SOL    HW114498   2.320   5.730   2.642
 4533SOL    HW214499   2.309   5.569   2.622
 4534SOL     OW14500   5.919   3.366   5.065
 4534SOL    HW114501   5.954   3.280   5.101
 4534SOL    HW214502   5.915   3.361   4.965
 4535SOL     OW14503   4.921   3.149   1.893
 4535SOL    HW114504   4.998   3.101   1.934
 4535SOL    HW214505   4.837   3.097   1.909
 4536SOL     OW14506   6.395   0.870   4.462
 4536SOL    HW114507   6.322   0.813   4.426
 4536SOL    HW214508   6.403   0.855   4.561
 4537SOL     OW14509   3.510   2.935   6.823
 4537SOL    HW114510   3.510   2.876   6.904
 4537SOL    HW214511   3.483   3.028   6.849
 4538SOL     OW14512   3.010   1.284   2.958
 4538SOL    HW114513   2.920   1.316   2.988
 4538SOL    HW214514   2.999   1.214   2.887
 4539SOL     OW14515   1.758   1.674   3.222
 4539SOL    HW114516   1.694   1.694   3.148
 4539SOL    HW214517   1.746   1.579   3.251
 4540SOL     OW14518   3.580   3.437   4.412
 4540SOL    HW114519   3.509   3.415   4.478
 4540SOL    HW214520   3.607   3.533   4.423
 4541SOL     OW14521   4.721   1.946   1.099
 4541SOL    HW114522   4.717   2.046   1.108
 4541SOL    HW214523   4.815   1.915   1.113
 4542SOL     OW14524   5.443   0.186   2.413
 4542SOL    HW114525   5.423   0.178   2.315
 4542SOL    HW214526   5.516   0.121   2.436
 4543SOL     OW14527   5.449   1.556   1.064
 4543SOL    HW114528   5.486   1.485   1.003
 4543SOL    HW214529   5.372   1.601   1.019
 4544SOL     OW14530   3.243   5.304   6.229
 4544SOL    HW114531   3.162   5.281   6.176
 4544SOL    HW214532   3.317   5.242   6.204
 4545SOL     OW14533   3.902   2.171   5.524
 4545SOL    HW114534   3.900   2.231   5.604
 4545SOL    HW214535   3.908   2.076   5.554
 4546SOL     OW14536   1.525   6.230   6.430
 4546SOL    HW114537   1.615   6.199   6.458
 4546SOL    HW214538   1.468   6.246   6.510
 4547SOL     OW14539   4.913   2.033   1.686
 4547SOL    HW114540   4.973   2.000   1.614
 4547SOL    HW214541   4.823   2.052   1.648
 4548SOL     OW14542   1.074   4.128   3.302
 4548SOL    HW114543   1.015   4.207   3.313
 4548SOL    HW214544   1.079   4.103   3.205
 4549SOL     OW14545   6.466   2.881   2.275
 4549SOL    HW114546   6.393   2.948   2.262
 4549SOL    HW214547   6.448   2.828   2.358
 4550SOL     OW14548   1.397   5.566   4.136
 4550SOL    HW114549   1.302   5.540   4.120
 4550SOL    HW214550   1.431   5.619   4.058
 4551SOL     OW14551   0.829   2.321   5.730
 4551SOL    HW114552   0.766   2.372   5.672
 4551SOL    HW214553   0.923   2.344   5.707
 4552SOL     OW14554   0.353   3.311   4.596
 4552SOL    HW114555   0.383   3.406   4.583
 4552SOL    HW214556   0.307   3.280   4.513
 4553SOL     OW14557   4.531   4.686   0.417
 4553SOL    HW114558   4.556   4.702   0.322
 4553SOL    HW214559   4.539   4.588   0.437
 4554SOL     OW14560   5.287   6.729   2.586
 4554SOL    HW114561   5.308   6.790   2.510
 4554SOL    HW214562   5.314   6.635   2.562
 4555SOL     OW14563   5.277   2.705   6.709
 4555SOL    HW114564   5.177   2.709   6.710
 4555SOL    HW214565   5.307   2.618   6.747
 4556SOL     OW14566   4.730   1.208   3.727
 4556SOL    HW114567   4.662   1.262   3.777
 4556SOL    HW214568   4.718   1.222   3.628
 4557SOL     OW14569   5.427   6.908   6.044
 4557SOL    HW114570   5.362   6.961   6.099
 4557SOL    HW214571   5.458   6.828   6.096
 4558SOL     OW14572   6.233   3.221   6.582
 4558SOL    HW114573   6.168   3.291   6.613
 4558SOL    HW214574   6.263   3.242   6.489
 4559SOL     OW14575   1.306   6.649   1.471
 4559SOL    HW114576   1.315   6.672   1.568
 4559SOL    HW214577   1.319   6.551   1.459
 4560SOL     OW14578   4.901   3.336   3.047
 4560SOL    HW114579   4.856   3.250   3.026
 4560SOL    HW214580   5.000   3.325   3.041
 4561SOL     OW14581   3.423   0.466   6.469
 4561SOL    HW114582   3.513   0.509   6.460
 4561SOL    HW214583   3.353   0.530   6.438
 4562SOL     OW14584   2.752   5.123   6.694
 4562SOL    HW114585   2.809   5.202   6.672
 4562SOL    HW214586   2.778   5.089   6.785
 4563SOL     OW14587   5.575   2.218   6.930
 4563SOL    HW114588   5.611   2.297   6.980
 4563SOL    HW214589   5.604   2.224   6.834
 4564SOL     OW14590   1.662   6.328   0.299
 4564SOL    HW114591   1.636   6.261   0.368
 4564SOL    HW214592   1.746   6.374   0.328
 4565SOL     OW14593   1.405   0.402   5.466
 4565SOL    HW114594   1.375   0.497   5.474
 4565SOL    HW214595   1.486   0.387   5.522
 4566SOL     OW14596   6.695   1.394   6.996
 4566SOL    HW114597   6.722   1.308   0.016
 4566SOL    HW214598   6.752   1.411   6.916
 4567SOL     OW14599   6.392   1.513   1.130
 4567SOL    HW114600   6.343   1.441   1.179
 4567SOL    HW214601   6.451   1.472   1.061
 4568SOL     OW14602   3.332   4.506   5.834
 4568SOL    HW114603   3.305   4.411   5.845
 4568SOL    HW214604   3.341   4.548   5.925
 4569SOL     OW14605   0.958   1.669   4.303
 4569SOL    HW114606   1.027   1.687   4.373
 4569SOL    HW214607   0.981   1.583   4.255
 4570SOL     OW14608   0.393   5.437   4.036
 4570SOL    HW114609   0.393   5.481   4.126
 4570SOL    HW214610   0.424   5.342   4.045
 4571SOL     OW14611   3.203   3.337   4.560
 4571SOL    HW114612   3.148   3.388   4.494
 4571SOL    HW214613   3.162   3.247   4.574
 4572SOL     OW14614   1.712   0.016   1.781
 4572SOL    HW114615   1.785   6.972   1.791
 4572SOL    HW214616   1.750   0.100   1.742
 4573SOL     OW14617   5.633   6.729   0.878
 4573SOL    HW114618   5.624   6.803   0.812
 4573SOL    HW214619   5.666   6.647   0.832
 4574SOL     OW14620   0.193   4.131   1.556
 4574SOL    HW114621   0.199   4.047   1.610
 4574SOL    HW214622   0.285   4.169   1.545
 4575SOL     OW14623   6.571   0.212   2.360
 4575SOL    HW114624   6.487   0.242   2.404
 4575SOL    HW214625   6.566   0.113   2.342
 4576SOL     OW14626   3.365   5.784   5.995
 4576SOL    HW114627   3.341   5.690   5.968
 4576SOL    HW214628   3.346   5.796   6.093
 4577SOL     OW14629   1.347   3.058   3.472
 4577SOL    HW114630   1.277   3.115   3.427
 4577SOL    HW214631   1.317   3.037   3.565
 4578SOL     OW14632   6.732   3.579   4.340
 4578SOL    HW114633   6.647   3.629   4.356
 4578SOL    HW214634   6.805   3.644   4.318
 4579SOL     OW14635   5.846   2.155   3.540
 4579SOL    HW114636   5.923   2.118   3.488
 4579SOL    HW214637   5.761   2.112   3.509
 4580SOL     OW14638   6.541   6.056   0.753
 4580SOL    HW114639   6.489   6.114   0.690
 4580SOL    HW214640   6.482   6.026   0.828
 4581SOL     OW14641   3.096   5.297   3.162
 4581SOL    HW114642   3.050   5.220   3.119
 4581SOL    HW214643   3.055   5.314   3.252
 4582SOL     OW14644   5.554   6.340   2.911
 4582SOL    HW114645   5.502   6.353   2.827
 4582SOL    HW214646   5.652   6.336   2.888
 4583SOL     OW14647   3.623   1.844   5.330
 4583SOL    HW114648   3.585   1.937   5.330
 4583SOL    HW214649   3.562   1.783   5.279
 4584SOL     OW14650   0.591   5.357   5.504
 4584SOL    HW114651   0.611   5.406   5.419
 4584SOL    HW214652   0.500   5.382   5.536
 4585SOL     OW14653   3.782   6.228   2.824
 4585SOL    HW114654   3.710   6.237   2.755
 4585SOL    HW214655   3.742   6.199   2.911
 4586SOL     OW14656   3.452   5.539   2.172
 4586SOL    HW114657   3.401   5.468   2.122
 4586SOL    HW214658   3.547   5.539   2.141
 4587SOL     OW14659   2.538   3.883   1.337
 4587SOL    HW114660   2.488   3.817   1.282
 4587SOL    HW214661   2.635   3.878   1.315
 4588SOL     OW14662   4.159   3.686   4.675
 4588SOL    HW114663   4.099   3.737   4.737
 4588SOL    HW214664   4.235   3.744   4.646
 4589SOL     OW14665   6.571   1.995   4.515
 4589SOL    HW114666   6.619   2.079   4.489
 4589SOL    HW214667   6.480   2.017   4.550
 4590SOL     OW14668   4.101   5.223   2.555
 4590SOL    HW114669   4.108   5.157   2.630
 4590SOL    HW214670   4.150   5.307   2.579
 4591SOL     OW14671   5.820   5.837   5.487
 4591SOL    HW114672   5.792   5.853   5.581
 4591SOL    HW214673   5.742   5.850   5.426
 4592SOL     OW14674   3.953   2.330   6.560
 4592SOL    HW114675   3.987   2.240   6.586
 4592SOL    HW214676   3.854   2.326   6.548
 4593SOL     OW14677   3.832   6.375   2.586
 4593SOL    HW114678   3.906   6.442   2.584
 4593SOL    HW214679   3.798   6.366   2.680
 4594SOL     OW14680   2.077   1.516   2.241
 4594SOL    HW114681   2.033   1.533   2.153
 4594SOL    HW214682   2.010   1.484   2.307
 4595SOL     OW14683   3.836   3.266   6.130
 4595SOL    HW114684   3.816   3.192   6.066
 4595SOL    HW214685   3.901   3.329   6.088
 4596SOL     OW14686   5.564   0.190   1.579
 4596SOL    HW114687   5.584   0.288   1.575
 4596SOL    HW214688   5.477   0.175   1.625
 4597SOL     OW14689   5.437   4.269   6.769
 4597SOL    HW114690   5.343   4.235   6.769
 4597SOL    HW214691   5.444   4.350   6.827
 4598SOL     OW14692   2.137   4.927   6.835
 4598SOL    HW114693   2.193   4.849   6.808
 4598SOL    HW214694   2.177   5.011   6.799
 4599SOL     OW14695   1.636   4.352   0.796
 4599SOL    HW114696   1.726   4.368   0.755
 4599SOL    HW214697   1.625   4.409   0.877
 4600SOL     OW14698   2.733   5.527   1.087
 4600SOL    HW114699   2.689   5.617   1.085
 4600SOL    HW214700   2.800   5.521   1.014
 4601SOL     OW14701   1.850   6.857   5.339
 4601SOL    HW114702   1.815   6.946   5.311
 4601SOL    HW214703   1.778   6.788   5.331
 4602SOL     OW14704   1.690   0.514   1.942
 4602SOL    HW114705   1.704   0.432   1.998
 4602SOL    HW214706   1.775   0.537   1.895
 4603SOL     OW14707   3.508   6.996   1.158
 4603SOL    HW114708   3.492   6.947   1.244
 4603SOL    HW214709   3.595   0.022   1.164
 4604SOL     OW14710   3.489   6.768   1.934
 4604SOL    HW114711   3.524   6.741   1.845
 4604SOL    HW214712   3.562   6.812   1.987
 4605SOL     OW14713   5.338   6.845   4.837
 4605SOL    HW114714   5.401   6.835   4.761
 4605SOL    HW214715   5.322   6.943   4.855
 4606SOL     OW14716   6.900   6.303   5.514
 4606SOL    HW114717   6.948   6.312   5.427
 4606SOL    HW214718   6.891   6.394   5.557
 4607SOL     OW14719   3.376   1.970   1.666
 4607SOL    HW114720   3.372   1.871   1.651
 4607SOL    HW214721   3.320   1.993   1.746
 4608SOL     OW14722   2.115   3.594   5.570
 4608SOL    HW114723   2.215   3.594   5.571
 4608SOL    HW214724   2.082   3.630   5.657
 4609SOL     OW14725   5.004   6.965   6.951
 4609SOL    HW114726   5.032   0.034   6.974
 4609SOL    HW214727   4.961   6.964   6.861
 4610SOL     OW14728   0.112   3.161   6.709
 4610SOL    HW114729   0.024   3.160   6.662
 4610SOL    HW214730   0.101   3.203   6.799
 4611SOL     OW14731   0.481   4.295   0.055
 4611SOL    HW114732   0.518   4.285   6.987
 4611SOL    HW214733   0.401   4.235   0.066
 4612SOL     OW14734   2.306   6.712   6.833
 4612SOL    HW114735   2.318   6.725   6.931
 4612SOL    HW214736   2.358   6.631   6.804
 4613SOL     OW14737   3.214   5.131   2.466
 4613SOL    HW114738   3.147   5.200   2.493
 4613SOL    HW214739   3.205   5.112   2.368
 4614SOL     OW14740   1.497   5.411   0.309
 4614SOL    HW114741   1.466   5.325   0.349
 4614SOL    HW214742   1.596   5.410   0.300
 4615SOL     OW14743   0.634   2.445   0.452
 4615SOL    HW114744   0.578   2.379   0.502
 4615SOL    HW214745   0.711   2.473   0.510
 4616SOL     OW14746   5.383   1.327   6.783
 4616SOL    HW114747   5.335   1.239   6.787
 4616SOL    HW214748   5.404   1.358   6.875
 4617SOL     OW14749   0.144   2.620   1.622
 4617SOL    HW114750   0.147   2.567   1.537
 4617SOL    HW214751   0.154   2.559   1.700
 4618SOL     OW14752   1.187   2.209   6.473
 4618SOL    HW114753   1.227   2.183   6.561
 4618SOL    HW214754   1.157   2.304   6.477
 4619SOL     OW14755   3.436   0.833   3.422
 4619SOL    HW114756   3.356   0.892   3.431
 4619SOL    HW214757   3.469   0.835   3.328
 4620SOL     OW14758   2.346   4.625   6.549
 4620SOL    HW114759   2.296   4.647   6.633
 4620SOL    HW214760   2.390   4.536   6.558
 4621SOL     OW14761   0.567   6.398   5.550
 4621SOL    HW114762   0.509   6.454   5.491
 4621SOL    HW214763   0.584   6.310   5.506
 4622SOL     OW14764   1.717   3.831   0.709
 4622SOL    HW114765   1.694   3.923   0.679
 4622SOL    HW214766   1.785   3.791   0.648
 4623SOL     OW14767   6.774   5.141   1.591
 4623SOL    HW114768   6.812   5.088   1.667
 4623SOL    HW214769   6.711   5.084   1.538
 4624SOL     OW14770   5.321   0.199   4.539
 4624SOL    HW114771   5.317   0.257   4.621
 4624SOL    HW214772   5.228   0.180   4.507
 4625SOL     OW14773   1.232   3.710   6.852
 4625SOL    HW114774   1.268   3.618   6.839
 4625SOL    HW214775   1.296   3.777   6.815
 4626SOL     OW14776   6.786   5.448   1.058
 4626SOL    HW114777   6.777   5.477   0.962
 4626SOL    HW214778   6.865   5.388   1.068
 4627SOL     OW14779   3.468   6.012   5.565
 4627SOL    HW114780   3.558   5.967   5.568
 4627SOL    HW214781   3.428   6.014   5.656
 4628SOL     OW14782   0.106   4.292   1.883
 4628SOL    HW114783   0.114   4.280   1.982
 4628SOL    HW214784   0.081   4.204   1.841
 4629SOL     OW14785   1.838   4.566   5.754
 4629SOL    HW114786   1.863   4.473   5.781
 4629SOL    HW214787   1.920   4.614   5.722
 4630SOL     OW14788   1.975   6.482   3.190
 4630SOL    HW114789   1.961   6.390   3.227
 4630SOL    HW214790   2.071   6.507   3.198
 4631SOL     OW14791   2.684   6.702   2.340
 4631SOL    HW114792   2.698   6.683   2.243
 4631SOL    HW214793   2.674   6.616   2.389
 4632SOL     OW14794   5.333   5.558   4.076
 4632SOL    HW114795   5.349   5.522   3.984
 4632SOL    HW214796   5.379   5.646   4.086
 4633SOL     OW14797   6.471   1.912   4.293
 4633SOL    HW114798   6.529   1.939   4.369
 4633SOL    HW214799   6.474   1.812   4.282
 4634SOL     OW14800   3.125   4.591   0.677
 4634SOL    HW114801   3.114   4.502   0.632
 4634SOL    HW214802   3.036   4.623   0.708
 4635SOL     OW14803   4.926   3.525   1.697
 4635SOL    HW114804   4.840   3.560   1.662
 4635SOL    HW214805   4.949   3.439   1.653
 4636SOL     OW14806   2.864   5.721   0.797
 4636SOL    HW114807   2.770   5.712   0.765
 4636SOL    HW214808   2.890   5.639   0.849
 4637SOL     OW14809   1.320   1.429   5.426
 4637SOL    HW114810   1.411   1.448   5.464
 4637SOL    HW214811   1.288   1.509   5.374
 4638SOL     OW14812   5.379   3.671   5.526
 4638SOL    HW114813   5.434   3.589   5.509
 4638SOL    HW214814   5.426   3.728   5.594
 4639SOL     OW14815   0.138   3.830   5.352
 4639SOL    HW114816   0.062   3.894   5.364
 4639SOL    HW214817   0.182   3.846   5.264
 4640SOL     OW14818   5.588   4.179   2.620
 4640SOL    HW114819   5.623   4.202   2.529
 4640SOL    HW214820   5.494   4.210   2.629
 4641SOL     OW14821   2.048   5.026   4.979
 4641SOL    HW114822   2.122   5.070   5.030
 4641SOL    HW214823   2.011   4.949   5.032
 4642SOL     OW14824   6.257   5.866   4.782
 4642SOL    HW114825   6.165   5.895   4.808
 4642SOL    HW214826   6.323   5.937   4.806
 4643SOL     OW14827   3.957   2.215   1.889
 4643SOL    HW114828   3.996   2.292   1.840
 4643SOL    HW214829   3.857   2.220   1.887
 4644SOL     OW14830   2.397   5.795   5.271
 4644SOL    HW114831   2.460   5.855   5.322
 4644SOL    HW214832   2.342   5.851   5.209
 4645SOL     OW14833   2.039   6.165   4.602
 4645SOL    HW114834   1.957   6.130   4.558
 4645SOL    HW214835   2.043   6.132   4.697
 4646SOL     OW14836   3.771   0.651   1.683
 4646SOL    HW114837   3.755   0.745   1.654
 4646SOL    HW214838   3.817   0.650   1.772
 4647SOL     OW14839   6.431   0.557   4.621
 4647SOL    HW114840   6.525   0.543   4.588
 4647SOL    HW214841   6.367   0.515   4.557
 4648SOL     OW14842   2.561   5.646   2.808
 4648SOL    HW114843   2.657   5.669   2.826
 4648SOL    HW214844   2.553   5.603   2.718
 4649SOL     OW14845   5.187   0.756   6.019
 4649SOL    HW114846   5.205   0.854   6.028
 4649SOL    HW214847   5.254   0.715   5.958
 4650SOL     OW14848   5.799   4.783   2.270
 4650SOL    HW114849   5.870   4.844   2.234
 4650SOL    HW214850   5.825   4.688   2.256
 4651SOL     OW14851   0.193   2.483   1.872
 4651SOL    HW114852   0.145   2.526   1.949
 4651SOL    HW214853   0.196   2.384   1.886
 4652SOL     OW14854   6.599   6.768   5.665
 4652SOL    HW114855   6.675   6.753   5.727
 4652SOL    HW214856   6.543   6.686   5.660
 4653SOL     OW14857   0.122   6.423   6.981
 4653SOL    HW114858   0.035   6.434   0.006
 4653SOL    HW214859   0.162   6.334   7.002
 4654SOL     OW14860   1.043   0.927   7.004
 4654SOL    HW114861   0.954   0.962   0.009
 4654SOL    HW214862   1.031   0.868   6.924
 4655SOL     OW14863   0.319   4.524   3.181
 4655SOL    HW114864   0.312   4.518   3.281
 4655SOL    HW214865   0.257   4.595   3.147
 4656SOL     OW14866   2.012   0.021   3.765
 4656SOL    HW114867   2.070   6.971   3.730
 4656SOL    HW214868   2.025   0.103   3.710
 4657SOL     OW14869   5.176   6.967   0.714
 4657SOL    HW114870   5.229   6.891   0.751
 4657SOL    HW214871   5.088   6.971   0.760
 4658SOL     OW14872   5.006   0.290   3.041
 4658SOL    HW114873   5.080   0.231   3.009
 4658SOL    HW214874   5.045   0.363   3.097
 4659SOL     OW14875   1.686   2.644   5.096
 4659SOL    HW114876   1.695   2.741   5.117
 4659SOL    HW214877   1.731   2.590   5.167
 4660SOL     OW14878   0.034   0.804   6.021
 4660SOL    HW114879   7.004   0.827   5.940
 4660SOL    HW214880   7.006   0.829   6.103
 4661SOL     OW14881   2.949   3.805   3.713
 4661SOL    HW114882   2.895   3.726   3.684
 4661SOL    HW214883   3.045   3.792   3.687
 4662SOL     OW14884   5.232   0.421   5.270
 4662SOL    HW114885   5.193   0.510   5.246
 4662SOL    HW214886   5.164   0.366   5.318
 4663SOL     OW14887   0.384   2.128   2.670
 4663SOL    HW114888   0.435   2.156   2.751
 4663SOL    HW214889   0.384   2.204   2.604
 4664SOL     OW14890   3.114   2.170   0.299
 4664SOL    HW114891   3.105   2.132   0.207
 4664SOL    HW214892   3.211   2.187   0.318
 4665SOL     OW14893   4.963   0.288   0.391
 4665SOL    HW114894   5.001   0.371   0.349
 4665SOL    HW214895   4.994   0.208   0.340
 4666SOL     OW14896   2.347   1.370   0.757
 4666SOL    HW114897   2.250   1.388   0.778
 4666SOL    HW214898   2.361   1.375   0.658
 4667SOL     OW14899   0.238   4.977   6.493
 4667SOL    HW114900   0.256   4.918   6.572
 4667SOL    HW214901   0.142   5.004   6.494
 4668SOL     OW14902   6.685   1.532   4.130
 4668SOL    HW114903   6.596   1.545   4.175
 4668SOL    HW214904   6.705   1.610   4.072
 4669SOL     OW14905   1.773   0.493   0.517
 4669SOL    HW114906   1.680   0.514   0.545
 4669SOL    HW214907   1.837   0.541   0.578
 4670SOL     OW14908   2.425   2.087   3.969
 4670SOL    HW114909   2.347   2.096   3.907
 4670SOL    HW214910   2.436   2.171   4.021
 4671SOL     OW14911   5.925   3.373   1.582
 4671SOL    HW114912   6.022   3.393   1.565
 4671SOL    HW214913   5.881   3.349   1.496
 4672SOL     OW14914   1.894   3.586   6.067
 4672SOL    HW114915   1.888   3.488   6.083
 4672SOL    HW214916   1.895   3.634   6.155
 4673SOL     OW14917   4.246   1.008   2.734
 4673SOL    HW114918   4.286   0.940   2.795
 4673SOL    HW214919   4.303   1.091   2.733
 4674SOL     OW14920   4.472   5.595   5.516
 4674SOL    HW114921   4.530   5.540   5.457
 4674SOL    HW214922   4.423   5.663   5.462
 4675SOL     OW14923   1.106   4.171   0.291
 4675SOL    HW114924   1.013   4.161   0.328
 4675SOL    HW214925   1.127   4.269   0.281
 4676SOL     OW14926   1.055   5.591   3.793
 4676SOL    HW114927   1.074   5.631   3.703
 4676SOL    HW214928   1.092   5.498   3.796
 4677SOL     OW14929   1.630   2.994   0.057
 4677SOL    HW114930   1.680   2.929   0.114
 4677SOL    HW214931   1.614   3.078   0.109
 4678SOL     OW14932   2.393   4.657   2.680
 4678SOL    HW114933   2.458   4.640   2.606
 4678SOL    HW214934   2.414   4.596   2.757
 4679SOL     OW14935   5.084   0.090   1.648
 4679SOL    HW114936   5.141   0.018   1.610
 4679SOL    HW214937   4.995   0.053   1.674
 4680SOL     OW14938   2.202   1.458   1.741
 4680SOL    HW114939   2.282   1.509   1.773
 4680SOL    HW214940   2.229   1.366   1.716
 4681SOL     OW14941   5.440   4.228   1.450
 4681SOL    HW114942   5.520   4.180   1.486
 4681SOL    HW214943   5.466   4.322   1.427
 4682SOL     OW14944   3.854   3.579   6.574
 4682SOL    HW114945   3.953   3.594   6.569
 4682SOL    HW214946   3.826   3.518   6.501
 4683SOL     OW14947   6.284   4.166   3.431
 4683SOL    HW114948   6.373   4.122   3.441
 4683SOL    HW214949   6.260   4.213   3.516
 4684SOL     OW14950   4.942   6.164   0.152
 4684SOL    HW114951   4.973   6.243   0.205
 4684SOL    HW214952   5.021   6.110   0.123
 4685SOL     OW14953   2.492   3.513   5.965
 4685SOL    HW114954   2.457   3.547   5.878
 4685SOL    HW214955   2.490   3.413   5.966
 4686SOL     OW14956   2.994   5.726   0.288
 4686SOL    HW114957   3.008   5.706   0.191
 4686SOL    HW214958   3.044   5.809   0.313
 4687SOL     OW14959   3.097   0.634   2.572
 4687SOL    HW114960   3.040   0.618   2.492
 4687SOL    HW214961   3.134   0.547   2.604
 4688SOL     OW14962   5.646   3.575   5.815
 4688SOL    HW114963   5.596   3.532   5.739
 4688SOL    HW214964   5.743   3.579   5.794
 4689SOL     OW14965   5.649   1.102   0.893
 4689SOL    HW114966   5.660   1.074   0.988
 4689SOL    HW214967   5.563   1.066   0.857
 4690SOL     OW14968   2.614   1.484   0.361
 4690SOL    HW114969   2.601   1.410   0.427
 4690SOL    HW214970   2.607   1.446   0.268
 4691SOL     OW14971   6.790   4.419   1.410
 4691SOL    HW114972   6.828   4.333   1.444
 4691SOL    HW214973   6.783   4.484   1.485
 4692SOL     OW14974   6.209   3.873   3.087
 4692SOL    HW114975   6.144   3.928   3.034
 4692SOL    HW214976   6.285   3.930   3.117
 4693SOL     OW14977   1.825   0.655   3.785
 4693SOL    HW114978   1.731   0.689   3.776
 4693SOL    HW214979   1.827   0.580   3.851
 4694SOL     OW14980   2.399   1.519   6.931
 4694SOL    HW114981   2.303   1.545   6.946
 4694SOL    HW214982   2.452   1.600   6.906
 4695SOL     OW14983   1.050   6.106   1.677
 4695SOL    HW114984   1.010   6.198   1.683
 4695SOL    HW214985   1.037   6.059   1.764
 4696SOL     OW14986   0.940   4.989   6.003
 4696SOL    HW114987   0.975   4.998   5.910
 4696SOL    HW214988   0.853   4.940   6.000
 4697SOL     OW14989   2.887   4.859   0.659
 4697SOL    HW114990   2.874   4.760   0.660
 4697SOL    HW214991   2.840   4.898   0.580
 4698SOL     OW14992   5.582   1.061   3.267
 4698SOL    HW114993   5.580   0.961   3.269
 4698SOL    HW214994   5.601   1.096   3.358
 4699SOL     OW14995   1.228   6.967   2.857
 4699SOL    HW114996   1.171   6.898   2.900
 4699SOL    HW214997   1.294   6.923   2.796
 4700SOL     OW14998   5.814   2.083   2.795
 4700SOL    HW114999   5.874   2.003   2.789
 4700SOL    HW215000   5.720   2.053   2.806
 4701SOL     OW15001   3.317   1.826   2.012
 4701SOL    HW115002   3.349   1.920   2.018
 4701SOL    HW215003   3.269   1.801   2.096
 4702SOL     OW15004   5.235   4.721   6.251
 4702SOL    HW115005   5.245   4.678   6.341
 4702SOL    HW215006   5.299   4.678   6.187
 4703SOL     OW15007   0.892   4.715   3.499
 4703SOL    HW115008   0.890   4.622   3.535
 4703SOL    HW215009   0.940   4.715   3.411
 4704SOL     OW15010   1.135   4.907   5.598
 4704SOL    HW115011   1.222   4.954   5.582
 4704SOL    HW215012   1.147   4.809   5.584
 4705SOL     OW15013   3.203   2.971   1.854
 4705SOL    HW115014   3.212   2.873   1.870
 4705SOL    HW215015   3.212   3.020   1.940
 4706SOL     OW15016   1.661   0.910   0.575
 4706SOL    HW115017   1.712   0.892   0.492
 4706SOL    HW215018   1.563   0.915   0.554
 4707SOL     OW15019   1.569   0.011   1.343
 4707SOL    HW115020   1.617   0.070   1.409
 4707SOL    HW215021   1.594   0.039   1.250
 4708SOL     OW15022   0.761   3.014   4.052
 4708SOL    HW115023   0.676   2.961   4.049
 4708SOL    HW215024   0.777   3.056   3.962
 4709SOL     OW15025   4.613   3.795   5.347
 4709SOL    HW115026   4.649   3.730   5.279
 4709SOL    HW215027   4.668   3.878   5.345
 4710SOL     OW15028   5.889   6.237   4.420
 4710SOL    HW115029   5.953   6.313   4.431
 4710SOL    HW215030   5.828   6.232   4.500
 4711SOL     OW15031   6.119   3.184   2.998
 4711SOL    HW115032   6.084   3.277   3.006
 4711SOL    HW215033   6.127   3.144   3.089
 4712SOL     OW15034   4.557   4.333   5.176
 4712SOL    HW115035   4.467   4.373   5.159
 4712SOL    HW215036   4.592   4.292   5.092
 4713SOL     OW15037   5.649   4.487   0.884
 4713SOL    HW115038   5.674   4.576   0.923
 4713SOL    HW215039   5.614   4.428   0.957
 4714SOL     OW15040   5.690   0.891   5.901
 4714SOL    HW115041   5.719   0.968   5.957
 4714SOL    HW215042   5.617   0.921   5.839
 4715SOL     OW15043   5.841   1.443   1.655
 4715SOL    HW115044   5.905   1.388   1.709
 4715SOL    HW215045   5.892   1.500   1.591
 4716SOL     OW15046   4.007   4.425   5.535
 4716SOL    HW115047   4.080   4.406   5.470
 4716SOL    HW215048   3.945   4.347   5.540
 4717SOL     OW15049   2.866   5.322   5.244
 4717SOL    HW115050   2.783   5.341   5.297
 4717SOL    HW215051   2.847   5.248   5.179
 4718SOL     OW15052   5.109   4.031   1.018
 4718SOL    HW115053   5.070   4.122   1.002
 4718SOL    HW215054   5.179   4.037   1.089
 4719SOL     OW15055   6.940   3.323   4.084
 4719SOL    HW115056   6.915   3.411   4.126
 4719SOL    HW215057   6.865   3.258   4.097
 4720SOL     OW15058   2.745   4.360   6.686
 4720SOL    HW115059   2.722   4.295   6.758
 4720SOL    HW215060   2.786   4.441   6.727
 4721SOL     OW15061   6.492   3.698   2.691
 4721SOL    HW115062   6.462   3.611   2.730
 4721SOL    HW215063   6.574   3.684   2.637
 4722SOL     OW15064   1.002   4.436   6.705
 4722SOL    HW115065   0.919   4.382   6.697
 4722SOL    HW215066   1.008   4.475   6.797
 4723SOL     OW15067   4.060   4.017   6.343
 4723SOL    HW115068   4.106   4.087   6.287
 4723SOL    HW215069   3.979   3.983   6.294
 4724SOL     OW15070   1.222   6.797   4.700
 4724SOL    HW115071   1.127   6.827   4.709
 4724SOL    HW215072   1.226   6.697   4.700
 4725SOL     OW15073   5.676   5.824   0.366
 4725SOL    HW115074   5.731   5.873   0.297
 4725SOL    HW215075   5.649   5.888   0.438
 4726SOL     OW15076   1.344   3.082   5.475
 4726SOL    HW115077   1.378   3.004   5.422
 4726SOL    HW215078   1.337   3.162   5.415
 4727SOL     OW15079   1.183   5.727   0.338
 4727SOL    HW115080   1.256   5.762   0.396
 4727SOL    HW215081   1.144   5.645   0.379
 4728SOL     OW15082   6.300   1.414   4.122
 4728SOL    HW115083   6.250   1.338   4.163
 4728SOL    HW215084   6.358   1.381   4.048
 4729SOL     OW15085   6.211   1.260   0.743
 4729SOL    HW115086   6.194   1.268   0.645
 4729SOL    HW215087   6.265   1.339   0.774
 4730SOL     OW15088   3.782   0.335   4.894
 4730SOL    HW115089   3.771   0.416   4.953
 4730SOL    HW215090   3.767   0.252   4.948
 4731SOL     OW15091   3.421   0.764   0.686
 4731SOL    HW115092   3.375   0.789   0.602
 4731SOL    HW215093   3.518   0.745   0.667
 4732SOL     OW15094   6.927   4.156   4.069
 4732SOL    HW115095   6.889   4.182   3.980
 4732SOL    HW215096   6.957   4.238   4.118
 4733SOL     OW15097   2.134   3.298   2.945
 4733SOL    HW115098   2.121   3.272   2.849
 4733SOL    HW215099   2.179   3.223   2.993
 4734SOL     OW15100   4.986   3.866   6.478
 4734SOL    HW115101   4.912   3.925   6.511
 4734SOL    HW215102   5.003   3.794   6.545
 4735SOL     OW15103   0.063   6.825   5.049
 4735SOL    HW115104   0.124   6.821   5.128
 4735SOL    HW215105   0.095   6.896   4.986
 4736SOL     OW15106   6.362   1.632   3.204
 4736SOL    HW115107   6.452   1.676   3.201
 4736SOL    HW215108   6.338   1.609   3.298
 4737SOL     OW15109   2.324   4.904   1.147
 4737SOL    HW115110   2.386   4.864   1.215
 4737SOL    HW215111   2.316   4.843   1.069
 4738SOL     OW15112   2.117   6.891   3.978
 4738SOL    HW115113   2.182   6.964   3.958
 4738SOL    HW215114   2.048   6.887   3.906
 4739SOL     OW15115   5.832   3.454   3.903
 4739SOL    HW115116   5.738   3.429   3.927
 4739SOL    HW215117   5.831   3.515   3.824
 4740SOL     OW15118   0.111   0.970   1.116
 4740SOL    HW115119   0.106   1.070   1.114
 4740SOL    HW215120   0.067   0.932   1.035
 4741SOL     OW15121   4.726   4.675   1.550
 4741SOL    HW115122   4.634   4.637   1.558
 4741SOL    HW215123   4.792   4.609   1.586
 4742SOL     OW15124   2.887   6.052   1.739
 4742SOL    HW115125   2.871   6.000   1.823
 4742SOL    HW215126   2.854   6.000   1.660
 4743SOL     OW15127   2.541   2.387   0.283
 4743SOL    HW115128   2.571   2.390   0.378
 4743SOL    HW215129   2.568   2.300   0.242
 4744SOL     OW15130   1.849   3.088   5.468
 4744SOL    HW115131   1.825   2.991   5.457
 4744SOL    HW215132   1.890   3.122   5.383
 4745SOL     OW15133   2.957   5.904   5.023
 4745SOL    HW115134   3.037   5.888   4.965
 4745SOL    HW215135   2.882   5.942   4.968
 4746SOL     OW15136   6.605   6.808   0.720
 4746SOL    HW115137   6.585   6.887   0.662
 4746SOL    HW215138   6.601   6.836   0.816
 4747SOL     OW15139   6.490   2.512   1.149
 4747SOL    HW115140   6.437   2.503   1.064
 4747SOL    HW215141   6.428   2.527   1.226
 4748SOL     OW15142   1.078   1.190   1.574
 4748SOL    HW115143   1.049   1.124   1.505
 4748SOL    HW215144   1.157   1.154   1.624
 4749SOL     OW15145   2.145   0.084   0.147
 4749SOL    HW115146   2.062   0.123   0.108
 4749SOL    HW215147   2.205   0.157   0.179
 4750SOL     OW15148   6.990   0.445   4.526
 4750SOL    HW115149   6.935   0.508   4.580
 4750SOL    HW215150   0.055   0.430   4.570
 4751SOL     OW15151   1.122   4.426   6.452
 4751SOL    HW115152   1.074   4.425   6.540
 4751SOL    HW215153   1.080   4.495   6.393
 4752SOL     OW15154   3.097   5.978   2.006
 4752SOL    HW115155   3.166   5.906   2.002
 4752SOL    HW215156   3.140   6.067   1.993
 4753SOL     OW15157   5.670   6.537   5.368
 4753SOL    HW115158   5.752   6.480   5.372
 4753SOL    HW215159   5.623   6.520   5.281
 4754SOL     OW15160   0.392   0.498   6.034
 4754SOL    HW115161   0.488   0.494   6.063
 4754SOL    HW215162   0.387   0.537   5.942
 4755SOL     OW15163   2.357   1.441   6.405
 4755SOL    HW115164   2.306   1.483   6.330
 4755SOL    HW215165   2.348   1.497   6.488
 4756SOL     OW15166   4.899   2.967   1.175
 4756SOL    HW115167   4.927   2.900   1.243
 4756SOL    HW215168   4.959   2.962   1.095
 4757SOL     OW15169   2.028   2.312   1.359
 4757SOL    HW115170   2.098   2.326   1.429
 4757SOL    HW215171   2.003   2.215   1.356
 4758SOL     OW15172   5.151   5.021   5.245
 4758SOL    HW115173   5.136   4.925   5.271
 4758SOL    HW215174   5.068   5.073   5.264
 4759SOL     OW15175   5.430   5.278   6.371
 4759SOL    HW115176   5.438   5.244   6.277
 4759SOL    HW215177   5.334   5.298   6.390
 4760SOL     OW15178   1.808   1.227   1.814
 4760SOL    HW115179   1.822   1.223   1.913
 4760SOL    HW215180   1.862   1.302   1.776
 4761SOL     OW15181   0.083   6.834   6.606
 4761SOL    HW115182   0.124   6.918   6.571
 4761SOL    HW215183   0.128   6.807   6.691
 4762SOL     OW15184   2.431   5.875   2.065
 4762SOL    HW115185   2.404   5.787   2.027
 4762SOL    HW215186   2.472   5.862   2.155
 4763SOL     OW15187   5.974   6.156   3.664
 4763SOL    HW115188   6.073   6.168   3.670
 4763SOL    HW215189   5.932   6.177   3.752
 4764SOL     OW15190   3.721   3.684   4.493
 4764SOL    HW115191   3.738   3.740   4.411
 4764SOL    HW215192   3.652   3.728   4.550
 4765SOL     OW15193   5.070   5.951   4.816
 4765SOL    HW115194   5.151   5.988   4.862
 4765SOL    HW215195   5.098   5.902   4.734
 4766SOL     OW15196   2.986   0.160   3.428
 4766SOL    HW115197   3.083   0.172   3.451
 4766SOL    HW215198   2.976   0.082   3.366
 4767SOL     OW15199   4.473   6.634   6.614
 4767SOL    HW115200   4.554   6.693   6.606
 4767SOL    HW215201   4.410   6.673   6.682
 4768SOL     OW15202   6.574   0.776   5.068
 4768SOL    HW115203   6.595   0.679   5.081
 4768SOL    HW215204   6.654   0.831   5.091
 4769SOL     OW15205   3.984   6.729   1.496
 4769SOL    HW115206   3.919   6.787   1.546
 4769SOL    HW215207   3.955   6.633   1.504
 4770SOL     OW15208   2.828   0.489   3.162
 4770SOL    HW115209   2.899   0.480   3.232
 4770SOL    HW215210   2.766   0.563   3.186
 4771SOL     OW15211   3.818   4.209   5.511
 4771SOL    HW115212   3.779   4.200   5.419
 4771SOL    HW215213   3.849   4.119   5.543
 4772SOL     OW15214   2.801   1.958   1.630
 4772SOL    HW115215   2.847   1.922   1.711
 4772SOL    HW215216   2.814   2.057   1.625
 4773SOL     OW15217   0.083   5.788   3.840
 4773SOL    HW115218   0.134   5.714   3.883
 4773SOL    HW215219   0.068   5.767   3.744
 4774SOL     OW15220   0.881   3.829   1.046
 4774SOL    HW115221   0.836   3.837   0.957
 4774SOL    HW215222   0.951   3.758   1.042
 4775SOL     OW15223   4.447   0.333   2.393
 4775SOL    HW115224   4.351   0.318   2.418
 4775SOL    HW215225   4.480   0.417   2.437
 4776SOL     OW15226   3.035   5.536   2.864
 4776SOL    HW115227   3.129   5.530   2.831
 4776SOL    HW215228   3.002   5.444   2.886
 4777SOL     OW15229   2.954   4.003   1.114
 4777SOL    HW115230   2.981   4.085   1.164
 4777SOL    HW215231   3.015   3.990   1.036
 4778SOL     OW15232   4.827   4.134   2.120
 4778SOL    HW115233   4.880   4.103   2.041
 4778SOL    HW215234   4.730   4.113   2.105
 4779SOL     OW15235   5.964   0.922   2.908
 4779SOL    HW115236   6.064   0.921   2.897
 4779SOL    HW215237   5.923   0.856   2.845
 4780SOL     OW15238   0.854   6.850   6.845
 4780SOL    HW115239   0.942   6.813   6.818
 4780SOL    HW215240   0.844   6.844   6.944
 4781SOL     OW15241   2.559   5.479   1.556
 4781SOL    HW115242   2.523   5.453   1.466
 4781SOL    HW215243   2.518   5.422   1.627
 4782SOL     OW15244   5.511   6.279   6.605
 4782SOL    HW115245   5.524   6.269   6.704
 4782SOL    HW215246   5.580   6.224   6.557
 4783SOL     OW15247   5.374   4.369   0.744
 4783SOL    HW115248   5.453   4.338   0.691
 4783SOL    HW215249   5.330   4.290   0.787
 4784SOL     OW15250   5.301   5.130   4.649
 4784SOL    HW115251   5.392   5.100   4.618
 4784SOL    HW215252   5.296   5.123   4.748
 4785SOL     OW15253   6.811   6.391   1.264
 4785SOL    HW115254   6.894   6.406   1.318
 4785SOL    HW215255   6.828   6.416   1.169
 4786SOL     OW15256   1.984   3.448   2.145
 4786SOL    HW115257   2.013   3.436   2.240
 4786SOL    HW215258   2.062   3.479   2.090
 4787SOL     OW15259   3.243   2.095   3.358
 4787SOL    HW115260   3.214   2.135   3.271
 4787SOL    HW215261   3.168   2.102   3.424
 4788SOL     OW15262   1.304   5.088   4.363
 4788SOL    HW115263   1.214   5.087   4.407
 4788SOL    HW215264   1.294   5.069   4.266
 4789SOL     OW15265   5.815   0.479   6.844
 4789SOL    HW115266   5.907   0.509   6.867
 4789SOL    HW215267   5.819   0.390   6.798
 4790SOL     OW15268   5.609   2.461   6.509
 4790SOL    HW115269   5.589   2.556   6.484
 4790SOL    HW215270   5.596   2.402   6.430
 4791SOL     OW15271   5.660   6.994   1.831
 4791SOL    HW115272   5.673   0.048   1.770
 4791SOL    HW215273   5.604   7.022   1.909
 4792SOL     OW15274   2.017   2.426   2.710
 4792SOL    HW115275   2.009   2.481   2.627
 4792SOL    HW215276   2.111   2.431   2.745
 4793SOL     OW15277   1.502   6.731   6.579
 4793SOL    HW115278   1.424   6.669   6.565
 4793SOL    HW215279   1.584   6.677   6.596
 4794SOL     OW15280   3.058   0.338   2.354
 4794SOL    HW115281   3.030   0.275   2.426
 4794SOL    HW215282   3.000   0.419   2.355
 4795SOL     OW15283   6.429   3.041   4.210
 4795SOL    HW115284   6.337   3.053   4.247
 4795SOL    HW215285   6.495   3.038   4.286
 4796SOL     OW15286   6.033   3.963   0.869
 4796SOL    HW115287   6.001   3.920   0.784
 4796SOL    HW215288   6.084   3.896   0.923
 4797SOL     OW15289   0.497   4.709   5.439
 4797SOL    HW115290   0.473   4.613   5.453
 4797SOL    HW215291   0.458   4.741   5.353
 4798SOL     OW15292   0.067   3.996   4.228
 4798SOL    HW115293   7.007   4.039   4.195
 4798SOL    HW215294   0.058   3.973   4.324
 4799SOL     OW15295   4.146   1.416   5.298
 4799SOL    HW115296   4.128   1.342   5.234
 4799SOL    HW215297   4.060   1.450   5.336
 4800SOL     OW15298   2.203   2.416   5.103
 4800SOL    HW115299   2.110   2.426   5.067
 4800SOL    HW215300   2.226   2.496   5.159
 4801SOL     OW15301   1.310   1.768   0.834
 4801SOL    HW115302   1.317   1.670   0.816
 4801SOL    HW215303   1.244   1.783   0.908
 4802SOL     OW15304   3.100   0.399   1.906
 4802SOL    HW115305   3.022   0.375   1.964
 4802SOL    HW215306   3.092   0.351   1.818
 4803SOL     OW15307   0.866   0.380   0.568
 4803SOL    HW115308   0.822   0.460   0.528
 4803SOL    HW215309   0.897   0.401   0.660
 4804SOL     OW15310   4.001   5.480   6.346
 4804SOL    HW115311   4.061   5.414   6.301
 4804SOL    HW215312   3.937   5.432   6.406
 4805SOL     OW15313   6.905   1.935   0.683
 4805SOL    HW115314   6.891   1.874   0.761
 4805SOL    HW215315   6.870   2.026   0.705
 4806SOL     OW15316   0.425   2.975   2.776
 4806SOL    HW115317   0.325   2.968   2.783
 4806SOL    HW215318   0.465   2.883   2.783
 4807SOL     OW15319   0.595   6.756   0.975
 4807SOL    HW115320   0.569   6.684   0.911
 4807SOL    HW215321   0.518   6.777   1.035
 4808SOL     OW15322   5.126   3.180   1.060
 4808SOL    HW115323   5.042   3.209   1.105
 4808SOL    HW215324   5.165   3.102   1.108
 4809SOL     OW15325   3.490   5.415   6.506
 4809SOL    HW115326   3.419   5.477   6.474
 4809SOL    HW215327   3.542   5.459   6.579
 4810SOL     OW15328   0.743   6.948   1.314
 4810SOL    HW115329   0.802   6.965   1.236
 4810SOL    HW215330   0.669   6.886   1.287
 4811SOL     OW15331   3.661   5.211   1.971
 4811SOL    HW115332   3.626   5.139   1.912
 4811SOL    HW215333   3.620   5.204   2.062
 4812SOL     OW15334   0.051   5.429   4.483
 4812SOL    HW115335   6.992   5.396   4.528
 4812SOL    HW215336   0.130   5.379   4.519
 4813SOL     OW15337   4.950   2.187   2.496
 4813SOL    HW115338   4.864   2.236   2.481
 4813SOL    HW215339   5.012   2.204   2.419
 4814SOL     OW15340   0.252   3.997   1.040
 4814SOL    HW115341   0.214   3.994   1.132
 4814SOL    HW215342   0.262   3.904   1.005
 4815SOL     OW15343   5.075   5.597   1.220
 4815SOL    HW115344   5.074   5.500   1.198
 4815SOL    HW215345   4.986   5.624   1.258
 4816SOL     OW15346   5.379   5.213   3.119
 4816SOL    HW115347   5.351   5.302   3.084
 4816SOL    HW215348   5.444   5.171   3.057
 4817SOL     OW15349   1.220   2.588   6.432
 4817SOL    HW115350   1.189   2.683   6.440
 4817SOL    HW215351   1.147   2.527   6.462
 4818SOL     OW15352   0.220   6.937   3.947
 4818SOL    HW115353   0.139   6.879   3.940
 4818SOL    HW215354   0.274   6.928   3.863
 4819SOL     OW15355   1.383   3.398   0.456
 4819SOL    HW115356   1.440   3.383   0.375
 4819SOL    HW215357   1.440   3.389   0.538
 4820SOL     OW15358   7.023   3.006   1.696
 4820SOL    HW115359   6.941   2.984   1.643
 4820SOL    HW215360   7.012   3.095   1.740
 4821SOL     OW15361   6.874   5.595   2.537
 4821SOL    HW115362   6.784   5.574   2.576
 4821SOL    HW215363   6.915   5.671   2.586
 4822SOL     OW15364   1.234   3.781   4.488
 4822SOL    HW115365   1.158   3.741   4.437
 4822SOL    HW215366   1.313   3.720   4.484
 4823SOL     OW15367   2.061   2.798   2.252
 4823SOL    HW115368   2.110   2.870   2.301
 4823SOL    HW215369   2.077   2.808   2.153
 4824SOL     OW15370   6.011   1.332   5.376
 4824SOL    HW115371   6.064   1.315   5.293
 4824SOL    HW215372   6.073   1.362   5.449
 4825SOL     OW15373   1.483   6.720   4.379
 4825SOL    HW115374   1.534   6.743   4.461
 4825SOL    HW215375   1.546   6.684   4.310
 4826SOL     OW15376   4.418   0.575   1.676
 4826SOL    HW115377   4.466   0.662   1.662
 4826SOL    HW215378   4.462   0.524   1.751
 4827SOL     OW15379   6.867   1.477   1.161
 4827SOL    HW115380   6.846   1.469   1.064
 4827SOL    HW215381   6.955   1.524   1.172
 4828SOL     OW15382   4.618   0.622   2.951
 4828SOL    HW115383   4.598   0.524   2.953
 4828SOL    HW215384   4.579   0.666   3.031
 4829SOL     OW15385   3.955   0.234   5.155
 4829SOL    HW115386   3.983   0.288   5.234
 4829SOL    HW215387   3.860   0.206   5.165
 4830SOL     OW15388   3.169   5.905   3.269
 4830SOL    HW115389   3.118   5.893   3.184
 4830SOL    HW215390   3.219   5.991   3.266
 4831SOL     OW15391   3.261   4.895   6.208
 4831SOL    HW115392   3.322   4.964   6.246
 4831SOL    HW215393   3.166   4.917   6.232
 4832SOL     OW15394   3.042   3.106   4.365
 4832SOL    HW115395   3.039   3.091   4.266
 4832SOL    HW215396   2.979   3.179   4.390
 4833SOL     OW15397   0.354   2.814   3.687
 4833SOL    HW115398   0.297   2.849   3.762
 4833SOL    HW215399   0.308   2.736   3.644
 4834SOL     OW15400   1.423   5.347   1.950
 4834SOL    HW115401   1.450   5.444   1.954
 4834SOL    HW215402   1.477   5.301   1.880
 4835SOL     OW15403   6.797   2.377   5.187
 4835SOL    HW115404   6.774   2.417   5.098
 4835SOL    HW215405   6.756   2.432   5.260
 4836SOL     OW15406   5.311   1.508   5.317
 4836SOL    HW115407   5.408   1.483   5.315
 4836SOL    HW215408   5.272   1.487   5.407
 4837SOL     OW15409   0.017   3.939   4.485
 4837SOL    HW115410   0.091   3.953   4.551
 4837SOL    HW215411   6.958   3.982   4.518
 4838SOL     OW15412   1.616   4.583   6.959
 4838SOL    HW115413   1.517   4.590   6.972
 4838SOL    HW215414   1.663   4.638   0.004
 4839SOL     OW15415   2.614   1.362   6.932
 4839SOL    HW115416   2.540   1.427   6.917
 4839SOL    HW215417   2.693   1.410   6.971
 4840SOL     OW15418   5.664   3.272   4.790
 4840SOL    HW115419   5.640   3.235   4.880
 4840SOL    HW215420   5.759   3.302   4.791
 4841SOL     OW15421   3.058   5.627   2.551
 4841SOL    HW115422   2.986   5.561   2.570
 4841SOL    HW215423   3.136   5.611   2.612
 4842SOL     OW15424   2.787   5.434   3.299
 4842SOL    HW115425   2.782   5.358   3.234
 4842SOL    HW215426   2.800   5.519   3.249
 4843SOL     OW15427   0.320   1.670   2.103
 4843SOL    HW115428   0.251   1.701   2.038
 4843SOL    HW215429   0.279   1.666   2.195
 4844SOL     OW15430   1.114   5.707   4.431
 4844SOL    HW115431   1.198   5.681   4.383
 4844SOL    HW215432   1.105   5.652   4.515
 4845SOL     OW15433   4.874   3.850   4.876
 4845SOL    HW115434   4.837   3.774   4.928
 4845SOL    HW215435   4.802   3.919   4.862
 4846SOL     OW15436   7.012   3.442   4.407
 4846SOL    HW115437   0.022   3.503   4.479
 4846SOL    HW215438   6.923   3.474   4.374
 4847SOL     OW15439   2.306   6.250   6.193
 4847SOL    HW115440   2.368   6.207   6.127
 4847SOL    HW215441   2.236   6.302   6.145
 4848SOL     OW15442   3.256   0.695   4.253
 4848SOL    HW115443   3.348   0.664   4.274
 4848SOL    HW215444   3.230   0.664   4.162
 4849SOL     OW15445   1.922   6.941   1.096
 4849SOL    HW115446   1.889   6.894   1.014
 4849SOL    HW215447   1.904   6.885   1.176
 4850SOL     OW15448   4.258   0.116   0.381
 4850SOL    HW115449   4.291   0.041   0.323
 4850SOL    HW215450   4.256   0.200   0.328
 4851SOL     OW15451   3.425   5.088   6.352
 4851SOL    HW115452   3.427   5.086   6.452
 4851SOL    HW215453   3.497   5.148   6.318
 4852SOL     OW15454   5.000   5.468   4.716
 4852SOL    HW115455   4.980   5.506   4.806
 4852SOL    HW215456   5.087   5.418   4.719
 4853SOL     OW15457   4.221   0.266   2.156
 4853SOL    HW115458   4.236   0.263   2.255
 4853SOL    HW215459   4.124   0.256   2.136
 4854SOL     OW15460   5.845   6.172   1.713
 4854SOL    HW115461   5.804   6.244   1.658
 4854SOL    HW215462   5.777   6.102   1.734
 4855SOL     OW15463   6.101   5.090   5.391
 4855SOL    HW115464   6.106   5.078   5.292
 4855SOL    HW215465   6.079   5.185   5.412
 4856SOL     OW15466   6.934   3.706   3.310
 4856SOL    HW115467   6.851   3.736   3.262
 4856SOL    HW215468   6.909   3.646   3.385
 4857SOL     OW15469   2.675   2.039   5.185
 4857SOL    HW115470   2.703   2.106   5.117
 4857SOL    HW215471   2.653   2.085   5.271
 4858SOL     OW15472   0.608   5.878   3.926
 4858SOL    HW115473   0.610   5.810   3.853
 4858SOL    HW215474   0.553   5.845   4.002
 4859SOL     OW15475   1.095   6.343   2.479
 4859SOL    HW115476   1.012   6.301   2.442
 4859SOL    HW215477   1.162   6.354   2.406
 4860SOL     OW15478   4.163   5.602   1.039
 4860SOL    HW115479   4.201   5.543   0.968
 4860SOL    HW215480   4.063   5.602   1.033
 4861SOL     OW15481   7.000   4.479   6.710
 4861SOL    HW115482   6.966   4.564   6.668
 4861SOL    HW215483   6.990   4.404   6.644
 4862SOL     OW15484   2.494   5.164   5.468
 4862SOL    HW115485   2.463   5.113   5.548
 4862SOL    HW215486   2.415   5.192   5.414
 4863SOL     OW15487   4.574   1.796   2.728
 4863SOL    HW115488   4.555   1.824   2.823
 4863SOL    HW215489   4.505   1.835   2.668
 4864SOL     OW15490   2.461   1.567   1.804
 4864SOL    HW115491   2.516   1.631   1.750
 4864SOL    HW215492   2.519   1.493   1.837
 4865SOL     OW15493   3.664   5.840   5.257
 4865SOL    HW115494   3.580   5.804   5.298
 4865SOL    HW215495   3.665   5.940   5.265
 4866SOL     OW15496   6.620   4.612   1.532
 4866SOL    HW115497   6.531   4.658   1.528
 4866SOL    HW215498   6.660   4.624   1.623
 4867SOL     OW15499   5.242   6.212   3.463
 4867SOL    HW115500   5.253   6.130   3.407
 4867SOL    HW215501   5.254   6.189   3.559
 4868SOL     OW15502   0.866   5.829   1.205
 4868SOL    HW115503   0.830   5.772   1.131
 4868SOL    HW215504   0.883   5.772   1.285
 4869SOL     OW15505   6.265   0.597   0.918
 4869SOL    HW115506   6.302   0.684   0.886
 4869SOL    HW215507   6.222   0.549   0.842
 4870SOL     OW15508   6.564   6.589   1.663
 4870SOL    HW115509   6.485   6.534   1.637
 4870SOL    HW215510   6.606   6.551   1.745
 4871SOL     OW15511   1.160   3.632   3.980
 4871SOL    HW115512   1.111   3.563   4.033
 4871SOL    HW215513   1.102   3.662   3.904
 4872SOL     OW15514   0.958   0.730   2.976
 4872SOL    HW115515   0.969   0.643   3.025
 4872SOL    HW215516   0.972   0.714   2.878
 4873SOL     OW15517   0.198   5.626   5.428
 4873SOL    HW115518   0.236   5.627   5.520
 4873SOL    HW215519   0.139   5.706   5.416
 4874SOL     OW15520   5.331   3.720   3.248
 4874SOL    HW115521   5.273   3.763   3.317
 4874SOL    HW215522   5.274   3.670   3.183
 4875SOL     OW15523   6.104   2.561   0.028
 4875SOL    HW115524   6.056   2.527   6.971
 4875SOL    HW215525   6.037   2.584   0.099
 4876SOL     OW15526   0.397   1.478   6.585
 4876SOL    HW115527   0.382   1.443   6.677
 4876SOL    HW215528   0.485   1.446   6.551
 4877SOL     OW15529   6.215   1.496   1.405
 4877SOL    HW115530   6.245   1.587   1.377
 4877SOL    HW215531   6.291   1.447   1.449
 4878SOL     OW15532   0.100   1.848   1.304
 4878SOL    HW115533   0.030   1.874   1.238
 4878SOL    HW215534   0.064   1.779   1.367
 4879SOL     OW15535   4.453   5.203   3.421
 4879SOL    HW115536   4.414   5.256   3.347
 4879SOL    HW215537   4.536   5.157   3.389
 4880SOL     OW15538   5.490   2.060   6.030
 4880SOL    HW115539   5.468   2.053   5.933
 4880SOL    HW215540   5.439   2.137   6.070
 4881SOL     OW15541   3.595   6.273   6.302
 4881SOL    HW115542   3.656   6.343   6.341
 4881SOL    HW215543   3.641   6.185   6.301
 4882SOL     OW15544   5.827   0.739   5.599
 4882SOL    HW115545   5.732   0.708   5.595
 4882SOL    HW215546   5.829   0.839   5.606
 4883SOL     OW15547   7.020   5.688   1.224
 4883SOL    HW115548   0.051   5.665   1.143
 4883SOL    HW215549   6.923   5.674   1.204
 4884SOL     OW15550   3.470   6.571   1.354
 4884SOL    HW115551   3.566   6.541   1.355
 4884SOL    HW215552   3.415   6.506   1.405
 4885SOL     OW15553   2.018   0.054   2.091
 4885SOL    HW115554   1.987   0.144   2.060
 4885SOL    HW215555   2.070   0.009   2.018
 4886SOL     OW15556   6.233   0.843   6.529
 4886SOL    HW115557   6.317   0.886   6.560
 4886SOL    HW215558   6.241   0.744   6.539
 4887SOL     OW15559   0.409   2.048   4.353
 4887SOL    HW115560   0.370   1.994   4.427
 4887SOL    HW215561   0.458   2.127   4.391
 4888SOL     OW15562   2.917   5.272   2.883
 4888SOL    HW115563   2.827   5.273   2.839
 4888SOL    HW215564   2.939   5.178   2.911
 4889SOL     OW15565   1.451   2.053   0.206
 4889SOL    HW115566   1.457   2.143   0.163
 4889SOL    HW215567   1.486   2.058   0.299
 4890SOL     OW15568   1.281   0.636   4.661
 4890SOL    HW115569   1.299   0.679   4.750
 4890SOL    HW215570   1.190   0.596   4.661
 4891SOL     OW15571   1.130   4.437   0.276
 4891SOL    HW115572   1.083   4.451   0.363
 4891SOL    HW215573   1.207   4.500   0.269
 4892SOL     OW15574   0.825   5.426   1.460
 4892SOL    HW115575   0.921   5.415   1.485
 4892SOL    HW215576   0.818   5.460   1.367
 4893SOL     OW15577   0.311   3.683   6.447
 4893SOL    HW115578   0.410   3.671   6.450
 4893SOL    HW215579   0.287   3.742   6.370
 4894SOL     OW15580   2.662   0.679   3.247
 4894SOL    HW115581   2.588   0.617   3.272
 4894SOL    HW215582   2.625   0.770   3.228
 4895SOL     OW15583   0.524   3.560   0.177
 4895SOL    HW115584   0.534   3.509   0.262
 4895SOL    HW215585   0.615   3.585   0.143
 4896SOL     OW15586   3.974   5.410   4.303
 4896SOL    HW115587   3.935   5.502   4.292
 4896SOL    HW215588   3.916   5.343   4.257
 4897SOL     OW15589   3.171   5.550   6.212
 4897SOL    HW115590   3.200   5.457   6.235
 4897SOL    HW215591   3.182   5.564   6.113
 4898SOL     OW15592   5.787   2.311   5.335
 4898SOL    HW115593   5.879   2.319   5.375
 4898SOL    HW215594   5.722   2.287   5.407
 4899SOL     OW15595   5.592   4.100   4.054
 4899SOL    HW115596   5.563   4.080   3.960
 4899SOL    HW215597   5.684   4.141   4.052
 4900SOL     OW15598   0.789   6.748   5.392
 4900SOL    HW115599   0.793   6.815   5.466
 4900SOL    HW215600   0.805   6.794   5.304
 4901SOL     OW15601   1.331   6.574   3.993
 4901SOL    HW115602   1.277   6.555   3.911
 4901SOL    HW215603   1.379   6.661   3.981
 4902SOL     OW15604   2.907   4.830   1.948
 4902SOL    HW115605   2.861   4.741   1.956
 4902SOL    HW215606   2.887   4.885   2.029
 4903SOL     OW15607   4.834   7.012   6.621
 4903SOL    HW115608   4.850   0.027   6.529
 4903SOL    HW215609   4.916   6.964   6.652
 4904SOL     OW15610   3.173   5.763   3.730
 4904SOL    HW115611   3.247   5.703   3.761
 4904SOL    HW215612   3.212   5.850   3.698
 4905SOL     OW15613   5.935   3.414   2.110
 4905SOL    HW115614   5.930   3.506   2.149
 4905SOL    HW215615   5.883   3.412   2.024
 4906SOL     OW15616   5.591   0.612   0.612
 4906SOL    HW115617   5.563   0.572   0.699
 4906SOL    HW215618   5.510   0.634   0.558
 4907SOL     OW15619   3.373   1.029   2.489
 4907SOL    HW115620   3.304   1.072   2.431
 4907SOL    HW215621   3.405   1.095   2.557
 4908SOL     OW15622   2.872   5.946   6.967
 4908SOL    HW115623   2.785   5.940   6.920
 4908SOL    HW215624   2.857   5.974   0.039
 4909SOL     OW15625   7.010   7.003   5.538
 4909SOL    HW115626   6.915   6.974   5.524
 4909SOL    HW215627   0.029   6.944   5.606
 4910SOL     OW15628   5.969   6.897   4.997
 4910SOL    HW115629   5.965   6.799   5.016
 4910SOL    HW215630   5.878   6.938   5.012
 4911SOL     OW15631   6.498   2.833   6.160
 4911SOL    HW115632   6.592   2.824   6.127
 4911SOL    HW215633   6.439   2.768   6.113
 4912SOL     OW15634   2.459   2.155   2.024
 4912SOL    HW115635   2.420   2.211   2.097
 4912SOL    HW215636   2.524   2.210   1.972
 4913SOL     OW15637   2.925   3.612   2.893
 4913SOL    HW115638   3.024   3.611   2.902
 4913SOL    HW215639   2.895   3.700   2.855
 4914SOL     OW15640   1.872   6.626   3.508
 4914SOL    HW115641   1.898   6.530   3.495
 4914SOL    HW215642   1.941   6.672   3.563
 4915SOL     OW15643   3.217   5.612   3.381
 4915SOL    HW115644   3.180   5.704   3.391
 4915SOL    HW215645   3.189   5.573   3.294
 4916SOL     OW15646   3.047   1.028   2.454
 4916SOL    HW115647   3.062   1.122   2.486
 4916SOL    HW215648   2.950   1.007   2.457
 4917SOL     OW15649   2.001   4.929   0.775
 4917SOL    HW115650   2.064   4.997   0.812
 4917SOL    HW215651   1.912   4.938   0.821
 4918SOL     OW15652   2.406   0.511   1.923
 4918SOL    HW115653   2.467   0.550   1.855
 4918SOL    HW215654   2.344   0.583   1.958
 4919SOL     OW15655   2.661   2.318   1.963
 4919SOL    HW115656   2.610   2.404   1.971
 4919SOL    HW215657   2.759   2.339   1.952
 4920SOL     OW15658   4.431   0.590   0.012
 4920SOL    HW115659   4.388   0.504   7.010
 4920SOL    HW215660   4.396   0.664   6.978
 4921SOL     OW15661   1.468   4.915   1.713
 4921SOL    HW115662   1.485   4.961   1.626
 4921SOL    HW215663   1.472   4.816   1.700
 4922SOL     OW15664   1.601   2.552   5.783
 4922SOL    HW115665   1.623   2.515   5.692
 4922SOL    HW215666   1.628   2.485   5.853
 4923SOL     OW15667   4.326   1.214   0.758
 4923SOL    HW115668   4.331   1.167   0.845
 4923SOL    HW215669   4.303   1.310   0.773
 4924SOL     OW15670   0.348   3.673   4.771
 4924SOL    HW115671   0.372   3.767   4.793
 4924SOL    HW215672   0.385   3.612   4.841
 4925SOL     OW15673   4.140   6.166   6.964
 4925SOL    HW115674   4.127   6.106   6.885
 4925SOL    HW215675   4.126   6.261   6.936
 4926SOL     OW15676   4.796   2.449   1.882
 4926SOL    HW115677   4.851   2.427   1.963
 4926SOL    HW215678   4.837   2.527   1.835
 4927SOL     OW15679   3.583   3.154   3.381
 4927SOL    HW115680   3.638   3.073   3.400
 4927SOL    HW215681   3.571   3.163   3.282
 4928SOL     OW15682   0.417   6.115   0.230
 4928SOL    HW115683   0.439   6.211   0.218
 4928SOL    HW215684   0.318   6.102   0.223
 4929SOL     OW15685   0.887   5.159   4.247
 4929SOL    HW115686   0.823   5.226   4.211
 4929SOL    HW215687   0.934   5.113   4.172
 4930SOL     OW15688   0.149   1.810   0.566
 4930SOL    HW115689   0.060   1.855   0.571
 4930SOL    HW215690   0.139   1.719   0.527
 4931SOL     OW15691   0.002   0.973   0.664
 4931SOL    HW115692   0.034   0.938   0.576
 4931SOL    HW215693   7.015   1.072   0.658
 4932SOL     OW15694   2.796   2.289   1.539
 4932SOL    HW115695   2.883   2.247   1.564
 4932SOL    HW215696   2.756   2.333   1.619
 4933SOL     OW15697   3.251   0.998   4.294
 4933SOL    HW115698   3.283   0.904   4.296
 4933SOL    HW215699   3.156   1.001   4.265
 4934SOL     OW15700   1.368   6.182   5.090
 4934SOL    HW115701   1.271   6.160   5.084
 4934SOL    HW215702   1.402   6.160   5.181
 4935SOL     OW15703   1.550   1.096   0.976
 4935SOL    HW115704   1.467   1.148   0.953
 4935SOL    HW215705   1.602   1.078   0.893
 4936SOL     OW15706   3.606   5.353   0.419
 4936SOL    HW115707   3.579   5.260   0.395
 4936SOL    HW215708   3.525   5.412   0.421
 4937SOL     OW15709   0.335   3.277   6.601
 4937SOL    HW115710   0.301   3.356   6.549
 4937SOL    HW215711   0.257   3.223   6.632
 4938SOL     OW15712   3.353   4.790   1.396
 4938SOL    HW115713   3.359   4.860   1.467
 4938SOL    HW215714   3.283   4.723   1.421
 4939SOL     OW15715   1.799   1.743   2.274
 4939SOL    HW115716   1.801   1.714   2.178
 4939SOL    HW215717   1.726   1.695   2.322
 4940SOL     OW15718   6.895   2.180   4.937
 4940SOL    HW115719   6.913   2.253   4.871
 4940SOL    HW215720   6.877   2.094   4.888
 4941SOL     OW15721   3.904   2.030   5.244
 4941SOL    HW115722   3.949   1.987   5.323
 4941SOL    HW215723   3.972   2.081   5.192
 4942SOL     OW15724   6.703   1.806   4.000
 4942SOL    HW115725   6.712   1.880   3.933
 4942SOL    HW215726   6.636   1.832   4.069
 4943SOL     OW15727   5.400   3.027   6.503
 4943SOL    HW115728   5.493   3.013   6.468
 4943SOL    HW215729   5.353   3.095   6.447
 4944SOL     OW15730   1.437   5.421   1.029
 4944SOL    HW115731   1.536   5.431   1.033
 4944SOL    HW215732   1.403   5.388   1.117
 4945SOL     OW15733   1.826   1.380   5.129
 4945SOL    HW115734   1.844   1.375   5.031
 4945SOL    HW215735   1.784   1.294   5.159
 4946SOL     OW15736   2.495   5.005   6.985
 4946SOL    HW115737   2.516   5.099   6.960
 4946SOL    HW215738   2.451   5.004   0.051
 4947SOL     OW15739   1.443   1.183   1.974
 4947SOL    HW115740   1.349   1.217   1.973
 4947SOL    HW215741   1.487   1.210   2.060
 4948SOL     OW15742   1.258   2.694   1.715
 4948SOL    HW115743   1.316   2.624   1.756
 4948SOL    HW215744   1.253   2.680   1.616
 4949SOL     OW15745   6.777   3.818   6.912
 4949SOL    HW115746   6.818   3.857   6.995
 4949SOL    HW215747   6.678   3.832   6.915
 4950SOL     OW15748   2.413   3.876   5.431
 4950SOL    HW115749   2.481   3.915   5.493
 4950SOL    HW215750   2.439   3.893   5.337
 4951SOL     OW15751   4.841   5.496   3.629
 4951SOL    HW115752   4.925   5.506   3.682
 4951SOL    HW215753   4.852   5.541   3.541
 4952SOL     OW15754   0.469   6.377   5.842
 4952SOL    HW115755   0.490   6.422   5.755
 4952SOL    HW215756   0.398   6.308   5.828
 4953SOL     OW15757   0.749   2.157   5.042
 4953SOL    HW115758   0.688   2.192   5.113
 4953SOL    HW215759   0.749   2.220   4.964
 4954SOL     OW15760   3.452   4.110   5.305
 4954SOL    HW115761   3.376   4.163   5.342
 4954SOL    HW215762   3.474   4.143   5.213
 4955SOL     OW15763   3.408   5.179   6.611
 4955SOL    HW115764   3.309   5.178   6.595
 4955SOL    HW215765   3.449   5.252   6.558
 4956SOL     OW15766   2.728   0.289   4.792
 4956SOL    HW115767   2.786   0.323   4.865
 4956SOL    HW215768   2.681   0.205   4.823
 4957SOL     OW15769   5.922   4.385   0.029
 4957SOL    HW115770   5.998   4.442   7.021
 4957SOL    HW215771   5.911   4.307   6.991
 4958SOL     OW15772   3.412   6.047   0.235
 4958SOL    HW115773   3.440   6.072   0.142
 4958SOL    HW215774   3.441   6.119   0.298
 4959SOL     OW15775   0.771   3.216   2.539
 4959SOL    HW115776   0.778   3.302   2.589
 4959SOL    HW215777   0.853   3.204   2.483
 4960SOL     OW15778   4.366   5.652   4.288
 4960SOL    HW115779   4.441   5.653   4.355
 4960SOL    HW215780   4.364   5.738   4.239
 4961SOL     OW15781   4.433   1.135   6.957
 4961SOL    HW115782   4.504   1.064   6.957
 4961SOL    HW215783   4.470   1.217   6.913
 4962SOL     OW15784   1.173   4.443   1.138
 4962SOL    HW115785   1.098   4.402   1.189
 4962SOL    HW215786   1.168   4.414   1.042
 4963SOL     OW15787   1.028   4.128   6.382
 4963SOL    HW115788   1.045   4.110   6.478
 4963SOL    HW215789   1.062   4.219   6.358
 4964SOL     OW15790   3.276   7.019   4.682
 4964SOL    HW115791   3.235   7.004   4.772
 4964SOL    HW215792   3.374   0.013   4.692
 4965SOL     OW15793   1.860   6.087   2.934
 4965SOL    HW115794   1.777   6.113   2.884
 4965SOL    HW215795   1.931   6.156   2.921
 4966SOL     OW15796   3.310   6.638   4.224
 4966SOL    HW115797   3.253   6.570   4.270
 4966SOL    HW215798   3.351   6.699   4.292
 4967SOL     OW15799   4.260   4.802   4.851
 4967SOL    HW115800   4.325   4.859   4.801
 4967SOL    HW215801   4.305   4.720   4.885
 4968SOL     OW15802   6.312   2.347   2.995
 4968SOL    HW115803   6.320   2.398   2.909
 4968SOL    HW215804   6.218   2.350   3.028
 4969SOL     OW15805   0.763   6.396   3.191
 4969SOL    HW115806   0.787   6.471   3.253
 4969SOL    HW215807   0.757   6.311   3.242
 4970SOL     OW15808   0.456   1.634   1.630
 4970SOL    HW115809   0.445   1.723   1.674
 4970SOL    HW215810   0.430   1.642   1.533
 4971SOL     OW15811   6.728   6.114   3.159
 4971SOL    HW115812   6.720   6.020   3.125
 4971SOL    HW215813   6.812   6.156   3.123
 4972SOL     OW15814   1.522   4.761   1.307
 4972SOL    HW115815   1.503   4.669   1.343
 4972SOL    HW215816   1.620   4.771   1.291
 4973SOL     OW15817   6.778   0.691   1.034
 4973SOL    HW115818   6.742   0.747   1.109
 4973SOL    HW215819   6.812   0.605   1.070
 4974SOL     OW15820   3.414   5.495   5.141
 4974SOL    HW115821   3.401   5.575   5.200
 4974SOL    HW215822   3.511   5.487   5.118
 4975SOL     OW15823   5.792   4.128   0.637
 4975SOL    HW115824   5.712   4.184   0.614
 4975SOL    HW215825   5.787   4.102   0.733
 4976SOL     OW15826   1.903   6.866   4.164
 4976SOL    HW115827   1.932   6.860   4.260
 4976SOL    HW215828   1.983   6.881   4.106
 4977SOL     OW15829   2.006   4.732   6.322
 4977SOL    HW115830   2.023   4.712   6.226
 4977SOL    HW215831   2.037   4.824   6.344
 4978SOL     OW15832   5.159   4.793   4.415
 4978SOL    HW115833   5.248   4.825   4.447
 4978SOL    HW215834   5.130   4.715   4.470
 4979SOL     OW15835   2.537   6.974   6.157
 4979SOL    HW115836   2.485   0.025   6.115
 4979SOL    HW215837   2.518   6.889   6.109
 4980SOL     OW15838   5.594   3.723   3.197
 4980SOL    HW115839   5.626   3.629   3.204
 4980SOL    HW215840   5.496   3.727   3.219
 4981SOL     OW15841   3.581   4.994   1.830
 4981SOL    HW115842   3.636   4.957   1.755
 4981SOL    HW215843   3.578   4.927   1.905
 4982SOL     OW15844   4.196   1.447   6.595
 4982SOL    HW115845   4.146   1.384   6.654
 4982SOL    HW215846   4.132   1.502   6.542
 4983SOL     OW15847   6.319   5.348   2.952
 4983SOL    HW115848   6.339   5.316   3.044
 4983SOL    HW215849   6.377   5.300   2.886
 4984SOL     OW15850   5.285   4.751   3.025
 4984SOL    HW115851   5.371   4.702   3.028
 4984SOL    HW215852   5.287   4.826   3.091
 4985SOL     OW15853   5.646   6.486   2.536
 4985SOL    HW115854   5.656   6.585   2.527
 4985SOL    HW215855   5.677   6.457   2.627
 4986SOL     OW15856   0.478   4.726   2.537
 4986SOL    HW115857   0.470   4.781   2.455
 4986SOL    HW215858   0.435   4.637   2.522
 4987SOL     OW15859   0.685   0.904   2.325
 4987SOL    HW115860   0.760   0.855   2.369
 4987SOL    HW215861   0.635   0.957   2.394
 4988SOL     OW15862   5.926   0.047   3.695
 4988SOL    HW115863   5.902   0.143   3.681
 4988SOL    HW215864   6.017   0.041   3.738
 4989SOL     OW15865   4.389   0.618   2.687
 4989SOL    HW115866   4.343   0.686   2.630
 4989SOL    HW215867   4.479   0.598   2.650
 4990SOL     OW15868   4.822   2.099   5.585
 4990SOL    HW115869   4.777   2.188   5.587
 4990SOL    HW215870   4.754   2.027   5.597
 4991SOL     OW15871   1.236   5.397   4.661
 4991SOL    HW115872   1.168   5.460   4.622
 4991SOL    HW215873   1.191   5.338   4.728
 4992SOL     OW15874   0.363   1.861   3.460
 4992SOL    HW115875   0.293   1.859   3.389
 4992SOL    HW215876   0.320   1.849   3.550
 4993SOL     OW15877   3.869   6.166   4.383
 4993SOL    HW115878   3.871   6.099   4.457
 4993SOL    HW215879   3.820   6.248   4.413
 4994SOL     OW15880   2.930   4.829   5.553
 4994SOL    HW115881   2.852   4.854   5.610
 4994SOL    HW215882   2.901   4.765   5.482
 4995SOL     OW15883   0.651   0.454   5.585
 4995SOL    HW115884   0.706   0.377   5.555
 4995SOL    HW215885   0.591   0.426   5.660
 4996SOL     OW15886   0.154   1.065   4.718
 4996SOL    HW115887   0.141   0.971   4.749
 4996SOL    HW215888   0.067   1.100   4.682
 4997SOL     OW15889   3.833   2.193   1.096
 4997SOL    HW115890   3.844   2.094   1.084
 4997SOL    HW215891   3.856   2.217   1.191
 4998SOL     OW15892   0.948   3.491   4.083
 4998SOL    HW115893   0.901   3.452   4.004
 4998SOL    HW215894   0.967   3.418   4.150
 4999SOL     OW15895   0.376   3.859   4.456
 4999SOL    HW115896   0.470   3.839   4.483
 4999SOL    HW215897   0.332   3.916   4.526
 5000SOL     OW15898   2.713   5.275   3.510
 5000SOL    HW115899   2.672   5.329   3.584
 5000SOL    HW215900   2.726   5.334   3.430
 5001SOL     OW15901   0.887   5.241   2.558
 5001SOL    HW115902   0.916   5.154   2.518
 5001SOL    HW215903   0.931   5.253   2.647
 5002SOL     OW15904   0.846   3.235   3.312
 5002SOL    HW115905   0.899   3.304   3.360
 5002SOL    HW215906   0.762   3.217   3.363
 5003SOL     OW15907   4.113   6.753   4.130
 5003SOL    HW115908   4.196   6.806   4.148
 5003SOL    HW215909   4.085   6.704   4.212
 5004SOL     OW15910   2.365   6.250   6.647
 5004SOL    HW115911   2.344   6.313   6.572
 5004SOL    HW215912   2.297   6.259   6.719
 5005SOL     OW15913   2.657   2.864   6.755
 5005SOL    HW115914   2.662   2.770   6.720
 5005SOL    HW215915   2.637   2.862   6.853
 5006SOL     OW15916   5.528   1.815   2.041
 5006SOL    HW115917   5.568   1.724   2.029
 5006SOL    HW215918   5.449   1.824   1.981
 5007SOL     OW15919   6.074   6.845   1.719
 5007SOL    HW115920   6.012   6.767   1.733
 5007SOL    HW215921   6.114   6.872   1.807
 5008SOL     OW15922   5.424   6.764   2.159
 5008SOL    HW115923   5.460   6.673   2.182
 5008SOL    HW215924   5.354   6.755   2.088
 5009SOL     OW15925   0.475   2.245   0.539
 5009SOL    HW115926   0.384   2.277   0.513
 5009SOL    HW215927   0.468   2.182   0.616
 5010SOL     OW15928   3.839   3.647   0.174
 5010SOL    HW115929   3.753   3.604   0.150
 5010SOL    HW215930   3.829   3.747   0.170
 5011SOL     OW15931   2.188   3.868   6.775
 5011SOL    HW115932   2.226   3.794   6.720
 5011SOL    HW215933   2.172   3.948   6.718
 5012SOL     OW15934   6.202   1.487   5.510
 5012SOL    HW115935   6.125   1.516   5.567
 5012SOL    HW215936   6.256   1.567   5.485
 5013SOL     OW15937   6.060   0.196   5.779
 5013SOL    HW115938   6.006   0.113   5.792
 5013SOL    HW215939   6.008   0.275   5.812
 5014SOL     OW15940   6.830   3.502   1.579
 5014SOL    HW115941   6.854   3.565   1.653
 5014SOL    HW215942   6.909   3.444   1.559
 5015SOL     OW15943   5.852   6.767   4.019
 5015SOL    HW115944   5.848   6.862   4.050
 5015SOL    HW215945   5.841   6.764   3.920
 5016SOL     OW15946   1.462   3.543   5.139
 5016SOL    HW115947   1.388   3.588   5.188
 5016SOL    HW215948   1.542   3.604   5.135
 5017SOL     OW15949   0.589   2.270   1.746
 5017SOL    HW115950   0.676   2.240   1.787
 5017SOL    HW215951   0.593   2.257   1.647
 5018SOL     OW15952   0.805   6.364   1.641
 5018SOL    HW115953   0.836   6.368   1.546
 5018SOL    HW215954   0.884   6.355   1.702
 5019SOL     OW15955   1.532   5.418   4.897
 5019SOL    HW115956   1.631   5.426   4.910
 5019SOL    HW215957   1.494   5.506   4.869
 5020SOL     OW15958   1.343   0.026   4.704
 5020SOL    HW115959   1.296   0.079   4.634
 5020SOL    HW215960   1.307   6.956   4.705
 5021SOL     OW15961   1.852   1.143   1.355
 5021SOL    HW115962   1.768   1.151   1.302
 5021SOL    HW215963   1.882   1.234   1.383
 5022SOL     OW15964   0.633   3.285   1.598
 5022SOL    HW115965   0.684   3.363   1.559
 5022SOL    HW215966   0.672   3.200   1.564
 5023SOL     OW15967   0.132   4.481   2.735
 5023SOL    HW115968   0.164   4.423   2.660
 5023SOL    HW215969   0.162   4.444   2.822
 5024SOL     OW15970   4.598   3.775   1.310
 5024SOL    HW115971   4.551   3.862   1.326
 5024SOL    HW215972   4.697   3.788   1.321
 5025SOL     OW15973   4.255   1.093   3.340
 5025SOL    HW115974   4.310   1.166   3.301
 5025SOL    HW215975   4.265   1.094   3.440
 5026SOL     OW15976   5.390   6.402   5.345
 5026SOL    HW115977   5.448   6.448   5.278
 5026SOL    HW215978   5.429   6.313   5.369
 5027SOL     OW15979   5.117   0.516   6.722
 5027SOL    HW115980   5.053   0.455   6.769
 5027SOL    HW215981   5.070   0.563   6.648
 5028SOL     OW15982   0.540   2.226   2.887
 5028SOL    HW115983   0.631   2.253   2.857
 5028SOL    HW215984   0.509   2.287   2.960
 5029SOL     OW15985   6.278   1.862   2.420
 5029SOL    HW115986   6.311   1.955   2.434
 5029SOL    HW215987   6.179   1.863   2.404
 5030SOL     OW15988   6.959   4.889   0.141
 5030SOL    HW115989   6.900   4.956   0.187
 5030SOL    HW215990   6.917   4.862   0.055
 5031SOL     OW15991   0.191   0.647   5.824
 5031SOL    HW115992   0.118   0.689   5.878
 5031SOL    HW215993   0.167   0.552   5.806
 5032SOL     OW15994   3.230   3.189   5.626
 5032SOL    HW115995   3.174   3.256   5.577
 5032SOL    HW215996   3.170   3.128   5.677
 5033SOL     OW15997   2.255   1.302   0.207
 5033SOL    HW115998   2.230   1.230   0.142
 5033SOL    HW215999   2.351   1.326   0.194
 5034SOL     OW16000   4.511   6.269   4.222
 5034SOL    HW116001   4.473   6.191   4.172
 5034SOL    HW216002   4.603   6.288   4.189
 5035SOL     OW16003   1.003   5.056   4.479
 5035SOL    HW116004   0.948   5.059   4.563
 5035SOL    HW216005   0.953   5.099   4.404
 5036SOL     OW16006   6.918   3.095   4.964
 5036SOL    HW116007   6.857   3.044   4.903
 5036SOL    HW216008   6.865   3.164   5.013
 5037SOL     OW16009   4.302   4.033   0.993
 5037SOL    HW116010   4.329   4.128   1.011
 5037SOL    HW216011   4.281   4.023   0.896
 5038SOL     OW16012   3.142   3.346   4.044
 5038SOL    HW116013   3.064   3.376   3.989
 5038SOL    HW216014   3.219   3.407   4.029
 5039SOL     OW16015   1.103   3.211   0.034
 5039SOL    HW116016   1.006   3.187   0.044
 5039SOL    HW216017   1.127   3.210   6.961
 5040SOL     OW16018   1.309   5.535   6.219
 5040SOL    HW116019   1.396   5.492   6.197
 5040SOL    HW216020   1.235   5.468   6.211
 5041SOL     OW16021   0.202   3.054   2.060
 5041SOL    HW116022   0.113   3.101   2.060
 5041SOL    HW216023   0.230   3.036   2.155
 5042SOL     OW16024   0.112   3.530   6.146
 5042SOL    HW116025   0.019   3.514   6.114
 5042SOL    HW216026   0.172   3.544   6.067
 5043SOL     OW16027   3.933   0.797   0.653
 5043SOL    HW116028   3.938   0.741   0.570
 5043SOL    HW216029   4.007   0.864   0.653
 5044SOL     OW16030   6.542   5.287   0.506
 5044SOL    HW116031   6.460   5.238   0.475
 5044SOL    HW216032   6.524   5.327   0.596
 5045SOL     OW16033   5.992   3.675   6.041
 5045SOL    HW116034   6.030   3.757   5.999
 5045SOL    HW216035   6.039   3.657   6.128
 5046SOL     OW16036   3.261   3.215   3.738
 5046SOL    HW116037   3.259   3.214   3.638
 5046SOL    HW216038   3.279   3.124   3.773
 5047SOL     OW16039   1.929   3.581   3.254
 5047SOL    HW116040   1.900   3.621   3.168
 5047SOL    HW216041   2.007   3.520   3.238
 5048SOL     OW16042   1.067   0.963   5.902
 5048SOL    HW116043   1.028   0.872   5.887
 5048SOL    HW216044   1.011   1.031   5.856
 5049SOL     OW16045   6.006   0.685   6.084
 5049SOL    HW116046   6.041   0.756   6.146
 5049SOL    HW216047   6.015   0.596   6.128
 5050SOL     OW16048   1.959   1.145   0.548
 5050SOL    HW116049   1.974   1.243   0.557
 5050SOL    HW216050   2.047   1.099   0.538
 5051SOL     OW16051   3.652   4.775   1.413
 5051SOL    HW116052   3.553   4.785   1.403
 5051SOL    HW216053   3.675   4.765   1.509
 5052SOL     OW16054   3.698   1.487   5.163
 5052SOL    HW116055   3.670   1.532   5.078
 5052SOL    HW216056   3.761   1.547   5.213
 5053SOL     OW16057   0.891   6.172   2.439
 5053SOL    HW116058   0.945   6.088   2.439
 5053SOL    HW216059   0.843   6.181   2.351
 5054SOL     OW16060   4.257   4.708   4.363
 5054SOL    HW116061   4.286   4.616   4.389
 5054SOL    HW216062   4.169   4.728   4.406
 5055SOL     OW16063   6.381   2.987   6.545
 5055SOL    HW116064   6.387   2.914   6.614
 5055SOL    HW216065   6.334   3.066   6.585
 5056SOL     OW16066   5.104   3.724   4.983
 5056SOL    HW116067   5.033   3.774   4.933
 5056SOL    HW216068   5.074   3.709   5.077
 5057SOL     OW16069   1.135   6.694   2.990
 5057SOL    HW116070   1.100   6.644   2.911
 5057SOL    HW216071   1.095   6.655   3.073
 5058SOL     OW16072   2.971   4.699   6.485
 5058SOL    HW116073   3.031   4.626   6.453
 5058SOL    HW216074   2.877   4.665   6.490
 5059SOL     OW16075   0.517   0.281   3.011
 5059SOL    HW116076   0.533   0.218   3.087
 5059SOL    HW216077   0.423   0.270   2.977
 5060SOL     OW16078   6.038   1.791   6.179
 5060SOL    HW116079   6.095   1.782   6.097
 5060SOL    HW216080   5.953   1.739   6.167
 5061SOL     OW16081   4.735   3.263   0.002
 5061SOL    HW116082   4.833   3.250   7.016
 5061SOL    HW216083   4.709   3.259   0.098
 5062SOL     OW16084   0.441   0.086   1.274
 5062SOL    HW116085   0.394   0.173   1.289
 5062SOL    HW216086   0.484   0.057   1.360
 5063SOL     OW16087   0.990   6.968   2.276
 5063SOL    HW116088   0.952   0.037   2.274
 5063SOL    HW216089   1.084   6.970   2.242
 5064SOL     OW16090   4.587   3.499   0.087
 5064SOL    HW116091   4.662   3.437   0.063
 5064SOL    HW216092   4.623   3.579   0.135
 5065SOL     OW16093   3.005   6.639   5.480
 5065SOL    HW116094   2.937   6.597   5.419
 5065SOL    HW216095   3.050   6.714   5.432
 5066SOL     OW16096   6.179   4.662   1.311
 5066SOL    HW116097   6.126   4.726   1.254
 5066SOL    HW216098   6.183   4.573   1.266
 5067SOL     OW16099   5.038   0.814   0.338
 5067SOL    HW116100   5.063   0.759   0.258
 5067SOL    HW216101   5.071   0.770   0.421
 5068SOL     OW16102   2.830   4.979   0.064
 5068SOL    HW116103   2.738   4.943   0.078
 5068SOL    HW216104   2.823   5.074   0.034
 5069SOL     OW16105   0.597   4.118   2.521
 5069SOL    HW116106   0.617   4.042   2.583
 5069SOL    HW216107   0.580   4.201   2.573
 5070SOL     OW16108   4.837   3.116   3.806
 5070SOL    HW116109   4.757   3.094   3.863
 5070SOL    HW216110   4.862   3.036   3.751
 5071SOL     OW16111   4.703   2.266   6.134
 5071SOL    HW116112   4.794   2.225   6.129
 5071SOL    HW216113   4.653   2.249   6.049
 5072SOL     OW16114   0.425   4.179   1.389
 5072SOL    HW116115   0.441   4.166   1.292
 5072SOL    HW216116   0.394   4.273   1.406
 5073SOL     OW16117   5.477   0.562   2.620
 5073SOL    HW116118   5.526   0.522   2.697
 5073SOL    HW216119   5.386   0.589   2.649
 5074SOL     OW16120   2.604   4.035   6.503
 5074SOL    HW116121   2.590   3.936   6.501
 5074SOL    HW216122   2.525   4.081   6.461
 5075SOL     OW16123   6.978   5.767   4.974
 5075SOL    HW116124   6.994   5.687   4.917
 5075SOL    HW216125   0.033   5.782   5.033
 5076SOL     OW16126   3.677   0.839   0.615
 5076SOL    HW116127   3.650   0.923   0.663
 5076SOL    HW216128   3.776   0.827   0.622
 5077SOL     OW16129   0.802   2.472   3.603
 5077SOL    HW116130   0.804   2.381   3.644
 5077SOL    HW216131   0.714   2.515   3.620
 5078SOL     OW16132   1.796   2.140   4.346
 5078SOL    HW116133   1.737   2.195   4.286
 5078SOL    HW216134   1.880   2.117   4.297
 5079SOL     OW16135   3.500   4.976   5.630
 5079SOL    HW116136   3.500   4.877   5.617
 5079SOL    HW216137   3.413   5.014   5.597
 5080SOL     OW16138   5.652   6.932   5.752
 5080SOL    HW116139   5.723   6.862   5.747
 5080SOL    HW216140   5.647   6.981   5.665
 5081SOL     OW16141   3.312   3.544   3.466
 5081SOL    HW116142   3.325   3.445   3.468
 5081SOL    HW216143   3.390   3.588   3.511
 5082SOL     OW16144   5.172   5.866   5.485
 5082SOL    HW116145   5.113   5.830   5.412
 5082SOL    HW216146   5.127   5.944   5.528
 5083SOL     OW16147   1.602   6.576   1.897
 5083SOL    HW116148   1.582   6.499   1.837
 5083SOL    HW216149   1.594   6.548   1.993
 5084SOL     OW16150   1.524   5.742   3.926
 5084SOL    HW116151   1.537   5.821   3.985
 5084SOL    HW216152   1.461   5.766   3.852
 5085SOL     OW16153   5.619   1.787   6.690
 5085SOL    HW116154   5.624   1.861   6.757
 5085SOL    HW216155   5.678   1.809   6.612
 5086SOL     OW16156   6.540   5.069   3.625
 5086SOL    HW116157   6.482   4.989   3.613
 5086SOL    HW216158   6.544   5.094   3.722
 5087SOL     OW16159   6.858   5.433   5.436
 5087SOL    HW116160   6.833   5.529   5.427
 5087SOL    HW216161   6.929   5.410   5.369
 5088SOL     OW16162   5.762   0.637   5.964
 5088SOL    HW116163   5.859   0.656   5.983
 5088SOL    HW216164   5.720   0.718   5.923
 5089SOL     OW16165   5.760   3.830   2.992
 5089SOL    HW116166   5.705   3.803   3.070
 5089SOL    HW216167   5.702   3.870   2.921
 5090SOL     OW16168   2.019   5.624   1.416
 5090SOL    HW116169   1.988   5.657   1.505
 5090SOL    HW216170   2.103   5.572   1.428
 5091SOL     OW16171   1.086   6.241   2.816
 5091SOL    HW116172   1.103   6.167   2.752
 5091SOL    HW216173   1.119   6.215   2.907
 5092SOL     OW16174   4.125   2.247   1.199
 5092SOL    HW116175   4.124   2.211   1.292
 5092SOL    HW216176   4.133   2.172   1.133
 5093SOL     OW16177   1.298   1.927   2.224
 5093SOL    HW116178   1.379   1.894   2.272
 5093SOL    HW216179   1.217   1.911   2.281
 5094SOL     OW16180   0.543   6.191   4.826
 5094SOL    HW116181   0.474   6.261   4.812
 5094SOL    HW216182   0.631   6.234   4.849
 5095SOL     OW16183   3.019   0.500   5.071
 5095SOL    HW116184   2.980   0.590   5.094
 5095SOL    HW216185   3.053   0.501   4.977
 5096SOL     OW16186   4.749   3.764   0.671
 5096SOL    HW116187   4.672   3.722   0.623
 5096SOL    HW216188   4.776   3.706   0.748
 5097SOL     OW16189   1.550   6.128   5.832
 5097SOL    HW116190   1.454   6.141   5.858
 5097SOL    HW216191   1.598   6.080   5.904
 5098SOL     OW16192   0.193   1.670   3.052
 5098SOL    HW116193   0.139   1.589   3.073
 5098SOL    HW216194   0.288   1.644   3.034
 5099SOL     OW16195   1.663   0.443   5.586
 5099SOL    HW116196   1.607   0.506   5.640
 5099SOL    HW216197   1.754   0.481   5.574
 5100SOL     OW16198   5.898   6.409   0.142
 5100SOL    HW116199   5.804   6.390   0.171
 5100SOL    HW216200   5.946   6.323   0.126
 5101SOL     OW16201   4.131   6.358   0.209
 5101SOL    HW116202   4.109   6.397   0.298
 5101SOL    HW216203   4.046   6.327   0.165
 5102SOL     OW16204   4.067   6.021   5.185
 5102SOL    HW116205   4.116   6.102   5.218
 5102SOL    HW216206   4.079   6.013   5.086
 5103SOL     OW16207   0.109   0.160   3.959
 5103SOL    HW116208   0.170   0.081   3.951
 5103SOL    HW216209   0.069   0.163   4.051
 5104SOL     OW16210   1.107   0.498   1.496
 5104SOL    HW116211   1.051   0.501   1.579
 5104SOL    HW216212   1.173   0.423   1.504
 5105SOL     OW16213   3.319   4.089   6.367
 5105SOL    HW116214   3.324   4.168   6.428
 5105SOL    HW216215   3.224   4.062   6.356
 5106SOL     OW16216   3.632   0.524   2.181
 5106SOL    HW116217   3.692   0.464   2.128
 5106SOL    HW216218   3.625   0.491   2.275
 5107SOL     OW16219   2.419   6.933   5.904
 5107SOL    HW116220   2.326   6.953   5.935
 5107SOL    HW216221   2.417   6.907   5.807
 5108SOL     OW16222   3.219   3.778   4.466
 5108SOL    HW116223   3.187   3.722   4.390
 5108SOL    HW216224   3.190   3.873   4.453
 5109SOL     OW16225   0.064   1.128   1.430
 5109SOL    HW116226   0.016   1.214   1.412
 5109SOL    HW216227   0.108   1.132   1.519
 5110SOL     OW16228   1.806   5.537   5.561
 5110SOL    HW116229   1.773   5.445   5.540
 5110SOL    HW216230   1.822   5.544   5.660
 5111SOL     OW16231   1.775   1.283   0.343
 5111SOL    HW116232   1.813   1.213   0.403
 5111SOL    HW216233   1.791   1.257   0.247
 5112SOL     OW16234   0.455   6.116   3.912
 5112SOL    HW116235   0.521   6.149   3.845
 5112SOL    HW216236   0.487   6.031   3.952
 5113SOL     OW16237   1.498   0.475   0.075
 5113SOL    HW116238   1.411   0.428   0.090
 5113SOL    HW216239   1.490   0.570   0.104
 5114SOL     OW16240   3.643   5.021   6.716
 5114SOL    HW116241   3.676   4.987   6.628
 5114SOL    HW216242   3.568   5.085   6.701
 5115SOL     OW16243   1.460   3.348   5.349
 5115SOL    HW116244   1.456   3.427   5.288
 5115SOL    HW216245   1.533   3.286   5.319
 5116SOL     OW16246   6.377   4.377   0.446
 5116SOL    HW116247   6.442   4.376   0.370
 5116SOL    HW216248   6.403   4.448   0.511
 5117SOL     OW16249   2.317   4.565   4.670
 5117SOL    HW116250   2.222   4.591   4.680
 5117SOL    HW216251   2.357   4.546   4.759
 5118SOL     OW16252   4.336   6.246   0.534
 5118SOL    HW116253   4.372   6.165   0.580
 5118SOL    HW216254   4.351   6.326   0.593
 5119SOL     OW16255   5.775   0.199   2.089
 5119SOL    HW116256   5.733   0.118   2.129
 5119SOL    HW216257   5.865   0.213   2.129
 5120SOL     OW16258   5.036   1.876   2.556
 5120SOL    HW116259   5.115   1.815   2.545
 5120SOL    HW216260   4.976   1.841   2.627
 5121SOL     OW16261   0.178   3.269   5.278
 5121SOL    HW116262   0.143   3.213   5.353
 5121SOL    HW216263   0.163   3.366   5.300
 5122SOL     OW16264   2.371   6.752   3.598
 5122SOL    HW116265   2.399   6.766   3.503
 5122SOL    HW216266   2.446   6.710   3.649
 5123SOL     OW16267   5.115   4.977   1.857
 5123SOL    HW116268   5.111   4.890   1.807
 5123SOL    HW216269   5.210   5.007   1.864
 5124SOL     OW16270   2.858   6.398   6.664
 5124SOL    HW116271   2.821   6.373   6.575
 5124SOL    HW216272   2.792   6.457   6.711
 5125SOL     OW16273   0.164   2.606   4.395
 5125SOL    HW116274   0.183   2.519   4.349
 5125SOL    HW216275   0.238   2.670   4.375
 5126SOL     OW16276   5.798   4.093   6.499
 5126SOL    HW116277   5.700   4.116   6.501
 5126SOL    HW216278   5.820   4.034   6.577
 5127SOL     OW16279   5.816   3.121   6.703
 5127SOL    HW116280   5.734   3.158   6.659
 5127SOL    HW216281   5.883   3.194   6.714
 5128SOL     OW16282   0.176   0.732   6.790
 5128SOL    HW116283   0.169   0.634   6.813
 5128SOL    HW216284   0.220   0.742   6.701
 5129SOL     OW16285   4.366   2.094   2.440
 5129SOL    HW116286   4.407   2.172   2.489
 5129SOL    HW216287   4.374   2.012   2.496
 5130SOL     OW16288   0.852   6.082   3.871
 5130SOL    HW116289   0.920   6.056   3.939
 5130SOL    HW216290   0.789   6.006   3.855
 5131SOL     OW16291   2.994   4.941   3.627
 5131SOL    HW116292   3.013   4.855   3.580
 5131SOL    HW216293   3.008   4.929   3.725
 5132SOL     OW16294   3.468   1.539   6.744
 5132SOL    HW116295   3.468   1.556   6.843
 5132SOL    HW216296   3.560   1.549   6.709
 5133SOL     OW16297   4.471   4.657   6.219
 5133SOL    HW116298   4.389   4.706   6.249
 5133SOL    HW216299   4.551   4.702   6.259
 5134SOL     OW16300   6.785   5.969   1.109
 5134SOL    HW116301   6.871   6.002   1.147
 5134SOL    HW216302   6.744   5.902   1.170
 5135SOL     OW16303   6.741   3.019   2.192
 5135SOL    HW116304   6.708   3.103   2.236
 5135SOL    HW216305   6.666   2.952   2.189
 5136SOL     OW16306   0.778   0.495   6.262
 5136SOL    HW116307   0.826   0.409   6.279
 5136SOL    HW216308   0.837   0.572   6.288
 5137SOL     OW16309   5.439   1.029   4.578
 5137SOL    HW116310   5.539   1.026   4.586
 5137SOL    HW216311   5.410   0.973   4.500
 5138SOL     OW16312   3.259   2.924   3.500
 5138SOL    HW116313   3.223   2.952   3.412
 5138SOL    HW216314   3.185   2.890   3.558
 5139SOL     OW16315   2.316   0.174   4.908
 5139SOL    HW116316   2.327   0.216   4.818
 5139SOL    HW216317   2.312   0.245   4.978
 5140SOL     OW16318   4.339   2.396   6.573
 5140SOL    HW116319   4.338   2.298   6.595
 5140SOL    HW216320   4.285   2.412   6.491
 5141SOL     OW16321   6.610   2.798   1.741
 5141SOL    HW116322   6.669   2.871   1.707
 5141SOL    HW216323   6.625   2.787   1.840
 5142SOL     OW16324   0.053   0.175   2.771
 5142SOL    HW116325   0.016   0.092   2.814
 5142SOL    HW216326   0.152   0.177   2.783
 5143SOL     OW16327   0.288   5.901   3.038
 5143SOL    HW116328   0.358   5.965   3.006
 5143SOL    HW216329   0.321   5.854   3.120
 5144SOL     OW16330   2.461   2.795   5.588
 5144SOL    HW116331   2.515   2.839   5.516
 5144SOL    HW216332   2.486   2.699   5.594
 5145SOL     OW16333   2.503   6.124   0.094
 5145SOL    HW116334   2.510   6.157   7.023
 5145SOL    HW216335   2.411   6.140   0.129
 5146SOL     OW16336   5.033   4.873   6.204
 5146SOL    HW116337   5.104   4.810   6.235
 5146SOL    HW216338   4.962   4.822   6.156
 5147SOL     OW16339   4.642   2.711   3.575
 5147SOL    HW116340   4.696   2.759   3.644
 5147SOL    HW216341   4.629   2.616   3.602
 5148SOL     OW16342   0.861   0.239   0.110
 5148SOL    HW116343   0.895   0.327   0.141
 5148SOL    HW216344   0.780   0.213   0.162
 5149SOL     OW16345   5.085   5.176   3.669
 5149SOL    HW116346   5.101   5.131   3.757
 5149SOL    HW216347   4.991   5.209   3.665
 5150SOL     OW16348   0.172   6.052   3.963
 5150SOL    HW116349   0.139   5.959   3.946
 5150SOL    HW216350   0.270   6.057   3.945
 5151SOL     OW16351   6.269   5.149   1.426
 5151SOL    HW116352   6.327   5.229   1.441
 5151SOL    HW216353   6.246   5.142   1.329
 5152SOL     OW16354   1.090   1.511   6.999
 5152SOL    HW116355   1.181   1.526   6.961
 5152SOL    HW216356   1.067   1.414   6.991
 5153SOL     OW16357   1.108   1.546   0.977
 5153SOL    HW116358   1.137   1.474   0.914
 5153SOL    HW216359   1.129   1.520   1.071
 5154SOL     OW16360   6.799   2.975   0.205
 5154SOL    HW116361   6.882   3.020   0.172
 5154SOL    HW216362   6.815   2.942   0.298
 5155SOL     OW16363   1.802   1.378   0.940
 5155SOL    HW116364   1.771   1.456   0.994
 5155SOL    HW216365   1.753   1.376   0.853
 5156SOL     OW16366   5.420   5.899   5.705
 5156SOL    HW116367   5.332   5.943   5.725
 5156SOL    HW216368   5.407   5.829   5.635
 5157SOL     OW16369   3.293   0.155   1.179
 5157SOL    HW116370   3.383   0.112   1.189
 5157SOL    HW216371   3.242   0.108   1.106
 5158SOL     OW16372   2.431   1.917   2.151
 5158SOL    HW116373   2.450   2.002   2.101
 5158SOL    HW216374   2.377   1.856   2.094
 5159SOL     OW16375   6.411   3.097   5.434
 5159SOL    HW116376   6.330   3.042   5.416
 5159SOL    HW216377   6.390   3.168   5.501
 5160SOL     OW16378   6.494   6.170   3.648
 5160SOL    HW116379   6.519   6.211   3.560
 5160SOL    HW216380   6.540   6.220   3.722
 5161SOL     OW16381   0.720   3.823   0.517
 5161SOL    HW116382   0.799   3.807   0.457
 5161SOL    HW216383   0.753   3.840   0.610
 5162SOL     OW16384   0.483   6.689   3.589
 5162SOL    HW116385   0.523   6.740   3.513
 5162SOL    HW216386   0.438   6.607   3.554
 5163SOL     OW16387   2.991   6.824   2.071
 5163SOL    HW116388   2.931   6.745   2.069
 5163SOL    HW216389   3.081   6.799   2.034
 5164SOL     OW16390   3.154   3.790   0.307
 5164SOL    HW116391   3.119   3.860   0.245
 5164SOL    HW216392   3.253   3.781   0.294
 5165SOL     OW16393   1.551   4.427   6.427
 5165SOL    HW116394   1.518   4.521   6.423
 5165SOL    HW216395   1.651   4.426   6.430
 5166SOL     OW16396   1.637   5.805   1.553
 5166SOL    HW116397   1.723   5.840   1.518
 5166SOL    HW216398   1.562   5.864   1.523
 5167SOL     OW16399   5.211   2.778   5.004
 5167SOL    HW116400   5.152   2.852   5.034
 5167SOL    HW216401   5.202   2.700   5.067
 5168SOL     OW16402   4.380   2.317   2.613
 5168SOL    HW116403   4.285   2.295   2.634
 5168SOL    HW216404   4.434   2.317   2.697
 5169SOL     OW16405   4.162   6.327   3.761
 5169SOL    HW116406   4.092   6.396   3.777
 5169SOL    HW216407   4.252   6.368   3.768
 5170SOL     OW16408   1.449   3.357   6.407
 5170SOL    HW116409   1.524   3.423   6.403
 5170SOL    HW216410   1.463   3.287   6.338
 5171SOL     OW16411   1.970   5.939   5.248
 5171SOL    HW116412   1.899   5.873   5.229
 5171SOL    HW216413   2.010   5.921   5.338
 5172SOL     OW16414   6.447   5.135   4.673
 5172SOL    HW116415   6.393   5.060   4.711
 5172SOL    HW216416   6.500   5.179   4.747
 5173SOL     OW16417   4.336   3.826   5.632
 5173SOL    HW116418   4.282   3.910   5.629
 5173SOL    HW216419   4.433   3.849   5.619
 5174SOL     OW16420   2.756   6.497   3.380
 5174SOL    HW116421   2.803   6.434   3.319
 5174SOL    HW216422   2.728   6.449   3.463
 5175SOL     OW16423   3.279   3.642   0.029
 5175SOL    HW116424   3.314   3.613   6.964
 5175SOL    HW216425   3.333   3.600   0.102
 5176SOL     OW16426   5.774   6.055   6.987
 5176SOL    HW116427   5.789   6.013   0.053
 5176SOL    HW216428   5.852   6.112   6.963
 5177SOL     OW16429   5.956   0.269   0.340
 5177SOL    HW116430   5.898   0.280   0.421
 5177SOL    HW216431   6.043   0.314   0.356
 5178SOL     OW16432   0.888   4.689   1.915
 5178SOL    HW116433   0.844   4.625   1.977
 5178SOL    HW216434   0.966   4.732   1.960
 5179SOL     OW16435   5.525   5.432   2.823
 5179SOL    HW116436   5.519   5.381   2.737
 5179SOL    HW216437   5.606   5.402   2.874
 5180SOL     OW16438   2.549   6.842   2.539
 5180SOL    HW116439   2.511   6.934   2.531
 5180SOL    HW216440   2.537   6.793   2.453
 5181SOL     OW16441   0.261   0.251   6.098
 5181SOL    HW116442   0.303   0.161   6.110
 5181SOL    HW216443   0.333   0.320   6.090
 5182SOL     OW16444   3.006   5.321   3.413
 5182SOL    HW116445   3.041   5.311   3.506
 5182SOL    HW216446   2.926   5.380   3.414
 5183SOL     OW16447   3.727   1.823   3.644
 5183SOL    HW116448   3.639   1.786   3.612
 5183SOL    HW216449   3.802   1.768   3.606
 5184SOL     OW16450   2.773   1.002   3.992
 5184SOL    HW116451   2.758   0.921   4.048
 5184SOL    HW216452   2.799   1.079   4.051
 5185SOL     OW16453   6.241   0.682   1.563
 5185SOL    HW116454   6.210   0.703   1.656
 5185SOL    HW216455   6.172   0.712   1.497
 5186SOL     OW16456   6.879   3.162   6.604
 5186SOL    HW116457   6.820   3.189   6.527
 5186SOL    HW216458   6.829   3.102   6.666
 5187SOL     OW16459   1.783   4.825   5.287
 5187SOL    HW116460   1.758   4.744   5.339
 5187SOL    HW216461   1.699   4.870   5.254
 5188SOL     OW16462   5.901   6.862   2.083
 5188SOL    HW116463   5.874   6.767   2.098
 5188SOL    HW216464   5.996   6.874   2.111
 5189SOL     OW16465   5.476   6.766   6.275
 5189SOL    HW116466   5.381   6.782   6.300
 5189SOL    HW216467   5.495   6.668   6.276
 5190SOL     OW16468   1.365   4.081   0.432
 5190SOL    HW116469   1.396   4.168   0.471
 5190SOL    HW216470   1.338   4.095   0.337
 5191SOL     OW16471   3.560   4.930   2.609
 5191SOL    HW116472   3.628   5.002   2.594
 5191SOL    HW216473   3.599   4.861   2.672
 5192SOL     OW16474   1.965   4.841   2.186
 5192SOL    HW116475   1.986   4.754   2.230
 5192SOL    HW216476   1.886   4.830   2.126
 5193SOL     OW16477   5.139   0.228   5.873
 5193SOL    HW116478   5.189   0.150   5.837
 5193SOL    HW216479   5.142   0.303   5.807
 5194SOL     OW16480   5.303   2.253   6.678
 5194SOL    HW116481   5.298   2.155   6.657
 5194SOL    HW216482   5.240   2.275   6.752
 5195SOL     OW16483   6.837   0.216   4.578
 5195SOL    HW116484   6.858   0.311   4.554
 5195SOL    HW216485   6.919   0.160   4.565
 5196SOL     OW16486   5.554   6.144   2.471
 5196SOL    HW116487   5.522   6.238   2.462
 5196SOL    HW216488   5.650   6.139   2.443
 5197SOL     OW16489   1.472   3.753   5.470
 5197SOL    HW116490   1.569   3.757   5.493
 5197SOL    HW216491   1.417   3.777   5.550
 5198SOL     OW16492   5.943   5.600   2.825
 5198SOL    HW116493   5.942   5.637   2.918
 5198SOL    HW216494   6.027   5.629   2.779
 5199SOL     OW16495   0.060   4.549   1.333
 5199SOL    HW116496   0.042   4.461   1.289
 5199SOL    HW216497   7.002   4.607   1.326
 5200SOL     OW16498   0.179   3.996   4.943
 5200SOL    HW116499   0.195   4.089   4.976
 5200SOL    HW216500   0.198   3.932   5.017
 5201SOL     OW16501   1.674   5.043   3.851
 5201SOL    HW116502   1.683   5.031   3.752
 5201SOL    HW216503   1.764   5.054   3.892
 5202SOL     OW16504   0.225   4.763   1.162
 5202SOL    HW116505   0.191   4.766   1.068
 5202SOL    HW216506   0.186   4.683   1.209
 5203SOL     OW16507   1.056   2.571   0.291
 5203SOL    HW116508   1.033   2.477   0.317
 5203SOL    HW216509   1.010   2.594   0.205
 5204SOL     OW16510   4.846   4.892   6.921
 5204SOL    HW116511   4.780   4.866   6.851
 5204SOL    HW216512   4.938   4.894   6.882
 5205SOL     OW16513   1.643   0.312   2.126
 5205SOL    HW116514   1.544   0.311   2.110
 5205SOL    HW216515   1.663   0.265   2.212
 5206SOL     OW16516   0.233   4.240   6.239
 5206SOL    HW116517   0.161   4.178   6.210
 5206SOL    HW216518   0.286   4.270   6.160
 5207SOL     OW16519   1.851   4.762   4.480
 5207SOL    HW116520   1.824   4.815   4.560
 5207SOL    HW216521   1.862   4.666   4.505
 5208SOL     OW16522   3.751   1.599   6.651
 5208SOL    HW116523   3.791   1.615   6.741
 5208SOL    HW216524   3.752   1.502   6.630
 5209SOL     OW16525   5.502   6.514   3.114
 5209SOL    HW116526   5.461   6.479   3.199
 5209SOL    HW216527   5.501   6.441   3.045
 5210SOL     OW16528   5.086   5.026   3.939
 5210SOL    HW116529   5.073   4.933   3.904
 5210SOL    HW216530   5.180   5.037   3.970
 5211SOL     OW16531   4.113   3.434   3.224
 5211SOL    HW116532   4.109   3.371   3.146
 5211SOL    HW216533   4.116   3.381   3.309
 5212SOL     OW16534   1.011   2.279   0.716
 5212SOL    HW116535   1.094   2.293   0.662
 5212SOL    HW216536   0.967   2.193   0.687
 5213SOL     OW16537   4.486   2.229   5.987
 5213SOL    HW116538   4.476   2.143   5.937
 5213SOL    HW216539   4.416   2.234   6.058
 5214SOL     OW16540   5.569   1.449   5.391
 5214SOL    HW116541   5.616   1.486   5.471
 5214SOL    HW216542   5.596   1.354   5.378
 5215SOL     OW16543   5.096   5.091   2.887
 5215SOL    HW116544   5.148   5.020   2.839
 5215SOL    HW216545   4.998   5.073   2.877
 5216SOL     OW16546   4.837   4.757   0.783
 5216SOL    HW116547   4.790   4.679   0.825
 5216SOL    HW216548   4.935   4.750   0.798
 5217SOL     OW16549   2.323   5.049   4.192
 5217SOL    HW116550   2.340   4.985   4.117
 5217SOL    HW216551   2.348   5.006   4.279
 5218SOL     OW16552   1.475   6.786   4.053
 5218SOL    HW116553   1.501   6.821   3.963
 5218SOL    HW216554   1.556   6.752   4.101
 5219SOL     OW16555   3.521   6.653   6.620
 5219SOL    HW116556   3.556   6.654   6.713
 5219SOL    HW216557   3.489   6.561   6.597
 5220SOL     OW16558   0.808   6.513   2.950
 5220SOL    HW116559   0.722   6.554   2.920
 5220SOL    HW216560   0.797   6.475   3.042
 5221SOL     OW16561   5.069   1.254   4.667
 5221SOL    HW116562   5.159   1.258   4.709
 5221SOL    HW216563   5.060   1.327   4.599
 5222SOL     OW16564   1.561   0.545   3.578
 5222SOL    HW116565   1.546   0.611   3.504
 5222SOL    HW216566   1.593   0.594   3.660
 5223SOL     OW16567   4.621   0.267   1.562
 5223SOL    HW116568   4.662   0.307   1.644
 5223SOL    HW216569   4.588   0.340   1.502
 5224SOL     OW16570   5.636   1.834   2.294
 5224SOL    HW116571   5.589   1.809   2.210
 5224SOL    HW216572   5.678   1.753   2.334
 5225SOL     OW16573   5.872   5.920   4.744
 5225SOL    HW116574   5.826   5.992   4.693
 5225SOL    HW216575   5.874   5.836   4.689
 5226SOL     OW16576   1.493   6.429   4.180
 5226SOL    HW116577   1.534   6.348   4.138
 5226SOL    HW216578   1.451   6.485   4.109
 5227SOL     OW16579   6.044   4.559   3.069
 5227SOL    HW116580   6.011   4.600   2.984
 5227SOL    HW216581   5.969   4.554   3.135
 5228SOL     OW16582   5.474   1.438   0.609
 5228SOL    HW116583   5.381   1.475   0.600
 5228SOL    HW216584   5.535   1.508   0.644
 5229SOL     OW16585   1.022   3.913   5.356
 5229SOL    HW116586   0.993   3.818   5.366
 5229SOL    HW216587   0.973   3.970   5.422
 5230SOL     OW16588   0.066   0.203   0.145
 5230SOL    HW116589   0.142   0.242   0.094
 5230SOL    HW216590   0.007   0.151   0.083
 5231SOL     OW16591   4.036   3.180   3.752
 5231SOL    HW116592   3.969   3.188   3.826
 5231SOL    HW216593   4.076   3.089   3.753
 5232SOL     OW16594   4.477   2.433   6.812
 5232SOL    HW116595   4.403   2.449   6.746
 5232SOL    HW216596   4.549   2.379   6.769
 5233SOL     OW16597   1.165   0.188   2.754
 5233SOL    HW116598   1.092   0.216   2.691
 5233SOL    HW216599   1.165   0.088   2.762
 5234SOL     OW16600   3.663   6.774   0.754
 5234SOL    HW116601   3.665   6.810   0.661
 5234SOL    HW216602   3.727   6.825   0.811
 5235SOL     OW16603   1.008   2.877   1.157
 5235SOL    HW116604   1.018   2.794   1.212
 5235SOL    HW216605   0.928   2.869   1.098
 5236SOL     OW16606   5.408   3.524   0.897
 5236SOL    HW116607   5.389   3.477   0.983
 5236SOL    HW216608   5.328   3.577   0.869
 5237SOL     OW16609   2.407   2.210   5.179
 5237SOL    HW116610   2.471   2.158   5.236
 5237SOL    HW216611   2.368   2.285   5.233
 5238SOL     OW16612   1.977   4.657   0.764
 5238SOL    HW116613   1.878   4.647   0.779
 5238SOL    HW216614   2.003   4.753   0.778
 5239SOL     OW16615   3.263   2.950   3.852
 5239SOL    HW116616   3.209   2.874   3.815
 5239SOL    HW216617   3.220   2.985   3.935
 5240SOL     OW16618   3.348   2.100   5.142
 5240SOL    HW116619   3.313   2.057   5.226
 5240SOL    HW216620   3.280   2.165   5.107
 5241SOL     OW16621   1.933   6.155   0.022
 5241SOL    HW116622   1.839   6.185   0.039
 5241SOL    HW216623   1.932   6.067   7.000
 5242SOL     OW16624   5.851   1.246   5.719
 5242SOL    HW116625   5.948   1.251   5.697
 5242SOL    HW216626   5.814   1.159   5.686
 5243SOL     OW16627   1.536   4.997   1.455
 5243SOL    HW116628   1.555   5.068   1.386
 5243SOL    HW216629   1.525   4.909   1.410
 5244SOL     OW16630   5.181   4.360   5.503
 5244SOL    HW116631   5.140   4.366   5.594
 5244SOL    HW216632   5.253   4.291   5.503
 5245SOL     OW16633   4.861   4.199   6.745
 5245SOL    HW116634   4.868   4.107   6.784
 5245SOL    HW216635   4.922   4.207   6.667
 5246SOL     OW16636   1.403   3.347   2.811
 5246SOL    HW116637   1.413   3.270   2.748
 5246SOL    HW216638   1.317   3.394   2.792
 5247SOL     OW16639   0.616   5.199   1.032
 5247SOL    HW116640   0.530   5.149   1.018
 5247SOL    HW216641   0.692   5.146   0.994
 5248SOL     OW16642   5.146   0.836   5.685
 5248SOL    HW116643   5.179   0.747   5.719
 5248SOL    HW216644   5.198   0.860   5.603
 5249SOL     OW16645   1.069   4.994   4.845
 5249SOL    HW116646   1.134   4.940   4.792
 5249SOL    HW216647   1.001   5.035   4.784
 5250SOL     OW16648   0.643   1.580   6.331
 5250SOL    HW116649   0.662   1.500   6.387
 5250SOL    HW216650   0.702   1.580   6.250
 5251SOL     OW16651   6.482   2.921   1.513
 5251SOL    HW116652   6.393   2.888   1.481
 5251SOL    HW216653   6.506   2.875   1.598
 5252SOL     OW16654   4.089   5.828   0.695
 5252SOL    HW116655   4.130   5.841   0.785
 5252SOL    HW216656   4.039   5.910   0.668
 5253SOL     OW16657   5.535   3.715   3.966
 5253SOL    HW116658   5.475   3.773   3.910
 5253SOL    HW216659   5.577   3.771   4.037
 5254SOL     OW16660   4.542   0.840   3.702
 5254SOL    HW116661   4.516   0.744   3.687
 5254SOL    HW216662   4.471   0.887   3.753
 5255SOL     OW16663   3.226   6.457   4.898
 5255SOL    HW116664   3.313   6.427   4.858
 5255SOL    HW216665   3.180   6.378   4.939
 5256SOL     OW16666   5.562   6.939   3.939
 5256SOL    HW116667   5.499   6.897   4.004
 5256SOL    HW216668   5.582   6.875   3.865
 5257SOL     OW16669   3.787   6.996   0.402
 5257SOL    HW116670   3.729   0.033   0.348
 5257SOL    HW216671   3.870   0.022   0.429
 5258SOL     OW16672   5.165   4.128   2.423
 5258SOL    HW116673   5.090   4.071   2.392
 5258SOL    HW216674   5.170   4.126   2.523
 5259SOL     OW16675   4.798   5.228   2.681
 5259SOL    HW116676   4.808   5.146   2.738
 5259SOL    HW216677   4.703   5.235   2.651
 5260SOL     OW16678   5.583   3.558   1.409
 5260SOL    HW116679   5.653   3.562   1.338
 5260SOL    HW216680   5.596   3.634   1.473
 5261SOL     OW16681   0.872   2.563   4.616
 5261SOL    HW116682   0.967   2.590   4.627
 5261SOL    HW216683   0.814   2.620   4.673
 5262SOL     OW16684   2.679   6.724   1.873
 5262SOL    HW116685   2.665   6.812   1.827
 5262SOL    HW216686   2.749   6.672   1.824
 5263SOL     OW16687   1.447   6.948   6.366
 5263SOL    HW116688   1.486   6.881   6.429
 5263SOL    HW216689   1.483   6.931   6.274
 5264SOL     OW16690   0.402   2.180   0.811
 5264SOL    HW116691   0.406   2.101   0.872
 5264SOL    HW216692   0.308   2.214   0.806
 5265SOL     OW16693   5.406   4.724   1.443
 5265SOL    HW116694   5.473   4.657   1.474
 5265SOL    HW216695   5.321   4.677   1.417
 5266SOL     OW16696   1.325   6.666   1.776
 5266SOL    HW116697   1.312   6.765   1.769
 5266SOL    HW216698   1.417   6.647   1.810
 5267SOL     OW16699   4.958   4.783   5.008
 5267SOL    HW116700   5.008   4.701   5.037
 5267SOL    HW216701   5.014   4.835   4.943
 5268SOL     OW16702   5.792   5.508   5.367
 5268SOL    HW116703   5.694   5.489   5.364
 5268SOL    HW216704   5.809   5.603   5.340
 5269SOL     OW16705   1.938   5.603   4.153
 5269SOL    HW116706   2.022   5.584   4.103
 5269SOL    HW216707   1.916   5.526   4.212
 5270SOL     OW16708   6.215   2.317   1.606
 5270SOL    HW116709   6.143   2.303   1.674
 5270SOL    HW216710   6.173   2.319   1.515
 5271SOL     OW16711   5.202   4.320   4.927
 5271SOL    HW116712   5.189   4.288   5.021
 5271SOL    HW216713   5.188   4.244   4.864
 5272SOL     OW16714   0.827   0.412   4.714
 5272SOL    HW116715   0.882   0.343   4.666
 5272SOL    HW216716   0.790   0.372   4.798
 5273SOL     OW16717   0.788   1.571   3.938
 5273SOL    HW116718   0.729   1.550   4.016
 5273SOL    HW216719   0.767   1.508   3.863
 5274SOL     OW16720   6.769   5.034   4.121
 5274SOL    HW116721   6.809   4.947   4.093
 5274SOL    HW216722   6.823   5.110   4.085
 5275SOL     OW16723   2.350   0.323   6.564
 5275SOL    HW116724   2.316   0.351   6.654
 5275SOL    HW216725   2.344   0.401   6.501
 5276SOL     OW16726   0.042   6.667   1.513
 5276SOL    HW116727   6.969   6.691   1.526
 5276SOL    HW216728   0.098   6.716   1.580
 5277SOL     OW16729   0.996   1.603   3.523
 5277SOL    HW116730   0.907   1.557   3.519
 5277SOL    HW216731   1.061   1.547   3.574
 5278SOL     OW16732   0.712   5.214   5.693
 5278SOL    HW116733   0.656   5.258   5.623
 5278SOL    HW216734   0.806   5.206   5.660
 5279SOL     OW16735   1.615   5.717   6.388
 5279SOL    HW116736   1.684   5.693   6.456
 5279SOL    HW216737   1.655   5.714   6.296
 5280SOL     OW16738   4.170   5.754   4.539
 5280SOL    HW116739   4.247   5.818   4.544
 5280SOL    HW216740   4.127   5.760   4.449
 5281SOL     OW16741   1.902   0.407   5.001
 5281SOL    HW116742   1.878   0.493   5.046
 5281SOL    HW216743   1.864   0.406   4.908
 5282SOL     OW16744   1.281   0.495   2.577
 5282SOL    HW116745   1.332   0.409   2.579
 5282SOL    HW216746   1.183   0.475   2.583
 5283SOL     OW16747   0.103   1.111   4.095
 5283SOL    HW116748   0.004   1.099   4.086
 5283SOL    HW216749   0.135   1.175   4.025
 5284SOL     OW16750   5.034   2.285   1.782
 5284SOL    HW116751   5.062   2.350   1.710
 5284SOL    HW216752   4.988   2.207   1.740
 5285SOL     OW16753   0.732   2.776   3.853
 5285SOL    HW116754   0.829   2.751   3.845
 5285SOL    HW216755   0.695   2.739   3.938
 5286SOL     OW16756   6.135   2.727   1.195
 5286SOL    HW116757   6.039   2.700   1.205
 5286SOL    HW216758   6.194   2.658   1.237
 5287SOL     OW16759   2.794   4.863   1.552
 5287SOL    HW116760   2.843   4.824   1.474
 5287SOL    HW216761   2.759   4.790   1.610
 5288SOL     OW16762   5.175   0.984   2.470
 5288SOL    HW116763   5.082   1.014   2.492
 5288SOL    HW216764   5.179   0.958   2.374
 5289SOL     OW16765   1.819   4.967   6.464
 5289SOL    HW116766   1.784   4.967   6.557
 5289SOL    HW216767   1.787   4.885   6.417
 5290SOL     OW16768   1.506   2.904   5.650
 5290SOL    HW116769   1.532   2.811   5.627
 5290SOL    HW216770   1.451   2.943   5.576
 5291SOL     OW16771   2.582   4.600   5.122
 5291SOL    HW116772   2.677   4.601   5.091
 5291SOL    HW216773   2.543   4.692   5.111
 5292SOL     OW16774   6.555   4.154   6.375
 5292SOL    HW116775   6.596   4.116   6.457
 5292SOL    HW216776   6.531   4.250   6.391
 5293SOL     OW16777   2.120   5.559   4.655
 5293SOL    HW116778   2.147   5.633   4.716
 5293SOL    HW216779   2.034   5.582   4.610
 5294SOL     OW16780   4.046   0.751   5.327
 5294SOL    HW116781   4.001   0.662   5.332
 5294SOL    HW216782   4.144   0.739   5.344
 5295SOL     OW16783   3.407   0.709   2.108
 5295SOL    HW116784   3.467   0.670   2.178
 5295SOL    HW216785   3.401   0.647   2.030
 5296SOL     OW16786   4.052   4.390   0.985
 5296SOL    HW116787   4.102   4.338   0.917
 5296SOL    HW216788   4.042   4.335   1.069
 5297SOL     OW16789   2.049   4.408   0.396
 5297SOL    HW116790   2.058   4.333   0.330
 5297SOL    HW216791   2.137   4.426   0.439
 5298SOL     OW16792   2.232   6.880   0.226
 5298SOL    HW116793   2.158   6.844   0.283
 5298SOL    HW216794   2.206   6.970   0.191
 5299SOL     OW16795   3.199   2.173   0.659
 5299SOL    HW116796   3.267   2.164   0.732
 5299SOL    HW216797   3.112   2.137   0.691
 5300SOL     OW16798   1.915   4.988   0.284
 5300SOL    HW116799   1.840   5.019   0.227
 5300SOL    HW216800   1.905   5.025   0.376
 5301SOL     OW16801   4.726   0.348   6.390
 5301SOL    HW116802   4.666   0.387   6.320
 5301SOL    HW216803   4.778   0.421   6.434
 5302SOL     OW16804   5.273   5.725   3.478
 5302SOL    HW116805   5.210   5.649   3.468
 5302SOL    HW216806   5.345   5.701   3.543
 5303SOL     OW16807   6.942   4.946   6.487
 5303SOL    HW116808   6.952   4.851   6.458
 5303SOL    HW216809   6.882   4.995   6.424
 5304SOL     OW16810   6.228   1.226   1.305
 5304SOL    HW116811   6.224   1.212   1.207
 5304SOL    HW216812   6.193   1.317   1.327
 5305SOL     OW16813   1.256   5.601   2.787
 5305SOL    HW116814   1.330   5.586   2.852
 5305SOL    HW216815   1.287   5.659   2.712
 5306SOL     OW16816   6.807   3.866   5.678
 5306SOL    HW116817   6.775   3.938   5.740
 5306SOL    HW216818   6.907   3.861   5.680
 5307SOL     OW16819   4.883   2.644   0.541
 5307SOL    HW116820   4.864   2.584   0.618
 5307SOL    HW216821   4.809   2.711   0.531
 5308SOL     OW16822   1.335   4.727   2.887
 5308SOL    HW116823   1.367   4.713   2.794
 5308SOL    HW216824   1.351   4.645   2.941
 5309SOL     OW16825   4.375   5.962   2.959
 5309SOL    HW116826   4.432   6.042   2.943
 5309SOL    HW216827   4.336   5.967   3.051
 5310SOL     OW16828   5.994   3.068   2.782
 5310SOL    HW116829   5.969   3.150   2.729
 5310SOL    HW216830   6.031   3.097   2.871
 5311SOL     OW16831   6.061   6.871   0.610
 5311SOL    HW116832   6.044   6.777   0.640
 5311SOL    HW216833   5.983   6.903   0.556
 5312SOL     OW16834   0.204   6.469   1.704
 5312SOL    HW116835   0.277   6.407   1.730
 5312SOL    HW216836   0.223   6.507   1.613
 5313SOL     OW16837   6.666   5.184   5.390
 5313SOL    HW116838   6.728   5.262   5.382
 5313SOL    HW216839   6.697   5.110   5.330
 5314SOL     OW16840   6.407   6.932   1.086
 5314SOL    HW116841   6.376   6.857   1.145
 5314SOL    HW216842   6.368   6.920   0.995
 5315SOL     OW16843   4.294   1.746   3.265
 5315SOL    HW116844   4.335   1.828   3.305
 5315SOL    HW216845   4.297   1.672   3.333
 5316SOL     OW16846   0.597   3.077   5.219
 5316SOL    HW116847   0.681   3.132   5.225
 5316SOL    HW216848   0.620   2.983   5.194
 5317SOL     OW16849   6.533   1.396   6.065
 5317SOL    HW116850   6.534   1.307   6.020
 5317SOL    HW216851   6.444   1.412   6.108
 5318SOL     OW16852   6.463   3.604   0.119
 5318SOL    HW116853   6.415   3.569   0.039
 5318SOL    HW216854   6.446   3.702   0.128
 5319SOL     OW16855   4.155   0.002   0.907
 5319SOL    HW116856   4.251   0.026   0.903
 5319SOL    HW216857   4.100   0.074   0.864
 5320SOL     OW16858   3.547   5.932   1.422
 5320SOL    HW116859   3.483   5.907   1.495
 5320SOL    HW216860   3.560   6.031   1.421
 5321SOL     OW16861   1.314   4.465   5.063
 5321SOL    HW116862   1.384   4.491   4.997
 5321SOL    HW216863   1.228   4.512   5.041
 5322SOL     OW16864   5.535   6.888   1.544
 5322SOL    HW116865   5.582   6.901   1.631
 5322SOL    HW216866   5.523   6.790   1.527
 5323SOL     OW16867   4.485   1.603   5.186
 5323SOL    HW116868   4.405   1.555   5.223
 5323SOL    HW216869   4.528   1.657   5.259
 5324SOL     OW16870   2.406   2.585   6.927
 5324SOL    HW116871   2.328   2.615   6.872
 5324SOL    HW216872   2.372   2.543   7.011
 5325SOL     OW16873   2.426   1.884   5.232
 5325SOL    HW116874   2.518   1.923   5.234
 5325SOL    HW216875   2.386   1.896   5.141
 5326SOL     OW16876   6.406   5.846   2.690
 5326SOL    HW116877   6.380   5.832   2.594
 5326SOL    HW216878   6.405   5.944   2.710
 5327SOL     OW16879   5.444   2.659   4.803
 5327SOL    HW116880   5.362   2.693   4.848
 5327SOL    HW216881   5.499   2.607   4.868
 5328SOL     OW16882   3.686   4.184   6.171
 5328SOL    HW116883   3.596   4.143   6.185
 5328SOL    HW216884   3.695   4.211   6.075
 5329SOL     OW16885   1.346   5.834   6.410
 5329SOL    HW116886   1.283   5.791   6.345
 5329SOL    HW216887   1.439   5.803   6.391
 5330SOL     OW16888   3.540   3.520   0.497
 5330SOL    HW116889   3.584   3.440   0.538
 5330SOL    HW216890   3.556   3.600   0.555
 5331SOL     OW16891   6.541   1.599   6.634
 5331SOL    HW116892   6.551   1.605   6.733
 5331SOL    HW216893   6.592   1.672   6.590
 5332SOL     OW16894   1.499   4.638   1.694
 5332SOL    HW116895   1.589   4.614   1.657
 5332SOL    HW216896   1.477   4.578   1.771
 5333SOL     OW16897   1.391   6.963   3.709
 5333SOL    HW116898   1.427   6.993   3.621
 5333SOL    HW216899   1.462   6.915   3.760
 5334SOL     OW16900   3.352   0.536   4.638
 5334SOL    HW116901   3.364   0.471   4.563
 5334SOL    HW216902   3.402   0.502   4.718
 5335SOL     OW16903   0.125   5.525   0.796
 5335SOL    HW116904   0.058   5.482   0.857
 5335SOL    HW216905   0.117   5.624   0.803
 5336SOL     OW16906   1.748   3.564   2.054
 5336SOL    HW116907   1.833   3.516   2.074
 5336SOL    HW216908   1.670   3.502   2.064
 5337SOL     OW16909   4.824   3.939   1.037
 5337SOL    HW116910   4.922   3.949   1.023
 5337SOL    HW216911   4.787   4.025   1.074
 5338SOL     OW16912   6.554   2.028   0.440
 5338SOL    HW116913   6.563   2.017   0.341
 5338SOL    HW216914   6.464   1.995   0.469
 5339SOL     OW16915   6.964   1.906   3.425
 5339SOL    HW116916   6.913   1.832   3.381
 5339SOL    HW216917   6.954   1.898   3.525
 5340SOL     OW16918   5.675   3.056   0.090
 5340SOL    HW116919   5.757   3.101   0.057
 5340SOL    HW216920   5.622   3.021   0.012
 5341SOL     OW16921   4.056   1.925   5.453
 5341SOL    HW116922   4.117   1.990   5.497
 5341SOL    HW216923   4.109   1.857   5.403
 5342SOL     OW16924   4.160   0.353   5.007
 5342SOL    HW116925   4.195   0.274   4.956
 5342SOL    HW216926   4.060   0.346   5.014
 5343SOL     OW16927   4.062   3.477   2.411
 5343SOL    HW116928   4.078   3.551   2.475
 5343SOL    HW216929   4.061   3.390   2.460
 5344SOL     OW16930   1.491   2.710   3.030
 5344SOL    HW116931   1.591   2.712   3.041
 5344SOL    HW216932   1.447   2.717   3.119
 5345SOL     OW16933   4.806   6.463   1.177
 5345SOL    HW116934   4.872   6.509   1.236
 5345SOL    HW216935   4.828   6.482   1.081
 5346SOL     OW16936   3.457   6.223   3.431
 5346SOL    HW116937   3.425   6.176   3.348
 5346SOL    HW216938   3.552   6.197   3.449
 5347SOL     OW16939   0.015   1.706   1.515
 5347SOL    HW116940   0.079   1.661   1.577
 5347SOL    HW216941   6.955   1.729   1.565
 5348SOL     OW16942   1.198   1.200   0.206
 5348SOL    HW116943   1.211   1.101   0.211
 5348SOL    HW216944   1.286   1.244   0.188
 5349SOL     OW16945   6.869   1.785   0.448
 5349SOL    HW116946   6.778   1.771   0.409
 5349SOL    HW216947   6.864   1.855   0.519
 5350SOL     OW16948   2.430   0.835   6.173
 5350SOL    HW116949   2.505   0.865   6.232
 5350SOL    HW216950   2.465   0.771   6.105
 5351SOL     OW16951   5.280   5.798   1.241
 5351SOL    HW116952   5.202   5.735   1.237
 5351SOL    HW216953   5.279   5.848   1.327
 5352SOL     OW16954   2.205   5.648   3.687
 5352SOL    HW116955   2.239   5.646   3.781
 5352SOL    HW216956   2.129   5.713   3.679
 5353SOL     OW16957   4.669   6.037   4.768
 5353SOL    HW116958   4.645   6.124   4.811
 5353SOL    HW216959   4.736   5.988   4.824
 5354SOL     OW16960   2.251   4.910   2.105
 5354SOL    HW116961   2.273   4.944   2.197
 5354SOL    HW216962   2.152   4.912   2.093
 5355SOL     OW16963   4.363   1.796   3.600
 5355SOL    HW116964   4.353   1.851   3.683
 5355SOL    HW216965   4.283   1.809   3.542
 5356SOL     OW16966   5.950   3.803   1.285
 5356SOL    HW116967   5.977   3.712   1.255
 5356SOL    HW216968   5.998   3.826   1.370
 5357SOL     OW16969   3.864   0.210   0.120
 5357SOL    HW116970   3.767   0.201   0.097
 5357SOL    HW216971   3.909   0.269   0.052
 5358SOL     OW16972   4.237   2.522   0.921
 5358SOL    HW116973   4.188   2.437   0.905
 5358SOL    HW216974   4.202   2.565   1.004
 5359SOL     OW16975   2.346   1.881   1.032
 5359SOL    HW116976   2.342   1.819   0.954
 5359SOL    HW216977   2.407   1.842   1.102
 5360SOL     OW16978   4.009   6.587   5.720
 5360SOL    HW116979   4.043   6.584   5.626
 5360SOL    HW216980   3.943   6.513   5.734
 5361SOL     OW16981   2.118   1.327   5.098
 5361SOL    HW116982   2.053   1.318   5.022
 5361SOL    HW216983   2.141   1.237   5.133
 5362SOL     OW16984   4.699   4.638   3.345
 5362SOL    HW116985   4.717   4.697   3.423
 5362SOL    HW216986   4.771   4.650   3.276
 5363SOL     OW16987   1.095   5.732   6.219
 5363SOL    HW116988   1.166   5.662   6.224
 5363SOL    HW216989   1.094   5.772   6.127
 5364SOL     OW16990   6.406   5.990   0.964
 5364SOL    HW116991   6.426   5.894   0.984
 5364SOL    HW216992   6.442   6.047   1.038
 5365SOL     OW16993   4.317   2.659   5.913
 5365SOL    HW116994   4.287   2.740   5.963
 5365SOL    HW216995   4.408   2.675   5.874
 5366SOL     OW16996   4.276   4.483   0.611
 5366SOL    HW116997   4.367   4.442   0.599
 5366SOL    HW216998   4.206   4.415   0.588
 5367SOL     OW16999   0.340   4.868   0.869
 5367SOL    HW117000   0.329   4.954   0.917
 5367SOL    HW217001   0.255   4.815   0.876
 5368SOL     OW17002   5.345   2.028   2.477
 5368SOL    HW117003   5.308   2.065   2.563
 5368SOL    HW217004   5.402   2.097   2.433
 5369SOL     OW17005   2.027   4.729   2.977
 5369SOL    HW117006   1.946   4.679   3.008
 5369SOL    HW217007   2.046   4.706   2.881
 5370SOL     OW17008   3.611   3.203   1.580
 5370SOL    HW117009   3.703   3.187   1.617
 5370SOL    HW217010   3.543   3.167   1.643
 5371SOL     OW17011   2.050   4.329   4.752
 5371SOL    HW117012   2.141   4.297   4.727
 5371SOL    HW217013   1.994   4.251   4.779
 5372SOL     OW17014   2.864   4.931   2.651
 5372SOL    HW117015   2.851   4.980   2.737
 5372SOL    HW217016   2.897   4.994   2.581
 5373SOL     OW17017   3.212   5.031   4.439
 5373SOL    HW117018   3.305   4.996   4.426
 5373SOL    HW217019   3.146   4.956   4.433
 5374SOL     OW17020   1.666   3.138   6.576
 5374SOL    HW117021   1.656   3.041   6.553
 5374SOL    HW217022   1.688   3.148   6.673
 5375SOL     OW17023   1.228   4.003   5.205
 5375SOL    HW117024   1.158   3.974   5.270
 5375SOL    HW217025   1.248   4.100   5.218
 5376SOL     OW17026   1.485   3.582   1.779
 5376SOL    HW117027   1.582   3.560   1.788
 5376SOL    HW217028   1.449   3.614   1.866
 5377SOL     OW17029   0.147   6.926   1.599
 5377SOL    HW117030   0.090   6.958   1.523
 5377SOL    HW217031   0.121   6.975   1.682
 5378SOL     OW17032   6.454   0.443   0.005
 5378SOL    HW117033   6.495   0.486   0.086
 5378SOL    HW217034   6.503   0.359   7.008
 5379SOL     OW17035   0.259   5.185   3.597
 5379SOL    HW117036   0.294   5.279   3.592
 5379SOL    HW217037   0.301   5.130   3.525
 5380SOL     OW17038   2.042   0.273   3.628
 5380SOL    HW117039   2.124   0.286   3.572
 5380SOL    HW217040   2.054   0.320   3.716
 5381SOL     OW17041   6.290   4.239   0.939
 5381SOL    HW117042   6.326   4.279   0.855
 5381SOL    HW217043   6.322   4.144   0.947
 5382SOL     OW17044   3.276   0.725   1.246
 5382SOL    HW117045   3.224   0.794   1.196
 5382SOL    HW217046   3.258   0.635   1.207
 5383SOL     OW17047   2.896   2.148   5.445
 5383SOL    HW117048   2.901   2.153   5.345
 5383SOL    HW217049   2.972   2.198   5.485
 5384SOL     OW17050   6.432   6.613   4.706
 5384SOL    HW117051   6.414   6.567   4.619
 5384SOL    HW217052   6.513   6.671   4.697
 5385SOL     OW17053   2.901   3.501   2.506
 5385SOL    HW117054   2.890   3.526   2.410
 5385SOL    HW217055   2.913   3.402   2.513
 5386SOL     OW17056   4.748   6.296   4.097
 5386SOL    HW117057   4.795   6.223   4.048
 5386SOL    HW217058   4.731   6.372   4.035
 5387SOL     OW17059   2.697   5.375   2.381
 5387SOL    HW117060   2.758   5.394   2.304
 5387SOL    HW217061   2.658   5.461   2.414
 5388SOL     OW17062   5.562   6.507   2.245
 5388SOL    HW117063   5.465   6.485   2.259
 5388SOL    HW217064   5.610   6.500   2.332
 5389SOL     OW17065   4.397   1.210   1.673
 5389SOL    HW117066   4.398   1.247   1.766
 5389SOL    HW217067   4.422   1.282   1.608
 5390SOL     OW17068   5.473   5.120   4.911
 5390SOL    HW117069   5.435   5.037   4.953
 5390SOL    HW217070   5.533   5.094   4.835
 5391SOL     OW17071   2.569   3.953   0.446
 5391SOL    HW117072   2.516   3.871   0.466
 5391SOL    HW217073   2.512   4.034   0.461
 5392SOL     OW17074   5.892   2.841   1.480
 5392SOL    HW117075   5.843   2.867   1.563
 5392SOL    HW217076   5.964   2.909   1.461
 5393SOL     OW17077   7.001   6.856   0.003
 5393SOL    HW117078   7.004   6.877   0.101
 5393SOL    HW217079   0.021   6.930   6.976
 5394SOL     OW17080   0.803   3.861   6.502
 5394SOL    HW117081   0.752   3.903   6.428
 5394SOL    HW217082   0.890   3.909   6.514
 5395SOL     OW17083   4.380   0.157   0.624
 5395SOL    HW117084   4.378   0.112   0.535
 5395SOL    HW217085   4.308   0.227   0.628
 5396SOL     OW17086   5.132   3.768   2.189
 5396SOL    HW117087   5.087   3.845   2.233
 5396SOL    HW217088   5.067   3.693   2.178
 5397SOL     OW17089   6.665   3.076   1.768
 5397SOL    HW117090   6.712   3.163   1.780
 5397SOL    HW217091   6.595   3.066   1.839
 5398SOL     OW17092   3.120   2.563   1.709
 5398SOL    HW117093   3.095   2.553   1.613
 5398SOL    HW217094   3.058   2.509   1.766
 5399SOL     OW17095   2.916   6.091   0.613
 5399SOL    HW117096   2.844   6.151   0.577
 5399SOL    HW217097   2.905   5.999   0.576
 5400SOL     OW17098   2.747   4.425   0.516
 5400SOL    HW117099   2.697   4.341   0.494
 5400SOL    HW217100   2.823   4.436   0.452
 5401SOL     OW17101   6.074   3.214   1.976
 5401SOL    HW117102   6.028   3.292   2.020
 5401SOL    HW217103   6.031   3.197   1.888
 5402SOL     OW17104   2.586   5.996   1.891
 5402SOL    HW117105   2.520   5.959   1.956
 5402SOL    HW217106   2.668   6.024   1.940
 5403SOL     OW17107   0.248   3.425   6.347
 5403SOL    HW117108   0.177   3.464   6.288
 5403SOL    HW217109   0.320   3.493   6.361
 5404SOL     OW17110   1.398   2.781   3.796
 5404SOL    HW117111   1.339   2.740   3.865
 5404SOL    HW217112   1.493   2.758   3.817
 5405SOL     OW17113   0.259   5.286   6.389
 5405SOL    HW117114   0.280   5.195   6.424
 5405SOL    HW217115   0.177   5.281   6.331
 5406SOL     OW17116   1.818   1.956   0.379
 5406SOL    HW117117   1.901   1.977   0.431
 5406SOL    HW217118   1.802   2.027   0.311
 5407SOL     OW17119   4.165   3.804   0.168
 5407SOL    HW117120   4.251   3.777   0.212
 5407SOL    HW217121   4.091   3.803   0.235
 5408SOL     OW17122   2.635   0.935   5.306
 5408SOL    HW117123   2.569   1.006   5.283
 5408SOL    HW217124   2.711   0.938   5.241
 5409SOL     OW17125   5.310   0.568   2.966
 5409SOL    HW117126   5.379   0.638   2.979
 5409SOL    HW217127   5.330   0.489   3.024
 5410SOL     OW17128   3.392   2.095   2.069
 5410SOL    HW117129   3.313   2.138   2.113
 5410SOL    HW217130   3.473   2.150   2.085
 5411SOL     OW17131   6.528   4.803   6.181
 5411SOL    HW117132   6.601   4.865   6.151
 5411SOL    HW217133   6.521   4.727   6.116
 5412SOL     OW17134   5.090   3.113   0.709
 5412SOL    HW117135   5.144   3.037   0.745
 5412SOL    HW217136   5.151   3.191   0.691
 5413SOL     OW17137   3.128   1.961   1.499
 5413SOL    HW117138   3.117   2.035   1.433
 5413SOL    HW217139   3.194   1.987   1.569
 5414SOL     OW17140   4.645   1.341   4.747
 5414SOL    HW117141   4.733   1.304   4.775
 5414SOL    HW217142   4.593   1.367   4.829
 5415SOL     OW17143   0.223   5.983   1.157
 5415SOL    HW117144   0.132   6.021   1.175
 5415SOL    HW217145   0.235   5.899   1.209
 5416SOL     OW17146   4.020   4.912   4.811
 5416SOL    HW117147   4.111   4.870   4.808
 5416SOL    HW217148   3.964   4.867   4.880
 5417SOL     OW17149   3.633   7.009   5.262
 5417SOL    HW117150   3.706   6.941   5.251
 5417SOL    HW217151   3.545   6.967   5.242
 5418SOL     OW17152   3.577   6.894   2.494
 5418SOL    HW117153   3.601   6.965   2.561
 5418SOL    HW217154   3.507   6.930   2.432
 5419SOL     OW17155   3.471   4.737   0.159
 5419SOL    HW117156   3.476   4.807   0.087
 5419SOL    HW217157   3.463   4.647   0.117
 5420SOL     OW17158   2.024   2.779   3.560
 5420SOL    HW117159   2.102   2.717   3.565
 5420SOL    HW217160   2.043   2.851   3.493
 5421SOL     OW17161   1.537   3.660   0.797
 5421SOL    HW117162   1.517   3.663   0.895
 5421SOL    HW217163   1.589   3.741   0.770
 5422SOL     OW17164   1.422   4.415   1.238
 5422SOL    HW117165   1.427   4.442   1.334
 5422SOL    HW217166   1.330   4.430   1.204
 5423SOL     OW17167   6.255   2.675   6.287
 5423SOL    HW117168   6.242   2.761   6.338
 5423SOL    HW217169   6.273   2.601   6.352
 5424SOL     OW17170   4.902   3.564   4.353
 5424SOL    HW117171   4.886   3.470   4.381
 5424SOL    HW217172   4.889   3.625   4.432
 5425SOL     OW17173   4.171   1.140   4.901
 5425SOL    HW117174   4.133   1.227   4.934
 5425SOL    HW217175   4.167   1.139   4.801
 5426SOL     OW17176   5.757   6.248   4.658
 5426SOL    HW117177   5.703   6.331   4.645
 5426SOL    HW217178   5.784   6.240   4.754
 5427SOL     OW17179   4.477   5.740   6.150
 5427SOL    HW117180   4.566   5.696   6.159
 5427SOL    HW217181   4.408   5.673   6.124
 5428SOL     OW17182   0.496   0.640   0.935
 5428SOL    HW117183   0.535   0.563   0.884
 5428SOL    HW217184   0.398   0.646   0.917
 5429SOL     OW17185   1.920   1.755   6.985
 5429SOL    HW117186   1.904   1.691   6.910
 5429SOL    HW217187   1.847   1.747   0.029
 5430SOL     OW17188   0.308   2.248   6.453
 5430SOL    HW117189   0.347   2.157   6.438
 5430SOL    HW217190   0.374   2.305   6.502
 5431SOL     OW17191   3.272   6.761   6.597
 5431SOL    HW117192   3.250   6.744   6.693
 5431SOL    HW217193   3.364   6.729   6.578
 5432SOL     OW17194   5.509   6.751   0.079
 5432SOL    HW117195   5.520   6.673   0.017
 5432SOL    HW217196   5.552   6.832   0.038
 5433SOL     OW17197   0.081   1.560   4.554
 5433SOL    HW117198   0.106   1.486   4.491
 5433SOL    HW217199   7.018   1.600   4.525
 5434SOL     OW17200   2.974   6.874   5.971
 5434SOL    HW117201   2.899   6.818   6.007
 5434SOL    HW217202   2.982   6.958   6.024
 5435SOL     OW17203   4.302   6.937   1.789
 5435SOL    HW117204   4.341   6.849   1.764
 5435SOL    HW217205   4.375   6.998   1.822
 5436SOL     OW17206   4.466   4.521   3.159
 5436SOL    HW117207   4.543   4.537   3.097
 5436SOL    HW217208   4.488   4.446   3.221
 5437SOL     OW17209   2.646   4.509   0.066
 5437SOL    HW117210   2.566   4.473   0.114
 5437SOL    HW217211   2.621   4.537   6.997
 5438SOL     OW17212   6.519   2.211   1.620
 5438SOL    HW117213   6.439   2.151   1.625
 5438SOL    HW217214   6.490   2.306   1.627
 5439SOL     OW17215   1.481   2.152   1.442
 5439SOL    HW117216   1.562   2.210   1.438
 5439SOL    HW217217   1.414   2.183   1.375
 5440SOL     OW17218   1.471   1.713   1.349
 5440SOL    HW117219   1.463   1.799   1.298
 5440SOL    HW217220   1.494   1.639   1.286
 5441SOL     OW17221   3.632   2.131   3.926
 5441SOL    HW117222   3.545   2.119   3.974
 5441SOL    HW217223   3.705   2.144   3.993
 5442SOL     OW17224   3.985   6.570   2.262
 5442SOL    HW117225   3.973   6.490   2.203
 5442SOL    HW217226   3.920   6.565   2.338
 5443SOL     OW17227   3.213   0.117   5.076
 5443SOL    HW117228   3.184   0.040   5.019
 5443SOL    HW217229   3.293   0.160   5.035
 5444SOL     OW17230   0.755   0.344   4.114
 5444SOL    HW117231   0.822   0.303   4.051
 5444SOL    HW217232   0.666   0.350   4.069
 5445SOL     OW17233   6.317   4.110   3.157
 5445SOL    HW117234   6.409   4.101   3.118
 5445SOL    HW217235   6.323   4.159   3.244
 5446SOL     OW17236   5.940   5.594   4.864
 5446SOL    HW117237   5.885   5.626   4.787
 5446SOL    HW217238   5.880   5.569   4.939
 5447SOL     OW17239   3.027   2.955   0.016
 5447SOL    HW117240   2.962   2.887   0.047
 5447SOL    HW217241   3.076   2.921   6.959
 5448SOL     OW17242   5.097   2.102   5.554
 5448SOL    HW117243   4.998   2.087   5.557
 5448SOL    HW217244   5.144   2.014   5.546
 5449SOL     OW17245   1.350   2.869   0.049
 5449SOL    HW117246   1.343   2.803   0.123
 5449SOL    HW217247   1.288   2.842   6.998
 5450SOL     OW17248   2.381   1.045   1.795
 5450SOL    HW117249   2.401   0.947   1.795
 5450SOL    HW217250   2.400   1.082   1.886
 5451SOL     OW17251   0.683   5.823   3.004
 5451SOL    HW117252   0.688   5.728   2.972
 5451SOL    HW217253   0.775   5.863   3.001
 5452SOL     OW17254   1.784   4.469   0.369
 5452SOL    HW117255   1.755   4.430   0.281
 5452SOL    HW217256   1.881   4.451   0.383
 5453SOL     OW17257   6.232   3.845   0.473
 5453SOL    HW117258   6.237   3.933   0.425
 5453SOL    HW217259   6.297   3.781   0.433
 5454SOL     OW17260   6.948   4.684   6.420
 5454SOL    HW117261   6.853   4.656   6.436
 5454SOL    HW217262   6.999   4.607   6.381
 5455SOL     OW17263   0.151   3.142   1.443
 5455SOL    HW117264   0.237   3.165   1.489
 5455SOL    HW217265   0.162   3.055   1.394
 5456SOL     OW17266   3.037   0.770   6.601
 5456SOL    HW117267   3.131   0.798   6.584
 5456SOL    HW217268   3.025   0.748   6.698
 5457SOL     OW17269   5.567   2.651   0.586
 5457SOL    HW117270   5.474   2.644   0.621
 5457SOL    HW217271   5.632   2.654   0.663
 5458SOL     OW17272   0.754   4.441   6.912
 5458SOL    HW117273   0.809   4.407   6.988
 5458SOL    HW217274   0.717   4.364   6.860
 5459SOL     OW17275   2.284   5.194   0.168
 5459SOL    HW117276   2.199   5.166   0.124
 5459SOL    HW217277   2.316   5.279   0.128
 5460SOL     OW17278   3.174   0.579   1.487
 5460SOL    HW117279   3.208   0.487   1.508
 5460SOL    HW217280   3.216   0.612   1.402
 5461SOL     OW17281   5.203   6.393   5.164
 5461SOL    HW117282   5.179   6.470   5.104
 5461SOL    HW217283   5.280   6.419   5.222
 5462SOL     OW17284   1.942   0.603   0.693
 5462SOL    HW117285   2.037   0.583   0.717
 5462SOL    HW217286   1.908   0.677   0.751
 5463SOL     OW17287   5.995   2.713   0.776
 5463SOL    HW117288   5.905   2.669   0.776
 5463SOL    HW217289   6.061   2.656   0.729
 5464SOL     OW17290   1.926   0.533   4.081
 5464SOL    HW117291   1.871   0.462   4.037
 5464SOL    HW217292   1.885   0.557   4.169
 5465SOL     OW17293   3.805   6.970   4.545
 5465SOL    HW117294   3.852   6.881   4.544
 5465SOL    HW217295   3.868   0.018   4.517
 5466SOL     OW17296   4.990   4.220   4.544
 5466SOL    HW117297   4.961   4.283   4.617
 5466SOL    HW217298   5.014   4.273   4.462
 5467SOL     OW17299   5.711   1.286   2.855
 5467SOL    HW117300   5.705   1.252   2.761
 5467SOL    HW217301   5.646   1.236   2.912
 5468SOL     OW17302   4.669   1.678   4.448
 5468SOL    HW117303   4.653   1.693   4.545
 5468SOL    HW217304   4.586   1.704   4.397
 5469SOL     OW17305   4.192   4.722   6.109
 5469SOL    HW117306   4.151   4.778   6.037
 5469SOL    HW217307   4.160   4.628   6.101
 5470SOL     OW17308   2.017   4.986   3.538
 5470SOL    HW117309   1.961   5.061   3.574
 5470SOL    HW217310   1.957   4.917   3.497
 5471SOL     OW17311   5.947   5.923   1.195
 5471SOL    HW117312   5.994   5.869   1.264
 5471SOL    HW217313   5.877   5.866   1.150
 5472SOL     OW17314   3.900   3.982   6.128
 5472SOL    HW117315   3.828   4.039   6.168
 5472SOL    HW217316   3.859   3.903   6.083
 5473SOL     OW17317   1.170   3.208   3.321
 5473SOL    HW117318   1.147   3.300   3.289
 5473SOL    HW217319   1.128   3.140   3.260
 5474SOL     OW17320   2.070   4.844   3.799
 5474SOL    HW117321   1.998   4.798   3.747
 5474SOL    HW217322   2.029   4.909   3.863
 5475SOL     OW17323   3.207   2.051   1.027
 5475SOL    HW117324   3.233   2.042   1.123
 5475SOL    HW217325   3.277   2.008   0.969
 5476SOL     OW17326   1.469   3.197   6.185
 5476SOL    HW117327   1.486   3.222   6.090
 5476SOL    HW217328   1.530   3.123   6.212
 5477SOL     OW17329   2.128   3.007   3.355
 5477SOL    HW117330   2.085   3.031   3.442
 5477SOL    HW217331   2.210   2.953   3.373
 5478SOL     OW17332   5.172   5.959   5.851
 5478SOL    HW117333   5.158   5.872   5.899
 5478SOL    HW217334   5.095   5.976   5.789
 5479SOL     OW17335   5.035   0.173   4.468
 5479SOL    HW117336   4.998   0.087   4.504
 5479SOL    HW217337   4.998   0.190   4.377
 5480SOL     OW17338   0.937   4.259   4.754
 5480SOL    HW117339   0.941   4.185   4.687
 5480SOL    HW217340   0.842   4.276   4.779
 5481SOL     OW17341   3.547   0.019   4.709
 5481SOL    HW117342   3.582   0.012   4.802
 5481SOL    HW217343   3.610   6.997   4.646
 5482SOL     OW17344   3.583   4.383   1.748
 5482SOL    HW117345   3.597   4.479   1.774
 5482SOL    HW217346   3.507   4.377   1.683
 5483SOL     OW17347   0.410   2.681   5.767
 5483SOL    HW117348   0.311   2.692   5.771
 5483SOL    HW217349   0.433   2.584   5.760
 5484SOL     OW17350   4.410   0.500   4.253
 5484SOL    HW117351   4.344   0.539   4.317
 5484SOL    HW217352   4.449   0.572   4.197
 5485SOL     OW17353   2.907   6.220   5.357
 5485SOL    HW117354   2.973   6.293   5.374
 5485SOL    HW217355   2.953   6.131   5.361
 5486SOL     OW17356   2.781   5.826   4.680
 5486SOL    HW117357   2.744   5.884   4.753
 5486SOL    HW217358   2.733   5.845   4.595
 5487SOL     OW17359   2.229   4.757   6.046
 5487SOL    HW117360   2.326   4.743   6.028
 5487SOL    HW217361   2.179   4.672   6.029
 5488SOL     OW17362   6.062   0.992   0.639
 5488SOL    HW117363   6.092   1.074   0.688
 5488SOL    HW217364   5.995   0.943   0.695
 5489SOL     OW17365   6.961   3.220   2.056
 5489SOL    HW117366   6.991   3.277   2.132
 5489SOL    HW217367   6.877   3.171   2.081
 5490SOL     OW17368   0.823   6.833   2.808
 5490SOL    HW117369   0.879   6.863   2.731
 5490SOL    HW217370   0.811   6.733   2.804
 5491SOL     OW17371   0.020   3.407   1.032
 5491SOL    HW117372   6.955   3.454   1.026
 5491SOL    HW217373   0.086   3.468   1.075
 5492SOL     OW17374   0.588   1.452   5.461
 5492SOL    HW117375   0.654   1.522   5.433
 5492SOL    HW217376   0.509   1.497   5.503
 5493SOL     OW17377   4.070   3.672   1.643
 5493SOL    HW117378   3.980   3.662   1.601
 5493SOL    HW217379   4.073   3.622   1.729
 5494SOL     OW17380   5.861   4.273   5.072
 5494SOL    HW117381   5.890   4.251   4.979
 5494SOL    HW217382   5.768   4.241   5.087
 5495SOL     OW17383   6.244   0.550   0.423
 5495SOL    HW117384   6.189   0.601   0.357
 5495SOL    HW217385   6.272   0.463   0.383
 5496SOL     OW17386   4.249   0.681   4.397
 5496SOL    HW117387   4.305   0.764   4.399
 5496SOL    HW217388   4.154   0.706   4.378
 5497SOL     OW17389   0.872   1.110   6.222
 5497SOL    HW117390   0.964   1.134   6.189
 5497SOL    HW217391   0.858   1.012   6.212
 5498SOL     OW17392   0.966   4.869   2.196
 5498SOL    HW117393   0.874   4.847   2.231
 5498SOL    HW217394   0.958   4.932   2.119
 5499SOL     OW17395   0.707   0.338   5.003
 5499SOL    HW117396   0.744   0.334   5.096
 5499SOL    HW217397   0.658   0.253   4.982
 5500SOL     OW17398   2.425   0.599   0.424
 5500SOL    HW117399   2.366   0.553   0.358
 5500SOL    HW217400   2.369   0.661   0.481
 5501SOL     OW17401   3.971   2.544   6.725
 5501SOL    HW117402   4.055   2.549   6.779
 5501SOL    HW217403   3.978   2.469   6.659
 5502SOL     OW17404   4.614   2.021   0.160
 5502SOL    HW117405   4.658   2.097   0.207
 5502SOL    HW217406   4.570   2.053   0.077
 5503SOL     OW17407   0.280   3.610   0.281
 5503SOL    HW117408   0.268   3.528   0.336
 5503SOL    HW217409   0.365   3.603   0.229
 5504SOL     OW17410   3.825   1.048   6.546
 5504SOL    HW117411   3.811   1.055   6.447
 5504SOL    HW217412   3.871   1.130   6.579
 5505SOL     OW17413   2.544   4.520   4.499
 5505SOL    HW117414   2.628   4.560   4.536
 5505SOL    HW217415   2.468   4.539   4.561
 5506SOL     OW17416   0.390   3.756   6.124
 5506SOL    HW117417   0.375   3.657   6.119
 5506SOL    HW217418   0.326   3.797   6.189
 5507SOL     OW17419   3.031   0.234   6.601
 5507SOL    HW117420   2.935   0.214   6.623
 5507SOL    HW217421   3.085   0.149   6.607
 5508SOL     OW17422   0.419   0.918   6.908
 5508SOL    HW117423   0.448   0.836   6.858
 5508SOL    HW217424   0.455   0.914   7.001
 5509SOL     OW17425   7.002   5.513   0.152
 5509SOL    HW117426   6.905   5.492   0.159
 5509SOL    HW217427   0.032   5.430   0.167
 5510SOL     OW17428   4.094   5.232   6.916
 5510SOL    HW117429   4.192   5.242   6.932
 5510SOL    HW217430   4.047   5.218   7.004
 5511SOL     OW17431   0.598   1.124   5.590
 5511SOL    HW117432   0.549   1.211   5.585
 5511SOL    HW217433   0.557   1.059   5.526
 5512SOL     OW17434   4.019   1.019   2.227
 5512SOL    HW117435   4.019   0.919   2.221
 5512SOL    HW217436   4.114   1.051   2.232
 5513SOL     OW17437   4.294   5.002   6.641
 5513SOL    HW117438   4.205   5.046   6.634
 5513SOL    HW217439   4.334   4.992   6.550
 5514SOL     OW17440   3.090   0.328   6.350
 5514SOL    HW117441   3.022   0.385   6.304
 5514SOL    HW217442   3.064   0.316   6.446
 5515SOL     OW17443   2.687   5.990   2.484
 5515SOL    HW117444   2.629   5.969   2.405
 5515SOL    HW217445   2.638   6.052   2.546
 5516SOL     OW17446   2.441   2.724   5.150
 5516SOL    HW117447   2.529   2.725   5.197
 5516SOL    HW217448   2.418   2.817   5.120
 5517SOL     OW17449   1.605   3.604   2.892
 5517SOL    HW117450   1.578   3.533   2.826
 5517SOL    HW217451   1.617   3.691   2.844
 5518SOL     OW17452   4.674   4.328   5.418
 5518SOL    HW117453   4.704   4.235   5.437
 5518SOL    HW217454   4.636   4.333   5.326
 5519SOL     OW17455   4.650   2.413   3.663
 5519SOL    HW117456   4.739   2.369   3.675
 5519SOL    HW217457   4.587   2.351   3.616
 5520SOL     OW17458   5.220   6.679   1.981
 5520SOL    HW117459   5.146   6.659   2.046
 5520SOL    HW217460   5.218   6.612   1.907
 5521SOL     OW17461   6.052   5.903   1.669
 5521SOL    HW117462   5.970   5.869   1.623
 5521SOL    HW217463   6.029   5.929   1.763
 5522SOL     OW17464   6.014   5.832   0.810
 5522SOL    HW117465   5.988   5.920   0.851
 5522SOL    HW217466   6.028   5.844   0.712
 5523SOL     OW17467   5.705   0.895   2.466
 5523SOL    HW117468   5.612   0.865   2.483
 5523SOL    HW217469   5.738   0.856   2.380
 5524SOL     OW17470   2.984   0.962   4.309
 5524SOL    HW117471   2.949   0.882   4.359
 5524SOL    HW217472   2.978   1.043   4.367
 5525SOL     OW17473   6.122   1.978   1.438
 5525SOL    HW117474   6.128   2.037   1.358
 5525SOL    HW217475   6.054   1.907   1.423
 5526SOL     OW17476   4.621   5.016   3.288
 5526SOL    HW117477   4.655   5.105   3.256
 5526SOL    HW217478   4.588   4.963   3.209
 5527SOL     OW17479   5.804   2.243   3.812
 5527SOL    HW117480   5.762   2.333   3.807
 5527SOL    HW217481   5.806   2.202   3.721
 5528SOL     OW17482   0.938   1.865   1.500
 5528SOL    HW117483   0.984   1.929   1.561
 5528SOL    HW217484   1.006   1.811   1.450
 5529SOL     OW17485   3.835   0.700   1.946
 5529SOL    HW117486   3.820   0.618   2.001
 5529SOL    HW217487   3.780   0.775   1.983
 5530SOL     OW17488   6.472   2.171   1.346
 5530SOL    HW117489   6.477   2.074   1.321
 5530SOL    HW217490   6.488   2.181   1.444
 5531SOL     OW17491   3.082   4.189   1.354
 5531SOL    HW117492   3.049   4.110   1.406
 5531SOL    HW217493   3.035   4.272   1.386
 5532SOL     OW17494   1.653   3.109   1.518
 5532SOL    HW117495   1.700   3.100   1.430
 5532SOL    HW217496   1.562   3.148   1.503
 5533SOL     OW17497   4.104   1.830   3.443
 5533SOL    HW117498   4.158   1.769   3.385
 5533SOL    HW217499   4.029   1.779   3.484
 5534SOL     OW17500   0.870   1.112   4.777
 5534SOL    HW117501   0.881   1.013   4.779
 5534SOL    HW217502   0.952   1.154   4.739
 5535SOL     OW17503   0.750   2.015   3.296
 5535SOL    HW117504   0.838   2.058   3.311
 5535SOL    HW217505   0.676   2.080   3.314
 5536SOL     OW17506   3.684   0.352   4.379
 5536SOL    HW117507   3.736   0.372   4.463
 5536SOL    HW217508   3.748   0.331   4.305
 5537SOL     OW17509   3.367   1.031   3.110
 5537SOL    HW117510   3.316   1.093   3.170
 5537SOL    HW217511   3.465   1.042   3.126
 5538SOL     OW17512   4.407   5.886   4.517
 5538SOL    HW117513   4.467   5.966   4.516
 5538SOL    HW217514   4.461   5.803   4.530
 5539SOL     OW17515   2.336   3.674   0.402
 5539SOL    HW117516   2.352   3.644   0.496
 5539SOL    HW217517   2.246   3.645   0.372
 5540SOL     OW17518   5.419   4.603   2.189
 5540SOL    HW117519   5.327   4.618   2.154
 5540SOL    HW217520   5.418   4.604   2.289
 5541SOL     OW17521   4.440   1.388   5.367
 5541SOL    HW117522   4.475   1.295   5.367
 5541SOL    HW217523   4.340   1.387   5.366
 5542SOL     OW17524   5.011   4.383   5.737
 5542SOL    HW117525   4.952   4.437   5.798
 5542SOL    HW217526   5.062   4.316   5.791
 5543SOL     OW17527   6.617   2.592   5.788
 5543SOL    HW117528   6.696   2.579   5.848
 5543SOL    HW217529   6.534   2.599   5.843
 5544SOL     OW17530   5.802   1.400   5.945
 5544SOL    HW117531   5.842   1.350   5.867
 5544SOL    HW217532   5.780   1.494   5.916
 5545SOL     OW17533   3.123   2.143   2.116
 5545SOL    HW117534   3.111   2.146   2.216
 5545SOL    HW217535   3.040   2.179   2.072
 5546SOL     OW17536   1.696   5.161   5.763
 5546SOL    HW117537   1.737   5.090   5.706
 5546SOL    HW217538   1.604   5.132   5.791
 5547SOL     OW17539   3.854   5.639   4.887
 5547SOL    HW117540   3.892   5.549   4.908
 5547SOL    HW217541   3.875   5.662   4.792
 5548SOL     OW17542   6.544   3.462   5.476
 5548SOL    HW117543   6.477   3.518   5.524
 5548SOL    HW217544   6.536   3.367   5.505
 5549SOL     OW17545   2.707   4.870   6.633
 5549SOL    HW117546   2.738   4.963   6.652
 5549SOL    HW217547   2.721   4.813   6.713
 5550SOL     OW17548   3.981   6.443   1.448
 5550SOL    HW117549   4.008   6.368   1.388
 5550SOL    HW217550   4.039   6.442   1.530
 5551SOL     OW17551   0.590   1.189   3.276
 5551SOL    HW117552   0.689   1.193   3.271
 5551SOL    HW217553   0.561   1.099   3.308
 5552SOL     OW17554   0.128   2.604   2.112
 5552SOL    HW117555   0.154   2.630   2.204
 5552SOL    HW217556   0.126   2.686   2.053
 5553SOL     OW17557   4.901   5.941   0.310
 5553SOL    HW117558   4.974   5.961   0.376
 5553SOL    HW217559   4.893   6.017   0.245
 5554SOL     OW17560   2.846   1.999   4.566
 5554SOL    HW117561   2.843   1.928   4.495
 5554SOL    HW217562   2.836   1.956   4.656
 5555SOL     OW17563   6.968   5.820   2.684
 5555SOL    HW117564   0.008   5.846   2.611
 5555SOL    HW217565   6.892   5.885   2.687
 5556SOL     OW17566   0.435   1.037   4.752
 5556SOL    HW117567   0.343   1.002   4.733
 5556SOL    HW217568   0.444   1.052   4.851
 5557SOL     OW17569   2.658   0.283   3.656
 5557SOL    HW117570   2.732   0.216   3.654
 5557SOL    HW217571   2.694   0.373   3.632
 5558SOL     OW17572   5.026   2.927   4.799
 5558SOL    HW117573   5.084   2.966   4.870
 5558SOL    HW217574   5.072   2.849   4.757
 5559SOL     OW17575   1.852   0.859   1.428
 5559SOL    HW117576   1.819   0.948   1.396
 5559SOL    HW217577   1.914   0.872   1.505
 5560SOL     OW17578   0.270   0.917   4.161
 5560SOL    HW117579   0.211   0.974   4.102
 5560SOL    HW217580   0.366   0.933   4.137
 5561SOL     OW17581   1.392   3.602   3.487
 5561SOL    HW117582   1.379   3.557   3.576
 5561SOL    HW217583   1.411   3.533   3.417
 5562SOL     OW17584   2.370   2.396   5.440
 5562SOL    HW117585   2.332   2.461   5.375
 5562SOL    HW217586   2.429   2.444   5.505
 5563SOL     OW17587   4.381   5.036   1.327
 5563SOL    HW117588   4.338   5.124   1.308
 5563SOL    HW217589   4.312   4.970   1.354
 5564SOL     OW17590   6.069   4.453   1.769
 5564SOL    HW117591   6.050   4.525   1.702
 5564SOL    HW217592   6.135   4.487   1.837
 5565SOL     OW17593   2.719   3.472   5.780
 5565SOL    HW117594   2.708   3.520   5.867
 5565SOL    HW217595   2.654   3.509   5.714
 5566SOL     OW17596   2.056   4.851   1.301
 5566SOL    HW117597   2.096   4.941   1.320
 5566SOL    HW217598   2.116   4.779   1.336
 5567SOL     OW17599   1.783   5.922   2.375
 5567SOL    HW117600   1.732   5.844   2.338
 5567SOL    HW217601   1.877   5.919   2.341
 5568SOL     OW17602   3.497   2.178   1.462
 5568SOL    HW117603   3.431   2.136   1.524
 5568SOL    HW217604   3.462   2.172   1.368
 5569SOL     OW17605   5.712   1.854   0.257
 5569SOL    HW117606   5.680   1.802   0.336
 5569SOL    HW217607   5.743   1.790   0.186
 5570SOL     OW17608   6.410   4.305   5.785
 5570SOL    HW117609   6.311   4.313   5.774
 5570SOL    HW217610   6.433   4.216   5.823
 5571SOL     OW17611   6.716   4.395   5.838
 5571SOL    HW117612   6.619   4.401   5.861
 5571SOL    HW217613   6.737   4.462   5.766
 5572SOL     OW17614   5.024   2.852   5.918
 5572SOL    HW117615   4.993   2.793   5.993
 5572SOL    HW217616   5.120   2.833   5.898
 5573SOL     OW17617   0.925   4.146   0.839
 5573SOL    HW117618   1.006   4.184   0.796
 5573SOL    HW217619   0.844   4.174   0.788
 5574SOL     OW17620   0.196   6.016   4.765
 5574SOL    HW117621   0.131   6.018   4.842
 5574SOL    HW217622   0.175   6.091   4.702
 5575SOL     OW17623   1.888   1.132   1.034
 5575SOL    HW117624   1.893   1.135   1.134
 5575SOL    HW217625   1.868   1.223   0.999
 5576SOL     OW17626   6.452   6.114   6.416
 5576SOL    HW117627   6.524   6.128   6.349
 5576SOL    HW217628   6.441   6.198   6.470
 5577SOL     OW17629   2.211   3.749   5.211
 5577SOL    HW117630   2.302   3.788   5.201
 5577SOL    HW217631   2.143   3.822   5.217
 5578SOL     OW17632   4.004   2.090   5.864
 5578SOL    HW117633   4.079   2.157   5.861
 5578SOL    HW217634   3.918   2.137   5.887
 5579SOL     OW17635   5.138   4.911   0.585
 5579SOL    HW117636   5.063   4.916   0.519
 5579SOL    HW217637   5.225   4.908   0.535
 5580SOL     OW17638   5.217   1.213   1.151
 5580SOL    HW117639   5.301   1.266   1.164
 5580SOL    HW217640   5.151   1.267   1.100
 5581SOL     OW17641   2.655   2.582   0.158
 5581SOL    HW117642   2.625   2.508   0.219
 5581SOL    HW217643   2.741   2.621   0.193
 5582SOL     OW17644   3.644   3.249   3.638
 5582SOL    HW117645   3.609   3.218   3.549
 5582SOL    HW217646   3.735   3.289   3.626
 5583SOL     OW17647   3.617   0.749   0.368
 5583SOL    HW117648   3.670   0.665   0.352
 5583SOL    HW217649   3.610   0.767   0.466
 5584SOL     OW17650   5.760   3.011   2.982
 5584SOL    HW117651   5.792   3.059   3.064
 5584SOL    HW217652   5.835   3.008   2.915
 5585SOL     OW17653   6.513   6.998   4.328
 5585SOL    HW117654   6.417   6.999   4.299
 5585SOL    HW217655   6.552   6.908   4.310
 5586SOL     OW17656   2.233   1.203   6.547
 5586SOL    HW117657   2.142   1.240   6.530
 5586SOL    HW217658   2.299   1.252   6.490
 5587SOL     OW17659   3.480   0.317   3.818
 5587SOL    HW117660   3.521   0.316   3.909
 5587SOL    HW217661   3.444   0.408   3.798
 5588SOL     OW17662   4.473   0.102   6.158
 5588SOL    HW117663   4.498   0.172   6.091
 5588SOL    HW217664   4.410   0.037   6.117
 5589SOL     OW17665   3.733   3.073   6.396
 5589SOL    HW117666   3.806   3.019   6.438
 5589SOL    HW217667   3.659   3.012   6.367
 5590SOL     OW17668   7.008   6.755   3.532
 5590SOL    HW117669   0.013   6.661   3.514
 5590SOL    HW217670   6.927   6.777   3.477
 5591SOL     OW17671   4.958   0.754   0.005
 5591SOL    HW117672   4.868   0.731   0.040
 5591SOL    HW217673   5.022   0.679   0.023
 5592SOL     OW17674   2.294   1.773   3.013
 5592SOL    HW117675   2.218   1.745   3.072
 5592SOL    HW217676   2.267   1.766   2.917
 5593SOL     OW17677   1.065   2.973   5.216
 5593SOL    HW117678   1.118   2.891   5.236
 5593SOL    HW217679   1.126   3.048   5.192
 5594SOL     OW17680   2.663   0.881   6.317
 5594SOL    HW117681   2.712   0.794   6.317
 5594SOL    HW217682   2.698   0.939   6.391
 5595SOL     OW17683   0.226   1.312   5.487
 5595SOL    HW117684   0.185   1.240   5.543
 5595SOL    HW217685   0.294   1.272   5.426
 5596SOL     OW17686   4.881   1.783   2.735
 5596SOL    HW117687   4.783   1.793   2.718
 5596SOL    HW217688   4.899   1.800   2.832
 5597SOL     OW17689   0.281   1.281   6.172
 5597SOL    HW117690   0.374   1.263   6.139
 5597SOL    HW217691   0.280   1.363   6.229
 5598SOL     OW17692   6.894   2.214   4.267
 5598SOL    HW117693   6.969   2.147   4.266
 5598SOL    HW217694   6.913   2.286   4.201
 5599SOL     OW17695   4.746   2.856   3.322
 5599SOL    HW117696   4.808   2.916   3.373
 5599SOL    HW217697   4.689   2.805   3.386
 5600SOL     OW17698   2.597   1.322   2.166
 5600SOL    HW117699   2.619   1.368   2.080
 5600SOL    HW217700   2.667   1.344   2.234
 5601SOL     OW17701   6.113   2.660   5.406
 5601SOL    HW117702   6.027   2.701   5.376
 5601SOL    HW217703   6.148   2.598   5.336
 5602SOL     OW17704   6.473   2.351   2.534
 5602SOL    HW117705   6.425   2.382   2.452
 5602SOL    HW217706   6.568   2.330   2.512
 5603SOL     OW17707   4.318   0.893   5.630
 5603SOL    HW117708   4.246   0.944   5.676
 5603SOL    HW217709   4.281   0.807   5.594
 5604SOL     OW17710   1.118   0.212   3.751
 5604SOL    HW117711   1.126   0.115   3.773
 5604SOL    HW217712   1.169   0.232   3.667
 5605SOL     OW17713   4.347   6.483   4.210
 5605SOL    HW117714   4.248   6.476   4.205
 5605SOL    HW217715   4.384   6.400   4.250
 5606SOL     OW17716   4.708   2.838   0.526
 5606SOL    HW117717   4.643   2.895   0.577
 5606SOL    HW217718   4.680   2.832   0.430
 5607SOL     OW17719   6.133   2.643   2.738
 5607SOL    HW117720   6.215   2.594   2.768
 5607SOL    HW217721   6.121   2.630   2.639
 5608SOL     OW17722   5.088   0.820   3.423
 5608SOL    HW117723   5.085   0.878   3.505
 5608SOL    HW217724   4.996   0.811   3.385
 5609SOL     OW17725   6.831   0.447   0.927
 5609SOL    HW117726   6.926   0.465   0.904
 5609SOL    HW217727   6.773   0.518   0.887
 5610SOL     OW17728   4.954   5.167   1.258
 5610SOL    HW117729   5.014   5.223   1.200
 5610SOL    HW217730   4.869   5.217   1.276
 5611SOL     OW17731   6.221   5.153   1.878
 5611SOL    HW117732   6.172   5.119   1.797
 5611SOL    HW217733   6.288   5.085   1.908
 5612SOL     OW17734   3.745   2.074   0.417
 5612SOL    HW117735   3.766   2.029   0.504
 5612SOL    HW217736   3.701   2.009   0.356
 5613SOL     OW17737   5.866   4.430   6.183
 5613SOL    HW117738   5.932   4.423   6.258
 5613SOL    HW217739   5.773   4.428   6.221
 5614SOL     OW17740   4.948   3.411   3.832
 5614SOL    HW117741   4.948   3.311   3.840
 5614SOL    HW217742   4.901   3.438   3.748
 5615SOL     OW17743   0.025   2.332   3.242
 5615SOL    HW117744   0.001   2.275   3.321
 5615SOL    HW217745   7.016   2.288   3.158
 5616SOL     OW17746   1.859   3.139   2.407
 5616SOL    HW117747   1.828   3.149   2.501
 5616SOL    HW217748   1.858   3.042   2.382
 5617SOL     OW17749   1.830   5.352   5.949
 5617SOL    HW117750   1.824   5.447   5.917
 5617SOL    HW217751   1.782   5.292   5.884
 5618SOL     OW17752   5.356   6.913   2.386
 5618SOL    HW117753   5.356   6.857   2.302
 5618SOL    HW217754   5.287   6.984   2.379
 5619SOL     OW17755   3.522   2.909   3.500
 5619SOL    HW117756   3.422   2.908   3.498
 5619SOL    HW217757   3.554   2.926   3.593
 5620SOL     OW17758   4.670   4.278   4.648
 5620SOL    HW117759   4.607   4.211   4.607
 5620SOL    HW217760   4.651   4.369   4.610
 5621SOL     OW17761   0.535   2.523   6.298
 5621SOL    HW117762   0.446   2.479   6.282
 5621SOL    HW217763   0.573   2.552   6.210
 5622SOL     OW17764   4.835   6.012   3.645
 5622SOL    HW117765   4.838   5.949   3.722
 5622SOL    HW217766   4.921   6.007   3.594
 5623SOL     OW17767   5.056   5.294   4.265
 5623SOL    HW117768   4.962   5.268   4.243
 5623SOL    HW217769   5.104   5.215   4.303
 5624SOL     OW17770   5.745   5.110   3.401
 5624SOL    HW117771   5.821   5.118   3.337
 5624SOL    HW217772   5.661   5.141   3.358
 5625SOL     OW17773   1.681   5.787   5.625
 5625SOL    HW117774   1.739   5.716   5.586
 5625SOL    HW217775   1.738   5.865   5.652
 5626SOL     OW17776   0.914   4.701   6.518
 5626SOL    HW117777   0.939   4.673   6.426
 5626SOL    HW217778   0.996   4.731   6.567
 5627SOL     OW17779   1.033   5.750   0.059
 5627SOL    HW117780   1.090   5.740   0.140
 5627SOL    HW217781   0.948   5.796   0.084
 5628SOL     OW17782   2.588   3.403   0.704
 5628SOL    HW117783   2.559   3.307   0.696
 5628SOL    HW217784   2.672   3.416   0.651
 5629SOL     OW17785   5.736   3.530   2.458
 5629SOL    HW117786   5.702   3.443   2.421
 5629SOL    HW217787   5.702   3.541   2.551
 5630SOL     OW17788   1.086   4.001   6.616
 5630SOL    HW117789   1.035   3.976   6.699
 5630SOL    HW217790   1.173   4.043   6.642
 5631SOL     OW17791   3.589   1.718   1.912
 5631SOL    HW117792   3.490   1.701   1.919
 5631SOL    HW217793   3.605   1.816   1.910
 5632SOL     OW17794   5.014   6.980   5.789
 5632SOL    HW117795   5.072   0.007   5.726
 5632SOL    HW217796   4.936   6.942   5.740
 5633SOL     OW17797   0.796   5.068   5.325
 5633SOL    HW117798   0.790   5.156   5.372
 5633SOL    HW217799   0.879   5.065   5.270
 5634SOL     OW17800   1.958   0.620   1.339
 5634SOL    HW117801   1.992   0.560   1.411
 5634SOL    HW217802   1.927   0.706   1.379
 5635SOL     OW17803   2.882   0.574   0.879
 5635SOL    HW117804   2.846   0.661   0.912
 5635SOL    HW217805   2.980   0.582   0.865
 5636SOL     OW17806   5.414   1.468   5.801
 5636SOL    HW117807   5.480   1.409   5.848
 5636SOL    HW217808   5.417   1.559   5.842
 5637SOL     OW17809   5.092   6.832   4.680
 5637SOL    HW117810   5.143   6.820   4.595
 5637SOL    HW217811   5.155   6.840   4.757
 5638SOL     OW17812   6.343   4.918   1.183
 5638SOL    HW117813   6.245   4.903   1.195
 5638SOL    HW217814   6.389   4.829   1.176
 5639SOL     OW17815   2.118   0.785   1.962
 5639SOL    HW117816   2.083   0.866   2.008
 5639SOL    HW217817   2.102   0.792   1.864
 5640SOL     OW17818   2.923   6.730   2.497
 5640SOL    HW117819   2.969   6.818   2.489
 5640SOL    HW217820   2.854   6.721   2.424
 5641SOL     OW17821   6.714   4.356   3.682
 5641SOL    HW117822   6.776   4.331   3.608
 5641SOL    HW217823   6.634   4.402   3.644
 5642SOL     OW17824   1.723   3.972   6.900
 5642SOL    HW117825   1.723   3.973   6.800
 5642SOL    HW217826   1.630   3.965   6.934
 5643SOL     OW17827   4.796   2.110   5.110
 5643SOL    HW117828   4.701   2.082   5.121
 5643SOL    HW217829   4.846   2.038   5.061
 5644SOL     OW17830   4.605   0.907   4.794
 5644SOL    HW117831   4.566   0.824   4.754
 5644SOL    HW217832   4.569   0.987   4.747
 5645SOL     OW17833   6.267   5.758   4.157
 5645SOL    HW117834   6.252   5.786   4.062
 5645SOL    HW217835   6.215   5.675   4.176
 5646SOL     OW17836   0.488   5.797   4.142
 5646SOL    HW117837   0.482   5.876   4.203
 5646SOL    HW217838   0.404   5.743   4.149
 5647SOL     OW17839   5.707   4.720   6.286
 5647SOL    HW117840   5.709   4.752   6.191
 5647SOL    HW217841   5.679   4.624   6.288
 5648SOL     OW17842   2.055   1.442   5.364
 5648SOL    HW117843   2.032   1.403   5.274
 5648SOL    HW217844   1.982   1.420   5.429
 5649SOL     OW17845   0.927   0.771   5.306
 5649SOL    HW117846   0.889   0.762   5.214
 5649SOL    HW217847   1.008   0.830   5.303
 5650SOL     OW17848   6.429   5.120   0.243
 5650SOL    HW117849   6.354   5.146   0.304
 5650SOL    HW217850   6.410   5.030   0.204
 5651SOL     OW17851   6.417   1.178   2.778
 5651SOL    HW117852   6.487   1.248   2.764
 5651SOL    HW217853   6.326   1.219   2.768
 5652SOL     OW17854   5.136   4.519   0.503
 5652SOL    HW117855   5.211   4.583   0.523
 5652SOL    HW217856   5.068   4.565   0.445
 5653SOL     OW17857   1.876   6.528   6.287
 5653SOL    HW117858   1.919   6.547   6.198
 5653SOL    HW217859   1.777   6.540   6.279
 5654SOL     OW17860   0.895   5.945   5.599
 5654SOL    HW117861   0.828   6.016   5.620
 5654SOL    HW217862   0.977   5.986   5.560
 5655SOL     OW17863   0.220   3.458   3.847
 5655SOL    HW117864   0.212   3.557   3.847
 5655SOL    HW217865   0.128   3.418   3.845
 5656SOL     OW17866   3.137   4.589   6.964
 5656SOL    HW117867   3.180   4.502   6.942
 5656SOL    HW217868   3.160   4.656   6.893
 5657SOL     OW17869   4.158   5.935   1.833
 5657SOL    HW117870   4.160   6.029   1.866
 5657SOL    HW217871   4.221   5.925   1.756
 5658SOL     OW17872   4.806   6.751   5.379
 5658SOL    HW117873   4.859   6.720   5.458
 5658SOL    HW217874   4.738   6.817   5.408
 5659SOL     OW17875   3.540   3.463   2.906
 5659SOL    HW117876   3.625   3.454   2.958
 5659SOL    HW217877   3.554   3.530   2.832
 5660SOL     OW17878   5.875   6.974   0.810
 5660SOL    HW117879   5.794   6.993   0.754
 5660SOL    HW217880   5.948   6.937   0.752
 5661SOL     OW17881   6.662   5.786   4.586
 5661SOL    HW117882   6.590   5.854   4.583
 5661SOL    HW217883   6.751   5.831   4.594
 5662SOL     OW17884   2.330   4.431   4.355
 5662SOL    HW117885   2.277   4.512   4.381
 5662SOL    HW217886   2.417   4.430   4.405
 5663SOL     OW17887   1.274   4.036   0.143
 5663SOL    HW117888   1.231   4.110   0.195
 5663SOL    HW217889   1.223   3.951   0.158
 5664SOL     OW17890   0.461   4.839   2.981
 5664SOL    HW117891   0.499   4.757   3.025
 5664SOL    HW217892   0.480   4.835   2.883
 5665SOL     OW17893   2.436   2.452   6.031
 5665SOL    HW117894   2.467   2.472   6.124
 5665SOL    HW217895   2.353   2.397   6.034
 5666SOL     OW17896   6.045   5.562   0.505
 5666SOL    HW117897   6.143   5.566   0.485
 5666SOL    HW217898   6.030   5.504   0.585
 5667SOL     OW17899   0.329   5.468   3.539
 5667SOL    HW117900   0.285   5.518   3.465
 5667SOL    HW217901   0.421   5.504   3.554
 5668SOL     OW17902   6.374   2.346   5.487
 5668SOL    HW117903   6.330   2.407   5.553
 5668SOL    HW217904   6.404   2.399   5.408
 5669SOL     OW17905   6.750   3.431   5.890
 5669SOL    HW117906   6.684   3.501   5.861
 5669SOL    HW217907   6.824   3.425   5.823
 5670SOL     OW17908   1.243   4.175   3.825
 5670SOL    HW117909   1.191   4.119   3.762
 5670SOL    HW217910   1.260   4.265   3.784
 5671SOL     OW17911   1.943   1.418   5.633
 5671SOL    HW117912   1.867   1.361   5.664
 5671SOL    HW217913   2.026   1.395   5.685
 5672SOL     OW17914   5.189   4.997   5.760
 5672SOL    HW117915   5.288   4.997   5.752
 5672SOL    HW217916   5.155   4.902   5.759
 5673SOL     OW17917   1.192   0.594   1.887
 5673SOL    HW117918   1.214   0.641   1.972
 5673SOL    HW217919   1.140   0.655   1.827
 5674SOL     OW17920   6.860   3.682   1.358
 5674SOL    HW117921   6.845   3.607   1.423
 5674SOL    HW217922   6.789   3.680   1.288
 5675SOL     OW17923   4.220   2.157   5.434
 5675SOL    HW117924   4.141   2.140   5.374
 5675SOL    HW217925   4.293   2.200   5.381
 5676SOL     OW17926   2.960   0.688   1.617
 5676SOL    HW117927   3.028   0.656   1.550
 5676SOL    HW217928   2.870   0.689   1.574
 5677SOL     OW17929   7.003   0.142   4.214
 5677SOL    HW117930   6.948   0.071   4.258
 5677SOL    HW217931   6.966   0.232   4.238
 5678SOL     OW17932   1.807   5.397   3.043
 5678SOL    HW117933   1.749   5.317   3.056
 5678SOL    HW217934   1.862   5.412   3.125
 5679SOL     OW17935   1.943   6.221   5.178
 5679SOL    HW117936   1.851   6.254   5.200
 5679SOL    HW217937   1.945   6.121   5.184
 5680SOL     OW17938   2.337   6.859   6.480
 5680SOL    HW117939   2.426   6.833   6.442
 5680SOL    HW217940   2.335   6.840   6.578
 5681SOL     OW17941   0.931   3.440   0.546
 5681SOL    HW117942   0.840   3.482   0.543
 5681SOL    HW217943   0.990   3.483   0.477
 5682SOL     OW17944   1.016   3.689   4.322
 5682SOL    HW117945   1.024   3.645   4.233
 5682SOL    HW217946   0.938   3.650   4.372
 5683SOL     OW17947   3.700   2.514   5.380
 5683SOL    HW117948   3.600   2.507   5.382
 5683SOL    HW217949   3.726   2.594   5.326
 5684SOL     OW17950   3.201   3.853   3.562
 5684SOL    HW117951   3.212   3.952   3.561
 5684SOL    HW217952   3.176   3.821   3.470
 5685SOL     OW17953   6.938   5.160   2.156
 5685SOL    HW117954   7.009   5.096   2.187
 5685SOL    HW217955   6.920   5.145   2.059
 5686SOL     OW17956   3.430   6.382   6.548
 5686SOL    HW117957   3.331   6.368   6.545
 5686SOL    HW217958   3.468   6.377   6.456
 5687SOL     OW17959   5.028   5.320   6.188
 5687SOL    HW117960   5.100   5.297   6.123
 5687SOL    HW217961   4.955   5.252   6.182
 5688SOL     OW17962   5.834   1.714   1.880
 5688SOL    HW117963   5.793   1.794   1.837
 5688SOL    HW217964   5.904   1.675   1.820
 5689SOL     OW17965   3.514   2.791   0.683
 5689SOL    HW117966   3.480   2.879   0.651
 5689SOL    HW217967   3.475   2.717   0.628
 5690SOL     OW17968   4.972   6.669   1.318
 5690SOL    HW117969   5.053   6.618   1.346
 5690SOL    HW217970   4.996   6.765   1.304
 5691SOL     OW17971   1.417   0.112   2.403
 5691SOL    HW117972   1.463   0.113   2.492
 5691SOL    HW217973   1.379   0.202   2.384
 5692SOL     OW17974   5.520   2.728   6.564
 5692SOL    HW117975   5.431   2.689   6.589
 5692SOL    HW217976   5.509   2.826   6.547
 5693SOL     OW17977   4.747   2.771   3.081
 5693SOL    HW117978   4.661   2.721   3.067
 5693SOL    HW217979   4.747   2.812   3.172
 5694SOL     OW17980   0.358   1.901   4.124
 5694SOL    HW117981   0.380   1.955   4.206
 5694SOL    HW217982   0.437   1.846   4.098
 5695SOL     OW17983   2.126   3.388   3.191
 5695SOL    HW117984   2.114   3.379   3.092
 5695SOL    HW217985   2.179   3.311   3.225
 5696SOL     OW17986   3.138   0.061   5.330
 5696SOL    HW117987   3.179   0.075   5.240
 5696SOL    HW217988   3.114   0.149   5.370
 5697SOL     OW17989   6.385   3.302   0.195
 5697SOL    HW117990   6.418   3.390   0.159
 5697SOL    HW217991   6.462   3.249   0.229
 5698SOL     OW17992   0.336   4.006   2.019
 5698SOL    HW117993   0.323   3.986   1.922
 5698SOL    HW217994   0.298   4.096   2.039
 5699SOL     OW17995   6.113   0.901   5.229
 5699SOL    HW117996   6.019   0.892   5.198
 5699SOL    HW217997   6.170   0.935   5.154
 5700SOL     OW17998   1.406   5.780   3.378
 5700SOL    HW117999   1.463   5.799   3.457
 5700SOL    HW218000   1.409   5.682   3.358
 5701SOL     OW18001   6.200   5.243   1.174
 5701SOL    HW118002   6.159   5.229   1.084
 5701SOL    HW218003   6.203   5.340   1.195
 5702SOL     OW18004   1.693   0.528   6.648
 5702SOL    HW118005   1.694   0.429   6.633
 5702SOL    HW218006   1.686   0.547   6.746
 5703SOL     OW18007   4.199   4.250   0.797
 5703SOL    HW118008   4.171   4.160   0.763
 5703SOL    HW218009   4.288   4.274   0.757
 5704SOL     OW18010   3.620   5.395   3.518
 5704SOL    HW118011   3.712   5.403   3.555
 5704SOL    HW218012   3.583   5.486   3.499
 5705SOL     OW18013   6.287   1.016   1.768
 5705SOL    HW118014   6.218   0.996   1.698
 5705SOL    HW218015   6.255   0.982   1.856
 5706SOL     OW18016   1.617   1.250   6.562
 5706SOL    HW118017   1.532   1.221   6.517
 5706SOL    HW218018   1.652   1.332   6.518
 5707SOL     OW18019   2.924   2.545   0.293
 5707SOL    HW118020   3.012   2.581   0.321
 5707SOL    HW218021   2.903   2.463   0.347
 5708SOL     OW18022   5.216   6.567   1.356
 5708SOL    HW118023   5.288   6.621   1.313
 5708SOL    HW218024   5.249   6.473   1.370
 5709SOL     OW18025   1.613   0.630   3.012
 5709SOL    HW118026   1.556   0.582   3.078
 5709SOL    HW218027   1.611   0.728   3.031
 5710SOL     OW18028   3.187   3.325   6.436
 5710SOL    HW118029   3.220   3.398   6.376
 5710SOL    HW218030   3.091   3.307   6.415
 5711SOL     OW18031   3.898   1.112   3.836
 5711SOL    HW118032   3.938   1.184   3.893
 5711SOL    HW218033   3.809   1.087   3.872
 5712SOL     OW18034   0.265   6.070   6.281
 5712SOL    HW118035   0.241   6.051   6.186
 5712SOL    HW218036   0.274   5.985   6.332
 5713SOL     OW18037   6.389   2.106   2.893
 5713SOL    HW118038   6.362   2.185   2.949
 5713SOL    HW218039   6.308   2.067   2.849
 5714SOL     OW18040   1.512   0.973   6.730
 5714SOL    HW118041   1.503   0.882   6.772
 5714SOL    HW218042   1.602   0.979   6.685
 5715SOL     OW18043   1.125   6.361   3.496
 5715SOL    HW118044   1.120   6.283   3.434
 5715SOL    HW218045   1.057   6.351   3.568
 5716SOL     OW18046   2.273   3.232   6.099
 5716SOL    HW118047   2.200   3.300   6.087
 5716SOL    HW218048   2.250   3.149   6.047
 5717SOL     OW18049   0.844   3.903   0.747
 5717SOL    HW118050   0.873   3.989   0.789
 5717SOL    HW218051   0.922   3.841   0.740
 5718SOL     OW18052   2.234   4.491   5.538
 5718SOL    HW118053   2.260   4.520   5.446
 5718SOL    HW218054   2.219   4.392   5.540
 5719SOL     OW18055   3.381   0.775   6.286
 5719SOL    HW118056   3.372   0.801   6.190
 5719SOL    HW218057   3.315   0.703   6.308
 5720SOL     OW18058   1.357   4.810   4.431
 5720SOL    HW118059   1.362   4.731   4.493
 5720SOL    HW218060   1.420   4.881   4.463
 5721SOL     OW18061   0.827   4.541   1.346
 5721SOL    HW118062   0.826   4.525   1.248
 5721SOL    HW218063   0.862   4.461   1.393
 5722SOL     OW18064   5.758   0.284   4.507
 5722SOL    HW118065   5.725   0.220   4.438
 5722SOL    HW218066   5.849   0.255   4.538
 5723SOL     OW18067   2.483   5.127   0.941
 5723SOL    HW118068   2.468   5.066   1.018
 5723SOL    HW218069   2.445   5.217   0.962
 5724SOL     OW18070   4.947   1.868   6.785
 5724SOL    HW118071   4.978   1.774   6.774
 5724SOL    HW218072   5.017   1.921   6.834
 5725SOL     OW18073   4.959   5.549   6.480
 5725SOL    HW118074   4.943   5.596   6.393
 5725SOL    HW218075   4.969   5.616   6.553
 5726SOL     OW18076   5.474   3.465   6.103
 5726SOL    HW118077   5.391   3.445   6.051
 5726SOL    HW218078   5.515   3.550   6.068
 5727SOL     OW18079   6.476   2.097   3.517
 5727SOL    HW118080   6.422   2.066   3.439
 5727SOL    HW218081   6.572   2.102   3.490
 5728SOL     OW18082   6.233   0.628   5.883
 5728SOL    HW118083   6.155   0.653   5.940
 5728SOL    HW218084   6.297   0.704   5.879
 5729SOL     OW18085   0.531   2.215   5.924
 5729SOL    HW118086   0.619   2.216   5.970
 5729SOL    HW218087   0.462   2.173   5.984
 5730SOL     OW18088   5.358   4.554   5.821
 5730SOL    HW118089   5.323   4.461   5.810
 5730SOL    HW218090   5.456   4.556   5.800
 5731SOL     OW18091   3.465   0.614   3.769
 5731SOL    HW118092   3.474   0.708   3.734
 5731SOL    HW218093   3.401   0.613   3.845
 5732SOL     OW18094   5.602   4.272   4.726
 5732SOL    HW118095   5.618   4.362   4.765
 5732SOL    HW218096   5.689   4.225   4.713
 5733SOL     OW18097   2.999   1.368   0.104
 5733SOL    HW118098   3.004   1.428   0.184
 5733SOL    HW218099   3.068   1.296   0.112
 5734SOL     OW18100   2.413   6.388   5.633
 5734SOL    HW118101   2.469   6.324   5.685
 5734SOL    HW218102   2.453   6.400   5.542
 5735SOL     OW18103   4.248   0.802   1.895
 5735SOL    HW118104   4.328   0.859   1.912
 5735SOL    HW218105   4.267   0.708   1.923
 5736SOL     OW18106   5.091   4.384   6.316
 5736SOL    HW118107   5.167   4.443   6.341
 5736SOL    HW218108   5.005   4.433   6.330
 5737SOL     OW18109   3.846   5.495   1.016
 5737SOL    HW118110   3.825   5.409   1.064
 5737SOL    HW218111   3.794   5.570   1.057
 5738SOL     OW18112   3.302   1.311   6.785
 5738SOL    HW118113   3.211   1.341   6.815
 5738SOL    HW218114   3.349   1.387   6.740
 5739SOL     OW18115   2.162   0.622   5.764
 5739SOL    HW118116   2.122   0.556   5.827
 5739SOL    HW218117   2.251   0.589   5.733
 5740SOL     OW18118   5.473   3.066   2.130
 5740SOL    HW118119   5.431   3.099   2.215
 5740SOL    HW218120   5.501   3.144   2.074
 5741SOL     OW18121   0.186   3.256   4.369
 5741SOL    HW118122   0.205   3.272   4.272
 5741SOL    HW218123   0.106   3.310   4.397
 5742SOL     OW18124   5.179   0.352   3.483
 5742SOL    HW118125   5.122   0.339   3.564
 5742SOL    HW218126   5.275   0.355   3.509
 5743SOL     OW18127   4.200   3.612   5.769
 5743SOL    HW118128   4.238   3.669   5.696
 5743SOL    HW218129   4.264   3.538   5.790
 5744SOL     OW18130   5.912   6.816   2.411
 5744SOL    HW118131   5.903   6.726   2.369
 5744SOL    HW218132   5.961   6.807   2.498
 5745SOL     OW18133   2.016   1.777   2.479
 5745SOL    HW118134   1.960   1.719   2.420
 5745SOL    HW218135   2.101   1.801   2.431
 5746SOL     OW18136   4.397   0.631   3.597
 5746SOL    HW118137   4.310   0.589   3.623
 5746SOL    HW218138   4.382   0.698   3.525
 5747SOL     OW18139   0.739   6.065   1.131
 5747SOL    HW118140   0.702   6.086   1.221
 5747SOL    HW218141   0.796   5.982   1.136
 5748SOL     OW18142   0.481   5.969   0.546
 5748SOL    HW118143   0.468   5.958   0.448
 5748SOL    HW218144   0.444   6.058   0.575
 5749SOL     OW18145   1.867   5.994   5.645
 5749SOL    HW118146   1.831   6.065   5.585
 5749SOL    HW218147   1.925   6.036   5.715
 5750SOL     OW18148   6.453   4.669   4.179
 5750SOL    HW118149   6.457   4.745   4.114
 5750SOL    HW218150   6.467   4.705   4.272
 5751SOL     OW18151   1.787   3.857   4.417
 5751SOL    HW118152   1.875   3.884   4.457
 5751SOL    HW218153   1.794   3.857   4.317
 5752SOL     OW18154   5.037   0.672   0.585
 5752SOL    HW118155   5.103   0.699   0.655
 5752SOL    HW218156   4.953   0.640   0.628
 5753SOL     OW18157   3.465   4.052   4.798
 5753SOL    HW118158   3.506   4.079   4.711
 5753SOL    HW218159   3.366   4.051   4.790
 5754SOL     OW18160   1.009   6.139   1.405
 5754SOL    HW118161   1.009   6.115   1.502
 5754SOL    HW218162   0.997   6.056   1.350
 5755SOL     OW18163   1.494   2.533   6.712
 5755SOL    HW118164   1.503   2.445   6.759
 5755SOL    HW218165   1.494   2.607   6.780
 5756SOL     OW18166   5.861   5.853   1.461
 5756SOL    HW118167   5.775   5.804   1.469
 5756SOL    HW218168   5.848   5.935   1.405
 5757SOL     OW18169   6.176   6.826   4.378
 5757SOL    HW118170   6.136   6.893   4.315
 5757SOL    HW218171   6.249   6.777   4.332
 5758SOL     OW18172   0.282   0.579   2.756
 5758SOL    HW118173   0.358   0.514   2.747
 5758SOL    HW218174   0.199   0.537   2.718
 5759SOL     OW18175   4.031   0.209   0.781
 5759SOL    HW118176   3.946   0.262   0.790
 5759SOL    HW218177   4.101   0.267   0.739
 5760SOL     OW18178   0.930   3.090   1.303
 5760SOL    HW118179   0.881   3.082   1.390
 5760SOL    HW218180   0.943   2.999   1.264
 5761SOL     OW18181   5.771   5.938   4.993
 5761SOL    HW118182   5.828   5.917   4.913
 5761SOL    HW218183   5.816   5.905   5.076
 5762SOL     OW18184   5.842   4.772   6.893
 5762SOL    HW118185   5.757   4.798   6.940
 5762SOL    HW218186   5.919   4.782   6.956
 5763SOL     OW18187   5.427   0.127   0.320
 5763SOL    HW118188   5.513   0.081   0.344
 5763SOL    HW218189   5.365   0.061   0.277
 5764SOL     OW18190   4.235   6.064   3.840
 5764SOL    HW118191   4.198   6.155   3.821
 5764SOL    HW218192   4.226   6.006   3.758
 5765SOL     OW18193   6.373   5.812   1.358
 5765SOL    HW118194   6.404   5.724   1.394
 5765SOL    HW218195   6.372   5.809   1.258
 5766SOL     OW18196   0.564   2.248   4.466
 5766SOL    HW118197   0.498   2.301   4.518
 5766SOL    HW218198   0.654   2.256   4.508
 5767SOL     OW18199   2.700   0.631   0.472
 5767SOL    HW118200   2.611   0.592   0.450
 5767SOL    HW218201   2.761   0.559   0.505
 5768SOL     OW18202   0.594   6.817   4.767
 5768SOL    HW118203   0.660   6.741   4.768
 5768SOL    HW218204   0.605   6.869   4.682
 5769SOL     OW18205   1.530   4.890   6.225
 5769SOL    HW118206   1.587   4.824   6.273
 5769SOL    HW218207   1.453   4.917   6.283
 5770SOL     OW18208   2.234   4.934   1.655
 5770SOL    HW118209   2.251   4.852   1.600
 5770SOL    HW218210   2.261   5.015   1.604
 5771SOL     OW18211   2.226   5.126   3.899
 5771SOL    HW118212   2.304   5.168   3.944
 5771SOL    HW218213   2.219   5.161   3.805
 5772SOL     OW18214   4.088   0.769   2.135
 5772SOL    HW118215   4.149   0.693   2.111
 5772SOL    HW218216   4.028   0.789   2.057
 5773SOL     OW18217   4.082   2.203   2.609
 5773SOL    HW118218   4.108   2.205   2.512
 5773SOL    HW218219   3.983   2.192   2.617
 5774SOL     OW18220   6.969   6.196   3.025
 5774SOL    HW118221   7.015   6.201   2.936
 5774SOL    HW218222   7.018   6.133   3.084
 5775SOL     OW18223   0.199   5.728   1.846
 5775SOL    HW118224   0.268   5.683   1.790
 5775SOL    HW218225   0.169   5.665   1.918
 5776SOL     OW18226   2.270   0.220   3.481
 5776SOL    HW118227   2.330   0.297   3.503
 5776SOL    HW218228   2.305   0.138   3.527
 5777SOL     OW18229   1.916   6.898   3.490
 5777SOL    HW118230   1.994   6.861   3.540
 5777SOL    HW218231   1.869   6.824   3.442
 5778SOL     OW18232   0.726   1.470   0.219
 5778SOL    HW118233   0.673   1.463   0.304
 5778SOL    HW218234   0.823   1.484   0.242
 5779SOL     OW18235   5.602   2.733   6.963
 5779SOL    HW118236   5.579   2.826   6.934
 5779SOL    HW218237   5.549   2.710   0.021
 5780SOL     OW18238   5.723   5.606   3.782
 5780SOL    HW118239   5.712   5.567   3.874
 5780SOL    HW218240   5.749   5.533   3.718
 5781SOL     OW18241   0.774   3.912   5.870
 5781SOL    HW118242   0.701   3.967   5.832
 5781SOL    HW218243   0.861   3.960   5.860
 5782SOL     OW18244   7.017   1.226   0.624
 5782SOL    HW118245   0.060   1.301   0.616
 5782SOL    HW218246   6.928   1.256   0.589
 5783SOL     OW18247   1.928   1.762   1.671
 5783SOL    HW118248   2.019   1.780   1.709
 5783SOL    HW218249   1.859   1.769   1.744
 5784SOL     OW18250   0.439   6.196   6.670
 5784SOL    HW118251   0.534   6.169   6.682
 5784SOL    HW218252   0.434   6.277   6.612
 5785SOL     OW18253   1.664   1.611   1.075
 5785SOL    HW118254   1.598   1.552   1.120
 5785SOL    HW218255   1.690   1.685   1.137
 5786SOL     OW18256   6.573   3.899   0.788
 5786SOL    HW118257   6.565   3.994   0.757
 5786SOL    HW218258   6.617   3.897   0.878
 5787SOL     OW18259   2.992   1.782   5.799
 5787SOL    HW118260   3.089   1.790   5.774
 5787SOL    HW218261   2.972   1.688   5.825
 5788SOL     OW18262   3.172   0.710   2.847
 5788SOL    HW118263   3.185   0.735   2.751
 5788SOL    HW218264   3.119   0.626   2.853
 5789SOL     OW18265   4.086   4.875   5.879
 5789SOL    HW118266   4.115   4.850   5.786
 5789SOL    HW218267   4.015   4.945   5.873
 5790SOL     OW18268   0.848   2.610   4.104
 5790SOL    HW118269   0.860   2.543   4.031
 5790SOL    HW218270   0.881   2.699   4.074
 5791SOL     OW18271   2.699   0.357   2.530
 5791SOL    HW118272   2.610   0.325   2.497
 5791SOL    HW218273   2.753   0.279   2.561
 5792SOL     OW18274   6.925   2.201   3.019
 5792SOL    HW118275   6.834   2.242   3.011
 5792SOL    HW218276   6.921   2.104   2.993
 5793SOL     OW18277   6.283   1.171   3.809
 5793SOL    HW118278   6.382   1.188   3.812
 5793SOL    HW218279   6.236   1.241   3.864
 5794SOL     OW18280   3.596   3.699   6.724
 5794SOL    HW118281   3.696   3.705   6.717
 5794SOL    HW218282   3.557   3.791   6.721
 5795SOL     OW18283   5.853   4.369   5.544
 5795SOL    HW118284   5.812   4.315   5.618
 5795SOL    HW218285   5.917   4.435   5.583
 5796SOL     OW18286   3.688   1.995   6.852
 5796SOL    HW118287   3.719   2.090   6.844
 5796SOL    HW218288   3.590   1.993   6.872
 5797SOL     OW18289   3.321   1.953   4.917
 5797SOL    HW118290   3.357   2.003   4.996
 5797SOL    HW218291   3.275   2.018   4.856
 5798SOL     OW18292   6.626   4.348   5.112
 5798SOL    HW118293   6.704   4.403   5.143
 5798SOL    HW218294   6.556   4.408   5.074
 5799SOL     OW18295   5.455   0.018   3.380
 5799SOL    HW118296   5.368   0.053   3.346
 5799SOL    HW218297   5.440   6.958   3.432
 5800SOL     OW18298   5.611   4.328   0.651
 5800SOL    HW118299   5.604   4.412   0.597
 5800SOL    HW218300   5.638   4.350   0.744
 5801SOL     OW18301   0.697   0.609   3.586
 5801SOL    HW118302   0.719   0.690   3.639
 5801SOL    HW218303   0.769   0.593   3.518
 5802SOL     OW18304   0.242   4.050   5.925
 5802SOL    HW118305   0.288   3.969   5.889
 5802SOL    HW218306   0.308   4.124   5.936
 5803SOL     OW18307   1.278   4.549   0.642
 5803SOL    HW118308   1.342   4.472   0.633
 5803SOL    HW218309   1.312   4.611   0.713
 5804SOL     OW18310   6.191   4.157   4.331
 5804SOL    HW118311   6.289   4.152   4.315
 5804SOL    HW218312   6.165   4.088   4.399
 5805SOL     OW18313   4.866   3.836   6.199
 5805SOL    HW118314   4.911   3.857   6.286
 5805SOL    HW218315   4.864   3.737   6.186
 5806SOL     OW18316   0.315   6.711   0.156
 5806SOL    HW118317   0.309   6.747   0.063
 5806SOL    HW218318   0.411   6.710   0.184
 5807SOL     OW18319   1.435   3.604   1.048
 5807SOL    HW118320   1.383   3.538   0.993
 5807SOL    HW218321   1.378   3.683   1.069
 5808SOL     OW18322   6.004   4.445   2.199
 5808SOL    HW118323   6.079   4.382   2.180
 5808SOL    HW218324   6.026   4.499   2.280
 5809SOL     OW18325   0.182   2.977   4.386
 5809SOL    HW118326   0.092   2.934   4.380
 5809SOL    HW218327   0.173   3.076   4.374
 5810SOL     OW18328   3.203   1.398   3.753
 5810SOL    HW118329   3.280   1.369   3.811
 5810SOL    HW218330   3.159   1.477   3.794
 5811SOL     OW18331   2.659   0.296   4.518
 5811SOL    HW118332   2.655   0.279   4.616
 5811SOL    HW218333   2.588   0.361   4.492
 5812SOL     OW18334   4.866   0.445   2.852
 5812SOL    HW118335   4.910   0.387   2.920
 5812SOL    HW218336   4.919   0.443   2.767
 5813SOL     OW18337   1.611   1.190   5.157
 5813SOL    HW118338   1.618   1.251   5.236
 5813SOL    HW218339   1.634   1.097   5.186
 5814SOL     OW18340   0.061   4.963   1.294
 5814SOL    HW118341   0.111   4.893   1.243
 5814SOL    HW218342   0.044   5.042   1.235
 5815SOL     OW18343   3.845   2.117   3.028
 5815SOL    HW118344   3.749   2.128   3.054
 5815SOL    HW218345   3.899   2.095   3.110
 5816SOL     OW18346   4.640   0.699   0.397
 5816SOL    HW118347   4.670   0.771   0.459
 5816SOL    HW218348   4.716   0.671   0.339
 5817SOL     OW18349   4.914   3.379   5.795
 5817SOL    HW118350   4.840   3.344   5.737
 5817SOL    HW218351   4.949   3.305   5.853
 5818SOL     OW18352   5.656   0.010   5.991
 5818SOL    HW118353   5.572   6.993   6.026
 5818SOL    HW218354   5.683   6.985   5.907
 5819SOL     OW18355   5.520   0.545   0.882
 5819SOL    HW118356   5.574   0.609   0.937
 5819SOL    HW218357   5.436   0.522   0.931
 5820SOL     OW18358   5.155   6.622   3.248
 5820SOL    HW118359   5.063   6.586   3.232
 5820SOL    HW218360   5.203   6.631   3.161
 5821SOL     OW18361   3.054   0.707   1.892
 5821SOL    HW118362   3.095   0.616   1.893
 5821SOL    HW218363   2.995   0.716   1.812
 5822SOL     OW18364   0.621   1.857   2.502
 5822SOL    HW118365   0.593   1.783   2.564
 5822SOL    HW218366   0.560   1.935   2.515
 5823SOL     OW18367   1.624   1.804   4.777
 5823SOL    HW118368   1.534   1.801   4.733
 5823SOL    HW218369   1.694   1.821   4.708
 5824SOL     OW18370   6.419   6.869   3.230
 5824SOL    HW118371   6.334   6.883   3.281
 5824SOL    HW218372   6.441   6.772   3.227
 5825SOL     OW18373   2.636   0.811   0.171
 5825SOL    HW118374   2.645   0.717   0.140
 5825SOL    HW218375   2.672   0.820   0.264
 5826SOL     OW18376   6.614   6.222   4.777
 5826SOL    HW118377   6.541   6.163   4.812
 5826SOL    HW218378   6.682   6.236   4.849
 5827SOL     OW18379   0.507   5.688   5.022
 5827SOL    HW118380   0.466   5.751   4.956
 5827SOL    HW218381   0.466   5.704   5.112
 5828SOL     OW18382   0.442   3.566   2.788
 5828SOL    HW118383   0.399   3.605   2.707
 5828SOL    HW218384   0.434   3.467   2.786
 5829SOL     OW18385   2.685   1.420   1.918
 5829SOL    HW118386   2.719   1.331   1.888
 5829SOL    HW218387   2.761   1.485   1.924
 5830SOL     OW18388   3.399   0.813   5.648
 5830SOL    HW118389   3.442   0.898   5.616
 5830SOL    HW218390   3.299   0.823   5.644
 5831SOL     OW18391   5.948   6.558   2.829
 5831SOL    HW118392   5.878   6.629   2.836
 5831SOL    HW218393   5.990   6.543   2.918
 5832SOL     OW18394   4.218   3.635   5.019
 5832SOL    HW118395   4.212   3.684   4.932
 5832SOL    HW218396   4.128   3.600   5.044
 5833SOL     OW18397   2.905   3.405   3.906
 5833SOL    HW118398   2.881   3.470   3.834
 5833SOL    HW218399   2.934   3.319   3.866
 5834SOL     OW18400   5.532   1.811   0.797
 5834SOL    HW118401   5.615   1.798   0.852
 5834SOL    HW218402   5.526   1.907   0.770
 5835SOL     OW18403   4.920   2.490   3.426
 5835SOL    HW118404   4.937   2.408   3.481
 5835SOL    HW218405   4.851   2.470   3.357
 5836SOL     OW18406   3.704   6.309   2.153
 5836SOL    HW118407   3.627   6.296   2.091
 5836SOL    HW218408   3.671   6.319   2.247
 5837SOL     OW18409   4.696   4.105   0.491
 5837SOL    HW118410   4.731   4.198   0.480
 5837SOL    HW218411   4.644   4.079   0.410
 5838SOL     OW18412   1.592   1.919   5.730
 5838SOL    HW118413   1.602   1.847   5.662
 5838SOL    HW218414   1.657   1.993   5.712
 5839SOL     OW18415   7.009   3.447   2.658
 5839SOL    HW118416   6.962   3.379   2.602
 5839SOL    HW218417   7.008   3.418   2.753
 5840SOL     OW18418   1.580   5.519   6.853
 5840SOL    HW118419   1.622   5.434   6.883
 5840SOL    HW218420   1.482   5.517   6.875
 5841SOL     OW18421   6.392   2.900   3.504
 5841SOL    HW118422   6.450   2.883   3.425
 5841SOL    HW218423   6.441   2.876   3.588
 5842SOL     OW18424   4.087   3.363   0.481
 5842SOL    HW118425   4.157   3.431   0.463
 5842SOL    HW218426   3.999   3.395   0.445
 5843SOL     OW18427   1.603   2.810   2.578
 5843SOL    HW118428   1.569   2.805   2.484
 5843SOL    HW218429   1.528   2.836   2.639
 5844SOL     OW18430   0.577   6.113   6.343
 5844SOL    HW118431   0.479   6.130   6.353
 5844SOL    HW218432   0.591   6.034   6.284
 5845SOL     OW18433   1.197   2.422   3.866
 5845SOL    HW118434   1.146   2.397   3.948
 5845SOL    HW218435   1.232   2.515   3.875
 5846SOL     OW18436   6.774   2.616   5.423
 5846SOL    HW118437   6.836   2.691   5.446
 5846SOL    HW218438   6.685   2.632   5.466
 5847SOL     OW18439   2.035   2.666   2.543
 5847SOL    HW118440   2.129   2.689   2.569
 5847SOL    HW218441   1.986   2.750   2.519
 5848SOL     OW18442   1.786   4.927   3.120
 5848SOL    HW118443   1.882   4.899   3.123
 5848SOL    HW218444   1.747   4.905   3.031
 5849SOL     OW18445   1.778   0.596   5.982
 5849SOL    HW118446   1.867   0.552   5.985
 5849SOL    HW218447   1.709   0.529   5.955
 5850SOL     OW18448   0.996   4.519   2.502
 5850SOL    HW118449   1.078   4.574   2.484
 5850SOL    HW218450   0.917   4.579   2.512
 5851SOL     OW18451   6.256   4.054   2.493
 5851SOL    HW118452   6.210   4.036   2.580
 5851SOL    HW218453   6.204   4.011   2.419
 5852SOL     OW18454   3.977   6.190   2.417
 5852SOL    HW118455   3.925   6.230   2.492
 5852SOL    HW218456   4.066   6.158   2.450
 5853SOL     OW18457   2.992   4.677   5.864
 5853SOL    HW118458   3.038   4.742   5.924
 5853SOL    HW218459   3.038   4.674   5.776
 5854SOL     OW18460   6.899   1.661   5.841
 5854SOL    HW118461   6.807   1.623   5.840
 5854SOL    HW218462   6.899   1.751   5.799
 5855SOL     OW18463   1.432   1.029   4.836
 5855SOL    HW118464   1.345   0.994   4.802
 5855SOL    HW218465   1.443   1.124   4.808
 5856SOL     OW18466   2.337   5.232   2.938
 5856SOL    HW118467   2.355   5.146   2.986
 5856SOL    HW218468   2.419   5.290   2.941
 5857SOL     OW18469   6.673   2.358   4.708
 5857SOL    HW118470   6.634   2.326   4.794
 5857SOL    HW218471   6.614   2.428   4.668
 5858SOL     OW18472   3.072   1.019   2.807
 5858SOL    HW118473   3.091   0.922   2.817
 5858SOL    HW218474   3.148   1.063   2.757
 5859SOL     OW18475   6.524   6.397   1.029
 5859SOL    HW118476   6.552   6.493   1.035
 5859SOL    HW218477   6.592   6.347   0.975
 5860SOL     OW18478   1.670   4.255   1.836
 5860SOL    HW118479   1.770   4.251   1.843
 5860SOL    HW218480   1.643   4.263   1.740
 5861SOL     OW18481   5.395   2.483   4.229
 5861SOL    HW118482   5.437   2.406   4.182
 5861SOL    HW218483   5.431   2.568   4.192
 5862SOL     OW18484   3.910   5.137   2.772
 5862SOL    HW118485   3.844   5.169   2.704
 5862SOL    HW218486   3.861   5.109   2.855
 5863SOL     OW18487   2.027   0.959   6.288
 5863SOL    HW118488   2.052   0.990   6.196
 5863SOL    HW218489   1.946   1.008   6.319
 5864SOL     OW18490   4.196   4.205   1.668
 5864SOL    HW118491   4.173   4.107   1.673
 5864SOL    HW218492   4.250   4.231   1.747
 5865SOL     OW18493   5.300   0.656   3.287
 5865SOL    HW118494   5.265   0.713   3.362
 5865SOL    HW218495   5.328   0.716   3.211
 5866SOL     OW18496   4.131   6.532   5.420
 5866SOL    HW118497   4.182   6.473   5.482
 5866SOL    HW218498   4.150   6.506   5.325
 5867SOL     OW18499   0.588   2.801   1.643
 5867SOL    HW118500   0.549   2.727   1.698
 5867SOL    HW218501   0.607   2.880   1.701
 5868SOL     OW18502   1.443   0.419   5.999
 5868SOL    HW118503   1.458   0.475   5.918
 5868SOL    HW218504   1.400   0.332   5.972
 5869SOL     OW18505   2.730   4.680   4.684
 5869SOL    HW118506   2.654   4.738   4.714
 5869SOL    HW218507   2.750   4.613   4.755
 5870SOL     OW18508   5.345   4.994   4.068
 5870SOL    HW118509   5.327   5.046   4.151
 5870SOL    HW218510   5.367   4.899   4.092
 5871SOL     OW18511   3.499   2.931   0.099
 5871SOL    HW118512   3.551   2.912   0.182
 5871SOL    HW218513   3.477   3.028   0.094
 5872SOL     OW18514   4.224   6.042   5.826
 5872SOL    HW118515   4.208   6.073   5.732
 5872SOL    HW218516   4.317   6.066   5.854
 5873SOL     OW18517   2.842   3.222   0.283
 5873SOL    HW118518   2.762   3.175   0.320
 5873SOL    HW218519   2.815   3.312   0.249
 5874SOL     OW18520   2.368   3.692   1.747
 5874SOL    HW118521   2.366   3.595   1.770
 5874SOL    HW218522   2.289   3.737   1.788
 5875SOL     OW18523   3.533   2.268   0.379
 5875SOL    HW118524   3.611   2.244   0.322
 5875SOL    HW218525   3.478   2.187   0.397
 5876SOL     OW18526   3.324   3.674   6.476
 5876SOL    HW118527   3.294   3.716   6.562
 5876SOL    HW218528   3.251   3.680   6.409
 5877SOL     OW18529   6.782   0.752   1.839
 5877SOL    HW118530   6.736   0.833   1.803
 5877SOL    HW218531   6.872   0.742   1.796
 5878SOL     OW18532   4.567   5.115   1.765
 5878SOL    HW118533   4.665   5.134   1.767
 5878SOL    HW218534   4.525   5.147   1.850
 5879SOL     OW18535   3.350   3.046   6.297
 5879SOL    HW118536   3.427   2.989   6.269
 5879SOL    HW218537   3.333   3.034   6.395
 5880SOL     OW18538   5.216   3.470   5.631
 5880SOL    HW118539   5.266   3.544   5.586
 5880SOL    HW218540   5.127   3.458   5.588
 5881SOL     OW18541   1.111   6.498   2.238
 5881SOL    HW118542   1.058   6.484   2.154
 5881SOL    HW218543   1.187   6.561   2.220
 5882SOL     OW18544   1.334   5.689   5.876
 5882SOL    HW118545   1.337   5.596   5.839
 5882SOL    HW218546   1.417   5.708   5.928
 5883SOL     OW18547   0.323   3.912   0.694
 5883SOL    HW118548   0.410   3.962   0.691
 5883SOL    HW218549   0.326   3.847   0.771
 5884SOL     OW18550   6.129   1.929   3.743
 5884SOL    HW118551   6.134   1.846   3.800
 5884SOL    HW218552   6.074   1.998   3.790
 5885SOL     OW18553   0.270   5.124   7.021
 5885SOL    HW118554   0.291   5.222   7.016
 5885SOL    HW218555   0.317   5.076   6.946
 5886SOL     OW18556   1.481   3.848   3.333
 5886SOL    HW118557   1.502   3.782   3.405
 5886SOL    HW218558   1.419   3.917   3.367
 5887SOL     OW18559   1.927   3.123   0.847
 5887SOL    HW118560   1.837   3.137   0.805
 5887SOL    HW218561   1.933   3.030   0.883
 5888SOL     OW18562   3.142   6.717   1.182
 5888SOL    HW118563   3.202   6.716   1.262
 5888SOL    HW218564   3.137   6.625   1.143
 5889SOL     OW18565   7.007   0.597   1.243
 5889SOL    HW118566   0.051   0.636   1.305
 5889SOL    HW218567   6.915   0.613   1.280
 5890SOL     OW18568   2.788   6.578   2.081
 5890SOL    HW118569   2.769   6.486   2.046
 5890SOL    HW218570   2.739   6.645   2.026
 5891SOL     OW18571   2.355   3.552   0.643
 5891SOL    HW118572   2.435   3.493   0.654
 5891SOL    HW218573   2.276   3.510   0.689
 5892SOL     OW18574   0.859   3.207   0.991
 5892SOL    HW118575   0.916   3.226   0.910
 5892SOL    HW218576   0.909   3.147   1.053
 5893SOL     OW18577   1.013   5.692   1.675
 5893SOL    HW118578   1.103   5.649   1.662
 5893SOL    HW218579   1.010   5.737   1.764
 5894SOL     OW18580   1.933   6.045   6.066
 5894SOL    HW118581   1.951   5.955   6.106
 5894SOL    HW218582   1.932   6.114   6.137
 5895SOL     OW18583   5.796   2.987   4.608
 5895SOL    HW118584   5.794   2.972   4.707
 5895SOL    HW218585   5.741   3.068   4.586
 5896SOL     OW18586   5.823   2.437   1.740
 5896SOL    HW118587   5.864   2.508   1.797
 5896SOL    HW218588   5.876   2.353   1.749
 5897SOL     OW18589   4.462   1.724   0.559
 5897SOL    HW118590   4.485   1.811   0.516
 5897SOL    HW218591   4.534   1.657   0.539
 5898SOL     OW18592   2.155   1.676   5.510
 5898SOL    HW118593   2.171   1.579   5.490
 5898SOL    HW218594   2.241   1.727   5.500
 5899SOL     OW18595   6.620   4.991   5.596
 5899SOL    HW118596   6.689   5.034   5.539
 5899SOL    HW218597   6.529   5.025   5.570
 5900SOL     OW18598   6.360   6.428   3.290
 5900SOL    HW118599   6.384   6.339   3.329
 5900SOL    HW218600   6.284   6.417   3.226
 5901SOL     OW18601   2.161   7.013   6.016
 5901SOL    HW118602   2.089   6.987   6.079
 5901SOL    HW218603   2.228   0.046   6.064
 5902SOL     OW18604   5.247   4.322   5.214
 5902SOL    HW118605   5.275   4.228   5.235
 5902SOL    HW218606   5.210   4.364   5.297
 5903SOL     OW18607   5.803   1.881   6.469
 5903SOL    HW118608   5.801   1.810   6.399
 5903SOL    HW218609   5.878   1.864   6.533
 5904SOL     OW18610   2.085   4.267   2.605
 5904SOL    HW118611   2.122   4.351   2.644
 5904SOL    HW218612   2.154   4.223   2.549
 5905SOL     OW18613   5.896   1.371   4.455
 5905SOL    HW118614   5.942   1.372   4.544
 5905SOL    HW218615   5.799   1.351   4.469
 5906SOL     OW18616   4.910   0.425   5.036
 5906SOL    HW118617   4.893   0.503   5.096
 5906SOL    HW218618   4.871   0.342   5.076
 5907SOL     OW18619   1.575   2.743   6.908
 5907SOL    HW118620   1.514   2.798   6.966
 5907SOL    HW218621   1.668   2.780   6.914
 5908SOL     OW18622   4.313   3.407   6.159
 5908SOL    HW118623   4.402   3.406   6.114
 5908SOL    HW218624   4.313   3.475   6.233
 5909SOL     OW18625   7.011   5.039   4.449
 5909SOL    HW118626   0.039   5.039   4.363
 5909SOL    HW218627   6.918   5.007   4.432
 5910SOL     OW18628   2.202   3.859   1.446
 5910SOL    HW118629   2.242   3.935   1.496
 5910SOL    HW218630   2.274   3.809   1.398
 5911SOL     OW18631   6.889   5.985   6.348
 5911SOL    HW118632   6.936   5.911   6.301
 5911SOL    HW218633   6.841   5.949   6.428
 5912SOL     OW18634   6.321   3.999   6.850
 5912SOL    HW118635   6.401   4.052   6.824
 5912SOL    HW218636   6.240   4.058   6.850
 5913SOL     OW18637   1.933   1.716   5.649
 5913SOL    HW118638   1.930   1.618   5.668
 5913SOL    HW218639   2.016   1.736   5.597
 5914SOL     OW18640   1.928   5.985   0.693
 5914SOL    HW118641   1.958   6.078   0.674
 5914SOL    HW218642   1.847   5.964   0.638
 5915SOL     OW18643   4.987   2.644   2.570
 5915SOL    HW118644   4.931   2.683   2.496
 5915SOL    HW218645   5.033   2.717   2.619
 5916SOL     OW18646   3.892   0.342   6.155
 5916SOL    HW118647   3.962   0.270   6.147
 5916SOL    HW218648   3.801   0.301   6.146
 5917SOL     OW18649   3.368   3.488   3.121
 5917SOL    HW118650   3.448   3.456   3.071
 5917SOL    HW218651   3.294   3.421   3.112
 5918SOL     OW18652   1.718   3.353   4.405
 5918SOL    HW118653   1.753   3.442   4.434
 5918SOL    HW218654   1.790   3.285   4.411
 5919SOL     OW18655   1.949   3.138   6.550
 5919SOL    HW118656   2.000   3.167   6.469
 5919SOL    HW218657   1.853   3.162   6.539
 5920SOL     OW18658   3.566   0.259   0.021
 5920SOL    HW118659   3.550   0.162   0.004
 5920SOL    HW218660   3.480   0.309   0.010
 5921SOL     OW18661   3.747   4.749   5.283
 5921SOL    HW118662   3.829   4.805   5.294
 5921SOL    HW218663   3.759   4.662   5.331
 5922SOL     OW18664   6.209   4.411   2.522
 5922SOL    HW118665   6.147   4.363   2.585
 5922SOL    HW218666   6.258   4.344   2.467
 5923SOL     OW18667   7.017   6.685   3.810
 5923SOL    HW118668   0.021   6.681   3.714
 5923SOL    HW218669   0.060   6.635   3.866
 5924SOL     OW18670   5.131   2.313   4.704
 5924SOL    HW118671   5.137   2.350   4.796
 5924SOL    HW218672   5.052   2.252   4.697
 5925SOL     OW18673   5.522   5.931   1.092
 5925SOL    HW118674   5.552   5.986   1.170
 5925SOL    HW218675   5.451   5.867   1.122
 5926SOL     OW18676   3.819   5.006   1.306
 5926SOL    HW118677   3.749   4.945   1.344
 5926SOL    HW218678   3.805   5.016   1.207
 5927SOL     OW18679   2.926   5.969   2.706
 5927SOL    HW118680   2.988   6.048   2.703
 5927SOL    HW218681   2.864   5.973   2.628
 5928SOL     OW18682   1.568   0.040   3.119
 5928SOL    HW118683   1.588   0.081   3.030
 5928SOL    HW218684   1.617   6.977   3.127
 5929SOL     OW18685   1.394   6.304   6.647
 5929SOL    HW118686   1.355   6.382   6.597
 5929SOL    HW218687   1.321   6.253   6.692
 5930SOL     OW18688   6.682   1.330   4.485
 5930SOL    HW118689   6.751   1.365   4.422
 5930SOL    HW218690   6.667   1.395   4.559
 5931SOL     OW18691   6.771   5.570   1.323
 5931SOL    HW118692   6.707   5.497   1.296
 5931SOL    HW218693   6.850   5.529   1.368
 5932SOL     OW18694   2.748   6.838   0.988
 5932SOL    HW118695   2.812   6.906   1.023
 5932SOL    HW218696   2.789   6.747   0.995
 5933SOL     OW18697   6.701   3.896   3.124
 5933SOL    HW118698   6.783   3.877   3.070
 5933SOL    HW218699   6.653   3.975   3.087
 5934SOL     OW18700   3.769   3.390   3.031
 5934SOL    HW118701   3.860   3.387   2.989
 5934SOL    HW218702   3.774   3.439   3.118
 5935SOL     OW18703   4.131   3.665   4.240
 5935SOL    HW118704   4.131   3.578   4.289
 5935SOL    HW218705   4.200   3.664   4.168
 5936SOL     OW18706   5.494   5.585   6.594
 5936SOL    HW118707   5.565   5.611   6.529
 5936SOL    HW218708   5.420   5.653   6.590
 5937SOL     OW18709   2.151   3.519   1.129
 5937SOL    HW118710   2.197   3.432   1.148
 5937SOL    HW218711   2.132   3.525   1.031
 5938SOL     OW18712   1.603   4.318   3.029
 5938SOL    HW118713   1.618   4.328   2.931
 5938SOL    HW218714   1.505   4.323   3.048
 5939SOL     OW18715   3.768   0.321   2.839
 5939SOL    HW118716   3.841   0.276   2.890
 5939SOL    HW218717   3.778   0.300   2.741
 5940SOL     OW18718   4.266   6.409   2.863
 5940SOL    HW118719   4.346   6.428   2.920
 5940SOL    HW218720   4.198   6.480   2.877
 5941SOL     OW18721   6.185   4.871   2.531
 5941SOL    HW118722   6.218   4.903   2.441
 5941SOL    HW218723   6.131   4.944   2.574
 5942SOL     OW18724   4.278   3.137   6.211
 5942SOL    HW118725   4.287   3.236   6.209
 5942SOL    HW218726   4.268   3.106   6.305
 5943SOL     OW18727   1.644   6.127   0.548
 5943SOL    HW118728   1.690   6.190   0.611
 5943SOL    HW218729   1.550   6.112   0.580
 5944SOL     OW18730   4.945   1.581   2.308
 5944SOL    HW118731   4.853   1.583   2.268
 5944SOL    HW218732   5.001   1.652   2.266
 5945SOL     OW18733   6.264   4.951   5.750
 5945SOL    HW118734   6.286   5.038   5.706
 5945SOL    HW218735   6.345   4.916   5.797
 5946SOL     OW18736   4.758   3.264   5.590
 5946SOL    HW118737   4.665   3.235   5.615
 5946SOL    HW218738   4.758   3.302   5.498
 5947SOL     OW18739   4.278   3.476   1.552
 5947SOL    HW118740   4.350   3.510   1.492
 5947SOL    HW218741   4.222   3.553   1.584
 5948SOL     OW18742   3.955   4.803   2.846
 5948SOL    HW118743   3.934   4.886   2.897
 5948SOL    HW218744   3.969   4.727   2.910
 5949SOL     OW18745   4.560   4.750   1.316
 5949SOL    HW118746   4.523   4.843   1.321
 5949SOL    HW218747   4.609   4.729   1.400
 5950SOL     OW18748   6.458   2.351   4.164
 5950SOL    HW118749   6.449   2.294   4.082
 5950SOL    HW218750   6.555   2.360   4.189
 5951SOL     OW18751   1.965   5.806   3.718
 5951SOL    HW118752   1.923   5.782   3.806
 5951SOL    HW218753   1.930   5.895   3.688
 5952SOL     OW18754   0.163   6.637   4.149
 5952SOL    HW118755   0.088   6.686   4.105
 5952SOL    HW218756   0.219   6.592   4.078
 5953SOL     OW18757   6.677   3.174   6.361
 5953SOL    HW118758   6.650   3.174   6.265
 5953SOL    HW218759   6.665   3.082   6.400
 5954SOL     OW18760   0.116   4.680   0.154
 5954SOL    HW118761   0.066   4.761   0.123
 5954SOL    HW218762   0.211   4.704   0.173
 5955SOL     OW18763   4.897   5.341   1.539
 5955SOL    HW118764   4.876   5.415   1.602
 5955SOL    HW218765   4.960   5.374   1.469
 5956SOL     OW18766   5.719   2.445   0.019
 5956SOL    HW118767   5.740   2.541   7.023
 5956SOL    HW218768   5.785   2.410   0.085
 5957SOL     OW18769   5.970   6.270   6.389
 5957SOL    HW118770   6.053   6.294   6.338
 5957SOL    HW218771   5.996   6.227   6.476
 5958SOL     OW18772   6.799   5.415   2.130
 5958SOL    HW118773   6.823   5.330   2.177
 5958SOL    HW218774   6.845   5.492   2.174
 5959SOL     OW18775   2.138   1.786   6.110
 5959SOL    HW118776   2.217   1.848   6.113
 5959SOL    HW218777   2.081   1.809   6.032
 5960SOL     OW18778   3.313   0.097   3.760
 5960SOL    HW118779   3.363   0.179   3.789
 5960SOL    HW218780   3.370   0.016   3.772
 5961SOL     OW18781   2.964   1.007   4.730
 5961SOL    HW118782   2.889   1.054   4.684
 5961SOL    HW218783   2.927   0.934   4.787
 5962SOL     OW18784   4.832   5.067   2.295
 5962SOL    HW118785   4.866   5.115   2.214
 5962SOL    HW218786   4.903   5.067   2.366
 5963SOL     OW18787   3.812   3.967   2.610
 5963SOL    HW118788   3.757   4.045   2.638
 5963SOL    HW218789   3.819   3.902   2.686
 5964SOL     OW18790   0.263   5.048   5.723
 5964SOL    HW118791   0.206   5.130   5.727
 5964SOL    HW218792   0.227   4.980   5.787
 5965SOL     OW18793   2.522   2.537   5.627
 5965SOL    HW118794   2.605   2.565   5.675
 5965SOL    HW218795   2.446   2.533   5.692
 5966SOL     OW18796   2.955   6.107   4.387
 5966SOL    HW118797   3.048   6.132   4.357
 5966SOL    HW218798   2.949   6.007   4.397
 5967SOL     OW18799   5.182   6.462   2.940
 5967SOL    HW118800   5.172   6.551   2.893
 5967SOL    HW218801   5.236   6.401   2.882
 5968SOL     OW18802   6.691   2.404   3.447
 5968SOL    HW118803   6.651   2.482   3.496
 5968SOL    HW218804   6.617   2.347   3.410
 5969SOL     OW18805   5.974   3.632   3.460
 5969SOL    HW118806   6.065   3.592   3.467
 5969SOL    HW218807   5.923   3.584   3.388
 5970SOL     OW18808   1.773   3.451   2.679
 5970SOL    HW118809   1.764   3.352   2.673
 5970SOL    HW218810   1.689   3.495   2.648
 5971SOL     OW18811   2.205   6.859   2.557
 5971SOL    HW118812   2.232   6.889   2.466
 5971SOL    HW218813   2.126   6.797   2.550
 5972SOL     OW18814   4.918   6.440   0.281
 5972SOL    HW118815   5.010   6.473   0.260
 5972SOL    HW218816   4.851   6.494   0.231
 5973SOL     OW18817   1.309   4.455   3.024
 5973SOL    HW118818   1.304   4.370   3.078
 5973SOL    HW218819   1.218   4.493   3.014
 5974SOL     OW18820   6.901   3.901   0.152
 5974SOL    HW118821   6.936   3.808   0.157
 5974SOL    HW218822   6.969   3.964   0.191
 5975SOL     OW18823   2.578   2.977   1.069
 5975SOL    HW118824   2.533   2.920   1.138
 5975SOL    HW218825   2.573   3.073   1.096
 5976SOL     OW18826   3.058   3.360   4.898
 5976SOL    HW118827   3.145   3.333   4.940
 5976SOL    HW218828   3.012   3.426   4.956
 5977SOL     OW18829   1.210   4.015   2.355
 5977SOL    HW118830   1.212   4.025   2.255
 5977SOL    HW218831   1.240   3.923   2.379
 5978SOL     OW18832   5.559   4.768   2.031
 5978SOL    HW118833   5.657   4.770   2.014
 5978SOL    HW218834   5.538   4.694   2.096
 5979SOL     OW18835   6.629   0.997   3.091
 5979SOL    HW118836   6.593   0.931   3.157
 5979SOL    HW218837   6.726   1.015   3.110
 5980SOL     OW18838   5.877   4.769   0.292
 5980SOL    HW118839   5.797   4.801   0.242
 5980SOL    HW218840   5.861   4.675   0.324
 5981SOL     OW18841   5.360   0.892   2.803
 5981SOL    HW118842   5.337   0.971   2.746
 5981SOL    HW218843   5.321   0.810   2.762
 5982SOL     OW18844   6.808   1.885   6.928
 5982SOL    HW118845   6.891   1.937   6.906
 5982SOL    HW218846   6.738   1.947   6.963
 5983SOL     OW18847   1.696   0.936   4.233
 5983SOL    HW118848   1.795   0.950   4.236
 5983SOL    HW218849   1.661   0.928   4.327
 5984SOL     OW18850   0.061   6.138   5.162
 5984SOL    HW118851   0.159   6.123   5.148
 5984SOL    HW218852   0.012   6.119   5.077
 5985SOL     OW18853   4.456   1.734   3.992
 5985SOL    HW118854   4.416   1.689   3.912
 5985SOL    HW218855   4.555   1.741   3.980
 5986SOL     OW18856   3.252   3.110   2.443
 5986SOL    HW118857   3.178   3.072   2.499
 5986SOL    HW218858   3.295   3.038   2.390
 5987SOL     OW18859   4.093   6.702   4.877
 5987SOL    HW118860   4.130   6.776   4.820
 5987SOL    HW218861   4.136   6.704   4.967
 5988SOL     OW18862   4.310   6.647   4.446
 5988SOL    HW118863   4.226   6.597   4.467
 5988SOL    HW218864   4.353   6.608   4.365
 5989SOL     OW18865   3.136   0.172   6.097
 5989SOL    HW118866   3.119   0.229   6.178
 5989SOL    HW218867   3.052   0.165   6.043
 5990SOL     OW18868   3.041   5.191   1.247
 5990SOL    HW118869   3.047   5.287   1.218
 5990SOL    HW218870   3.067   5.131   1.171
 5991SOL     OW18871   3.134   5.395   4.632
 5991SOL    HW118872   3.058   5.403   4.696
 5991SOL    HW218873   3.183   5.309   4.648
 5992SOL     OW18874   4.342   0.063   3.877
 5992SOL    HW118875   4.403   0.118   3.821
 5992SOL    HW218876   4.324   0.110   3.964
 5993SOL     OW18877   2.594   6.170   5.407
 5993SOL    HW118878   2.608   6.163   5.308
 5993SOL    HW218879   2.679   6.148   5.454
 5994SOL     OW18880   6.131   2.599   2.474
 5994SOL    HW118881   6.101   2.640   2.388
 5994SOL    HW218882   6.108   2.502   2.474
 5995SOL     OW18883   6.779   4.972   0.929
 5995SOL    HW118884   6.801   4.880   0.960
 5995SOL    HW218885   6.849   5.004   0.866
 5996SOL     OW18886   6.904   4.938   5.811
 5996SOL    HW118887   6.925   4.842   5.796
 5996SOL    HW218888   6.931   4.992   5.732
 5997SOL     OW18889   0.748   6.844   2.284
 5997SOL    HW118890   0.720   6.774   2.350
 5997SOL    HW218891   0.842   6.872   2.302
 5998SOL     OW18892   5.517   2.225   2.368
 5998SOL    HW118893   5.522   2.322   2.394
 5998SOL    HW218894   5.609   2.187   2.367
 5999SOL     OW18895   1.579   2.202   2.702
 5999SOL    HW118896   1.673   2.192   2.735
 5999SOL    HW218897   1.557   2.299   2.694
 6000SOL     OW18898   4.720   5.533   2.499
 6000SOL    HW118899   4.716   5.608   2.565
 6000SOL    HW218900   4.629   5.496   2.485
 6001SOL     OW18901   6.766   2.237   6.681
 6001SOL    HW118902   6.865   2.234   6.684
 6001SOL    HW218903   6.736   2.254   6.586
 6002SOL     OW18904   1.855   0.265   1.734
 6002SOL    HW118905   1.920   0.271   1.810
 6002SOL    HW218906   1.773   0.318   1.757
 6003SOL     OW18907   4.867   4.159   4.804
 6003SOL    HW118908   4.802   4.201   4.741
 6003SOL    HW218909   4.950   4.132   4.754
 6004SOL     OW18910   0.345   3.060   2.329
 6004SOL    HW118911   0.257   3.105   2.341
 6004SOL    HW218912   0.406   3.084   2.405
 6005SOL     OW18913   3.314   5.326   3.401
 6005SOL    HW118914   3.371   5.402   3.431
 6005SOL    HW218915   3.217   5.353   3.404
 6006SOL     OW18916   2.953   6.886   6.736
 6006SOL    HW118917   3.040   6.927   6.707
 6006SOL    HW218918   2.896   6.869   6.656
 6007SOL     OW18919   5.832   2.571   4.096
 6007SOL    HW118920   5.909   2.532   4.147
 6007SOL    HW218921   5.844   2.552   3.999
 6008SOL     OW18922   2.783   4.919   6.218
 6008SOL    HW118923   2.762   4.833   6.173
 6008SOL    HW218924   2.878   4.918   6.250
 6009SOL     OW18925   2.439   1.946   4.211
 6009SOL    HW118926   2.434   1.997   4.126
 6009SOL    HW218927   2.380   1.865   4.204
 6010SOL     OW18928   1.578   4.090   2.709
 6010SOL    HW118929   1.630   4.032   2.771
 6010SOL    HW218930   1.481   4.085   2.732
 6011SOL     OW18931   5.249   3.105   2.692
 6011SOL    HW118932   5.271   3.053   2.610
 6011SOL    HW218933   5.197   3.187   2.667
 6012SOL     OW18934   6.700   3.339   0.857
 6012SOL    HW118935   6.762   3.289   0.797
 6012SOL    HW218936   6.749   3.414   0.901
 6013SOL     OW18937   5.616   0.779   3.150
 6013SOL    HW118938   5.627   0.712   3.077
 6013SOL    HW218939   5.706   0.813   3.178
 6014SOL     OW18940   6.061   0.647   0.260
 6014SOL    HW118941   6.085   0.585   0.186
 6014SOL    HW218942   5.970   0.685   0.245
 6015SOL     OW18943   5.858   1.562   3.936
 6015SOL    HW118944   5.771   1.513   3.923
 6015SOL    HW218945   5.896   1.586   3.847
 6016SOL     OW18946   1.929   0.779   5.446
 6016SOL    HW118947   1.937   0.733   5.357
 6016SOL    HW218948   1.949   0.876   5.434
 6017SOL     OW18949   6.511   5.302   2.717
 6017SOL    HW118950   6.609   5.290   2.708
 6017SOL    HW218951   6.464   5.260   2.640
 6018SOL     OW18952   2.406   3.802   0.769
 6018SOL    HW118953   2.448   3.780   0.857
 6018SOL    HW218954   2.380   3.718   0.722
 6019SOL     OW18955   3.723   0.644   3.884
 6019SOL    HW118956   3.782   0.703   3.828
 6019SOL    HW218957   3.638   0.625   3.834
 6020SOL     OW18958   3.959   0.723   2.813
 6020SOL    HW118959   3.973   0.799   2.750
 6020SOL    HW218960   3.942   0.758   2.905
 6021SOL     OW18961   4.381   1.761   2.290
 6021SOL    HW118962   4.448   1.711   2.344
 6021SOL    HW218963   4.298   1.775   2.344
 6022SOL     OW18964   4.256   1.521   3.408
 6022SOL    HW118965   4.281   1.449   3.343
 6022SOL    HW218966   4.211   1.481   3.487
 6023SOL     OW18967   0.338   1.369   2.974
 6023SOL    HW118968   0.245   1.340   2.998
 6023SOL    HW218969   0.386   1.399   3.056
 6024SOL     OW18970   0.607   4.793   1.822
 6024SOL    HW118971   0.609   4.893   1.828
 6024SOL    HW218972   0.700   4.757   1.836
 6025SOL     OW18973   4.598   1.367   0.950
 6025SOL    HW118974   4.641   1.425   1.019
 6025SOL    HW218975   4.624   1.398   0.859
 6026SOL     OW18976   6.741   4.531   5.320
 6026SOL    HW118977   6.777   4.568   5.234
 6026SOL    HW218978   6.662   4.586   5.350
 6027SOL     OW18979   2.966   3.868   6.670
 6027SOL    HW118980   2.948   3.846   6.575
 6027SOL    HW218981   3.026   3.947   6.675
 6028SOL     OW18982   1.448   3.684   0.080
 6028SOL    HW118983   1.512   3.685   0.157
 6028SOL    HW218984   1.440   3.590   0.045
 6029SOL     OW18985   2.459   6.270   1.531
 6029SOL    HW118986   2.493   6.316   1.614
 6029SOL    HW218987   2.482   6.325   1.451
 6030SOL     OW18988   1.757   0.956   1.673
 6030SOL    HW118989   1.768   1.045   1.718
 6030SOL    HW218990   1.664   0.922   1.689
 6031SOL     OW18991   5.218   6.911   5.559
 6031SOL    HW118992   5.253   6.820   5.534
 6031SOL    HW218993   5.276   6.950   5.630
 6032SOL     OW18994   0.762   2.737   2.667
 6032SOL    HW118995   0.785   2.662   2.728
 6032SOL    HW218996   0.670   2.723   2.630
 6033SOL     OW18997   0.753   1.010   4.129
 6033SOL    HW118998   0.825   0.975   4.189
 6033SOL    HW218999   0.785   1.093   4.084
 6034SOL     OW19000   1.752   4.188   4.907
 6034SOL    HW119001   1.699   4.258   4.861
 6034SOL    HW219002   1.789   4.124   4.840
 6035SOL     OW19003   6.159   0.276   3.981
 6035SOL    HW119004   6.176   0.179   3.996
 6035SOL    HW219005   6.067   0.289   3.944
 6036SOL     OW19006   0.629   6.074   5.208
 6036SOL    HW119007   0.653   5.997   5.149
 6036SOL    HW219008   0.691   6.150   5.190
 6037SOL     OW19009   6.103   5.764   4.987
 6037SOL    HW119010   6.046   5.705   4.930
 6037SOL    HW219011   6.192   5.720   5.002
 6038SOL     OW19012   5.909   3.967   6.308
 6038SOL    HW119013   5.862   4.012   6.383
 6038SOL    HW219014   6.005   3.951   6.333
 6039SOL     OW19015   3.349   3.512   2.529
 6039SOL    HW119016   3.256   3.543   2.549
 6039SOL    HW219017   3.413   3.555   2.594
 6040SOL     OW19018   0.372   2.194   0.154
 6040SOL    HW119019   0.289   2.248   0.166
 6040SOL    HW219020   0.366   2.110   0.207
 6041SOL     OW19021   1.079   1.962   0.031
 6041SOL    HW119022   1.055   1.920   0.119
 6041SOL    HW219023   1.070   2.061   0.039
 6042SOL     OW19024   4.723   5.279   3.267
 6042SOL    HW119025   4.819   5.287   3.292
 6042SOL    HW219026   4.705   5.330   3.183
 6043SOL     OW19027   0.997   4.652   4.711
 6043SOL    HW119028   0.910   4.684   4.673
 6043SOL    HW219029   1.053   4.730   4.737
 6044SOL     OW19030   0.428   0.929   0.932
 6044SOL    HW119031   0.354   0.979   0.886
 6044SOL    HW219032   0.425   0.833   0.906
 6045SOL     OW19033   6.923   4.204   1.522
 6045SOL    HW119034   7.017   4.176   1.503
 6045SOL    HW219035   6.902   4.184   1.618
 6046SOL     OW19036   3.486   2.390   0.693
 6046SOL    HW119037   3.470   2.444   0.610
 6046SOL    HW219038   3.415   2.411   0.760
 6047SOL     OW19039   6.653   0.147   4.157
 6047SOL    HW119040   6.694   0.227   4.200
 6047SOL    HW219041   6.614   0.088   4.227
 6048SOL     OW19042   4.226   6.930   4.730
 6048SOL    HW119043   4.207   6.931   4.632
 6048SOL    HW219044   4.321   6.957   4.746
 6049SOL     OW19045   5.524   4.505   6.904
 6049SOL    HW119046   5.585   4.489   6.982
 6049SOL    HW219047   5.526   4.602   6.880
 6050SOL     OW19048   4.407   4.315   5.498
 6050SOL    HW119049   4.499   4.348   5.480
 6050SOL    HW219050   4.342   4.365   5.441
 6051SOL     OW19051   1.862   1.849   2.960
 6051SOL    HW119052   1.873   1.802   3.047
 6051SOL    HW219053   1.942   1.907   2.942
 6052SOL     OW19054   0.203   1.429   0.689
 6052SOL    HW119055   0.184   1.465   0.597
 6052SOL    HW219056   0.200   1.503   0.755
 6053SOL     OW19057   1.684   6.527   6.586
 6053SOL    HW119058   1.762   6.465   6.594
 6053SOL    HW219059   1.601   6.480   6.616
 6054SOL     OW19060   1.557   4.578   0.472
 6054SOL    HW119061   1.650   4.587   0.436
 6054SOL    HW219062   1.529   4.665   0.514
 6055SOL     OW19063   4.883   0.831   5.088
 6055SOL    HW119064   4.824   0.775   5.146
 6055SOL    HW219065   4.850   0.926   5.088
 6056SOL     OW19066   4.205   1.852   6.523
 6056SOL    HW119067   4.288   1.800   6.501
 6056SOL    HW219068   4.128   1.789   6.532
 6057SOL     OW19069   2.955   1.277   4.893
 6057SOL    HW119070   2.979   1.254   4.799
 6057SOL    HW219071   2.857   1.294   4.899
 6058SOL     OW19072   5.583   2.341   4.098
 6058SOL    HW119073   5.579   2.261   4.038
 6058SOL    HW219074   5.618   2.420   4.046
 6059SOL     OW19075   5.426   4.217   0.254
 6059SOL    HW119076   5.412   4.308   0.292
 6059SOL    HW219077   5.479   4.223   0.169
 6060SOL     OW19078   4.276   5.341   5.881
 6060SOL    HW119079   4.248   5.279   5.808
 6060SOL    HW219080   4.198   5.360   5.940
 6061SOL     OW19081   3.225   1.678   6.634
 6061SOL    HW119082   3.307   1.628   6.665
 6061SOL    HW219083   3.251   1.743   6.563
 6062SOL     OW19084   1.685   0.437   4.815
 6062SOL    HW119085   1.642   0.511   4.763
 6062SOL    HW219086   1.619   0.401   4.881
 6063SOL     OW19087   4.490   0.725   6.622
 6063SOL    HW119088   4.419   0.736   6.553
 6063SOL    HW219089   4.449   0.714   6.712
 6064SOL     OW19090   1.089   5.371   3.468
 6064SOL    HW119091   1.037   5.456   3.478
 6064SOL    HW219092   1.081   5.337   3.374
 6065SOL     OW19093   6.868   0.123   0.532
 6065SOL    HW119094   6.904   0.198   0.477
 6065SOL    HW219095   6.836   0.159   0.620
 6066SOL     OW19096   4.221   2.912   0.353
 6066SOL    HW119097   4.170   2.872   0.429
 6066SOL    HW219098   4.163   2.979   0.306
 6067SOL     OW19099   6.026   1.552   6.540
 6067SOL    HW119100   6.017   1.652   6.544
 6067SOL    HW219101   6.115   1.528   6.501
 6068SOL     OW19102   4.435   2.431   4.722
 6068SOL    HW119103   4.482   2.467   4.803
 6068SOL    HW219104   4.340   2.413   4.745
 6069SOL     OW19105   7.004   4.178   4.692
 6069SOL    HW119106   6.982   4.113   4.765
 6069SOL    HW219107   0.079   4.177   4.676
 6070SOL     OW19108   4.115   2.496   5.732
 6070SOL    HW119109   4.152   2.553   5.806
 6070SOL    HW219110   4.145   2.531   5.644
 6071SOL     OW19111   4.231   6.237   5.226
 6071SOL    HW119112   4.224   6.294   5.144
 6071SOL    HW219113   4.323   6.246   5.265
 6072SOL     OW19114   0.305   1.610   1.396
 6072SOL    HW119115   0.263   1.701   1.393
 6072SOL    HW219116   0.345   1.588   1.307
 6073SOL     OW19117   6.679   2.976   0.860
 6073SOL    HW119118   6.623   2.898   0.888
 6073SOL    HW219119   6.668   2.990   0.762
 6074SOL     OW19120   0.470   6.979   5.066
 6074SOL    HW119121   0.517   7.012   4.985
 6074SOL    HW219122   0.432   0.033   5.117
 6075SOL     OW19123   5.588   3.547   0.379
 6075SOL    HW119124   5.624   3.519   0.290
 6075SOL    HW219125   5.658   3.599   0.428
 6076SOL     OW19126   2.085   6.083   3.850
 6076SOL    HW119127   2.045   6.018   3.914
 6076SOL    HW219128   2.171   6.046   3.815
 6077SOL     OW19129   5.940   6.330   2.184
 6077SOL    HW119130   5.938   6.324   2.084
 6077SOL    HW219131   6.033   6.311   2.217
 6078SOL     OW19132   2.725   4.803   4.156
 6078SOL    HW119133   2.746   4.780   4.061
 6078SOL    HW219134   2.643   4.755   4.185
 6079SOL     OW19135   2.694   2.164   6.390
 6079SOL    HW119136   2.683   2.152   6.291
 6079SOL    HW219137   2.791   2.156   6.413
 6080SOL     OW19138   5.885   2.539   1.488
 6080SOL    HW119139   5.850   2.504   1.574
 6080SOL    HW219140   5.912   2.634   1.499
 6081SOL     OW19141   6.772   3.156   3.724
 6081SOL    HW119142   6.710   3.214   3.777
 6081SOL    HW219143   6.721   3.112   3.650
 6082SOL     OW19144   4.095   1.459   3.084
 6082SOL    HW119145   4.053   1.538   3.130
 6082SOL    HW219146   4.170   1.492   3.025
 6083SOL     OW19147   1.405   6.266   6.937
 6083SOL    HW119148   1.358   6.354   6.946
 6083SOL    HW219149   1.411   6.242   6.840
 6084SOL     OW19150   6.995   5.528   5.659
 6084SOL    HW119151   6.950   5.600   5.710
 6084SOL    HW219152   6.936   5.498   5.583
 6085SOL     OW19153   5.747   3.463   0.144
 6085SOL    HW119154   5.819   3.466   0.214
 6085SOL    HW219155   5.755   3.542   0.084
 6086SOL     OW19156   3.334   2.094   4.368
 6086SOL    HW119157   3.402   2.111   4.439
 6086SOL    HW219158   3.244   2.127   4.400
 6087SOL     OW19159   5.686   6.615   6.455
 6087SOL    HW119160   5.717   6.705   6.485
 6087SOL    HW219161   5.586   6.614   6.448
 6088SOL     OW19162   1.099   0.104   5.194
 6088SOL    HW119163   1.123   0.074   5.102
 6088SOL    HW219164   1.008   0.069   5.217
 6089SOL     OW19165   0.220   3.567   1.143
 6089SOL    HW119166   0.296   3.609   1.192
 6089SOL    HW219167   0.139   3.625   1.152
 6090SOL     OW19168   0.699   5.392   5.195
 6090SOL    HW119169   0.617   5.338   5.178
 6090SOL    HW219170   0.712   5.458   5.121
 6091SOL     OW19171   6.167   1.504   2.038
 6091SOL    HW119172   6.224   1.522   1.958
 6091SOL    HW219173   6.218   1.447   2.103
 6092SOL     OW19174   2.127   1.519   2.587
 6092SOL    HW119175   2.139   1.618   2.594
 6092SOL    HW219176   2.032   1.499   2.561
 6093SOL     OW19177   1.244   2.669   1.452
 6093SOL    HW119178   1.149   2.653   1.422
 6093SOL    HW219179   1.292   2.721   1.381
 6094SOL     OW19180   0.684   1.076   1.343
 6094SOL    HW119181   0.680   1.042   1.437
 6094SOL    HW219182   0.606   1.043   1.291
 6095SOL     OW19183   6.430   3.330   6.358
 6095SOL    HW119184   6.433   3.381   6.272
 6095SOL    HW219185   6.508   3.267   6.362
 6096SOL     OW19186   3.870   2.093   3.620
 6096SOL    HW119187   3.792   2.120   3.677
 6096SOL    HW219188   3.836   2.044   3.540
 6097SOL     OW19189   2.682   1.144   2.413
 6097SOL    HW119190   2.728   1.188   2.490
 6097SOL    HW219191   2.746   1.136   2.336
 6098SOL     OW19192   2.082   2.429   5.550
 6098SOL    HW119193   2.077   2.441   5.649
 6098SOL    HW219194   2.177   2.408   5.524
 6099SOL     OW19195   6.108   5.996   5.122
 6099SOL    HW119196   6.075   6.065   5.058
 6099SOL    HW219197   6.110   5.907   5.077
 6100SOL     OW19198   6.387   2.559   6.964
 6100SOL    HW119199   6.422   2.466   6.972
 6100SOL    HW219200   6.289   2.560   6.982
 6101SOL     OW19201   6.701   1.073   5.442
 6101SOL    HW119202   6.704   1.111   5.534
 6101SOL    HW219203   6.712   0.974   5.446
 6102SOL     OW19204   2.816   0.741   4.583
 6102SOL    HW119205   2.723   0.704   4.591
 6102SOL    HW219206   2.863   0.698   4.506
 6103SOL     OW19207   6.412   6.631   5.429
 6103SOL    HW119208   6.315   6.612   5.446
 6103SOL    HW219209   6.437   6.717   5.472
 6104SOL     OW19210   6.212   1.881   6.817
 6104SOL    HW119211   6.217   1.785   6.789
 6104SOL    HW219212   6.193   1.887   6.915
 6105SOL     OW19213   3.377   6.029   4.938
 6105SOL    HW119214   3.295   5.979   4.914
 6105SOL    HW219215   3.441   6.028   4.861
 6106SOL     OW19216   3.453   4.874   5.952
 6106SOL    HW119217   3.494   4.846   5.865
 6106SOL    HW219218   3.355   4.888   5.941
 6107SOL     OW19219   2.010   4.715   5.116
 6107SOL    HW119220   1.943   4.776   5.157
 6107SOL    HW219221   1.963   4.646   5.061
 6108SOL     OW19222   0.843   2.311   4.523
 6108SOL    HW119223   0.892   2.314   4.436
 6108SOL    HW219224   0.843   2.402   4.564
 6109SOL     OW19225   5.896   3.670   0.959
 6109SOL    HW119226   5.851   3.580   0.952
 6109SOL    HW219227   5.830   3.742   0.939
 6110SOL     OW19228   3.383   1.853   4.629
 6110SOL    HW119229   3.298   1.904   4.641
 6110SOL    HW219230   3.456   1.898   4.680
 6111SOL     OW19231   1.372   4.943   3.121
 6111SOL    HW119232   1.377   4.857   3.171
 6111SOL    HW219233   1.341   5.016   3.181
 6112SOL     OW19234   0.765   2.024   2.912
 6112SOL    HW119235   0.771   2.121   2.890
 6112SOL    HW219236   0.674   2.004   2.948
 6113SOL     OW19237   2.092   6.812   5.511
 6113SOL    HW119238   2.172   6.836   5.455
 6113SOL    HW219239   2.008   6.829   5.458
 6114SOL     OW19240   4.499   5.803   0.741
 6114SOL    HW119241   4.427   5.773   0.803
 6114SOL    HW219242   4.588   5.786   0.781
 6115SOL     OW19243   5.340   5.103   2.467
 6115SOL    HW119244   5.265   5.050   2.505
 6115SOL    HW219245   5.426   5.054   2.483
 6116SOL     OW19246   3.751   1.119   1.797
 6116SOL    HW119247   3.677   1.142   1.859
 6116SOL    HW219248   3.834   1.099   1.850
 6117SOL     OW19249   5.756   6.923   4.739
 6117SOL    HW119250   5.776   6.932   4.836
 6117SOL    HW219251   5.698   7.000   4.710
 6118SOL     OW19252   6.219   0.743   3.544
 6118SOL    HW119253   6.313   0.707   3.543
 6118SOL    HW219254   6.222   0.842   3.554
 6119SOL     OW19255   6.804   5.081   4.869
 6119SOL    HW119256   6.808   4.999   4.926
 6119SOL    HW219257   6.895   5.122   4.864
 6120SOL     OW19258   2.709   0.374   2.935
 6120SOL    HW119259   2.757   0.428   3.003
 6120SOL    HW219260   2.614   0.362   2.963
 6121SOL     OW19261   0.389   2.360   3.924
 6121SOL    HW119262   0.427   2.384   3.835
 6121SOL    HW219263   0.446   2.290   3.966
 6122SOL     OW19264   4.166   5.619   3.181
 6122SOL    HW119265   4.193   5.523   3.169
 6122SOL    HW219266   4.187   5.670   3.098
 6123SOL     OW19267   6.383   0.962   2.373
 6123SOL    HW119268   6.371   0.911   2.458
 6123SOL    HW219269   6.461   0.924   2.323
 6124SOL     OW19270   3.344   0.049   5.579
 6124SOL    HW119271   3.365   0.097   5.665
 6124SOL    HW219272   3.289   0.108   5.520
 6125SOL     OW19273   2.276   6.099   2.046
 6125SOL    HW119274   2.342   6.024   2.031
 6125SOL    HW219275   2.226   6.083   2.131
 6126SOL     OW19276   5.187   4.979   3.164
 6126SOL    HW119277   5.236   5.060   3.196
 6126SOL    HW219278   5.143   5.000   3.077
 6127SOL     OW19279   1.892   5.893   1.521
 6127SOL    HW119280   1.937   5.939   1.597
 6127SOL    HW219281   1.945   5.906   1.437
 6128SOL     OW19282   6.115   2.130   0.377
 6128SOL    HW119283   6.132   2.193   0.301
 6128SOL    HW219284   6.083   2.042   0.341
 6129SOL     OW19285   6.217   4.481   3.294
 6129SOL    HW119286   6.208   4.383   3.278
 6129SOL    HW219287   6.156   4.530   3.231
 6130SOL     OW19288   5.085   3.631   2.509
 6130SOL    HW119289   5.051   3.572   2.436
 6130SOL    HW219290   5.154   3.581   2.562
 6131SOL     OW19291   6.112   1.177   5.661
 6131SOL    HW119292   6.100   1.092   5.609
 6131SOL    HW219293   6.208   1.204   5.658
 6132SOL     OW19294   4.108   3.159   0.657
 6132SOL    HW119295   4.195   3.160   0.707
 6132SOL    HW219296   4.101   3.241   0.601
 6133SOL     OW19297   1.026   4.092   1.511
 6133SOL    HW119298   1.053   4.016   1.452
 6133SOL    HW219299   0.926   4.091   1.523
 6134SOL     OW19300   4.427   3.637   6.568
 6134SOL    HW119301   4.455   3.569   6.636
 6134SOL    HW219302   4.352   3.691   6.605
 6135SOL     OW19303   6.027   0.100   1.358
 6135SOL    HW119304   6.120   0.108   1.322
 6135SOL    HW219305   5.990   0.010   1.334
 6136SOL     OW19306   1.145   1.840   1.952
 6136SOL    HW119307   1.199   1.790   1.883
 6136SOL    HW219308   1.200   1.850   2.035
 6137SOL     OW19309   3.186   6.373   5.872
 6137SOL    HW119310   3.120   6.406   5.805
 6137SOL    HW219311   3.167   6.277   5.894
 6138SOL     OW19312   3.845   5.838   3.129
 6138SOL    HW119313   3.810   5.752   3.164
 6138SOL    HW219314   3.869   5.828   3.033
 6139SOL     OW19315   1.568   4.653   4.776
 6139SOL    HW119316   1.513   4.646   4.693
 6139SOL    HW219317   1.657   4.694   4.754
 6140SOL     OW19318   1.540   6.763   1.312
 6140SOL    HW119319   1.457   6.724   1.352
 6140SOL    HW219320   1.542   6.862   1.328
 6141SOL     OW19321   6.583   5.426   6.182
 6141SOL    HW119322   6.651   5.371   6.134
 6141SOL    HW219323   6.546   5.496   6.119
 6142SOL     OW19324   6.974   4.347   1.170
 6142SOL    HW119325   6.880   4.319   1.149
 6142SOL    HW219326   7.022   4.367   1.085
 6143SOL     OW19327   5.836   5.050   6.554
 6143SOL    HW119328   5.749   5.012   6.584
 6143SOL    HW219329   5.819   5.121   6.485
 6144SOL     OW19330   0.479   4.469   4.250
 6144SOL    HW119331   0.472   4.567   4.230
 6144SOL    HW219332   0.545   4.428   4.187
 6145SOL     OW19333   5.280   5.748   3.035
 6145SOL    HW119334   5.185   5.773   3.054
 6145SOL    HW219335   5.328   5.732   3.121
 6146SOL     OW19336   5.532   1.406   3.547
 6146SOL    HW119337   5.518   1.363   3.458
 6146SOL    HW219338   5.621   1.379   3.583
 6147SOL     OW19339   2.091   3.477   2.414
 6147SOL    HW119340   2.076   3.481   2.512
 6147SOL    HW219341   2.098   3.571   2.378
 6148SOL     OW19342   6.255   6.215   4.437
 6148SOL    HW119343   6.347   6.237   4.469
 6148SOL    HW219344   6.242   6.116   4.437
 6149SOL     OW19345   3.109   5.588   3.153
 6149SOL    HW119346   3.085   5.492   3.142
 6149SOL    HW219347   3.058   5.643   3.087
 6150SOL     OW19348   4.752   5.842   5.935
 6150SOL    HW119349   4.775   5.897   5.855
 6150SOL    HW219350   4.676   5.781   5.913
 6151SOL     OW19351   5.195   2.480   5.704
 6151SOL    HW119352   5.238   2.441   5.623
 6151SOL    HW219353   5.210   2.420   5.782
 6152SOL     OW19354   6.388   4.503   6.512
 6152SOL    HW119355   6.445   4.477   6.590
 6152SOL    HW219356   6.427   4.584   6.469
 6153SOL     OW19357   3.775   3.690   1.522
 6153SOL    HW119358   3.819   3.728   1.441
 6153SOL    HW219359   3.676   3.700   1.514
 6154SOL     OW19360   5.141   3.223   2.944
 6154SOL    HW119361   5.092   3.235   2.858
 6154SOL    HW219362   5.144   3.125   2.966
 6155SOL     OW19363   0.286   3.800   5.117
 6155SOL    HW119364   0.373   3.777   5.162
 6155SOL    HW219365   0.252   3.719   5.068
 6156SOL     OW19366   6.355   7.013   3.628
 6156SOL    HW119367   6.424   0.025   3.564
 6156SOL    HW219368   6.401   6.964   3.702
 6157SOL     OW19369   2.419   0.986   4.000
 6157SOL    HW119370   2.321   0.998   3.982
 6157SOL    HW219371   2.450   1.058   4.062
 6158SOL     OW19372   4.705   1.375   5.823
 6158SOL    HW119373   4.632   1.443   5.830
 6158SOL    HW219374   4.766   1.400   5.748
 6159SOL     OW19375   5.252   3.117   0.009
 6159SOL    HW119376   5.287   3.210   0.004
 6159SOL    HW219377   5.307   3.057   6.974
 6160SOL     OW19378   5.781   5.943   2.060
 6160SOL    HW119379   5.875   5.943   2.026
 6160SOL    HW219380   5.717   5.943   1.983
 6161SOL     OW19381   5.577   0.225   5.850
 6161SOL    HW119382   5.548   0.190   5.762
 6161SOL    HW219383   5.607   0.149   5.908
 6162SOL     OW19384   6.383   4.582   4.879
 6162SOL    HW119385   6.342   4.627   4.799
 6162SOL    HW219386   6.345   4.490   4.888
 6163SOL     OW19387   6.691   3.918   2.063
 6163SOL    HW119388   6.765   3.854   2.041
 6163SOL    HW219389   6.729   4.009   2.076
 6164SOL     OW19390   3.877   1.910   1.094
 6164SOL    HW119391   3.786   1.929   1.057
 6164SOL    HW219392   3.888   1.812   1.107
 6165SOL     OW19393   3.511   6.086   6.969
 6165SOL    HW119394   3.598   6.083   6.919
 6165SOL    HW219395   3.479   6.181   6.974
 6166SOL     OW19396   2.938   1.584   5.976
 6166SOL    HW119397   2.881   1.508   5.943
 6166SOL    HW219398   2.887   1.636   6.044
 6167SOL     OW19399   0.466   3.998   3.632
 6167SOL    HW119400   0.429   3.939   3.560
 6167SOL    HW219401   0.556   3.964   3.661
 6168SOL     OW19402   0.374   3.699   2.562
 6168SOL    HW119403   0.277   3.676   2.555
 6168SOL    HW219404   0.402   3.750   2.481
 6169SOL     OW19405   1.809   4.270   2.320
 6169SOL    HW119406   1.839   4.200   2.384
 6169SOL    HW219407   1.740   4.231   2.258
 6170SOL     OW19408   0.441   3.037   5.451
 6170SOL    HW119409   0.367   2.980   5.417
 6170SOL    HW219410   0.505   3.057   5.377
 6171SOL     OW19411   0.025   0.599   6.470
 6171SOL    HW119412   0.002   0.686   6.514
 6171SOL    HW219413   6.974   0.534   6.485
 6172SOL     OW19414   0.402   3.539   3.066
 6172SOL    HW119415   0.414   3.551   2.967
 6172SOL    HW219416   0.312   3.574   3.093
 6173SOL     OW19417   6.761   6.931   3.144
 6173SOL    HW119418   6.740   6.952   3.239
 6173SOL    HW219419   6.687   6.876   3.105
 6174SOL     OW19420   5.583   3.958   2.839
 6174SOL    HW119421   5.582   4.050   2.876
 6174SOL    HW219422   5.617   3.960   2.745
 6175SOL     OW19423   2.699   1.932   5.611
 6175SOL    HW119424   2.716   2.023   5.572
 6175SOL    HW219425   2.701   1.864   5.538
 6176SOL     OW19426   4.226   4.176   5.318
 6176SOL    HW119427   4.308   4.158   5.374
 6176SOL    HW219428   4.198   4.271   5.329
 6177SOL     OW19429   5.908   0.681   1.683
 6177SOL    HW119430   5.976   0.704   1.752
 6177SOL    HW219431   5.935   0.719   1.595
 6178SOL     OW19432   4.228   4.402   1.473
 6178SOL    HW119433   4.203   4.323   1.530
 6178SOL    HW219434   4.152   4.467   1.472
 6179SOL     OW19435   5.488   5.028   2.915
 6179SOL    HW119436   5.540   5.045   2.832
 6179SOL    HW219437   5.547   4.985   2.983
 6180SOL     OW19438   2.687   4.109   0.042
 6180SOL    HW119439   2.695   4.075   6.972
 6180SOL    HW219440   2.707   4.035   0.106
 6181SOL     OW19441   4.855   5.110   6.233
 6181SOL    HW119442   4.825   5.115   6.137
 6181SOL    HW219443   4.890   5.018   6.251
 6182SOL     OW19444   3.048   3.012   0.548
 6182SOL    HW119445   3.099   2.926   0.557
 6182SOL    HW219446   3.035   3.033   0.451
 6183SOL     OW19447   0.642   1.570   1.302
 6183SOL    HW119448   0.650   1.645   1.368
 6183SOL    HW219449   0.671   1.484   1.346
 6184SOL     OW19450   2.453   0.405   5.972
 6184SOL    HW119451   2.473   0.372   5.879
 6184SOL    HW219452   2.486   0.499   5.982
 6185SOL     OW19453   3.255   2.956   5.421
 6185SOL    HW119454   3.292   3.045   5.450
 6185SOL    HW219455   3.318   2.884   5.447
 6186SOL     OW19456   6.228   1.377   2.298
 6186SOL    HW119457   6.323   1.359   2.322
 6186SOL    HW219458   6.171   1.299   2.323
 6187SOL     OW19459   5.679   1.829   5.375
 6187SOL    HW119460   5.611   1.827   5.448
 6187SOL    HW219461   5.634   1.850   5.288
 6188SOL     OW19462   1.471   1.814   5.349
 6188SOL    HW119463   1.515   1.790   5.263
 6188SOL    HW219464   1.541   1.827   5.420
 6189SOL     OW19465   6.343   6.229   1.990
 6189SOL    HW119466   6.333   6.157   1.921
 6189SOL    HW219467   6.405   6.197   2.063
 6190SOL     OW19468   0.058   2.440   5.670
 6190SOL    HW119469   0.117   2.411   5.594
 6190SOL    HW219470   0.027   2.534   5.654
 6191SOL     OW19471   3.819   3.379   6.380
 6191SOL    HW119472   3.804   3.344   6.287
 6191SOL    HW219473   3.906   3.344   6.414
 6192SOL     OW19474   2.799   1.552   0.010
 6192SOL    HW119475   2.754   1.618   0.071
 6192SOL    HW219476   2.885   1.521   0.051
 6193SOL     OW19477   4.380   5.318   6.621
 6193SOL    HW119478   4.281   5.332   6.625
 6193SOL    HW219479   4.401   5.232   6.575
 6194SOL     OW19480   6.383   0.210   5.833
 6194SOL    HW119481   6.422   0.222   5.925
 6194SOL    HW219482   6.296   0.258   5.827
 6195SOL     OW19483   6.678   6.636   6.042
 6195SOL    HW119484   6.734   6.674   6.117
 6195SOL    HW219485   6.721   6.552   6.009
 6196SOL     OW19486   5.758   3.907   3.369
 6196SOL    HW119487   5.723   3.839   3.304
 6196SOL    HW219488   5.690   3.923   3.440
 6197SOL     OW19489   3.363   5.922   1.647
 6197SOL    HW119490   3.388   6.003   1.699
 6197SOL    HW219491   3.349   5.845   1.709
 6198SOL     OW19492   6.418   6.678   6.543
 6198SOL    HW119493   6.492   6.715   6.599
 6198SOL    HW219494   6.335   6.669   6.599
 6199SOL     OW19495   1.527   0.570   0.618
 6199SOL    HW119496   1.501   0.643   0.681
 6199SOL    HW219497   1.486   0.484   0.647
 6200SOL     OW19498   1.848   2.184   2.752
 6200SOL    HW119499   1.895   2.265   2.718
 6200SOL    HW219500   1.912   2.107   2.757
 6201SOL     OW19501   6.809   3.905   3.931
 6201SOL    HW119502   6.763   3.816   3.927
 6201SOL    HW219503   6.904   3.892   3.962
 6202SOL     OW19504   6.571   1.400   2.703
 6202SOL    HW119505   6.508   1.461   2.654
 6202SOL    HW219506   6.661   1.443   2.710
 6203SOL     OW19507   6.642   6.443   1.888
 6203SOL    HW119508   6.620   6.402   1.977
 6203SOL    HW219509   6.737   6.471   1.887
 6204SOL     OW19510   2.510   6.931   5.246
 6204SOL    HW119511   2.585   6.944   5.181
 6204SOL    HW219512   2.518   6.998   5.320
 6205SOL     OW19513   5.062   4.324   3.094
 6205SOL    HW119514   4.971   4.319   3.134
 6205SOL    HW219515   5.091   4.420   3.088
 6206SOL     OW19516   5.152   2.135   3.543
 6206SOL    HW119517   5.196   2.145   3.632
 6206SOL    HW219518   5.211   2.174   3.472
 6207SOL     OW19519   2.128   5.170   4.533
 6207SOL    HW119520   2.135   5.232   4.611
 6207SOL    HW219521   2.220   5.147   4.500
 6208SOL     OW19522   3.772   3.366   5.518
 6208SOL    HW119523   3.850   3.414   5.557
 6208SOL    HW219524   3.736   3.416   5.440
 6209SOL     OW19525   3.452   3.070   0.592
 6209SOL    HW119526   3.511   3.152   0.595
 6209SOL    HW219527   3.375   3.082   0.654
 6210SOL     OW19528   4.717   1.735   3.895
 6210SOL    HW119529   4.772   1.819   3.907
 6210SOL    HW219530   4.766   1.658   3.936
 6211SOL     OW19531   5.542   4.843   5.187
 6211SOL    HW119532   5.533   4.753   5.230
 6211SOL    HW219533   5.635   4.878   5.200
 6212SOL     OW19534   4.264   4.778   5.393
 6212SOL    HW119535   4.308   4.817   5.311
 6212SOL    HW219536   4.165   4.784   5.383
 6213SOL     OW19537   3.908   6.041   0.136
 6213SOL    HW119538   3.903   6.004   0.043
 6213SOL    HW219539   3.957   6.128   0.134
 6214SOL     OW19540   5.887   5.648   6.387
 6214SOL    HW119541   5.917   5.594   6.465
 6214SOL    HW219542   5.791   5.626   6.367
 6215SOL     OW19543   5.872   2.396   5.722
 6215SOL    HW119544   5.945   2.379   5.788
 6215SOL    HW219545   5.784   2.370   5.762
 6216SOL     OW19546   4.724   2.238   2.829
 6216SOL    HW119547   4.796   2.281   2.774
 6216SOL    HW219548   4.765   2.181   2.900
 6217SOL     OW19549   0.539   4.544   2.193
 6217SOL    HW119550   0.488   4.464   2.161
 6217SOL    HW219551   0.632   4.540   2.157
 6218SOL     OW19552   4.488   6.300   6.889
 6218SOL    HW119553   4.447   6.373   6.943
 6218SOL    HW219554   4.429   6.220   6.891
 6219SOL     OW19555   0.980   0.697   6.108
 6219SOL    HW119556   0.905   0.764   6.110
 6219SOL    HW219557   1.012   0.682   6.202
 6220SOL     OW19558   4.033   0.548   0.937
 6220SOL    HW119559   4.038   0.633   0.990
 6220SOL    HW219560   3.940   0.534   0.905
 6221SOL     OW19561   6.210   5.728   6.536
 6221SOL    HW119562   6.162   5.640   6.533
 6221SOL    HW219563   6.193   5.779   6.451
 6222SOL     OW19564   6.109   1.149   2.373
 6222SOL    HW119565   6.194   1.109   2.407
 6222SOL    HW219566   6.032   1.089   2.395
 6223SOL     OW19567   6.906   4.927   3.295
 6223SOL    HW119568   6.809   4.940   3.315
 6223SOL    HW219569   6.955   5.014   3.307
 6224SOL     OW19570   4.008   1.311   6.391
 6224SOL    HW119571   4.039   1.244   6.323
 6224SOL    HW219572   4.038   1.282   6.482
 6225SOL     OW19573   4.539   6.369   6.573
 6225SOL    HW119574   4.500   6.460   6.588
 6225SOL    HW219575   4.505   6.307   6.644
 6226SOL     OW19576   1.477   1.252   4.650
 6226SOL    HW119577   1.509   1.259   4.555
 6226SOL    HW219578   1.385   1.291   4.657
 6227SOL     OW19579   2.841   4.030   5.849
 6227SOL    HW119580   2.822   3.976   5.767
 6227SOL    HW219581   2.832   4.128   5.828
 6228SOL     OW19582   1.481   3.353   4.258
 6228SOL    HW119583   1.547   3.366   4.331
 6228SOL    HW219584   1.506   3.273   4.204
 6229SOL     OW19585   0.601   4.004   4.110
 6229SOL    HW119586   0.559   3.953   4.185
 6229SOL    HW219587   0.677   3.951   4.071
 6230SOL     OW19588   0.071   0.831   2.177
 6230SOL    HW119589   0.075   0.790   2.268
 6230SOL    HW219590   0.113   0.922   2.179
 6231SOL     OW19591   1.337   5.243   0.021
 6231SOL    HW119592   1.431   5.273   0.002
 6231SOL    HW219593   1.332   5.210   0.115
 6232SOL     OW19594   4.089   1.097   6.250
 6232SOL    HW119595   4.065   1.048   6.167
 6232SOL    HW219596   4.093   1.033   6.327
 6233SOL     OW19597   0.112   3.789   1.603
 6233SOL    HW119598   0.148   3.700   1.576
 6233SOL    HW219599   0.066   3.830   1.524
 6234SOL     OW19600   4.574   6.285   4.902
 6234SOL    HW119601   4.489   6.307   4.855
 6234SOL    HW219602   4.639   6.360   4.891
 6235SOL     OW19603   6.562   0.939   2.835
 6235SOL    HW119604   6.506   1.018   2.809
 6235SOL    HW219605   6.588   0.946   2.931
 6236SOL     OW19606   1.026   5.358   0.989
 6236SOL    HW119607   0.991   5.275   1.032
 6236SOL    HW219608   1.042   5.428   1.059
 6237SOL     OW19609   3.682   1.730   0.743
 6237SOL    HW119610   3.603   1.676   0.771
 6237SOL    HW219611   3.722   1.689   0.660
 6238SOL     OW19612   2.354   6.606   4.504
 6238SOL    HW119613   2.391   6.520   4.469
 6238SOL    HW219614   2.414   6.641   4.576
 6239SOL     OW19615   4.645   1.368   3.390
 6239SOL    HW119616   4.662   1.416   3.477
 6239SOL    HW219617   4.729   1.370   3.335
 6240SOL     OW19618   4.125   3.322   4.102
 6240SOL    HW119619   4.114   3.352   4.197
 6240SOL    HW219620   4.098   3.226   4.094
 6241SOL     OW19621   3.865   0.613   2.566
 6241SOL    HW119622   3.765   0.614   2.559
 6241SOL    HW219623   3.891   0.613   2.662
 6242SOL     OW19624   2.786   2.035   3.914
 6242SOL    HW119625   2.879   2.071   3.907
 6242SOL    HW219626   2.731   2.070   3.838
 6243SOL     OW19627   4.932   1.000   5.798
 6243SOL    HW119628   4.978   1.087   5.782
 6243SOL    HW219629   5.000   0.927   5.802
 6244SOL     OW19630   4.523   4.530   2.733
 6244SOL    HW119631   4.459   4.537   2.656
 6244SOL    HW219632   4.584   4.453   2.718
 6245SOL     OW19633   0.420   4.327   2.640
 6245SOL    HW119634   0.383   4.395   2.575
 6245SOL    HW219635   0.345   4.269   2.673
 6246SOL     OW19636   6.776   6.442   4.546
 6246SOL    HW119637   6.734   6.509   4.485
 6246SOL    HW219638   6.713   6.419   4.620
 6247SOL     OW19639   6.268   6.815   2.329
 6247SOL    HW119640   6.306   6.765   2.251
 6247SOL    HW219641   6.292   6.768   2.414
 6248SOL     OW19642   3.207   3.074   6.073
 6248SOL    HW119643   3.251   3.059   6.162
 6248SOL    HW219644   3.255   3.147   6.024
 6249SOL     OW19645   6.239   3.301   1.705
 6249SOL    HW119646   6.169   3.286   1.775
 6249SOL    HW219647   6.202   3.362   1.635
 6250SOL     OW19648   6.522   7.018   0.553
 6250SOL    HW119649   6.550   0.066   0.489
 6250SOL    HW219650   6.428   6.989   0.532
 6251SOL     OW19651   2.670   6.717   4.378
 6251SOL    HW119652   2.685   6.658   4.458
 6251SOL    HW219653   2.751   6.714   4.319
 6252SOL     OW19654   2.832   5.467   6.875
 6252SOL    HW119655   2.837   5.488   6.777
 6252SOL    HW219656   2.744   5.498   6.911
 6253SOL     OW19657   3.657   5.001   4.718
 6253SOL    HW119658   3.679   4.945   4.638
 6253SOL    HW219659   3.717   5.081   4.720
 6254SOL     OW19660   0.670   6.685   1.380
 6254SOL    HW119661   0.650   6.650   1.471
 6254SOL    HW219662   0.753   6.642   1.345
 6255SOL     OW19663   0.222   1.083   2.136
 6255SOL    HW119664   0.233   1.116   2.043
 6255SOL    HW219665   0.239   1.158   2.200
 6256SOL     OW19666   4.861   5.890   2.017
 6256SOL    HW119667   4.904   5.961   2.073
 6256SOL    HW219668   4.778   5.857   2.063
 6257SOL     OW19669   3.548   4.208   1.400
 6257SOL    HW119670   3.479   4.219   1.328
 6257SOL    HW219671   3.525   4.129   1.457
 6258SOL     OW19672   4.116   5.576   5.128
 6258SOL    HW119673   4.097   5.510   5.055
 6258SOL    HW219674   4.030   5.616   5.160
 6259SOL     OW19675   2.957   0.391   4.499
 6259SOL    HW119676   2.867   0.396   4.542
 6259SOL    HW219677   3.003   0.307   4.528
 6260SOL     OW19678   1.659   1.541   0.428
 6260SOL    HW119679   1.708   1.592   0.498
 6260SOL    HW219680   1.718   1.470   0.390
 6261SOL     OW19681   3.456   0.351   0.851
 6261SOL    HW119682   3.439   0.253   0.849
 6261SOL    HW219683   3.463   0.382   0.946
 6262SOL     OW19684   6.099   0.223   2.546
 6262SOL    HW119685   6.189   0.181   2.533
 6262SOL    HW219686   6.110   0.319   2.569
 6263SOL     OW19687   5.911   5.888   6.255
 6263SOL    HW119688   5.923   5.805   6.309
 6263SOL    HW219689   5.836   5.942   6.295
 6264SOL     OW19690   1.824   0.090   0.741
 6264SOL    HW119691   1.850   0.157   0.811
 6264SOL    HW219692   1.725   0.081   0.738
 6265SOL     OW19693   4.700   0.618   0.111
 6265SOL    HW119694   4.610   0.645   0.076
 6265SOL    HW219695   4.722   0.526   0.079
 6266SOL     OW19696   2.184   5.156   2.688
 6266SOL    HW119697   2.215   5.218   2.760
 6266SOL    HW219698   2.092   5.124   2.709
 6267SOL     OW19699   1.841   6.369   4.908
 6267SOL    HW119700   1.868   6.462   4.933
 6267SOL    HW219701   1.800   6.323   4.987
 6268SOL     OW19702   3.453   1.460   1.193
 6268SOL    HW119703   3.542   1.494   1.163
 6268SOL    HW219704   3.396   1.537   1.221
 6269SOL     OW19705   6.252   5.228   0.439
 6269SOL    HW119706   6.258   5.328   0.447
 6269SOL    HW219707   6.174   5.195   0.493
 6270SOL     OW19708   2.118   6.418   0.413
 6270SOL    HW119709   2.092   6.330   0.372
 6270SOL    HW219710   2.202   6.450   0.370
 6271SOL     OW19711   5.864   3.201   6.194
 6271SOL    HW119712   5.931   3.262   6.236
 6271SOL    HW219713   5.771   3.231   6.219
 6272SOL     OW19714   0.820   6.632   1.084
 6272SOL    HW119715   0.758   6.704   1.054
 6272SOL    HW219716   0.771   6.545   1.089
 6273SOL     OW19717   0.346   6.587   1.512
 6273SOL    HW119718   0.354   6.676   1.467
 6273SOL    HW219719   0.422   6.575   1.576
 6274SOL     OW19720   3.227   5.729   4.116
 6274SOL    HW119721   3.258   5.739   4.211
 6274SOL    HW219722   3.305   5.738   4.055
 6275SOL     OW19723   1.991   5.497   6.922
 6275SOL    HW119724   1.921   5.556   6.883
 6275SOL    HW219725   2.026   5.537   7.006
 6276SOL     OW19726   1.448   5.598   2.990
 6276SOL    HW119727   1.447   5.515   3.046
 6276SOL    HW219728   1.542   5.622   2.967
 6277SOL     OW19729   5.056   3.513   0.953
 6277SOL    HW119730   5.092   3.434   1.002
 6277SOL    HW219731   4.985   3.557   1.008
 6278SOL     OW19732   2.538   1.267   6.297
 6278SOL    HW119733   2.501   1.192   6.244
 6278SOL    HW219734   2.469   1.339   6.307
 6279SOL     OW19735   2.486   0.050   1.481
 6279SOL    HW119736   2.403   7.022   1.463
 6279SOL    HW219737   2.462   0.144   1.508
 6280SOL     OW19738   6.442   2.590   0.559
 6280SOL    HW119739   6.540   2.610   0.559
 6280SOL    HW219740   6.410   2.577   0.465
 6281SOL     OW19741   5.790   3.861   6.080
 6281SOL    HW119742   5.815   3.917   6.159
 6281SOL    HW219743   5.849   3.780   6.077
 6282SOL     OW19744   0.265   3.195   6.061
 6282SOL    HW119745   0.344   3.135   6.046
 6282SOL    HW219746   0.228   3.178   6.153
 6283SOL     OW19747   1.021   5.936   4.308
 6283SOL    HW119748   0.926   5.932   4.338
 6283SOL    HW219749   1.075   5.867   4.358
 6284SOL     OW19750   1.816   4.508   6.341
 6284SOL    HW119751   1.904   4.553   6.326
 6284SOL    HW219752   1.811   4.425   6.286
 6285SOL     OW19753   0.861   3.738   3.193
 6285SOL    HW119754   0.950   3.769   3.158
 6285SOL    HW219755   0.810   3.694   3.119
 6286SOL     OW19756   0.722   2.470   6.927
 6286SOL    HW119757   0.659   2.541   6.894
 6286SOL    HW219758   0.777   2.436   6.850
 6287SOL     OW19759   5.091   4.907   4.788
 6287SOL    HW119760   5.067   5.002   4.769
 6287SOL    HW219761   5.171   4.882   4.733
 6288SOL     OW19762   3.385   3.193   6.564
 6288SOL    HW119763   3.315   3.234   6.504
 6288SOL    HW219764   3.375   3.230   6.656
 6289SOL     OW19765   2.470   4.448   5.724
 6289SOL    HW119766   2.559   4.494   5.722
 6289SOL    HW219767   2.414   4.480   5.648
 6290SOL     OW19768   5.485   5.855   4.086
 6290SOL    HW119769   5.396   5.900   4.094
 6290SOL    HW219770   5.549   5.916   4.039
 6291SOL     OW19771   3.972   3.906   3.053
 6291SOL    HW119772   4.003   3.908   3.148
 6291SOL    HW219773   4.004   3.821   3.009
 6292SOL     OW19774   1.224   3.391   4.367
 6292SOL    HW119775   1.318   3.404   4.335
 6292SOL    HW219776   1.220   3.316   4.432
 6293SOL     OW19777   3.538   1.050   6.567
 6293SOL    HW119778   3.513   1.118   6.637
 6293SOL    HW219779   3.638   1.049   6.556
 6294SOL     OW19780   1.399   1.498   3.122
 6294SOL    HW119781   1.336   1.456   3.057
 6294SOL    HW219782   1.444   1.426   3.175
 6295SOL     OW19783   5.395   3.684   5.918
 6295SOL    HW119784   5.380   3.589   5.892
 6295SOL    HW219785   5.439   3.733   5.842
 6296SOL     OW19786   0.754   2.765   7.022
 6296SOL    HW119787   0.720   2.693   0.059
 6296SOL    HW219788   0.786   2.842   0.053
 6297SOL     OW19789   5.907   1.074   4.179
 6297SOL    HW119790   5.999   1.046   4.152
 6297SOL    HW219791   5.898   1.173   4.169
 6298SOL     OW19792   6.452   5.643   0.676
 6298SOL    HW119793   6.547   5.664   0.698
 6298SOL    HW219794   6.420   5.704   0.603
 6299SOL     OW19795   4.118   1.403   2.445
 6299SOL    HW119796   4.028   1.411   2.403
 6299SOL    HW219797   4.129   1.311   2.484
 6300SOL     OW19798   2.659   1.092   5.939
 6300SOL    HW119799   2.755   1.064   5.935
 6300SOL    HW219800   2.628   1.117   5.848
 6301SOL     OW19801   3.611   6.527   6.905
 6301SOL    HW119802   3.533   6.475   6.942
 6301SOL    HW219803   3.695   6.476   6.923
 6302SOL     OW19804   3.213   2.252   6.454
 6302SOL    HW119805   3.185   2.341   6.489
 6302SOL    HW219806   3.135   2.189   6.458
 6303SOL     OW19807   1.108   6.087   5.090
 6303SOL    HW119808   1.065   6.043   5.168
 6303SOL    HW219809   1.041   6.098   5.016
 6304SOL     OW19810   4.044   1.065   3.623
 6304SOL    HW119811   4.022   1.135   3.555
 6304SOL    HW219812   4.000   1.088   3.710
 6305SOL     OW19813   0.974   6.043   6.032
 6305SOL    HW119814   0.943   6.042   6.127
 6305SOL    HW219815   1.050   5.978   6.022
 6306SOL     OW19816   0.070   4.932   4.220
 6306SOL    HW119817   0.083   4.925   4.121
 6306SOL    HW219818   0.085   4.843   4.262
 6307SOL     OW19819   4.087   3.678   2.977
 6307SOL    HW119820   4.158   3.655   3.044
 6307SOL    HW219821   4.044   3.595   2.944
 6308SOL     OW19822   0.194   2.621   0.716
 6308SOL    HW119823   0.134   2.641   0.793
 6308SOL    HW219824   0.188   2.524   0.693
 6309SOL     OW19825   2.439   5.983   4.840
 6309SOL    HW119826   2.384   5.966   4.758
 6309SOL    HW219827   2.407   6.066   4.885
 6310SOL     OW19828   1.345   6.663   3.166
 6310SOL    HW119829   1.279   6.659   3.090
 6310SOL    HW219830   1.344   6.755   3.206
 6311SOL     OW19831   5.491   1.146   5.932
 6311SOL    HW119832   5.576   1.133   5.981
 6311SOL    HW219833   5.414   1.116   5.988
 6312SOL     OW19834   3.663   6.054   6.507
 6312SOL    HW119835   3.749   6.001   6.503
 6312SOL    HW219836   3.676   6.133   6.567
 6313SOL     OW19837   5.706   5.300   4.511
 6313SOL    HW119838   5.701   5.398   4.535
 6313SOL    HW219839   5.661   5.285   4.423
 6314SOL     OW19840   1.889   0.081   2.507
 6314SOL    HW119841   1.961   0.142   2.541
 6314SOL    HW219842   1.914   0.048   2.415
 6315SOL     OW19843   2.086   2.945   4.670
 6315SOL    HW119844   2.136   2.919   4.753
 6315SOL    HW219845   2.151   2.974   4.600
 6316SOL     OW19846   5.029   1.014   4.577
 6316SOL    HW119847   5.046   1.103   4.618
 6316SOL    HW219848   5.011   0.947   4.649
 6317SOL     OW19849   5.305   4.950   1.559
 6317SOL    HW119850   5.345   4.865   1.525
 6317SOL    HW219851   5.208   4.937   1.576
 6318SOL     OW19852   6.966   6.392   6.768
 6318SOL    HW119853   6.890   6.346   6.815
 6318SOL    HW219854   0.010   6.422   6.835
 6319SOL     OW19855   5.113   0.625   4.209
 6319SOL    HW119856   5.037   0.687   4.196
 6319SOL    HW219857   5.199   0.677   4.210
 6320SOL     OW19858   6.401   0.462   6.026
 6320SOL    HW119859   6.347   0.522   5.967
 6320SOL    HW219860   6.396   0.495   6.120
 6321SOL     OW19861   5.967   2.445   6.847
 6321SOL    HW119862   6.041   2.408   6.791
 6321SOL    HW219863   5.879   2.430   6.801
 6322SOL     OW19864   1.050   1.447   2.283
 6322SOL    HW119865   1.062   1.502   2.201
 6322SOL    HW219866   1.096   1.491   2.360
 6323SOL     OW19867   2.480   4.150   1.403
 6323SOL    HW119868   2.494   4.058   1.367
 6323SOL    HW219869   2.387   4.181   1.380
 6324SOL     OW19870   4.690   1.705   0.975
 6324SOL    HW119871   4.696   1.775   1.047
 6324SOL    HW219872   4.670   1.749   0.887
 6325SOL     OW19873   1.564   3.142   4.075
 6325SOL    HW119874   1.663   3.155   4.079
 6325SOL    HW219875   1.539   3.101   3.988
 6326SOL     OW19876   5.415   4.719   6.041
 6326SOL    HW119877   5.391   4.666   5.960
 6326SOL    HW219878   5.512   4.743   6.038
 6327SOL     OW19879   6.871   0.819   4.132
 6327SOL    HW119880   6.966   0.790   4.122
 6327SOL    HW219881   6.867   0.919   4.131
 6328SOL     OW19882   4.368   3.593   5.225
 6328SOL    HW119883   4.468   3.584   5.220
 6328SOL    HW219884   4.333   3.627   5.137
 6329SOL     OW19885   0.915   2.477   5.967
 6329SOL    HW119886   0.887   2.442   6.056
 6329SOL    HW219887   0.845   2.455   5.899
 6330SOL     OW19888   5.559   1.604   3.337
 6330SOL    HW119889   5.537   1.554   3.420
 6330SOL    HW219890   5.501   1.572   3.262
 6331SOL     OW19891   1.115   3.310   3.700
 6331SOL    HW119892   1.203   3.352   3.679
 6331SOL    HW219893   1.125   3.210   3.695
 6332SOL     OW19894   3.400   1.500   0.168
 6332SOL    HW119895   3.427   1.468   0.259
 6332SOL    HW219896   3.461   1.574   0.140
 6333SOL     OW19897   5.124   1.883   0.736
 6333SOL    HW119898   5.107   1.811   0.803
 6333SOL    HW219899   5.200   1.940   0.767
 6334SOL     OW19900   1.453   1.270   2.429
 6334SOL    HW119901   1.429   1.345   2.491
 6334SOL    HW219902   1.411   1.185   2.461
 6335SOL     OW19903   6.468   1.486   0.127
 6335SOL    HW119904   6.553   1.468   0.079
 6335SOL    HW219905   6.479   1.465   0.224
 6336SOL     OW19906   0.903   3.444   5.805
 6336SOL    HW119907   0.833   3.393   5.854
 6336SOL    HW219908   0.872   3.538   5.791
 6337SOL     OW19909   5.025   5.495   5.428
 6337SOL    HW119910   5.116   5.481   5.467
 6337SOL    HW219911   4.957   5.450   5.486
 6338SOL     OW19912   2.540   0.926   3.247
 6338SOL    HW119913   2.607   1.001   3.249
 6338SOL    HW219914   2.480   0.933   3.326
 6339SOL     OW19915   0.581   4.739   3.415
 6339SOL    HW119916   0.532   4.728   3.328
 6339SOL    HW219917   0.522   4.709   3.490
 6340SOL     OW19918   2.209   4.318   0.892
 6340SOL    HW119919   2.256   4.239   0.932
 6340SOL    HW219920   2.276   4.376   0.846
 6341SOL     OW19921   0.430   5.081   3.373
 6341SOL    HW119922   0.515   5.065   3.423
 6341SOL    HW219923   0.379   4.995   3.364
 6342SOL     OW19924   2.291   1.609   1.453
 6342SOL    HW119925   2.217   1.676   1.445
 6342SOL    HW219926   2.294   1.574   1.547
 6343SOL     OW19927   1.436   5.801   1.209
 6343SOL    HW119928   1.351   5.804   1.157
 6343SOL    HW219929   1.514   5.795   1.147
 6344SOL     OW19930   6.846   1.094   4.101
 6344SOL    HW119931   6.849   1.138   4.012
 6344SOL    HW219932   6.771   1.132   4.155
 6345SOL     OW19933   5.777   3.405   1.919
 6345SOL    HW119934   5.763   3.464   1.840
 6345SOL    HW219935   5.689   3.371   1.952
 6346SOL     OW19936   6.708   4.285   5.427
 6346SOL    HW119937   6.798   4.268   5.469
 6346SOL    HW219938   6.700   4.381   5.402
 6347SOL     OW19939   1.837   2.082   3.369
 6347SOL    HW119940   1.909   2.121   3.311
 6347SOL    HW219941   1.845   1.983   3.369
 6348SOL     OW19942   0.555   2.043   6.230
 6348SOL    HW119943   0.501   2.011   6.152
 6348SOL    HW219944   0.553   1.974   6.302
 6349SOL     OW19945   6.960   1.113   6.837
 6349SOL    HW119946   6.894   1.160   6.779
 6349SOL    HW219947   0.009   1.074   6.781
 6350SOL     OW19948   0.925   5.404   1.973
 6350SOL    HW119949   1.017   5.441   1.987
 6350SOL    HW219950   0.870   5.470   1.924
 6351SOL     OW19951   5.812   2.801   1.956
 6351SOL    HW119952   5.756   2.717   1.959
 6351SOL    HW219953   5.771   2.869   2.016
 6352SOL     OW19954   2.994   0.655   4.401
 6352SOL    HW119955   3.087   0.679   4.371
 6352SOL    HW219956   2.994   0.562   4.437
 6353SOL     OW19957   3.232   6.197   5.560
 6353SOL    HW119958   3.326   6.187   5.526
 6353SOL    HW219959   3.197   6.288   5.535
 6354SOL     OW19960   4.858   5.518   1.738
 6354SOL    HW119961   4.834   5.615   1.736
 6354SOL    HW219962   4.818   5.475   1.819
 6355SOL     OW19963   2.360   4.653   0.879
 6355SOL    HW119964   2.351   4.732   0.818
 6355SOL    HW219965   2.441   4.665   0.937
 6356SOL     OW19966   6.420   4.770   6.428
 6356SOL    HW119967   6.469   4.847   6.468
 6356SOL    HW219968   6.426   4.774   6.329
 6357SOL     OW19969   5.830   1.070   1.799
 6357SOL    HW119970   5.902   1.107   1.858
 6357SOL    HW219971   5.754   1.135   1.795
 6358SOL     OW19972   1.108   2.059   6.164
 6358SOL    HW119973   1.110   2.045   6.263
 6358SOL    HW219974   1.084   1.973   6.119
 6359SOL     OW19975   5.669   6.504   0.712
 6359SOL    HW119976   5.569   6.505   0.708
 6359SOL    HW219977   5.705   6.484   0.621
 6360SOL     OW19978   0.770   2.079   2.195
 6360SOL    HW119979   0.732   1.997   2.239
 6360SOL    HW219980   0.697   2.126   2.146
 6361SOL     OW19981   0.317   0.777   6.539
 6361SOL    HW119982   0.277   0.842   6.474
 6361SOL    HW219983   0.312   0.685   6.501
 6362SOL     OW19984   1.379   5.838   0.512
 6362SOL    HW119985   1.404   5.768   0.578
 6362SOL    HW219986   1.325   5.910   0.556
 6363SOL     OW19987   2.300   4.363   3.321
 6363SOL    HW119988   2.275   4.332   3.413
 6363SOL    HW219989   2.295   4.286   3.258
 6364SOL     OW19990   2.364   2.770   4.514
 6364SOL    HW119991   2.338   2.710   4.439
 6364SOL    HW219992   2.313   2.856   4.507
 6365SOL     OW19993   5.814   6.059   2.984
 6365SOL    HW119994   5.755   6.060   3.066
 6365SOL    HW219995   5.759   6.037   2.904
 6366SOL     OW19996   6.129   0.135   5.066
 6366SOL    HW119997   6.074   0.057   5.034
 6366SOL    HW219998   6.153   0.192   4.988
 6367SOL     OW19999   1.958   2.106   2.098
 6367SOL    HW120000   1.923   2.067   2.183
 6367SOL    HW220001   2.023   2.043   2.056
 6368SOL     OW20002   4.861   3.035   4.499
 6368SOL    HW120003   4.819   2.952   4.462
 6368SOL    HW220004   4.876   3.023   4.597
 6369SOL     OW20005   4.017   5.652   6.859
 6369SOL    HW120006   3.949   5.579   6.868
 6369SOL    HW220007   4.083   5.644   6.934
 6370SOL     OW20008   5.309   3.707   4.268
 6370SOL    HW120009   5.385   3.643   4.257
 6370SOL    HW220010   5.340   3.789   4.316
 6371SOL     OW20011   5.049   4.003   1.341
 6371SOL    HW120012   5.123   4.017   1.275
 6371SOL    HW220013   4.968   4.055   1.312
 6372SOL     OW20014   6.443   1.603   2.569
 6372SOL    HW120015   6.459   1.697   2.599
 6372SOL    HW220016   6.411   1.603   2.474
 6373SOL     OW20017   4.339   4.234   1.240
 6373SOL    HW120018   4.292   4.301   1.297
 6373SOL    HW220019   4.394   4.280   1.171
 6374SOL     OW20020   4.601   3.944   6.575
 6374SOL    HW120021   4.591   3.848   6.549
 6374SOL    HW220022   4.529   3.969   6.640
 6375SOL     OW20023   5.276   2.175   1.893
 6375SOL    HW120024   5.188   2.223   1.885
 6375SOL    HW220025   5.320   2.199   1.980
 6376SOL     OW20026   3.298   0.852   6.618
 6376SOL    HW120027   3.288   0.904   6.702
 6376SOL    HW220028   3.356   0.772   6.635
 6377SOL     OW20029   6.851   0.740   0.587
 6377SOL    HW120030   6.899   0.826   0.606
 6377SOL    HW220031   6.894   0.666   0.638
 6378SOL     OW20032   5.339   5.367   1.985
 6378SOL    HW120033   5.279   5.443   1.960
 6378SOL    HW220034   5.398   5.395   2.062
 6379SOL     OW20035   1.949   5.969   6.629
 6379SOL    HW120036   2.045   5.982   6.603
 6379SOL    HW220037   1.944   5.938   6.724
 6380SOL     OW20038   1.117   3.526   4.979
 6380SOL    HW120039   1.134   3.624   4.963
 6380SOL    HW220040   1.144   3.502   5.072
 6381SOL     OW20041   4.054   2.167   6.801
 6381SOL    HW120042   4.119   2.220   6.855
 6381SOL    HW220043   3.964   2.209   6.807
 6382SOL     OW20044   1.571   2.017   0.919
 6382SOL    HW120045   1.594   1.928   0.879
 6382SOL    HW220046   1.650   2.078   0.912
 6383SOL     OW20047   2.602   2.434   2.235
 6383SOL    HW120048   2.549   2.495   2.176
 6383SOL    HW220049   2.671   2.387   2.181
 6384SOL     OW20050   6.503   2.675   2.446
 6384SOL    HW120051   6.600   2.650   2.456
 6384SOL    HW220052   6.449   2.593   2.427
 6385SOL     OW20053   6.963   3.318   1.419
 6385SOL    HW120054   6.883   3.277   1.463
 6385SOL    HW220055   0.018   3.257   1.429
 6386SOL     OW20056   2.386   4.068   0.642
 6386SOL    HW120057   2.413   3.992   0.701
 6386SOL    HW220058   2.439   4.149   0.668
 6387SOL     OW20059   6.924   0.128   6.387
 6387SOL    HW120060   6.826   0.147   6.378
 6387SOL    HW220061   6.976   0.208   6.359
 6388SOL     OW20062   6.502   5.110   2.179
 6388SOL    HW120063   6.559   5.126   2.260
 6388SOL    HW220064   6.471   5.197   2.142
 6389SOL     OW20065   0.377   0.586   0.375
 6389SOL    HW120066   0.398   0.599   0.278
 6389SOL    HW220067   0.358   0.489   0.392
 6390SOL     OW20068   5.511   0.384   6.490
 6390SOL    HW120069   5.540   0.464   6.438
 6390SOL    HW220070   5.568   0.305   6.466
 6391SOL     OW20071   0.813   1.496   5.237
 6391SOL    HW120072   0.865   1.428   5.185
 6391SOL    HW220073   0.733   1.525   5.184
 6392SOL     OW20074   4.000   6.788   3.276
 6392SOL    HW120075   4.030   6.752   3.364
 6392SOL    HW220076   3.967   6.713   3.219
 6393SOL     OW20077   0.767   5.667   0.290
 6393SOL    HW120078   0.683   5.711   0.257
 6393SOL    HW220079   0.789   5.700   0.382
 6394SOL     OW20080   1.246   5.568   1.615
 6394SOL    HW120081   1.235   5.613   1.527
 6394SOL    HW220082   1.334   5.594   1.655
 6395SOL     OW20083   2.071   3.837   3.222
 6395SOL    HW120084   2.110   3.819   3.131
 6395SOL    HW220085   2.016   3.759   3.250
 6396SOL     OW20086   1.222   3.667   6.453
 6396SOL    HW120087   1.125   3.669   6.478
 6396SOL    HW220088   1.274   3.722   6.518
 6397SOL     OW20089   5.417   3.179   4.090
 6397SOL    HW120090   5.367   3.259   4.058
 6397SOL    HW220091   5.367   3.096   4.064
 6398SOL     OW20092   2.154   0.598   1.132
 6398SOL    HW120093   2.197   0.684   1.105
 6398SOL    HW220094   2.097   0.613   1.213
 6399SOL     OW20095   3.330   0.838   6.013
 6399SOL    HW120096   3.296   0.812   5.923
 6399SOL    HW220097   3.379   0.925   6.007
 6400SOL     OW20098   1.681   6.357   3.405
 6400SOL    HW120099   1.619   6.334   3.329
 6400SOL    HW220100   1.764   6.302   3.398
 6401SOL     OW20101   3.602   5.836   3.431
 6401SOL    HW120102   3.607   5.903   3.357
 6401SOL    HW220103   3.695   5.813   3.462
 6402SOL     OW20104   1.946   4.530   4.908
 6402SOL    HW120105   1.998   4.457   4.864
 6402SOL    HW220106   1.849   4.505   4.910
 6403SOL     OW20107   5.007   5.736   5.315
 6403SOL    HW120108   5.068   5.741   5.236
 6403SOL    HW220109   5.003   5.642   5.348
 6404SOL     OW20110   4.524   0.059   1.879
 6404SOL    HW120111   4.592   0.131   1.894
 6404SOL    HW220112   4.546   7.003   1.935
 6405SOL     OW20113   5.302   1.746   2.477
 6405SOL    HW120114   5.391   1.744   2.521
 6405SOL    HW220115   5.282   1.838   2.444
 6406SOL     OW20116   0.293   3.145   3.305
 6406SOL    HW120117   0.309   3.050   3.280
 6406SOL    HW220118   0.212   3.152   3.363
 6407SOL     OW20119   0.959   5.887   2.618
 6407SOL    HW120120   1.033   5.954   2.614
 6407SOL    HW220121   0.949   5.843   2.529
 6408SOL     OW20122   6.814   0.357   1.906
 6408SOL    HW120123   6.868   0.293   1.851
 6408SOL    HW220124   6.741   0.396   1.849
 6409SOL     OW20125   5.723   5.403   3.577
 6409SOL    HW120126   5.794   5.332   3.576
 6409SOL    HW220127   5.633   5.360   3.587
 6410SOL     OW20128   1.986   1.480   6.299
 6410SOL    HW120129   1.948   1.478   6.206
 6410SOL    HW220130   2.011   1.388   6.327
 6411SOL     OW20131   0.588   2.234   2.065
 6411SOL    HW120132   0.617   2.321   2.105
 6411SOL    HW220133   0.552   2.251   1.973
 6412SOL     OW20134   3.335   0.929   0.178
 6412SOL    HW120135   3.412   0.966   0.229
 6412SOL    HW220136   3.366   0.859   0.114
 6413SOL     OW20137   4.936   6.666   3.044
 6413SOL    HW120138   4.943   6.761   3.073
 6413SOL    HW220139   4.945   6.661   2.944
 6414SOL     OW20140   1.664   0.248   0.493
 6414SOL    HW120141   1.704   0.338   0.511
 6414SOL    HW220142   1.735   0.178   0.503
 6415SOL     OW20143   0.271   2.503   3.608
 6415SOL    HW120144   0.258   2.519   3.510
 6415SOL    HW220145   0.188   2.464   3.647
 6416SOL     OW20146   2.638   6.803   0.131
 6416SOL    HW120147   2.635   6.899   0.104
 6416SOL    HW220148   2.732   6.777   0.151
 6417SOL     OW20149   4.025   2.060   0.359
 6417SOL    HW120150   4.045   2.063   0.261
 6417SOL    HW220151   3.926   2.065   0.373
 6418SOL     OW20152   4.251   4.703   0.460
 6418SOL    HW120153   4.345   4.724   0.433
 6418SOL    HW220154   4.251   4.635   0.534
 6419SOL     OW20155   1.299   6.533   6.538
 6419SOL    HW120156   1.217   6.559   6.588
 6419SOL    HW220157   1.278   6.522   6.441
 6420SOL     OW20158   2.167   4.239   4.427
 6420SOL    HW120159   2.239   4.294   4.385
 6420SOL    HW220160   2.158   4.262   4.523
 6421SOL     OW20161   3.921   6.943   2.085
 6421SOL    HW120162   3.899   6.971   1.992
 6421SOL    HW220163   4.020   6.938   2.096
 6422SOL     OW20164   6.030   1.934   4.185
 6422SOL    HW120165   5.975   2.018   4.185
 6422SOL    HW220166   6.036   1.898   4.092
 6423SOL     OW20167   1.984   4.754   4.243
 6423SOL    HW120168   2.075   4.728   4.275
 6423SOL    HW220169   1.926   4.774   4.322
 6424SOL     OW20170   6.198   4.358   5.463
 6424SOL    HW120171   6.164   4.325   5.375
 6424SOL    HW220172   6.273   4.300   5.494
 6425SOL     OW20173   6.641   5.392   4.077
 6425SOL    HW120174   6.669   5.487   4.091
 6425SOL    HW220175   6.564   5.371   4.138
 6426SOL     OW20176   4.799   4.224   5.054
 6426SOL    HW120177   4.830   4.150   5.114
 6426SOL    HW220178   4.802   4.194   4.959
 6427SOL     OW20179   3.982   3.111   3.288
 6427SOL    HW120180   3.926   3.048   3.341
 6427SOL    HW220181   4.024   3.062   3.211
 6428SOL     OW20182   5.285   3.303   0.681
 6428SOL    HW120183   5.355   3.232   0.686
 6428SOL    HW220184   5.312   3.380   0.739
 6429SOL     OW20185   2.215   1.285   5.507
 6429SOL    HW120186   2.248   1.324   5.593
 6429SOL    HW220187   2.151   1.348   5.464
 6430SOL     OW20188   6.780   6.916   5.099
 6430SOL    HW120189   6.752   6.917   5.195
 6430SOL    HW220190   6.878   6.932   5.092
 6431SOL     OW20191   3.741   4.817   1.662
 6431SOL    HW120192   3.829   4.841   1.703
 6431SOL    HW220193   3.686   4.766   1.728
 6432SOL     OW20194   4.832   4.510   5.945
 6432SOL    HW120195   4.849   4.430   6.003
 6432SOL    HW220196   4.763   4.487   5.877
 6433SOL     OW20197   3.143   5.085   0.071
 6433SOL    HW120198   3.130   4.995   0.113
 6433SOL    HW220199   3.167   5.074   6.998
 6434SOL     OW20200   4.158   5.295   6.270
 6434SOL    HW120201   4.246   5.331   6.300
 6434SOL    HW220202   4.172   5.219   6.208
 6435SOL     OW20203   4.991   1.897   1.064
 6435SOL    HW120204   4.975   1.833   0.989
 6435SOL    HW220205   5.082   1.880   1.103
 6436SOL     OW20206   6.871   3.803   4.319
 6436SOL    HW120207   6.948   3.836   4.372
 6436SOL    HW220208   6.792   3.862   4.335
 6437SOL     OW20209   0.849   2.014   5.378
 6437SOL    HW120210   0.834   1.921   5.345
 6437SOL    HW220211   0.762   2.054   5.407
 6438SOL     OW20212   0.624   4.839   0.806
 6438SOL    HW120213   0.637   4.764   0.871
 6438SOL    HW220214   0.528   4.866   0.804
 6439SOL     OW20215   5.733   6.949   2.964
 6439SOL    HW120216   5.635   6.944   2.986
 6439SOL    HW220217   5.762   0.021   2.962
 6440SOL     OW20218   3.093   2.076   0.040
 6440SOL    HW120219   3.140   1.994   0.007
 6440SOL    HW220220   2.994   2.061   0.035
 6441SOL     OW20221   0.963   1.665   2.784
 6441SOL    HW120222   0.931   1.733   2.718
 6441SOL    HW220223   1.063   1.657   2.778
 6442SOL     OW20224   2.654   2.656   5.333
 6442SOL    HW120225   2.671   2.748   5.370
 6442SOL    HW220226   2.716   2.591   5.375
 6443SOL     OW20227   4.913   2.998   0.260
 6443SOL    HW120228   4.848   2.927   0.233
 6443SOL    HW220229   4.983   2.957   0.320
 6444SOL     OW20230   6.302   3.219   4.855
 6444SOL    HW120231   6.300   3.318   4.839
 6444SOL    HW220232   6.271   3.200   4.948
 6445SOL     OW20233   3.362   3.006   3.031
 6445SOL    HW120234   3.427   3.029   2.959
 6445SOL    HW220235   3.413   2.974   3.112
 6446SOL     OW20236   1.972   1.317   6.530
 6446SOL    HW120237   2.003   1.405   6.566
 6446SOL    HW220238   1.914   1.272   6.598
 6447SOL     OW20239   6.451   3.411   1.833
 6447SOL    HW120240   6.520   3.414   1.761
 6447SOL    HW220241   6.364   3.382   1.794
 6448SOL     OW20242   3.700   5.735   1.334
 6448SOL    HW120243   3.641   5.806   1.371
 6448SOL    HW220244   3.645   5.668   1.284
 6449SOL     OW20245   2.310   5.655   1.684
 6449SOL    HW120246   2.301   5.599   1.602
 6449SOL    HW220247   2.332   5.749   1.658
 6450SOL     OW20248   0.842   4.388   1.119
 6450SOL    HW120249   0.819   4.291   1.116
 6450SOL    HW220250   0.809   4.433   1.036
 6451SOL     OW20251   4.502   2.451   1.243
 6451SOL    HW120252   4.438   2.392   1.192
 6451SOL    HW220253   4.500   2.425   1.340
 6452SOL     OW20254   4.809   2.116   3.344
 6452SOL    HW120255   4.808   2.119   3.444
 6452SOL    HW220256   4.758   2.037   3.312
 6453SOL     OW20257   2.563   1.111   1.397
 6453SOL    HW120258   2.599   1.141   1.486
 6453SOL    HW220259   2.530   1.191   1.346
 6454SOL     OW20260   5.405   2.384   3.614
 6454SOL    HW120261   5.409   2.330   3.530
 6454SOL    HW220262   5.362   2.472   3.596
 6455SOL     OW20263   6.903   3.706   3.625
 6455SOL    HW120264   6.894   3.782   3.560
 6455SOL    HW220265   6.867   3.734   3.714
 6456SOL     OW20266   6.165   1.256   2.773
 6456SOL    HW120267   6.092   1.227   2.835
 6456SOL    HW220268   6.168   1.356   2.769
 6457SOL     OW20269   3.603   0.109   1.818
 6457SOL    HW120270   3.520   0.072   1.857
 6457SOL    HW220271   3.585   0.201   1.782
 6458SOL     OW20272   6.874   5.287   3.708
 6458SOL    HW120273   6.835   5.369   3.665
 6458SOL    HW220274   6.841   5.206   3.659
 6459SOL     OW20275   6.699   3.619   2.531
 6459SOL    HW120276   6.685   3.558   2.609
 6459SOL    HW220277   6.711   3.565   2.447
 6460SOL     OW20278   0.737   5.804   6.173
 6460SOL    HW120279   0.778   5.731   6.228
 6460SOL    HW220280   0.638   5.803   6.184
 6461SOL     OW20281   1.836   5.681   1.157
 6461SOL    HW120282   1.871   5.772   1.132
 6461SOL    HW220283   1.878   5.652   1.243
 6462SOL     OW20284   1.758   3.625   5.465
 6462SOL    HW120285   1.715   3.550   5.413
 6462SOL    HW220286   1.742   3.611   5.563
 6463SOL     OW20287   4.735   1.787   1.415
 6463SOL    HW120288   4.765   1.692   1.403
 6463SOL    HW220289   4.648   1.788   1.464
 6464SOL     OW20290   0.883   4.643   4.163
 6464SOL    HW120291   0.963   4.693   4.196
 6464SOL    HW220292   0.876   4.556   4.212
 6465SOL     OW20293   3.906   1.012   3.194
 6465SOL    HW120294   3.966   1.084   3.161
 6465SOL    HW220295   3.810   1.039   3.182
 6466SOL     OW20296   0.272   3.404   0.451
 6466SOL    HW120297   0.267   3.468   0.528
 6466SOL    HW220298   0.367   3.396   0.420
 6467SOL     OW20299   2.525   2.920   0.790
 6467SOL    HW120300   2.488   2.983   0.722
 6467SOL    HW220301   2.537   2.967   0.877
 6468SOL     OW20302   2.320   1.676   0.838
 6468SOL    HW120303   2.239   1.630   0.874
 6468SOL    HW220304   2.314   1.683   0.738
 6469SOL     OW20305   3.506   1.289   2.600
 6469SOL    HW120306   3.546   1.290   2.508
 6469SOL    HW220307   3.571   1.249   2.664
 6470SOL     OW20308   6.516   2.029   0.152
 6470SOL    HW120309   6.539   2.069   0.064
 6470SOL    HW220310   6.467   1.943   0.138
 6471SOL     OW20311   1.133   6.489   6.070
 6471SOL    HW120312   1.115   6.485   5.972
 6471SOL    HW220313   1.089   6.412   6.116
 6472SOL     OW20314   6.556   6.179   2.506
 6472SOL    HW120315   6.505   6.173   2.592
 6472SOL    HW220316   6.563   6.274   2.478
 6473SOL     OW20317   2.704   1.111   3.727
 6473SOL    HW120318   2.727   1.069   3.814
 6473SOL    HW220319   2.673   1.205   3.743
 6474SOL     OW20320   3.696   5.455   5.101
 6474SOL    HW120321   3.753   5.392   5.155
 6474SOL    HW220322   3.683   5.418   5.009
 6475SOL     OW20323   6.043   5.050   2.776
 6475SOL    HW120324   6.067   5.147   2.769
 6475SOL    HW220325   6.122   4.999   2.810
 6476SOL     OW20326   3.801   1.659   6.213
 6476SOL    HW120327   3.780   1.676   6.116
 6476SOL    HW220328   3.748   1.722   6.269
 6477SOL     OW20329   6.646   5.811   1.301
 6477SOL    HW120330   6.672   5.714   1.312
 6477SOL    HW220331   6.551   5.824   1.330
 6478SOL     OW20332   3.287   5.672   1.309
 6478SOL    HW120333   3.284   5.751   1.371
 6478SOL    HW220334   3.376   5.627   1.317
 6479SOL     OW20335   3.292   6.006   3.656
 6479SOL    HW120336   3.390   6.012   3.673
 6479SOL    HW220337   3.264   6.080   3.593
 6480SOL     OW20338   3.888   1.993   6.500
 6480SOL    HW120339   3.942   2.040   6.430
 6480SOL    HW220340   3.950   1.954   6.568
 6481SOL     OW20341   3.392   2.651   1.798
 6481SOL    HW120342   3.307   2.614   1.760
 6481SOL    HW220343   3.466   2.585   1.785
 6482SOL     OW20344   5.497   3.836   5.702
 6482SOL    HW120345   5.584   3.854   5.749
 6482SOL    HW220346   5.481   3.907   5.634
 6483SOL     OW20347   1.270   6.400   4.965
 6483SOL    HW120348   1.311   6.315   4.999
 6483SOL    HW220349   1.230   6.450   5.042
 6484SOL     OW20350   2.530   0.689   3.961
 6484SOL    HW120351   2.471   0.770   3.964
 6484SOL    HW220352   2.605   0.699   4.025
 6485SOL     OW20353   2.115   6.463   4.670
 6485SOL    HW120354   2.050   6.398   4.631
 6485SOL    HW220355   2.154   6.520   4.598
 6486SOL     OW20356   1.674   5.168   3.128
 6486SOL    HW120357   1.603   5.157   3.058
 6486SOL    HW220358   1.714   5.079   3.149
 6487SOL     OW20359   5.971   4.758   3.540
 6487SOL    HW120360   6.052   4.702   3.556
 6487SOL    HW220361   5.973   4.839   3.599
 6488SOL     OW20362   4.712   5.411   4.789
 6488SOL    HW120363   4.752   5.448   4.705
 6488SOL    HW220364   4.711   5.482   4.859
 6489SOL     OW20365   4.849   2.685   5.731
 6489SOL    HW120366   4.916   2.623   5.689
 6489SOL    HW220367   4.895   2.740   5.801
 6490SOL     OW20368   1.626   2.510   0.050
 6490SOL    HW120369   1.592   2.577   7.009
 6490SOL    HW220370   1.726   2.503   0.042
 6491SOL     OW20371   2.816   0.220   1.663
 6491SOL    HW120372   2.796   0.262   1.752
 6491SOL    HW220373   2.879   0.279   1.613
 6492SOL     OW20374   3.492   3.619   4.832
 6492SOL    HW120375   3.412   3.599   4.776
 6492SOL    HW220376   3.533   3.533   4.863
 6493SOL     OW20377   0.697   3.852   5.537
 6493SOL    HW120378   0.710   3.793   5.458
 6493SOL    HW220379   0.602   3.845   5.568
 6494SOL     OW20380   6.109   0.484   1.293
 6494SOL    HW120381   6.196   0.454   1.333
 6494SOL    HW220382   6.122   0.569   1.243
 6495SOL     OW20383   5.909   0.363   3.538
 6495SOL    HW120384   5.819   0.362   3.583
 6495SOL    HW220385   5.971   0.422   3.590
 6496SOL     OW20386   3.695   1.577   1.155
 6496SOL    HW120387   3.692   1.663   1.206
 6496SOL    HW220388   3.766   1.518   1.193
 6497SOL     OW20389   0.315   1.356   0.391
 6497SOL    HW120390   0.408   1.355   0.429
 6497SOL    HW220391   0.306   1.283   0.323
 6498SOL     OW20392   0.686   4.568   4.424
 6498SOL    HW120393   0.754   4.510   4.379
 6498SOL    HW220394   0.594   4.535   4.402
 6499SOL     OW20395   4.919   3.583   3.158
 6499SOL    HW120396   4.903   3.494   3.115
 6499SOL    HW220397   4.990   3.632   3.109
 6500SOL     OW20398   1.101   4.064   3.034
 6500SOL    HW120399   1.106   4.094   2.939
 6500SOL    HW220400   1.086   3.966   3.038
 6501SOL     OW20401   5.822   1.873   1.406
 6501SOL    HW120402   5.759   1.811   1.359
 6501SOL    HW220403   5.797   1.879   1.502
 6502SOL     OW20404   6.771   3.609   2.025
 6502SOL    HW120405   6.800   3.635   1.933
 6502SOL    HW220406   6.749   3.511   2.027
 6503SOL     OW20407   6.638   3.195   5.513
 6503SOL    HW120408   6.552   3.162   5.474
 6503SOL    HW220409   6.642   3.170   5.610
 6504SOL     OW20410   4.733   6.029   6.299
 6504SOL    HW120411   4.758   6.048   6.204
 6504SOL    HW220412   4.757   6.108   6.356
 6505SOL     OW20413   0.106   5.726   0.422
 6505SOL    HW120414   0.055   5.811   0.412
 6505SOL    HW220415   0.110   5.679   0.334
 6506SOL     OW20416   6.949   3.987   2.258
 6506SOL    HW120417   6.892   3.934   2.321
 6506SOL    HW220418   0.018   3.947   2.255
 6507SOL     OW20419   3.462   4.594   6.736
 6507SOL    HW120420   3.394   4.643   6.681
 6507SOL    HW220421   3.517   4.535   6.676
 6508SOL     OW20422   0.678   0.070   2.540
 6508SOL    HW120423   0.759   0.011   2.536
 6508SOL    HW220424   0.632   0.056   2.628
 6509SOL     OW20425   3.073   2.049   6.167
 6509SOL    HW120426   3.140   1.977   6.185
 6509SOL    HW220427   3.029   2.034   6.079
 6510SOL     OW20428   3.731   5.943   5.576
 6510SOL    HW120429   3.747   5.958   5.674
 6510SOL    HW220430   3.732   5.845   5.557
 6511SOL     OW20431   3.091   1.385   0.779
 6511SOL    HW120432   2.991   1.391   0.783
 6511SOL    HW220433   3.118   1.292   0.752
 6512SOL     OW20434   3.663   1.855   0.261
 6512SOL    HW120435   3.586   1.813   0.213
 6512SOL    HW220436   3.738   1.871   0.196
 6513SOL     OW20437   2.077   5.038   3.059
 6513SOL    HW120438   2.069   5.078   3.150
 6513SOL    HW220439   2.167   5.060   3.021
 6514SOL     OW20440   5.395   7.000   5.785
 6514SOL    HW120441   5.477   6.989   5.729
 6514SOL    HW220442   5.410   6.958   5.874
 6515SOL     OW20443   1.729   5.133   2.127
 6515SOL    HW120444   1.720   5.057   2.064
 6515SOL    HW220445   1.639   5.162   2.158
 6516SOL     OW20446   6.678   4.069   1.382
 6516SOL    HW120447   6.753   4.125   1.417
 6516SOL    HW220448   6.598   4.078   1.442
 6517SOL     OW20449   0.283   3.231   1.037
 6517SOL    HW120450   0.221   3.193   0.969
 6517SOL    HW220451   0.237   3.305   1.086
 6518SOL     OW20452   1.444   1.847   2.992
 6518SOL    HW120453   1.491   1.759   2.982
 6518SOL    HW220454   1.362   1.835   3.048
 6519SOL     OW20455   1.387   1.107   3.185
 6519SOL    HW120456   1.327   1.043   3.137
 6519SOL    HW220457   1.332   1.163   3.248
 6520SOL     OW20458   0.388   4.984   6.816
 6520SOL    HW120459   0.313   4.923   6.794
 6520SOL    HW220460   0.471   4.954   6.768
 6521SOL     OW20461   0.990   4.373   3.947
 6521SOL    HW120462   1.038   4.381   3.860
 6521SOL    HW220463   1.056   4.380   4.022
 6522SOL     OW20464   2.348   3.259   5.315
 6522SOL    HW120465   2.398   3.178   5.286
 6522SOL    HW220466   2.285   3.235   5.389
 6523SOL     OW20467   6.241   0.208   0.618
 6523SOL    HW120468   6.319   0.192   0.678
 6523SOL    HW220469   6.158   0.217   0.673
 6524SOL     OW20470   2.401   2.868   1.243
 6524SOL    HW120471   2.372   2.932   1.313
 6524SOL    HW220472   2.377   2.775   1.270
 6525SOL     OW20473   0.997   4.652   3.224
 6525SOL    HW120474   1.076   4.708   3.246
 6525SOL    HW220475   0.993   4.635   3.126
 6526SOL     OW20476   0.899   6.344   6.685
 6526SOL    HW120477   0.835   6.284   6.636
 6526SOL    HW220478   0.868   6.356   6.779
 6527SOL     OW20479   0.024   1.899   0.284
 6527SOL    HW120480   6.994   1.975   0.247
 6527SOL    HW220481   6.991   1.845   0.346
 6528SOL     OW20482   4.784   0.094   0.132
 6528SOL    HW120483   4.732   0.017   0.094
 6528SOL    HW220484   4.877   0.064   0.151
 6529SOL     OW20485   6.719   0.890   2.458
 6529SOL    HW120486   6.630   0.885   2.503
 6529SOL    HW220487   6.743   0.985   2.442
 6530SOL     OW20488   1.035   3.144   2.490
 6530SOL    HW120489   1.111   3.079   2.491
 6530SOL    HW220490   1.071   3.236   2.472
 6531SOL     OW20491   3.886   4.110   4.829
 6531SOL    HW120492   3.918   4.184   4.769
 6531SOL    HW220493   3.850   4.035   4.773
 6532SOL     OW20494   1.068   0.662   0.658
 6532SOL    HW120495   1.045   0.738   0.719
 6532SOL    HW220496   1.114   0.698   0.577
 6533SOL     OW20497   4.605   3.622   0.453
 6533SOL    HW120498   4.692   3.591   0.416
 6533SOL    HW220499   4.581   3.567   0.533
 6534SOL     OW20500   6.554   4.454   2.987
 6534SOL    HW120501   6.578   4.426   2.895
 6534SOL    HW220502   6.462   4.495   2.987
 6535SOL     OW20503   5.608   2.780   5.187
 6535SOL    HW120504   5.672   2.710   5.219
 6535SOL    HW220505   5.518   2.763   5.226
 6536SOL     OW20506   0.636   4.170   5.574
 6536SOL    HW120507   0.620   4.076   5.544
 6536SOL    HW220508   0.687   4.219   5.503
 6537SOL     OW20509   6.073   5.351   4.401
 6537SOL    HW120510   6.091   5.324   4.496
 6537SOL    HW220511   6.001   5.293   4.362
 6538SOL     OW20512   1.962   2.972   5.729
 6538SOL    HW120513   1.909   3.009   5.652
 6538SOL    HW220514   2.044   2.927   5.694
 6539SOL     OW20515   5.454   1.132   5.651
 6539SOL    HW120516   5.528   1.094   5.596
 6539SOL    HW220517   5.490   1.160   5.740
 6540SOL     OW20518   6.218   2.526   5.645
 6540SOL    HW120519   6.193   2.578   5.726
 6540SOL    HW220520   6.176   2.569   5.564
 6541SOL     OW20521   6.373   0.817   4.729
 6541SOL    HW120522   6.351   0.721   4.711
 6541SOL    HW220523   6.341   0.842   4.820
 6542SOL     OW20524   1.346   4.190   3.086
 6542SOL    HW120525   1.417   4.121   3.100
 6542SOL    HW220526   1.259   4.144   3.068
 6543SOL     OW20527   3.722   1.906   5.087
 6543SOL    HW120528   3.771   1.901   5.175
 6543SOL    HW220529   3.771   1.968   5.026
 6544SOL     OW20530   1.256   6.396   1.749
 6544SOL    HW120531   1.296   6.370   1.661
 6544SOL    HW220532   1.277   6.492   1.768
 6545SOL     OW20533   4.387   6.877   0.391
 6545SOL    HW120534   4.306   6.819   0.395
 6545SOL    HW220535   4.437   6.870   0.478
 6546SOL     OW20536   4.505   3.395   6.409
 6546SOL    HW120537   4.498   3.492   6.385
 6546SOL    HW220538   4.521   3.341   6.327
 6547SOL     OW20539   7.002   5.270   6.591
 6547SOL    HW120540   6.983   5.227   6.502
 6547SOL    HW220541   7.015   5.198   6.659
 6548SOL     OW20542   0.516   1.229   5.311
 6548SOL    HW120543   0.548   1.317   5.346
 6548SOL    HW220544   0.581   1.158   5.337
 6549SOL     OW20545   4.784   0.869   1.926
 6549SOL    HW120546   4.865   0.909   1.969
 6549SOL    HW220547   4.721   0.838   1.997
 6550SOL     OW20548   6.115   6.980   3.968
 6550SOL    HW120549   6.161   6.919   3.904
 6550SOL    HW220550   6.076   6.927   4.044
 6551SOL     OW20551   3.090   4.100   0.384
 6551SOL    HW120552   3.138   4.151   0.312
 6551SOL    HW220553   3.155   4.069   0.453
 6552SOL     OW20554   2.229   5.917   0.387
 6552SOL    HW120555   2.228   6.005   0.434
 6552SOL    HW220556   2.310   5.910   0.330
 6553SOL     OW20557   0.431   1.223   4.070
 6553SOL    HW120558   0.457   1.129   4.047
 6553SOL    HW220559   0.463   1.245   4.162
 6554SOL     OW20560   2.253   1.246   4.489
 6554SOL    HW120561   2.353   1.242   4.502
 6554SOL    HW220562   2.231   1.221   4.395
 6555SOL     OW20563   6.600   3.808   3.507
 6555SOL    HW120564   6.676   3.864   3.475
 6555SOL    HW220565   6.635   3.723   3.547
 6556SOL     OW20566   4.847   3.059   3.036
 6556SOL    HW120567   4.856   3.014   2.948
 6556SOL    HW220568   4.823   2.992   3.106
 6557SOL     OW20569   2.037   0.868   1.684
 6557SOL    HW120570   2.061   0.937   1.616
 6557SOL    HW220571   1.949   0.891   1.725
 6558SOL     OW20572   5.435   5.466   6.837
 6558SOL    HW120573   5.454   5.529   6.762
 6558SOL    HW220574   5.349   5.417   6.818
 6559SOL     OW20575   0.165   2.207   6.191
 6559SOL    HW120576   0.194   2.265   6.267
 6559SOL    HW220577   0.187   2.252   6.105
 6560SOL     OW20578   5.575   4.938   0.561
 6560SOL    HW120579   5.495   4.946   0.503
 6560SOL    HW220580   5.554   4.971   0.653
 6561SOL     OW20581   3.845   4.526   0.068
 6561SOL    HW120582   3.869   4.450   0.128
 6561SOL    HW220583   3.799   4.491   7.010
 6562SOL     OW20584   5.248   2.980   1.184
 6562SOL    HW120585   5.308   3.049   1.224
 6562SOL    HW220586   5.211   2.923   1.257
 6563SOL     OW20587   5.199   5.716   5.094
 6563SOL    HW120588   5.231   5.796   5.043
 6563SOL    HW220589   5.275   5.655   5.113
 6564SOL     OW20590   6.219   3.619   2.997
 6564SOL    HW120591   6.223   3.609   2.897
 6564SOL    HW220592   6.224   3.716   3.020
 6565SOL     OW20593   5.605   0.574   3.403
 6565SOL    HW120594   5.579   0.587   3.307
 6565SOL    HW220595   5.696   0.533   3.408
 6566SOL     OW20596   4.934   6.180   2.814
 6566SOL    HW120597   4.966   6.090   2.785
 6566SOL    HW220598   4.965   6.197   2.908
 6567SOL     OW20599   4.259   0.797   1.113
 6567SOL    HW120600   4.288   0.876   1.167
 6567SOL    HW220601   4.161   0.804   1.095
 6568SOL     OW20602   4.336   1.452   0.979
 6568SOL    HW120603   4.345   1.537   0.927
 6568SOL    HW220604   4.423   1.402   0.978
 6569SOL     OW20605   6.937   4.242   5.584
 6569SOL    HW120606   6.942   4.185   5.666
 6569SOL    HW220607   6.980   4.330   5.602
 6570SOL     OW20608   4.202   6.886   2.069
 6570SOL    HW120609   4.240   6.798   2.094
 6570SOL    HW220610   4.231   6.911   1.976
 6571SOL     OW20611   3.490   5.923   2.631
 6571SOL    HW120612   3.508   6.020   2.619
 6571SOL    HW220613   3.400   5.900   2.595
 6572SOL     OW20614   1.125   5.554   4.080
 6572SOL    HW120615   1.082   5.582   3.994
 6572SOL    HW220616   1.064   5.578   4.156
 6573SOL     OW20617   1.334   1.498   4.047
 6573SOL    HW120618   1.313   1.593   4.022
 6573SOL    HW220619   1.431   1.492   4.073
 6574SOL     OW20620   1.763   6.234   2.120
 6574SOL    HW120621   1.843   6.233   2.060
 6574SOL    HW220622   1.780   6.295   2.197
 6575SOL     OW20623   6.845   1.458   2.999
 6575SOL    HW120624   6.872   1.364   2.976
 6575SOL    HW220625   6.745   1.464   3.000
 6576SOL     OW20626   4.371   6.078   0.978
 6576SOL    HW120627   4.363   6.177   0.989
 6576SOL    HW220628   4.347   6.033   1.064
 6577SOL     OW20629   2.709   0.716   3.723
 6577SOL    HW120630   2.628   0.764   3.755
 6577SOL    HW220631   2.754   0.672   3.801
 6578SOL     OW20632   1.290   5.116   1.862
 6578SOL    HW120633   1.315   5.204   1.902
 6578SOL    HW220634   1.365   5.083   1.804
 6579SOL     OW20635   6.194   0.990   4.203
 6579SOL    HW120636   6.236   1.073   4.240
 6579SOL    HW220637   6.262   0.917   4.198
 6580SOL     OW20638   1.848   1.454   6.837
 6580SOL    HW120639   1.849   1.530   6.772
 6580SOL    HW220640   1.757   1.412   6.837
 6581SOL     OW20641   0.641   2.234   0.243
 6581SOL    HW120642   0.646   2.304   0.314
 6581SOL    HW220643   0.545   2.210   0.226
 6582SOL     OW20644   6.727   1.511   3.717
 6582SOL    HW120645   6.799   1.579   3.731
 6582SOL    HW220646   6.690   1.521   3.625
 6583SOL     OW20647   3.886   5.722   6.240
 6583SOL    HW120648   3.786   5.717   6.242
 6583SOL    HW220649   3.923   5.630   6.254
 6584SOL     OW20650   3.675   2.994   0.407
 6584SOL    HW120651   3.724   3.015   0.492
 6584SOL    HW220652   3.579   2.976   0.427
 6585SOL     OW20653   5.957   6.641   0.779
 6585SOL    HW120654   5.869   6.599   0.754
 6585SOL    HW220655   5.953   6.669   0.875
 6586SOL     OW20656   6.480   2.002   6.758
 6586SOL    HW120657   6.392   1.965   6.787
 6586SOL    HW220658   6.540   1.928   6.727
 6587SOL     OW20659   1.394   4.891   5.367
 6587SOL    HW120660   1.337   4.942   5.302
 6587SOL    HW220661   1.388   4.793   5.347
 6588SOL     OW20662   6.590   3.447   0.413
 6588SOL    HW120663   6.575   3.429   0.510
 6588SOL    HW220664   6.622   3.363   0.368
 6589SOL     OW20665   0.224   0.501   2.190
 6589SOL    HW120666   0.173   0.524   2.273
 6589SOL    HW220667   0.161   0.461   2.123
 6590SOL     OW20668   1.694   0.024   4.109
 6590SOL    HW120669   1.694   0.048   4.012
 6590SOL    HW220670   1.762   6.976   4.125
 6591SOL     OW20671   5.732   4.335   4.315
 6591SOL    HW120672   5.828   4.328   4.286
 6591SOL    HW220673   5.716   4.274   4.393
 6592SOL     OW20674   6.006   6.845   2.813
 6592SOL    HW120675   5.997   6.815   2.908
 6592SOL    HW220676   6.051   6.773   2.759
 6593SOL     OW20677   2.797   2.035   2.024
 6593SOL    HW120678   2.816   2.134   2.017
 6593SOL    HW220679   2.699   2.021   2.037
 6594SOL     OW20680   4.704   1.060   6.359
 6594SOL    HW120681   4.709   1.004   6.276
 6594SOL    HW220682   4.727   1.155   6.336
 6595SOL     OW20683   1.329   2.640   5.863
 6595SOL    HW120684   1.280   2.554   5.863
 6595SOL    HW220685   1.418   2.628   5.818
 6596SOL     OW20686   5.799   6.343   2.779
 6596SOL    HW120687   5.840   6.257   2.748
 6596SOL    HW220688   5.870   6.413   2.788
 6597SOL     OW20689   1.497   4.928   2.168
 6597SOL    HW120690   1.586   4.926   2.124
 6597SOL    HW220691   1.425   4.909   2.101
 6598SOL     OW20692   2.184   4.722   4.424
 6598SOL    HW120693   2.272   4.771   4.423
 6598SOL    HW220694   2.125   4.761   4.495
 6599SOL     OW20695   6.147   4.998   6.462
 6599SOL    HW120696   6.214   4.940   6.508
 6599SOL    HW220697   6.089   5.043   6.531
 6600SOL     OW20698   4.671   0.002   5.419
 6600SOL    HW120699   4.695   0.077   5.481
 6600SOL    HW220700   4.592   0.028   5.364
 6601SOL     OW20701   1.226   2.099   1.552
 6601SOL    HW120702   1.260   2.192   1.561
 6601SOL    HW220703   1.300   2.039   1.521
 6602SOL     OW20704   1.734   6.577   1.600
 6602SOL    HW120705   1.756   6.667   1.561
 6602SOL    HW220706   1.729   6.585   1.700
 6603SOL     OW20707   0.275   3.886   2.803
 6603SOL    HW120708   0.320   3.838   2.728
 6603SOL    HW220709   0.330   3.965   2.831
 6604SOL     OW20710   2.606   6.134   2.673
 6604SOL    HW120711   2.702   6.159   2.678
 6604SOL    HW220712   2.550   6.205   2.717
 6605SOL     OW20713   7.005   5.236   1.176
 6605SOL    HW120714   6.974   5.219   1.270
 6605SOL    HW220715   0.061   5.296   1.178
 6606SOL     OW20716   1.888   4.097   3.251
 6606SOL    HW120717   1.849   4.056   3.334
 6606SOL    HW220718   1.975   4.052   3.230
 6607SOL     OW20719   5.952   3.986   3.644
 6607SOL    HW120720   5.857   4.015   3.641
 6607SOL    HW220721   6.004   4.046   3.706
 6608SOL     OW20722   1.325   6.154   5.982
 6608SOL    HW120723   1.274   6.069   5.970
 6608SOL    HW220724   1.367   6.155   6.073
 6609SOL     OW20725   4.515   1.642   6.055
 6609SOL    HW120726   4.531   1.573   6.126
 6609SOL    HW220727   4.502   1.597   5.967
 6610SOL     OW20728   2.595   5.381   1.269
 6610SOL    HW120729   2.656   5.427   1.205
 6610SOL    HW220730   2.646   5.313   1.322
 6611SOL     OW20731   4.265   1.558   3.832
 6611SOL    HW120732   4.247   1.503   3.913
 6611SOL    HW220733   4.222   1.515   3.752
 6612SOL     OW20734   0.289   1.042   6.366
 6612SOL    HW120735   0.273   0.996   6.279
 6612SOL    HW220736   0.294   1.141   6.351
 6613SOL     OW20737   4.745   6.579   0.122
 6613SOL    HW120738   4.733   6.531   0.035
 6613SOL    HW220739   4.655   6.591   0.166
 6614SOL     OW20740   4.262   5.208   0.947
 6614SOL    HW120741   4.338   5.147   0.926
 6614SOL    HW220742   4.258   5.281   0.878
 6615SOL     OW20743   3.276   4.404   6.872
 6615SOL    HW120744   3.261   4.315   6.828
 6615SOL    HW220745   3.342   4.456   6.818
 6616SOL     OW20746   4.289   1.316   5.695
 6616SOL    HW120747   4.248   1.283   5.780
 6616SOL    HW220748   4.365   1.258   5.670
 6617SOL     OW20749   3.927   0.311   3.920
 6617SOL    HW120750   3.861   0.267   3.859
 6617SOL    HW220751   3.897   0.300   4.015
 6618SOL     OW20752   6.692   2.337   2.945
 6618SOL    HW120753   6.672   2.272   2.871
 6618SOL    HW220754   6.672   2.430   2.914
 6619SOL     OW20755   4.895   6.113   3.951
 6619SOL    HW120756   4.882   6.074   4.043
 6619SOL    HW220757   4.840   6.060   3.886
 6620SOL     OW20758   0.711   3.473   3.340
 6620SOL    HW120759   0.767   3.441   3.265
 6620SOL    HW220760   0.758   3.546   3.389
 6621SOL     OW20761   3.605   3.327   4.764
 6621SOL    HW120762   3.562   3.252   4.713
 6621SOL    HW220763   3.679   3.367   4.710
 6622SOL     OW20764   0.758   5.636   0.766
 6622SOL    HW120765   0.701   5.557   0.745
 6622SOL    HW220766   0.741   5.709   0.700
 6623SOL     OW20767   3.616   3.567   5.401
 6623SOL    HW120768   3.535   3.565   5.459
 6623SOL    HW220769   3.598   3.516   5.317
 6624SOL     OW20770   1.415   2.090   4.086
 6624SOL    HW120771   1.397   2.004   4.038
 6624SOL    HW220772   1.432   2.162   4.019
 6625SOL     OW20773   6.198   3.221   5.835
 6625SOL    HW120774   6.218   3.232   5.933
 6625SOL    HW220775   6.120   3.277   5.810
 6626SOL     OW20776   2.113   6.187   4.954
 6626SOL    HW120777   2.109   6.263   4.890
 6626SOL    HW220778   2.047   6.201   5.027
 6627SOL     OW20779   1.692   5.707   4.329
 6627SOL    HW120780   1.773   5.688   4.273
 6627SOL    HW220781   1.664   5.623   4.376
 6628SOL     OW20782   4.142   6.138   4.256
 6628SOL    HW120783   4.117   6.216   4.199
 6628SOL    HW220784   4.087   6.140   4.340
 6629SOL     OW20785   5.296   5.578   6.371
 6629SOL    HW120786   5.279   5.502   6.432
 6629SOL    HW220787   5.313   5.661   6.424
 6630SOL     OW20788   2.240   1.214   1.627
 6630SOL    HW120789   2.177   1.145   1.593
 6630SOL    HW220790   2.311   1.169   1.683
 6631SOL     OW20791   2.039   4.118   6.252
 6631SOL    HW120792   2.054   4.159   6.342
 6631SOL    HW220793   2.121   4.131   6.196
 6632SOL     OW20794   1.046   1.382   1.401
 6632SOL    HW120795   0.954   1.366   1.368
 6632SOL    HW220796   1.064   1.322   1.480
 6633SOL     OW20797   3.622   5.708   5.967
 6633SOL    HW120798   3.692   5.776   5.985
 6633SOL    HW220799   3.532   5.752   5.966
 6634SOL     OW20800   4.314   1.946   3.848
 6634SOL    HW120801   4.365   1.882   3.906
 6634SOL    HW220802   4.223   1.959   3.886
 6635SOL     OW20803   5.274   4.909   3.649
 6635SOL    HW120804   5.201   4.965   3.610
 6635SOL    HW220805   5.339   4.967   3.697
 6636SOL     OW20806   3.951   0.344   0.354
 6636SOL    HW120807   3.901   0.289   0.288
 6636SOL    HW220808   4.049   0.337   0.336
 6637SOL     OW20809   1.560   1.340   1.442
 6637SOL    HW120810   1.652   1.378   1.440
 6637SOL    HW220811   1.545   1.293   1.529
 6638SOL     OW20812   2.996   3.189   3.777
 6638SOL    HW120813   2.955   3.192   3.685
 6638SOL    HW220814   3.095   3.180   3.769
 6639SOL     OW20815   4.858   2.848   1.477
 6639SOL    HW120816   4.778   2.851   1.537
 6639SOL    HW220817   4.940   2.831   1.531
 6640SOL     OW20818   0.657   2.682   4.774
 6640SOL    HW120819   0.606   2.679   4.688
 6640SOL    HW220820   0.605   2.734   4.842
 6641SOL     OW20821   4.887   2.285   0.638
 6641SOL    HW120822   4.936   2.230   0.706
 6641SOL    HW220823   4.855   2.370   0.681
 6642SOL     OW20824   1.394   6.086   0.666
 6642SOL    HW120825   1.326   6.043   0.726
 6642SOL    HW220826   1.355   6.169   0.626
 6643SOL     OW20827   3.665   6.287   6.647
 6643SOL    HW120828   3.717   6.344   6.582
 6643SOL    HW220829   3.567   6.301   6.631
 6644SOL     OW20830   2.093   6.770   3.618
 6644SOL    HW120831   2.075   6.741   3.712
 6644SOL    HW220832   2.187   6.747   3.594
 6645SOL     OW20833   5.781   2.586   0.371
 6645SOL    HW120834   5.859   2.559   0.428
 6645SOL    HW220835   5.697   2.551   0.410
 6646SOL     OW20836   4.763   6.863   6.211
 6646SOL    HW120837   4.834   6.921   6.171
 6646SOL    HW220838   4.801   6.773   6.231
 6647SOL     OW20839   4.613   5.114   1.207
 6647SOL    HW120840   4.669   5.050   1.154
 6647SOL    HW220841   4.521   5.077   1.218
 6648SOL     OW20842   2.858   6.163   5.838
 6648SOL    HW120843   2.810   6.076   5.824
 6648SOL    HW220844   2.955   6.151   5.817
 6649SOL     OW20845   5.572   3.013   6.863
 6649SOL    HW120846   5.497   3.023   6.798
 6649SOL    HW220847   5.658   3.002   6.813
 6650SOL     OW20848   2.393   1.824   5.478
 6650SOL    HW120849   2.378   1.911   5.525
 6650SOL    HW220850   2.419   1.840   5.383
 6651SOL     OW20851   6.881   1.650   6.515
 6651SOL    HW120852   6.941   1.672   6.592
 6651SOL    HW220853   6.805   1.715   6.512
 6652SOL     OW20854   0.156   4.231   0.478
 6652SOL    HW120855   0.110   4.313   0.513
 6652SOL    HW220856   0.252   4.251   0.462
 6653SOL     OW20857   5.556   4.567   0.516
 6653SOL    HW120858   5.476   4.515   0.486
 6653SOL    HW220859   5.533   4.665   0.519
 6654SOL     OW20860   6.800   4.378   2.811
 6654SOL    HW120861   6.880   4.423   2.851
 6654SOL    HW220862   6.739   4.447   2.772
 6655SOL     OW20863   6.222   5.028   2.268
 6655SOL    HW120864   6.169   5.086   2.206
 6655SOL    HW220865   6.312   5.009   2.228
 6656SOL     OW20866   4.055   1.440   2.722
 6656SOL    HW120867   4.057   1.447   2.623
 6656SOL    HW220868   4.104   1.517   2.763
 6657SOL     OW20869   5.604   2.009   3.418
 6657SOL    HW120870   5.521   1.958   3.439
 6657SOL    HW220871   5.587   2.073   3.343
 6658SOL     OW20872   6.265   5.995   5.611
 6658SOL    HW120873   6.200   5.971   5.538
 6658SOL    HW220874   6.224   5.974   5.700
 6659SOL     OW20875   1.074   5.281   2.194
 6659SOL    HW120876   0.980   5.297   2.223
 6659SOL    HW220877   1.086   5.312   2.100
 6660SOL     OW20878   6.626   6.236   3.386
 6660SOL    HW120879   6.652   6.185   3.304
 6660SOL    HW220880   6.682   6.318   3.394
 6661SOL     OW20881   3.806   6.096   4.114
 6661SOL    HW120882   3.830   6.104   4.211
 6661SOL    HW220883   3.747   6.173   4.088
 6662SOL     OW20884   3.691   6.549   2.767
 6662SOL    HW120885   3.711   6.607   2.846
 6662SOL    HW220886   3.737   6.586   2.687
 6663SOL     OW20887   1.129   4.279   6.035
 6663SOL    HW120888   1.189   4.215   6.082
 6663SOL    HW220889   1.163   4.296   5.943
 6664SOL     OW20890   2.734   0.645   1.452
 6664SOL    HW120891   2.714   0.655   1.354
 6664SOL    HW220892   2.657   0.600   1.497
 6665SOL     OW20893   2.047   0.483   5.980
 6665SOL    HW120894   2.056   0.400   6.034
 6665SOL    HW220895   2.080   0.561   6.034
 6666SOL     OW20896   4.290   6.343   5.581
 6666SOL    HW120897   4.258   6.249   5.569
 6666SOL    HW220898   4.382   6.352   5.544
 6667SOL     OW20899   6.940   6.382   6.428
 6667SOL    HW120900   6.862   6.379   6.491
 6667SOL    HW220901   7.006   6.311   6.453
 6668SOL     OW20902   0.255   5.570   0.053
 6668SOL    HW120903   0.162   5.540   0.073
 6668SOL    HW220904   0.315   5.491   0.042
 6669SOL     OW20905   1.607   1.272   3.067
 6669SOL    HW120906   1.688   1.238   3.019
 6669SOL    HW220907   1.561   1.196   3.113
 6670SOL     OW20908   4.143   2.747   1.060
 6670SOL    HW120909   4.046   2.765   1.079
 6670SOL    HW220910   4.200   2.809   1.113
 6671SOL     OW20911   4.284   5.799   0.473
 6671SOL    HW120912   4.213   5.777   0.539
 6671SOL    HW220913   4.332   5.881   0.503
 6672SOL     OW20914   1.575   2.358   1.042
 6672SOL    HW120915   1.572   2.452   1.077
 6672SOL    HW220916   1.554   2.359   0.944
 6673SOL     OW20917   5.457   3.608   3.637
 6673SOL    HW120918   5.474   3.626   3.734
 6673SOL    HW220919   5.385   3.540   3.629
 6674SOL     OW20920   0.081   2.453   0.019
 6674SOL    HW120921   7.020   2.502   7.020
 6674SOL    HW220922   0.122   2.417   6.959
 6675SOL     OW20923   5.254   1.885   0.111
 6675SOL    HW120924   5.290   1.949   0.044
 6675SOL    HW220925   5.307   1.894   0.196
 6676SOL     OW20926   1.726   3.449   3.436
 6676SOL    HW120927   1.639   3.458   3.388
 6676SOL    HW220928   1.799   3.485   3.378
 6677SOL     OW20929   0.138   1.572   0.414
 6677SOL    HW120930   0.123   1.623   0.329
 6677SOL    HW220931   0.201   1.497   0.396
 6678SOL     OW20932   2.010   4.724   0.199
 6678SOL    HW120933   1.996   4.736   0.101
 6678SOL    HW220934   2.015   4.814   0.243
 6679SOL     OW20935   1.817   1.073   3.810
 6679SOL    HW120936   1.749   1.026   3.866
 6679SOL    HW220937   1.772   1.138   3.750
 6680SOL     OW20938   6.040   0.103   0.974
 6680SOL    HW120939   6.132   0.065   0.962
 6680SOL    HW220940   5.972   0.036   0.942
 6681SOL     OW20941   3.207   6.438   1.436
 6681SOL    HW120942   3.112   6.462   1.414
 6681SOL    HW220943   3.212   6.412   1.533
 6682SOL     OW20944   2.825   5.288   6.480
 6682SOL    HW120945   2.827   5.325   6.387
 6682SOL    HW220946   2.757   5.215   6.486
 6683SOL     OW20947   6.458   3.968   6.210
 6683SOL    HW120948   6.487   4.021   6.289
 6683SOL    HW220949   6.513   3.885   6.203
 6684SOL     OW20950   2.757   6.606   1.218
 6684SOL    HW120951   2.802   6.577   1.133
 6684SOL    HW220952   2.704   6.529   1.255
 6685SOL     OW20953   4.967   3.363   6.564
 6685SOL    HW120954   4.925   3.311   6.490
 6685SOL    HW220955   4.979   3.304   6.644
 6686SOL     OW20956   5.442   5.087   3.814
 6686SOL    HW120957   5.478   5.176   3.842
 6686SOL    HW220958   5.428   5.030   3.894
 6687SOL     OW20959   6.281   1.749   1.633
 6687SOL    HW120960   6.321   1.747   1.541
 6687SOL    HW220961   6.327   1.682   1.691
 6688SOL     OW20962   3.954   5.668   0.490
 6688SOL    HW120963   3.975   5.721   0.408
 6688SOL    HW220964   3.950   5.729   0.569
 6689SOL     OW20965   1.969   4.566   6.093
 6689SOL    HW120966   1.874   4.587   6.071
 6689SOL    HW220967   2.017   4.538   6.010
 6690SOL     OW20968   0.996   0.183   6.532
 6690SOL    HW120969   1.057   0.104   6.537
 6690SOL    HW220970   0.915   0.166   6.589
 6691SOL     OW20971   2.547   2.476   3.127
 6691SOL    HW120972   2.557   2.477   3.027
 6691SOL    HW220973   2.633   2.448   3.169
 6692SOL     OW20974   4.721   5.334   1.309
 6692SOL    HW120975   4.702   5.328   1.407
 6692SOL    HW220976   4.673   5.260   1.262
 6693SOL     OW20977   4.412   1.790   4.439
 6693SOL    HW120978   4.431   1.703   4.484
 6693SOL    HW220979   4.381   1.774   4.346
 6694SOL     OW20980   3.340   4.822   1.111
 6694SOL    HW120981   3.398   4.886   1.061
 6694SOL    HW220982   3.366   4.821   1.207
 6695SOL     OW20983   2.984   2.284   6.212
 6695SOL    HW120984   3.029   2.199   6.186
 6695SOL    HW220985   2.987   2.295   6.312
 6696SOL     OW20986   3.907   4.024   4.357
 6696SOL    HW120987   3.963   4.084   4.300
 6696SOL    HW220988   3.889   3.939   4.308
 6697SOL     OW20989   4.487   2.490   2.395
 6697SOL    HW120990   4.464   2.476   2.299
 6697SOL    HW220991   4.429   2.432   2.452
 6698SOL     OW20992   3.316   4.183   1.233
 6698SOL    HW120993   3.239   4.180   1.296
 6698SOL    HW220994   3.281   4.189   1.139
 6699SOL     OW20995   1.465   4.484   5.519
 6699SOL    HW120996   1.470   4.500   5.617
 6699SOL    HW220997   1.527   4.409   5.494
 6700SOL     OW20998   5.664   0.082   0.165
 6700SOL    HW120999   5.674   0.181   0.156
 6700SOL    HW221000   5.749   0.037   0.139
 6701SOL     OW21001   5.997   0.709   1.133
 6701SOL    HW121002   5.959   0.653   1.059
 6701SOL    HW221003   5.924   0.742   1.192
 6702SOL     OW21004   2.746   2.749   1.110
 6702SOL    HW121005   2.734   2.716   1.203
 6702SOL    HW221006   2.688   2.830   1.095
 6703SOL     OW21007   0.323   1.296   6.776
 6703SOL    HW121008   0.336   1.204   6.739
 6703SOL    HW221009   0.313   1.291   6.876
 6704SOL     OW21010   3.250   0.869   5.057
 6704SOL    HW121011   3.178   0.833   5.115
 6704SOL    HW221012   3.238   0.835   4.964
 6705SOL     OW21013   6.550   3.552   2.228
 6705SOL    HW121014   6.485   3.601   2.286
 6705SOL    HW221015   6.598   3.617   2.169
 6706SOL     OW21016   0.370   6.841   2.085
 6706SOL    HW121017   0.299   6.910   2.069
 6706SOL    HW221018   0.338   6.752   2.056
 6707SOL     OW21019   5.771   0.618   2.069
 6707SOL    HW121020   5.794   0.538   2.014
 6707SOL    HW221021   5.710   0.591   2.143
 6708SOL     OW21022   0.727   4.136   1.590
 6708SOL    HW121023   0.719   4.136   1.490
 6708SOL    HW221024   0.729   4.230   1.623
 6709SOL     OW21025   1.904   5.305   2.708
 6709SOL    HW121026   1.933   5.227   2.765
 6709SOL    HW221027   1.985   5.349   2.670
 6710SOL     OW21028   4.142   1.232   1.004
 6710SOL    HW121029   4.192   1.319   1.004
 6710SOL    HW221030   4.116   1.209   1.098
 6711SOL     OW21031   3.949   6.250   6.170
 6711SOL    HW121032   3.905   6.160   6.172
 6711SOL    HW221033   4.040   6.242   6.129
 6712SOL     OW21034   6.039   3.562   1.161
 6712SOL    HW121035   6.033   3.467   1.131
 6712SOL    HW221036   6.041   3.623   1.082
 6713SOL     OW21037   1.180   6.063   4.493
 6713SOL    HW121038   1.137   6.043   4.405
 6713SOL    HW221039   1.166   6.159   4.516
 6714SOL     OW21040   5.177   1.019   0.877
 6714SOL    HW121041   5.231   1.045   0.957
 6714SOL    HW221042   5.080   1.026   0.898
 6715SOL     OW21043   1.124   1.046   0.494
 6715SOL    HW121044   1.038   1.097   0.502
 6715SOL    HW221045   1.127   1.000   0.405
 6716SOL     OW21046   6.978   5.475   2.947
 6716SOL    HW121047   6.979   5.541   3.022
 6716SOL    HW221048   0.014   5.507   2.874
 6717SOL     OW21049   4.207   2.273   5.863
 6717SOL    HW121050   4.156   2.345   5.816
 6717SOL    HW221051   4.294   2.310   5.897
 6718SOL     OW21052   3.492   0.322   1.442
 6718SOL    HW121053   3.532   0.388   1.505
 6718SOL    HW221054   3.527   0.338   1.350
 6719SOL     OW21055   1.705   0.807   6.971
 6719SOL    HW121056   1.621   0.762   6.939
 6719SOL    HW221057   1.682   0.873   0.018
 6720SOL     OW21058   1.697   0.724   6.212
 6720SOL    HW121059   1.729   0.818   6.202
 6720SOL    HW221060   1.745   0.664   6.147
 6721SOL     OW21061   0.591   1.651   0.541
 6721SOL    HW121062   0.535   1.731   0.519
 6721SOL    HW221063   0.671   1.680   0.592
 6722SOL     OW21064   6.515   3.354   0.659
 6722SOL    HW121065   6.427   3.319   0.690
 6722SOL    HW221066   6.572   3.376   0.739
 6723SOL     OW21067   1.770   2.091   6.961
 6723SOL    HW121068   1.696   2.036   7.000
 6723SOL    HW221069   1.852   2.081   7.016
 6724SOL     OW21070   1.973   3.616   5.813
 6724SOL    HW121071   1.964   3.622   5.913
 6724SOL    HW221072   1.888   3.580   5.774
 6725SOL     OW21073   5.570   2.916   3.513
 6725SOL    HW121074   5.500   2.861   3.465
 6725SOL    HW221075   5.621   2.857   3.575
 6726SOL     OW21076   7.013   0.884   5.440
 6726SOL    HW121077   6.916   0.884   5.416
 6726SOL    HW221078   0.014   0.973   5.480
 6727SOL     OW21079   1.170   4.735   5.872
 6727SOL    HW121080   1.226   4.679   5.811
 6727SOL    HW221081   1.084   4.758   5.826
 6728SOL     OW21082   4.035   2.209   3.896
 6728SOL    HW121083   3.966   2.227   3.965
 6728SOL    HW221084   3.992   2.170   3.815
 6729SOL     OW21085   4.904   1.525   1.491
 6729SOL    HW121086   4.882   1.446   1.434
 6729SOL    HW221087   4.855   1.520   1.577
 6730SOL     OW21088   0.897   1.376   1.759
 6730SOL    HW121089   0.875   1.474   1.759
 6730SOL    HW221090   0.975   1.359   1.699
 6731SOL     OW21091   3.203   6.253   6.843
 6731SOL    HW121092   3.212   6.287   6.750
 6731SOL    HW221093   3.173   6.157   6.841
 6732SOL     OW21094   5.914   5.118   4.600
 6732SOL    HW121095   5.896   5.128   4.502
 6732SOL    HW221096   6.009   5.143   4.620
 6733SOL     OW21097   4.185   5.095   6.104
 6733SOL    HW121098   4.285   5.098   6.100
 6733SOL    HW221099   4.150   5.034   6.033
 6734SOL     OW21100   5.938   1.409   4.728
 6734SOL    HW121101   5.955   1.507   4.735
 6734SOL    HW221102   5.899   1.375   4.813
 6735SOL     OW21103   6.270   3.262   3.525
 6735SOL    HW121104   6.341   3.246   3.457
 6735SOL    HW221105   6.212   3.181   3.532
 6736SOL     OW21106   3.245   4.089   0.615
 6736SOL    HW121107   3.305   4.009   0.612
 6736SOL    HW221108   3.177   4.078   0.688
 6737SOL     OW21109   0.555   3.643   1.074
 6737SOL    HW121110   0.496   3.705   1.125
 6737SOL    HW221111   0.574   3.562   1.129
 6738SOL     OW21112   2.137   6.035   3.233
 6738SOL    HW121113   2.173   5.951   3.191
 6738SOL    HW221114   2.039   6.023   3.252
 6739SOL     OW21115   6.647   6.786   4.708
 6739SOL    HW121116   6.672   6.881   4.692
 6739SOL    HW221117   6.725   6.727   4.687
 6740SOL     OW21118   0.602   6.711   4.285
 6740SOL    HW121119   0.623   6.765   4.204
 6740SOL    HW221120   0.503   6.700   4.293
 6741SOL     OW21121   4.882   1.930   5.796
 6741SOL    HW121122   4.961   1.947   5.856
 6741SOL    HW221123   4.880   1.999   5.724
 6742SOL     OW21124   5.604   4.604   3.658
 6742SOL    HW121125   5.639   4.575   3.748
 6742SOL    HW221126   5.634   4.698   3.640
 6743SOL     OW21127   4.132   3.899   1.187
 6743SOL    HW121128   4.199   3.828   1.209
 6743SOL    HW221129   4.174   3.966   1.126
 6744SOL     OW21130   0.205   5.683   5.851
 6744SOL    HW121131   0.139   5.752   5.823
 6744SOL    HW221132   0.195   5.664   5.949
 6745SOL     OW21133   6.933   6.339   4.176
 6745SOL    HW121134   6.901   6.427   4.143
 6745SOL    HW221135   7.017   6.350   4.227
 6746SOL     OW21136   1.865   1.332   2.866
 6746SOL    HW121137   1.928   1.374   2.931
 6746SOL    HW221138   1.916   1.303   2.785
 6747SOL     OW21139   1.118   6.758   6.849
 6747SOL    HW121140   1.189   6.821   6.820
 6747SOL    HW221141   1.135   6.728   6.942
 6748SOL     OW21142   2.315   1.653   4.580
 6748SOL    HW121143   2.411   1.662   4.554
 6748SOL    HW221144   2.309   1.614   4.672
 6749SOL     OW21145   3.812   4.919   1.030
 6749SOL    HW121146   3.902   4.957   1.054
 6749SOL    HW221147   3.820   4.820   1.019
 6750SOL     OW21148   3.170   1.334   4.486
 6750SOL    HW121149   3.217   1.318   4.572
 6750SOL    HW221150   3.231   1.313   4.410
 6751SOL     OW21151   3.991   6.767   3.875
 6751SOL    HW121152   4.001   6.749   3.973
 6751SOL    HW221153   4.025   6.858   3.854
 6752SOL     OW21154   2.055   6.376   2.639
 6752SOL    HW121155   2.152   6.372   2.614
 6752SOL    HW221156   2.028   6.471   2.651
 6753SOL     OW21157   3.706   2.942   5.458
 6753SOL    HW121158   3.785   3.002   5.463
 6753SOL    HW221159   3.622   2.996   5.456
 6754SOL     OW21160   6.025   1.266   1.773
 6754SOL    HW121161   6.045   1.191   1.711
 6754SOL    HW221162   6.102   1.280   1.835
 6755SOL     OW21163   2.297   5.702   6.376
 6755SOL    HW121164   2.314   5.733   6.283
 6755SOL    HW221165   2.319   5.605   6.384
 6756SOL     OW21166   2.637   2.199   5.397
 6756SOL    HW121167   2.734   2.186   5.418
 6756SOL    HW221168   2.608   2.289   5.429
 6757SOL     OW21169   3.557   1.024   0.326
 6757SOL    HW121170   3.630   1.085   0.293
 6757SOL    HW221171   3.590   0.929   0.325
 6758SOL     OW21172   6.069   2.667   2.210
 6758SOL    HW121173   6.137   2.624   2.151
 6758SOL    HW221174   5.984   2.614   2.208
 6759SOL     OW21175   0.778   3.272   3.047
 6759SOL    HW121176   0.812   3.223   3.127
 6759SOL    HW221177   0.684   3.243   3.028
 6760SOL     OW21178   5.186   2.895   3.023
 6760SOL    HW121179   5.195   2.848   3.111
 6760SOL    HW221180   5.191   2.828   2.949
 6761SOL     OW21181   4.936   1.845   4.640
 6761SOL    HW121182   4.996   1.825   4.717
 6761SOL    HW221183   4.841   1.826   4.665
 6762SOL     OW21184   0.074   5.394   3.997
 6762SOL    HW121185   7.017   5.337   4.016
 6762SOL    HW221186   0.059   5.445   3.913
 6763SOL     OW21187   4.867   5.177   4.799
 6763SOL    HW121188   4.854   5.276   4.792
 6763SOL    HW221189   4.853   5.135   4.710
 6764SOL     OW21190   1.496   5.612   1.701
 6764SOL    HW121191   1.559   5.578   1.771
 6764SOL    HW221192   1.545   5.669   1.636
 6765SOL     OW21193   6.224   4.672   2.693
 6765SOL    HW121194   6.240   4.589   2.640
 6765SOL    HW221195   6.210   4.749   2.631
 6766SOL     OW21196   5.073   0.047   0.504
 6766SOL    HW121197   5.118   7.021   0.579
 6766SOL    HW221198   5.100   0.006   0.417
 6767SOL     OW21199   2.970   1.521   0.349
 6767SOL    HW121200   2.891   1.579   0.372
 6767SOL    HW221201   3.016   1.494   0.433
 6768SOL     OW21202   1.987   0.889   0.954
 6768SOL    HW121203   1.913   0.824   0.939
 6768SOL    HW221204   1.948   0.980   0.969
 6769SOL     OW21205   3.905   2.392   1.377
 6769SOL    HW121206   3.984   2.414   1.320
 6769SOL    HW221207   3.930   2.323   1.445
 6770SOL     OW21208   6.676   0.187   2.091
 6770SOL    HW121209   6.714   0.269   2.048
 6770SOL    HW221210   6.627   0.213   2.174
 6771SOL     OW21211   4.060   2.229   2.900
 6771SOL    HW121212   4.052   2.269   2.809
 6771SOL    HW221213   3.983   2.167   2.916
 6772SOL     OW21214   2.553   1.966   2.841
 6772SOL    HW121215   2.560   2.065   2.829
 6772SOL    HW221216   2.638   1.922   2.810
 6773SOL     OW21217   6.894   4.093   1.792
 6773SOL    HW121218   6.823   4.044   1.741
 6773SOL    HW221219   6.910   4.048   1.879
 6774SOL     OW21220   0.719   2.842   6.503
 6774SOL    HW121221   0.739   2.896   6.585
 6774SOL    HW221222   0.623   2.853   6.478
 6775SOL     OW21223   2.638   4.423   0.827
 6775SOL    HW121224   2.663   4.439   0.922
 6775SOL    HW221225   2.718   4.390   0.777
 6776SOL     OW21226   5.724   5.104   6.926
 6776SOL    HW121227   5.751   5.168   6.854
 6776SOL    HW221228   5.645   5.051   6.896
 6777SOL     OW21229   4.518   4.846   5.983
 6777SOL    HW121230   4.525   4.770   6.048
 6777SOL    HW221231   4.497   4.811   5.892
 6778SOL     OW21232   0.556   4.615   3.076
 6778SOL    HW121233   0.480   4.551   3.093
 6778SOL    HW221234   0.635   4.588   3.131
 6779SOL     OW21235   0.180   4.713   0.480
 6779SOL    HW121236   0.239   4.702   0.400
 6779SOL    HW221237   0.136   4.626   0.501
 6780SOL     OW21238   0.249   2.674   2.779
 6780SOL    HW121239   0.245   2.586   2.825
 6780SOL    HW221240   0.186   2.675   2.701
 6781SOL     OW21241   5.223   6.497   5.787
 6781SOL    HW121242   5.201   6.570   5.852
 6781SOL    HW221243   5.142   6.440   5.772
 6782SOL     OW21244   6.683   1.155   2.554
 6782SOL    HW121245   6.749   1.097   2.602
 6782SOL    HW221246   6.656   1.231   2.612
 6783SOL     OW21247   6.947   6.243   6.132
 6783SOL    HW121248   0.008   6.191   6.139
 6783SOL    HW221249   6.929   6.290   6.219
 6784SOL     OW21250   3.890   4.553   6.683
 6784SOL    HW121251   3.940   4.639   6.687
 6784SOL    HW221252   3.921   4.500   6.604
 6785SOL     OW21253   6.146   5.596   1.863
 6785SOL    HW121254   6.112   5.652   1.938
 6785SOL    HW221255   6.071   5.574   1.801
 6786SOL     OW21256   1.635   2.429   6.455
 6786SOL    HW121257   1.559   2.369   6.431
 6786SOL    HW221258   1.616   2.474   6.542
 6787SOL     OW21259   1.582   3.822   1.395
 6787SOL    HW121260   1.582   3.892   1.325
 6787SOL    HW221261   1.502   3.833   1.454
 6788SOL     OW21262   2.751   3.875   1.679
 6788SOL    HW121263   2.803   3.831   1.752
 6788SOL    HW221264   2.676   3.816   1.650
 6789SOL     OW21265   0.953   6.772   2.035
 6789SOL    HW121266   0.997   6.845   1.983
 6789SOL    HW221267   0.892   6.812   2.104
 6790SOL     OW21268   1.796   2.887   0.252
 6790SOL    HW121269   1.771   2.893   0.349
 6790SOL    HW221270   1.890   2.854   0.244
 6791SOL     OW21271   3.911   2.786   6.572
 6791SOL    HW121272   3.926   2.728   6.652
 6791SOL    HW221273   3.975   2.760   6.500
 6792SOL     OW21274   6.352   5.871   6.892
 6792SOL    HW121275   6.362   5.901   6.987
 6792SOL    HW221276   6.382   5.944   6.830
 6793SOL     OW21277   1.487   2.209   0.446
 6793SOL    HW121278   1.539   2.269   0.385
 6793SOL    HW221279   1.535   2.199   0.532
 6794SOL     OW21280   4.830   0.852   4.508
 6794SOL    HW121281   4.843   0.769   4.561
 6794SOL    HW221282   4.911   0.911   4.517
 6795SOL     OW21283   2.834   5.983   0.864
 6795SOL    HW121284   2.831   6.024   0.773
 6795SOL    HW221285   2.867   5.889   0.857
 6796SOL     OW21286   5.330   1.266   2.906
 6796SOL    HW121287   5.418   1.232   2.941
 6796SOL    HW221288   5.329   1.366   2.910
 6797SOL     OW21289   5.682   3.987   2.133
 6797SOL    HW121290   5.745   3.915   2.102
 6797SOL    HW221291   5.605   3.945   2.180
 6798SOL     OW21292   5.315   5.458   3.031
 6798SOL    HW121293   5.398   5.446   2.976
 6798SOL    HW221294   5.305   5.554   3.056
 6799SOL     OW21295   4.610   5.969   0.328
 6799SOL    HW121296   4.677   5.896   0.316
 6799SOL    HW221297   4.648   6.056   0.296
 6800SOL     OW21298   1.648   5.086   0.244
 6800SOL    HW121299   1.616   5.114   0.335
 6800SOL    HW221300   1.641   5.163   0.181
 6801SOL     OW21301   1.674   2.510   2.141
 6801SOL    HW121302   1.634   2.591   2.099
 6801SOL    HW221303   1.750   2.537   2.202
 6802SOL     OW21304   2.319   5.974   0.820
 6802SOL    HW121305   2.228   5.952   0.856
 6802SOL    HW221306   2.370   5.890   0.804
 6803SOL     OW21307   5.060   1.942   5.988
 6803SOL    HW121308   5.137   1.994   5.951
 6803SOL    HW221309   5.094   1.872   6.050
 6804SOL     OW21310   1.689   5.539   3.495
 6804SOL    HW121311   1.724   5.499   3.580
 6804SOL    HW221312   1.627   5.614   3.517
 6805SOL     OW21313   6.088   0.004   4.743
 6805SOL    HW121314   6.027   6.988   4.811
 6805SOL    HW221315   6.159   6.961   4.720
 6806SOL     OW21316   4.595   0.997   4.460
 6806SOL    HW121317   4.675   0.941   4.481
 6806SOL    HW221318   4.622   1.075   4.404
 6807SOL     OW21319   2.614   3.050   0.341
 6807SOL    HW121320   2.553   3.017   0.269
 6807SOL    HW221321   2.623   2.980   0.412
 6808SOL     OW21322   0.238   2.505   4.809
 6808SOL    HW121323   0.262   2.442   4.735
 6808SOL    HW221324   0.205   2.591   4.770
 6809SOL     OW21325   1.928   4.424   6.785
 6809SOL    HW121326   1.919   4.507   6.729
 6809SOL    HW221327   1.840   4.376   6.788
 6810SOL     OW21328   0.225   1.017   2.751
 6810SOL    HW121329   0.304   0.956   2.749
 6810SOL    HW221330   0.244   1.098   2.696
 6811SOL     OW21331   6.531   4.690   1.211
 6811SOL    HW121332   6.623   4.690   1.250
 6811SOL    HW221333   6.479   4.614   1.248
 6812SOL     OW21334   4.039   3.853   3.336
 6812SOL    HW121335   4.104   3.778   3.323
 6812SOL    HW221336   3.961   3.821   3.389
 6813SOL     OW21337   4.540   2.243   0.928
 6813SOL    HW121338   4.628   2.239   0.975
 6813SOL    HW221339   4.466   2.235   0.996
 6814SOL     OW21340   2.632   3.442   0.971
 6814SOL    HW121341   2.610   3.399   0.883
 6814SOL    HW221342   2.724   3.480   0.967
 6815SOL     OW21343   2.680   0.068   1.872
 6815SOL    HW121344   2.640   0.035   1.787
 6815SOL    HW221345   2.662   0.166   1.881
 6816SOL     OW21346   6.461   5.220   6.996
 6816SOL    HW121347   6.383   5.183   6.946
 6816SOL    HW221348   6.465   5.179   0.064
 6817SOL     OW21349   6.639   1.504   5.746
 6817SOL    HW121350   6.551   1.467   5.772
 6817SOL    HW221351   6.628   1.567   5.669
 6818SOL     OW21352   3.654   6.671   2.320
 6818SOL    HW121353   3.653   6.574   2.341
 6818SOL    HW221354   3.618   6.723   2.397
 6819SOL     OW21355   3.198   0.447   3.554
 6819SOL    HW121356   3.153   0.496   3.629
 6819SOL    HW221357   3.285   0.490   3.533
 6820SOL     OW21358   0.795   4.294   3.504
 6820SOL    HW121359   0.781   4.270   3.600
 6820SOL    HW221360   0.713   4.271   3.452
 6821SOL     OW21361   2.476   2.482   5.041
 6821SOL    HW121362   2.410   2.407   5.046
 6821SOL    HW221363   2.433   2.566   5.074
 6822SOL     OW21364   5.429   1.751   5.860
 6822SOL    HW121365   5.472   1.775   5.773
 6822SOL    HW221366   5.473   1.800   5.935
 6823SOL     OW21367   3.292   3.261   3.474
 6823SOL    HW121368   3.229   3.277   3.398
 6823SOL    HW221369   3.381   3.234   3.439
 6824SOL     OW21370   0.627   4.078   6.355
 6824SOL    HW121371   0.626   3.995   6.299
 6824SOL    HW221372   0.551   4.138   6.328
 6825SOL     OW21373   5.373   0.261   1.982
 6825SOL    HW121374   5.321   0.191   2.031
 6825SOL    HW221375   5.366   0.246   1.884
 6826SOL     OW21376   2.141   3.167   2.724
 6826SOL    HW121377   2.138   3.067   2.731
 6826SOL    HW221378   2.161   3.193   2.629
 6827SOL     OW21379   5.226   5.732   6.857
 6827SOL    HW121380   5.257   5.644   6.893
 6827SOL    HW221381   5.272   5.806   6.907
 6828SOL     OW21382   1.351   2.293   1.230
 6828SOL    HW121383   1.424   2.320   1.168
 6828SOL    HW221384   1.287   2.233   1.182
 6829SOL     OW21385   5.130   6.253   3.943
 6829SOL    HW121386   5.208   6.228   4.000
 6829SOL    HW221387   5.060   6.182   3.948
 6830SOL     OW21388   5.387   1.839   3.271
 6830SOL    HW121389   5.443   1.760   3.295
 6830SOL    HW221390   5.290   1.815   3.275
 6831SOL     OW21391   0.769   0.860   6.119
 6831SOL    HW121392   0.711   0.829   6.194
 6831SOL    HW221393   0.739   0.817   6.034
 6832SOL     OW21394   3.024   4.780   2.244
 6832SOL    HW121395   2.955   4.748   2.310
 6832SOL    HW221396   3.014   4.728   2.159
 6833SOL     OW21397   3.770   4.923   6.502
 6833SOL    HW121398   3.869   4.920   6.493
 6833SOL    HW221399   3.730   4.851   6.445
 6834SOL     OW21400   4.591   6.793   1.954
 6834SOL    HW121401   4.626   6.736   2.027
 6834SOL    HW221402   4.616   6.754   1.865
 6835SOL     OW21403   4.412   0.355   4.857
 6835SOL    HW121404   4.367   0.304   4.784
 6835SOL    HW221405   4.496   0.396   4.821
 6836SOL     OW21406   2.999   6.613   0.434
 6836SOL    HW121407   3.042   6.646   0.517
 6836SOL    HW221408   2.910   6.656   0.422
 6837SOL     OW21409   1.759   3.541   1.759
 6837SOL    HW121410   1.790   3.619   1.813
 6837SOL    HW221411   1.822   3.527   1.682
 6838SOL     OW21412   2.535   1.297   0.167
 6838SOL    HW121413   2.514   1.201   0.183
 6838SOL    HW221414   2.551   1.312   0.069
 6839SOL     OW21415   4.053   0.997   0.906
 6839SOL    HW121416   4.116   0.968   0.834
 6839SOL    HW221417   4.078   1.088   0.939
 6840SOL     OW21418   2.679   1.428   6.085
 6840SOL    HW121419   2.677   1.353   6.151
 6840SOL    HW221420   2.731   1.504   6.124
 6841SOL     OW21421   6.320   3.039   6.277
 6841SOL    HW121422   6.399   2.988   6.244
 6841SOL    HW221423   6.318   3.036   6.377
 6842SOL     OW21424   1.824   5.532   1.785
 6842SOL    HW121425   1.827   5.447   1.732
 6842SOL    HW221426   1.876   5.602   1.737
 6843SOL     OW21427   5.314   6.820   6.819
 6843SOL    HW121428   5.361   6.866   6.743
 6843SOL    HW221429   5.370   6.744   6.851
 6844SOL     OW21430   4.726   0.519   3.991
 6844SOL    HW121431   4.671   0.580   4.049
 6844SOL    HW221432   4.811   0.497   4.038
 6845SOL     OW21433   4.960   2.574   3.083
 6845SOL    HW121434   4.899   2.506   3.124
 6845SOL    HW221435   4.905   2.640   3.032
 6846SOL     OW21436   2.804   4.131   0.435
 6846SOL    HW121437   2.781   4.078   0.516
 6846SOL    HW221438   2.901   4.119   0.414
 6847SOL     OW21439   5.937   3.797   4.149
 6847SOL    HW121440   5.859   3.757   4.196
 6847SOL    HW221441   5.936   3.769   4.053
 6848SOL     OW21442   5.011   4.321   3.526
 6848SOL    HW121443   5.001   4.389   3.453
 6848SOL    HW221444   5.090   4.263   3.506
 6849SOL     OW21445   3.987   3.763   5.881
 6849SOL    HW121446   4.069   3.724   5.840
 6849SOL    HW221447   3.993   3.756   5.980
 6850SOL     OW21448   4.109   1.824   3.067
 6850SOL    HW121449   4.130   1.833   2.969
 6850SOL    HW221450   4.194   1.811   3.118
 6851SOL     OW21451   1.747   2.752   3.062
 6851SOL    HW121452   1.750   2.673   3.123
 6851SOL    HW221453   1.801   2.826   3.101
 6852SOL     OW21454   2.864   5.408   0.491
 6852SOL    HW121455   2.929   5.447   0.556
 6852SOL    HW221456   2.772   5.410   0.531
 6853SOL     OW21457   4.793   3.212   6.391
 6853SOL    HW121458   4.735   3.290   6.370
 6853SOL    HW221459   4.743   3.150   6.452
 6854SOL     OW21460   5.342   6.176   5.967
 6854SOL    HW121461   5.429   6.127   5.960
 6854SOL    HW221462   5.279   6.122   6.023
 6855SOL     OW21463   3.655   4.895   3.528
 6855SOL    HW121464   3.617   4.805   3.505
 6855SOL    HW221465   3.703   4.890   3.616
 6856SOL     OW21466   1.170   2.190   6.770
 6856SOL    HW121467   1.085   2.170   6.722
 6856SOL    HW221468   1.152   2.196   6.869
 6857SOL     OW21469   0.950   3.741   6.068
 6857SOL    HW121470   1.045   3.750   6.096
 6857SOL    HW221471   0.945   3.743   5.968
 6858SOL     OW21472   3.042   4.106   1.795
 6858SOL    HW121473   3.129   4.060   1.807
 6858SOL    HW221474   3.001   4.125   1.885
 6859SOL     OW21475   0.901   1.134   2.576
 6859SOL    HW121476   0.963   1.140   2.498
 6859SOL    HW221477   0.834   1.208   2.571
 6860SOL     OW21478   0.395   6.494   1.954
 6860SOL    HW121479   0.371   6.405   1.915
 6860SOL    HW221480   0.472   6.533   1.905
 6861SOL     OW21481   4.977   2.744   5.413
 6861SOL    HW121482   4.888   2.771   5.450
 6861SOL    HW221483   4.996   2.649   5.438
 6862SOL     OW21484   0.430   4.618   5.824
 6862SOL    HW121485   0.510   4.585   5.775
 6862SOL    HW221486   0.457   4.647   5.916
 6863SOL     OW21487   0.082   6.659   5.387
 6863SOL    HW121488   0.157   6.624   5.331
 6863SOL    HW221489   0.081   6.759   5.382
 6864SOL     OW21490   1.927   3.802   5.337
 6864SOL    HW121491   1.881   3.732   5.391
 6864SOL    HW221492   1.986   3.857   5.396
 6865SOL     OW21493   1.826   0.181   4.605
 6865SOL    HW121494   1.830   0.214   4.699
 6865SOL    HW221495   1.749   0.118   4.594
 6866SOL     OW21496   0.157   4.562   1.806
 6866SOL    HW121497   0.233   4.609   1.852
 6866SOL    HW221498   0.155   4.466   1.836
 6867SOL     OW21499   2.000   3.054   0.477
 6867SOL    HW121500   2.039   3.123   0.416
 6867SOL    HW221501   2.073   3.016   0.534
 6868SOL     OW21502   2.170   5.293   4.759
 6868SOL    HW121503   2.127   5.381   4.739
 6868SOL    HW221504   2.237   5.304   4.832
 6869SOL     OW21505   3.651   0.186   6.140
 6869SOL    HW121506   3.685   0.101   6.178
 6869SOL    HW221507   3.551   0.185   6.139
 6870SOL     OW21508   0.261   2.925   0.271
 6870SOL    HW121509   0.183   2.984   0.292
 6870SOL    HW221510   0.230   2.830   0.263
 6871SOL     OW21511   0.127   3.616   2.513
 6871SOL    HW121512   0.101   3.537   2.568
 6871SOL    HW221513   0.072   3.619   2.430
 6872SOL     OW21514   1.744   2.947   1.760
 6872SOL    HW121515   1.689   2.995   1.692
 6872SOL    HW221516   1.747   2.849   1.738
 6873SOL     OW21517   1.125   4.010   4.652
 6873SOL    HW121518   1.157   3.928   4.604
 6873SOL    HW221519   1.181   4.088   4.626
 6874SOL     OW21520   5.698   5.685   2.751
 6874SOL    HW121521   5.626   5.625   2.786
 6874SOL    HW221522   5.788   5.649   2.775
 6875SOL     OW21523   1.395   2.830   1.262
 6875SOL    HW121524   1.352   2.916   1.292
 6875SOL    HW221525   1.494   2.837   1.274
 6876SOL     OW21526   4.398   5.588   3.333
 6876SOL    HW121527   4.331   5.639   3.280
 6876SOL    HW221528   4.373   5.491   3.334
 6877SOL     OW21529   1.866   3.786   2.189
 6877SOL    HW121530   1.828   3.709   2.138
 6877SOL    HW221531   1.815   3.869   2.168
 6878SOL     OW21532   2.083   0.779   3.802
 6878SOL    HW121533   2.064   0.864   3.753
 6878SOL    HW221534   1.996   0.733   3.823
 6879SOL     OW21535   2.095   2.370   0.936
 6879SOL    HW121536   2.153   2.319   0.999
 6879SOL    HW221537   2.006   2.324   0.928
 6880SOL     OW21538   1.546   5.463   6.550
 6880SOL    HW121539   1.560   5.504   6.640
 6880SOL    HW221540   1.546   5.535   6.480
 6881SOL     OW21541   1.202   3.147   0.350
 6881SOL    HW121542   1.260   3.188   0.420
 6881SOL    HW221543   1.260   3.104   0.281
 6882SOL     OW21544   2.974   6.553   0.185
 6882SOL    HW121545   3.002   6.563   0.281
 6882SOL    HW221546   2.957   6.643   0.146
 6883SOL     OW21547   4.829   0.108   6.332
 6883SOL    HW121548   4.806   0.204   6.348
 6883SOL    HW221549   4.754   0.064   6.281
 6884SOL     OW21550   2.154   3.707   2.983
 6884SOL    HW121551   2.176   3.610   2.978
 6884SOL    HW221552   2.147   3.744   2.890
 6885SOL     OW21553   5.570   5.902   3.720
 6885SOL    HW121554   5.596   5.811   3.686
 6885SOL    HW221555   5.477   5.899   3.756
 6886SOL     OW21556   5.025   1.273   5.755
 6886SOL    HW121557   4.986   1.363   5.736
 6886SOL    HW221558   5.083   1.245   5.679
 6887SOL     OW21559   5.041   6.053   6.263
 6887SOL    HW121560   5.044   6.144   6.303
 6887SOL    HW221561   4.978   6.051   6.186
 6888SOL     OW21562   5.906   4.786   6.444
 6888SOL    HW121563   5.815   4.770   6.405
 6888SOL    HW221564   5.908   4.877   6.486
 6889SOL     OW21565   0.920   2.986   6.767
 6889SOL    HW121566   0.858   2.908   6.765
 6889SOL    HW221567   1.009   2.957   6.802
 6890SOL     OW21568   3.711   5.159   2.551
 6890SOL    HW121569   3.615   5.187   2.555
 6890SOL    HW221570   3.757   5.207   2.476
 6891SOL     OW21571   2.225   2.300   1.157
 6891SOL    HW121572   2.303   2.362   1.146
 6891SOL    HW221573   2.159   2.342   1.220
 6892SOL     OW21574   3.642   1.006   3.911
 6892SOL    HW121575   3.586   0.971   3.836
 6892SOL    HW221576   3.617   0.959   3.996
 6893SOL     OW21577   6.448   2.811   7.020
 6893SOL    HW121578   6.534   2.834   0.042
 6893SOL    HW221579   6.436   2.712   7.019
 6894SOL     OW21580   5.608   4.820   0.901
 6894SOL    HW121581   5.523   4.872   0.911
 6894SOL    HW221582   5.681   4.882   0.871
 6895SOL     OW21583   1.650   6.330   1.778
 6895SOL    HW121584   1.726   6.286   1.827
 6895SOL    HW221585   1.614   6.266   1.710
 6896SOL     OW21586   4.484   2.054   4.421
 6896SOL    HW121587   4.423   2.093   4.352
 6896SOL    HW221588   4.484   1.955   4.413
 6897SOL     OW21589   5.156   3.993   5.003
 6897SOL    HW121590   5.141   4.039   4.915
 6897SOL    HW221591   5.137   3.895   4.993
 6898SOL     OW21592   2.514   1.844   1.665
 6898SOL    HW121593   2.609   1.868   1.646
 6898SOL    HW221594   2.465   1.827   1.579
 6899SOL     OW21595   6.234   5.586   2.989
 6899SOL    HW121596   6.296   5.630   3.054
 6899SOL    HW221597   6.259   5.489   2.980
 6900SOL     OW21598   6.142   4.318   5.804
 6900SOL    HW121599   6.081   4.384   5.760
 6900SOL    HW221600   6.159   4.347   5.899
 6901SOL     OW21601   4.648   4.774   6.739
 6901SOL    HW121602   4.583   4.836   6.784
 6901SOL    HW221603   4.597   4.701   6.693
 6902SOL     OW21604   0.487   5.807   6.246
 6902SOL    HW121605   0.437   5.787   6.162
 6902SOL    HW221606   0.425   5.804   6.324
 6903SOL     OW21607   2.830   4.932   4.822
 6903SOL    HW121608   2.886   4.876   4.884
 6903SOL    HW221609   2.865   4.922   4.729
 6904SOL     OW21610   0.135   6.356   4.691
 6904SOL    HW121611   0.060   6.358   4.757
 6904SOL    HW221612   0.101   6.322   4.603
 6905SOL     OW21613   5.324   5.598   6.083
 6905SOL    HW121614   5.285   5.533   6.018
 6905SOL    HW221615   5.281   5.586   6.172
 6906SOL     OW21616   3.707   1.196   3.551
 6906SOL    HW121617   3.617   1.223   3.516
 6906SOL    HW221618   3.709   1.097   3.563
 6907SOL     OW21619   5.932   1.416   1.179
 6907SOL    HW121620   5.947   1.474   1.259
 6907SOL    HW221621   6.005   1.432   1.112
 6908SOL     OW21622   2.417   4.612   6.921
 6908SOL    HW121623   2.379   4.638   7.010
 6908SOL    HW221624   2.371   4.529   6.889
 6909SOL     OW21625   5.514   5.155   1.538
 6909SOL    HW121626   5.473   5.236   1.579
 6909SOL    HW221627   5.446   5.082   1.535
 6910SOL     OW21628   1.314   2.516   3.169
 6910SOL    HW121629   1.359   2.556   3.089
 6910SOL    HW221630   1.244   2.579   3.203
 6911SOL     OW21631   2.809   7.022   6.166
 6911SOL    HW121632   2.715   6.990   6.154
 6911SOL    HW221633   2.815   0.054   6.249
 6912SOL     OW21634   2.074   3.782   6.202
 6912SOL    HW121635   1.989   3.835   6.210
 6912SOL    HW221636   2.139   3.831   6.144
 6913SOL     OW21637   4.468   5.887   5.703
 6913SOL    HW121638   4.475   5.964   5.766
 6913SOL    HW221639   4.394   5.827   5.734
 6914SOL     OW21640   6.619   3.331   2.038
 6914SOL    HW121641   6.588   3.412   2.088
 6914SOL    HW221642   6.560   3.316   1.959
 6915SOL     OW21643   1.390   3.150   2.411
 6915SOL    HW121644   1.461   3.126   2.344
 6915SOL    HW221645   1.342   3.067   2.439
 6916SOL     OW21646   4.159   6.401   6.809
 6916SOL    HW121647   4.111   6.483   6.777
 6916SOL    HW221648   4.188   6.347   6.730
 6917SOL     OW21649   5.783   5.434   1.456
 6917SOL    HW121650   5.805   5.420   1.553
 6917SOL    HW221651   5.829   5.364   1.401
 6918SOL     OW21652   1.526   3.109   1.959
 6918SOL    HW121653   1.499   3.030   1.903
 6918SOL    HW221654   1.607   3.152   1.919
 6919SOL     OW21655   6.506   6.617   2.854
 6919SOL    HW121656   6.457   6.536   2.886
 6919SOL    HW221657   6.546   6.664   2.933
 6920SOL     OW21658   5.077   0.567   5.476
 6920SOL    HW121659   5.104   0.611   5.390
 6920SOL    HW221660   4.989   0.603   5.506
 6921SOL     OW21661   3.415   0.297   4.538
 6921SOL    HW121662   3.425   0.227   4.609
 6921SOL    HW221663   3.504   0.314   4.496
 6922SOL     OW21664   1.125   6.069   5.492
 6922SOL    HW121665   1.112   6.166   5.513
 6922SOL    HW221666   1.201   6.033   5.546
 6923SOL     OW21667   6.245   6.950   1.938
 6923SOL    HW121668   6.160   6.999   1.917
 6923SOL    HW221669   6.296   6.999   2.008
 6924SOL     OW21670   3.485   6.541   0.470
 6924SOL    HW121671   3.549   6.615   0.454
 6924SOL    HW221672   3.525   6.454   0.440
 6925SOL     OW21673   5.752   6.048   6.419
 6925SOL    HW121674   5.803   6.126   6.382
 6925SOL    HW221675   5.749   6.053   6.518
 6926SOL     OW21676   2.925   2.135   0.744
 6926SOL    HW121677   2.892   2.041   0.750
 6926SOL    HW221678   2.948   2.168   0.836
 6927SOL     OW21679   4.345   1.069   0.202
 6927SOL    HW121680   4.376   0.974   0.208
 6927SOL    HW221681   4.368   1.105   0.111
 6928SOL     OW21682   4.467   5.014   0.878
 6928SOL    HW121683   4.433   5.076   0.807
 6928SOL    HW221684   4.402   4.939   0.892
 6929SOL     OW21685   5.767   5.776   1.066
 6929SOL    HW121686   5.808   5.746   0.979
 6929SOL    HW221687   5.681   5.824   1.047
 6930SOL     OW21688   0.105   0.597   0.488
 6930SOL    HW121689   0.202   0.599   0.467
 6930SOL    HW221690   0.052   0.598   0.404
 6931SOL     OW21691   2.547   2.449   1.332
 6931SOL    HW121692   2.573   2.355   1.309
 6931SOL    HW221693   2.531   2.457   1.430
 6932SOL     OW21694   4.514   5.617   0.257
 6932SOL    HW121695   4.589   5.622   0.190
 6932SOL    HW221696   4.446   5.687   0.237
 6933SOL     OW21697   2.876   5.517   6.609
 6933SOL    HW121698   2.851   5.433   6.560
 6933SOL    HW221699   2.863   5.595   6.548
 6934SOL     OW21700   4.999   4.032   6.072
 6934SOL    HW121701   5.095   4.004   6.075
 6934SOL    HW221702   4.944   3.966   6.123
 6935SOL     OW21703   5.779   5.145   1.544
 6935SOL    HW121704   5.681   5.147   1.528
 6935SOL    HW221705   5.828   5.154   1.457
 6936SOL     OW21706   0.951   1.957   5.008
 6936SOL    HW121707   0.894   2.036   5.033
 6936SOL    HW221708   0.947   1.944   4.909
 6937SOL     OW21709   5.226   5.750   0.411
 6937SOL    HW121710   5.140   5.719   0.370
 6937SOL    HW221711   5.303   5.700   0.371
 6938SOL     OW21712   0.476   0.533   4.615
 6938SOL    HW121713   0.545   0.503   4.549
 6938SOL    HW221714   0.470   0.465   4.689
 6939SOL     OW21715   6.374   4.849   3.575
 6939SOL    HW121716   6.395   4.812   3.665
 6939SOL    HW221717   6.369   4.774   3.508
 6940SOL     OW21718   3.995   6.637   0.672
 6940SOL    HW121719   4.039   6.670   0.756
 6940SOL    HW221720   3.938   6.558   0.693
 6941SOL     OW21721   3.473   3.277   2.427
 6941SOL    HW121722   3.430   3.362   2.458
 6941SOL    HW221723   3.405   3.204   2.426
 6942SOL     OW21724   6.289   6.990   1.623
 6942SOL    HW121725   6.225   6.939   1.680
 6942SOL    HW221726   6.244   0.047   1.585
 6943SOL     OW21727   4.057   4.939   6.298
 6943SOL    HW121728   3.972   4.916   6.251
 6943SOL    HW221729   4.109   5.005   6.244
 6944SOL     OW21730   1.219   3.752   5.618
 6944SOL    HW121731   1.146   3.710   5.564
 6944SOL    HW221732   1.192   3.844   5.645
 6945SOL     OW21733   5.365   2.880   0.942
 6945SOL    HW121734   5.309   2.921   1.014
 6945SOL    HW221735   5.312   2.872   0.858
 6946SOL     OW21736   4.670   5.780   2.657
 6946SOL    HW121737   4.611   5.716   2.706
 6946SOL    HW221738   4.765   5.765   2.683
 6947SOL     OW21739   5.225   5.303   5.542
 6947SOL    HW121740   5.211   5.356   5.626
 6947SOL    HW221741   5.141   5.255   5.518
 6948SOL     OW21742   0.666   5.373   0.198
 6948SOL    HW121743   0.725   5.294   0.180
 6948SOL    HW221744   0.722   5.449   0.229
 6949SOL     OW21745   2.824   2.343   3.883
 6949SOL    HW121746   2.743   2.347   3.825
 6949SOL    HW221747   2.809   2.397   3.966
 6950SOL     OW21748   1.165   6.525   4.751
 6950SOL    HW121749   1.124   6.471   4.677
 6950SOL    HW221750   1.202   6.463   4.820
 6951SOL     OW21751   6.994   4.921   6.757
 6951SOL    HW121752   6.953   4.939   6.668
 6951SOL    HW221753   6.935   4.860   6.810
 6952SOL     OW21754   3.577   4.972   3.110
 6952SOL    HW121755   3.484   4.945   3.085
 6952SOL    HW221756   3.573   5.051   3.172
 6953SOL     OW21757   4.949   0.994   1.226
 6953SOL    HW121758   5.045   0.965   1.221
 6953SOL    HW221759   4.939   1.062   1.299
 6954SOL     OW21760   6.382   3.635   0.377
 6954SOL    HW121761   6.345   3.636   0.284
 6954SOL    HW221762   6.443   3.556   0.387
 6955SOL     OW21763   5.299   6.446   2.248
 6955SOL    HW121764   5.256   6.377   2.189
 6955SOL    HW221765   5.296   6.415   2.343
 6956SOL     OW21766   5.213   5.588   2.247
 6956SOL    HW121767   5.147   5.619   2.178
 6956SOL    HW221768   5.180   5.505   2.290
 6957SOL     OW21769   5.154   5.262   6.428
 6957SOL    HW121770   5.081   5.272   6.360
 6957SOL    HW221771   5.133   5.185   6.487
 6958SOL     OW21772   3.508   2.876   3.211
 6958SOL    HW121773   3.541   2.902   3.302
 6958SOL    HW221774   3.450   2.795   3.219
 6959SOL     OW21775   0.829   4.003   2.973
 6959SOL    HW121776   0.760   3.983   3.042
 6959SOL    HW221777   0.869   4.093   2.990
 6960SOL     OW21778   2.686   4.725   0.216
 6960SOL    HW121779   2.692   4.634   0.175
 6960SOL    HW221780   2.690   4.717   0.316
 6961SOL     OW21781   4.414   2.212   5.612
 6961SOL    HW121782   4.439   2.160   5.694
 6961SOL    HW221783   4.321   2.188   5.584
 6962SOL     OW21784   2.790   6.707   6.048
 6962SOL    HW121785   2.858   6.636   6.064
 6962SOL    HW221786   2.698   6.667   6.047
 6963SOL     OW21787   5.165   6.586   0.992
 6963SOL    HW121788   5.143   6.501   1.041
 6963SOL    HW221789   5.093   6.605   0.925
 6964SOL     OW21790   1.650   0.416   6.209
 6964SOL    HW121791   1.569   0.408   6.152
 6964SOL    HW221792   1.664   0.512   6.233
 6965SOL     OW21793   0.432   2.043   6.601
 6965SOL    HW121794   0.492   2.111   6.643
 6965SOL    HW221795   0.463   1.951   6.626
 6966SOL     OW21796   0.940   0.488   1.700
 6966SOL    HW121797   0.956   0.423   1.774
 6966SOL    HW221798   0.886   0.564   1.734
 6967SOL     OW21799   4.288   1.622   6.268
 6967SOL    HW121800   4.202   1.634   6.218
 6967SOL    HW221801   4.365   1.635   6.205
 6968SOL     OW21802   4.007   6.592   2.618
 6968SOL    HW121803   3.963   6.681   2.603
 6968SOL    HW221804   4.061   6.595   2.702
 6969SOL     OW21805   2.195   1.818   1.763
 6969SOL    HW121806   2.238   1.905   1.790
 6969SOL    HW221807   2.234   1.743   1.816
 6970SOL     OW21808   3.630   4.540   6.094
 6970SOL    HW121809   3.535   4.558   6.119
 6970SOL    HW221810   3.647   4.572   6.001
 6971SOL     OW21811   0.026   4.456   0.532
 6971SOL    HW121812   6.973   4.430   0.590
 6971SOL    HW221813   7.020   4.460   0.436
 6972SOL     OW21814   4.932   3.475   2.363
 6972SOL    HW121815   4.916   3.494   2.266
 6972SOL    HW221816   4.947   3.376   2.375
 6973SOL     OW21817   0.990   2.873   3.093
 6973SOL    HW121818   1.054   2.949   3.083
 6973SOL    HW221819   1.033   2.789   3.059
 6974SOL     OW21820   3.499   3.874   2.964
 6974SOL    HW121821   3.587   3.904   3.001
 6974SOL    HW221822   3.446   3.828   3.035
 6975SOL     OW21823   3.184   5.849   4.887
 6975SOL    HW121824   3.132   5.847   4.802
 6975SOL    HW221825   3.203   5.755   4.917
 6976SOL     OW21826   5.413   4.282   5.831
 6976SOL    HW121827   5.352   4.210   5.798
 6976SOL    HW221828   5.388   4.308   5.924
 6977SOL     OW21829   4.354   4.776   1.701
 6977SOL    HW121830   4.410   4.829   1.637
 6977SOL    HW221831   4.350   4.681   1.670
 6978SOL     OW21832   5.143   3.709   1.751
 6978SOL    HW121833   5.069   3.662   1.703
 6978SOL    HW221834   5.231   3.684   1.709
 6979SOL     OW21835   1.212   3.901   1.374
 6979SOL    HW121836   1.244   3.820   1.425
 6979SOL    HW221837   1.210   3.880   1.277
 6980SOL     OW21838   1.319   6.578   3.465
 6980SOL    HW121839   1.236   6.522   3.458
 6980SOL    HW221840   1.322   6.642   3.389
 6981SOL     OW21841   3.539   3.508   6.496
 6981SOL    HW121842   3.584   3.559   6.570
 6981SOL    HW221843   3.459   3.559   6.464
 6982SOL     OW21844   1.399   1.086   3.999
 6982SOL    HW121845   1.421   1.180   3.975
 6982SOL    HW221846   1.392   1.078   4.098
 6983SOL     OW21847   4.954   0.443   4.092
 6983SOL    HW121848   5.032   0.497   4.124
 6983SOL    HW221849   4.982   0.389   4.012
 6984SOL     OW21850   0.732   2.650   3.104
 6984SOL    HW121851   0.641   2.618   3.078
 6984SOL    HW221852   0.738   2.749   3.089
 6985SOL     OW21853   6.156   3.284   0.024
 6985SOL    HW121854   6.162   3.382   0.042
 6985SOL    HW221855   6.238   3.238   0.057
 6986SOL     OW21856   3.714   5.093   5.468
 6986SOL    HW121857   3.649   5.036   5.518
 6986SOL    HW221858   3.667   5.136   5.390
 6987SOL     OW21859   0.539   1.844   6.396
 6987SOL    HW121860   0.576   1.756   6.366
 6987SOL    HW221861   0.461   1.828   6.456
 6988SOL     OW21862   3.124   1.462   6.150
 6988SOL    HW121863   3.029   1.435   6.160
 6988SOL    HW221864   3.138   1.504   6.060
 6989SOL     OW21865   6.980   5.008   2.756
 6989SOL    HW121866   0.034   4.952   2.726
 6989SOL    HW221867   7.014   5.089   2.805
 6990SOL     OW21868   3.443   2.856   1.496
 6990SOL    HW121869   3.518   2.865   1.431
 6990SOL    HW221870   3.426   2.760   1.516
 6991SOL     OW21871   5.553   3.594   2.220
 6991SOL    HW121872   5.594   3.671   2.172
 6991SOL    HW221873   5.575   3.600   2.318
 6992SOL     OW21874   0.847   6.918   0.103
 6992SOL    HW121875   0.795   6.981   0.161
 6992SOL    HW221876   0.945   6.931   0.117
 6993SOL     OW21877   4.877   1.166   1.415
 6993SOL    HW121878   4.796   1.107   1.413
 6993SOL    HW221879   4.937   1.136   1.489
 6994SOL     OW21880   2.252   6.807   4.354
 6994SOL    HW121881   2.289   6.750   4.428
 6994SOL    HW221882   2.255   6.755   4.268
 6995SOL     OW21883   0.276   3.750   0.939
 6995SOL    HW121884   0.355   3.696   0.968
 6995SOL    HW221885   0.192   3.703   0.965
 6996SOL     OW21886   1.320   1.451   6.873
 6996SOL    HW121887   1.335   1.352   6.869
 6996SOL    HW221888   1.334   1.490   6.782
 6997SOL     OW21889   6.490   5.378   5.318
 6997SOL    HW121890   6.426   5.389   5.394
 6997SOL    HW221891   6.541   5.293   5.330
 6998SOL     OW21892   6.777   1.533   0.805
 6998SOL    HW121893   6.780   1.556   0.708
 6998SOL    HW221894   6.863   1.487   0.831
 6999SOL     OW21895   0.796   3.314   0.200
 6999SOL    HW121896   0.812   3.398   0.148
 6999SOL    HW221897   0.879   3.290   0.251
 7000SOL     OW21898   6.875   0.212   2.550
 7000SOL    HW121899   6.935   0.177   2.622
 7000SOL    HW221900   6.820   0.287   2.586
 7001SOL     OW21901   0.951   1.438   4.565
 7001SOL    HW121902   1.022   1.490   4.517
 7001SOL    HW221903   0.961   1.451   4.664
 7002SOL     OW21904   0.033   5.944   3.112
 7002SOL    HW121905   0.129   5.939   3.083
 7002SOL    HW221906   7.000   5.888   3.052
 7003SOL     OW21907   6.152   4.461   1.079
 7003SOL    HW121908   6.071   4.489   1.027
 7003SOL    HW221909   6.203   4.392   1.027
 7004SOL     OW21910   1.681   5.552   0.521
 7004SOL    HW121911   1.708   5.509   0.435
 7004SOL    HW221912   1.747   5.528   0.593
 7005SOL     OW21913   1.283   0.328   0.085
 7005SOL    HW121914   1.305   0.290   0.175
 7005SOL    HW221915   1.239   0.258   0.029
 7006SOL     OW21916   0.480   0.218   4.298
 7006SOL    HW121917   0.451   0.138   4.246
 7006SOL    HW221918   0.451   0.301   4.251
 7007SOL     OW21919   3.918   0.523   5.419
 7007SOL    HW121920   3.820   0.502   5.426
 7007SOL    HW221921   3.949   0.564   5.504
 7008SOL     OW21922   6.253   4.284   3.677
 7008SOL    HW121923   6.272   4.207   3.739
 7008SOL    HW221924   6.173   4.335   3.711
 7009SOL     OW21925   4.509   5.794   1.706
 7009SOL    HW121926   4.607   5.803   1.722
 7009SOL    HW221927   4.472   5.721   1.763
 7010SOL     OW21928   5.153   4.177   1.794
 7010SOL    HW121929   5.211   4.114   1.844
 7010SOL    HW221930   5.165   4.163   1.695
 7011SOL     OW21931   3.414   6.353   6.988
 7011SOL    HW121932   3.335   6.316   6.939
 7011SOL    HW221933   3.385   6.391   0.052
 7012SOL     OW21934   0.298   1.947   0.289
 7012SOL    HW121935   0.200   1.927   0.281
 7012SOL    HW221936   0.331   1.919   0.379
 7013SOL     OW21937   2.758   1.674   6.770
 7013SOL    HW121938   2.693   1.637   6.703
 7013SOL    HW221939   2.751   1.622   6.856
 7014SOL     OW21940   6.556   3.479   1.608
 7014SOL    HW121941   6.521   3.446   1.520
 7014SOL    HW221942   6.653   3.499   1.600
 7015SOL     OW21943   4.814   5.449   0.928
 7015SOL    HW121944   4.867   5.388   0.989
 7015SOL    HW221945   4.720   5.456   0.962
 7016SOL     OW21946   3.126   4.976   0.691
 7016SOL    HW121947   3.178   4.964   0.607
 7016SOL    HW221948   3.036   4.934   0.682
 7017SOL     OW21949   4.716   5.377   3.948
 7017SOL    HW121950   4.617   5.379   3.932
 7017SOL    HW221951   4.750   5.284   3.934
 7018SOL     OW21952   4.846   3.136   4.150
 7018SOL    HW121953   4.912   3.177   4.086
 7018SOL    HW221954   4.844   3.190   4.235
 7019SOL     OW21955   5.119   4.711   1.770
 7019SOL    HW121956   5.110   4.695   1.672
 7019SOL    HW221957   5.031   4.695   1.815
 7020SOL     OW21958   0.575   3.256   6.442
 7020SOL    HW121959   0.506   3.256   6.515
 7020SOL    HW221960   0.658   3.211   6.475
 7021SOL     OW21961   1.037   2.257   5.086
 7021SOL    HW121962   1.055   2.225   5.179
 7021SOL    HW221963   1.080   2.195   5.020
 7022SOL     OW21964   3.756   1.311   0.780
 7022SOL    HW121965   3.853   1.337   0.788
 7022SOL    HW221966   3.699   1.386   0.814
 7023SOL     OW21967   0.513   2.018   1.418
 7023SOL    HW121968   0.552   2.108   1.437
 7023SOL    HW221969   0.569   1.948   1.463
 7024SOL     OW21970   3.631   3.549   3.797
 7024SOL    HW121971   3.701   3.510   3.737
 7024SOL    HW221972   3.559   3.482   3.813
 7025SOL     OW21973   3.525   0.093   0.282
 7025SOL    HW121974   3.449   0.158   0.281
 7025SOL    HW221975   3.542   0.059   0.190
 7026SOL     OW21976   3.586   1.998   1.153
 7026SOL    HW121977   3.588   1.948   1.067
 7026SOL    HW221978   3.528   2.079   1.144
 7027SOL     OW21979   2.019   5.712   1.694
 7027SOL    HW121980   2.030   5.811   1.686
 7027SOL    HW221981   2.108   5.667   1.689
 7028SOL     OW21982   3.302   0.047   3.218
 7028SOL    HW121983   3.272   0.106   3.143
 7028SOL    HW221984   3.293   0.096   3.305
 7029SOL     OW21985   3.530   3.247   5.022
 7029SOL    HW121986   3.559   3.274   4.930
 7029SOL    HW221987   3.610   3.225   5.077
 7030SOL     OW21988   6.398   1.786   4.773
 7030SOL    HW121989   6.415   1.874   4.729
 7030SOL    HW221990   6.344   1.799   4.856
 7031SOL     OW21991   4.454   6.699   0.723
 7031SOL    HW121992   4.526   6.748   0.673
 7031SOL    HW221993   4.458   6.602   0.702
 7032SOL     OW21994   4.051   0.129   4.615
 7032SOL    HW121995   4.100   0.044   4.636
 7032SOL    HW221996   3.980   0.145   4.683
 7033SOL     OW21997   1.627   2.101   5.454
 7033SOL    HW121998   1.627   2.156   5.537
 7033SOL    HW221999   1.536   2.101   5.413
 7034SOL     OW22000   6.198   1.566   2.974
 7034SOL    HW122001   6.256   1.633   3.022
 7034SOL    HW222002   6.210   1.477   3.017
 7035SOL     OW22003   2.245   0.855   1.052
 7035SOL    HW122004   2.266   0.916   1.129
 7035SOL    HW222005   2.155   0.877   1.016
 7036SOL     OW22006   0.247   1.380   2.146
 7036SOL    HW122007   0.272   1.474   2.126
 7036SOL    HW222008   0.158   1.377   2.191
 7037SOL     OW22009   0.702   0.378   6.553
 7037SOL    HW122010   0.724   0.283   6.575
 7037SOL    HW222011   0.675   0.385   6.457
 7038SOL     OW22012   1.852   2.596   6.447
 7038SOL    HW122013   1.779   2.527   6.454
 7038SOL    HW222014   1.892   2.610   6.537
 7039SOL     OW22015   6.831   5.860   2.960
 7039SOL    HW122016   6.813   5.791   2.890
 7039SOL    HW222017   6.848   5.948   2.916
 7040SOL     OW22018   4.693   2.596   5.392
 7040SOL    HW122019   4.769   2.563   5.336
 7040SOL    HW222020   4.610   2.601   5.338
 7041SOL     OW22021   1.382   0.236   3.878
 7041SOL    HW122022   1.324   0.317   3.868
 7041SOL    HW222023   1.416   0.230   3.972
 7042SOL     OW22024   4.574   6.310   5.197
 7042SOL    HW122025   4.586   6.407   5.176
 7042SOL    HW222026   4.532   6.265   5.118
 7043SOL     OW22027   2.165   4.481   2.843
 7043SOL    HW122028   2.240   4.419   2.821
 7043SOL    HW222029   2.180   4.522   2.933
 7044SOL     OW22030   5.542   6.472   4.138
 7044SOL    HW122031   5.508   6.467   4.045
 7044SOL    HW222032   5.563   6.567   4.161
 7045SOL     OW22033   6.207   5.663   2.736
 7045SOL    HW122034   6.271   5.740   2.736
 7045SOL    HW222035   6.199   5.626   2.829
 7046SOL     OW22036   3.080   2.167   4.486
 7046SOL    HW122037   3.023   2.094   4.523
 7046SOL    HW222038   3.092   2.238   4.556
 7047SOL     OW22039   0.806   6.867   0.657
 7047SOL    HW122040   0.726   6.808   0.663
 7047SOL    HW222041   0.777   6.961   0.639
 7048SOL     OW22042   6.653   5.490   4.996
 7048SOL    HW122043   6.611   5.402   4.974
 7048SOL    HW222044   6.751   5.478   5.010
 7049SOL     OW22045   3.684   1.035   2.159
 7049SOL    HW122046   3.782   1.029   2.140
 7049SOL    HW222047   3.635   0.968   2.104
 7050SOL     OW22048   4.147   3.984   0.721
 7050SOL    HW122049   4.161   3.895   0.765
 7050SOL    HW222050   4.049   3.999   0.707
 7051SOL     OW22051   0.571   0.179   1.065
 7051SOL    HW122052   0.508   0.144   1.135
 7051SOL    HW222053   0.616   0.261   1.100
 7052SOL     OW22054   5.588   0.393   2.162
 7052SOL    HW122055   5.659   0.323   2.150
 7052SOL    HW222056   5.519   0.381   2.090
 7053SOL     OW22057   1.643   2.559   3.597
 7053SOL    HW122058   1.729   2.540   3.550
 7053SOL    HW222059   1.593   2.630   3.547
 7054SOL     OW22060   6.840   0.181   0.794
 7054SOL    HW122061   6.805   0.119   0.865
 7054SOL    HW222062   6.842   0.275   0.830
 7055SOL     OW22063   2.533   1.027   6.816
 7055SOL    HW122064   2.481   0.972   6.752
 7055SOL    HW222065   2.564   1.111   6.770
 7056SOL     OW22066   0.128   5.441   1.484
 7056SOL    HW122067   0.160   5.455   1.578
 7056SOL    HW222068   0.097   5.347   1.473
 7057SOL     OW22069   3.144   4.899   5.244
 7057SOL    HW122070   3.241   4.879   5.230
 7057SOL    HW222071   3.135   4.983   5.298
 7058SOL     OW22072   5.057   2.616   6.075
 7058SOL    HW122073   5.082   2.522   6.052
 7058SOL    HW222074   4.999   2.617   6.156
 7059SOL     OW22075   1.814   0.700   4.636
 7059SOL    HW122076   1.827   0.767   4.709
 7059SOL    HW222077   1.725   0.656   4.646
 7060SOL     OW22078   3.342   0.397   2.059
 7060SOL    HW122079   3.367   0.454   2.136
 7060SOL    HW222080   3.279   0.447   1.999
 7061SOL     OW22081   1.107   2.634   2.911
 7061SOL    HW122082   1.029   2.571   2.906
 7061SOL    HW222083   1.189   2.586   2.880
 7062SOL     OW22084   3.855   1.671   3.067
 7062SOL    HW122085   3.953   1.689   3.062
 7062SOL    HW222086   3.814   1.690   2.977
 7063SOL     OW22087   0.683   0.886   1.950
 7063SOL    HW122088   0.775   0.926   1.944
 7063SOL    HW222089   0.633   0.928   2.025
 7064SOL     OW22090   4.882   1.874   4.988
 7064SOL    HW122091   4.833   1.790   5.011
 7064SOL    HW222092   4.981   1.859   4.998
 7065SOL     OW22093   3.574   4.282   5.691
 7065SOL    HW122094   3.652   4.261   5.633
 7065SOL    HW222095   3.507   4.335   5.638
 7066SOL     OW22096   3.699   0.638   0.023
 7066SOL    HW122097   3.620   0.696   0.043
 7066SOL    HW222098   3.779   0.671   0.073
 7067SOL     OW22099   2.159   3.421   6.810
 7067SOL    HW122100   2.081   3.470   6.772
 7067SOL    HW222101   2.130   3.331   6.842
 7068SOL     OW22102   5.032   4.259   4.244
 7068SOL    HW122103   5.102   4.331   4.242
 7068SOL    HW222104   5.055   4.187   4.179
 7069SOL     OW22105   5.789   6.855   6.492
 7069SOL    HW122106   5.770   6.893   6.402
 7069SOL    HW222107   5.811   6.929   6.556
 7070SOL     OW22108   0.350   6.378   4.848
 7070SOL    HW122109   0.281   6.391   4.777
 7070SOL    HW222110   0.315   6.415   4.935
 7071SOL     OW22111   5.265   5.965   6.400
 7071SOL    HW122112   5.351   5.957   6.350
 7071SOL    HW222113   5.194   5.998   6.338
 7072SOL     OW22114   0.130   3.609   6.667
 7072SOL    HW122115   0.200   3.644   6.605
 7072SOL    HW222116   0.051   3.576   6.615
 7073SOL     OW22117   5.684   1.527   2.974
 7073SOL    HW122118   5.700   1.437   2.935
 7073SOL    HW222119   5.714   1.528   3.070
 7074SOL     OW22120   5.985   4.044   2.987
 7074SOL    HW122121   5.997   4.132   2.943
 7074SOL    HW222122   5.888   4.021   2.993
 7075SOL     OW22123   3.077   5.506   4.181
 7075SOL    HW122124   3.147   5.577   4.178
 7075SOL    HW222125   3.100   5.433   4.117
 7076SOL     OW22126   5.882   3.228   2.560
 7076SOL    HW122127   5.785   3.203   2.565
 7076SOL    HW222128   5.905   3.252   2.466
 7077SOL     OW22129   3.210   5.394   1.373
 7077SOL    HW122130   3.122   5.354   1.399
 7077SOL    HW222131   3.194   5.482   1.327
 7078SOL     OW22132   5.331   6.826   0.521
 7078SOL    HW122133   5.350   6.924   0.516
 7078SOL    HW222134   5.237   6.809   0.492
 7079SOL     OW22135   1.179   0.030   4.477
 7079SOL    HW122136   1.241   0.021   4.399
 7079SOL    HW222137   1.099   6.996   4.463
 7080SOL     OW22138   4.007   1.666   5.011
 7080SOL    HW122139   3.954   1.667   5.096
 7080SOL    HW222140   4.017   1.760   4.978
 7081SOL     OW22141   1.852   1.266   0.076
 7081SOL    HW122142   1.940   1.225   0.050
 7081SOL    HW222143   1.807   1.302   7.018
 7082SOL     OW22144   6.474   4.263   2.796
 7082SOL    HW122145   6.526   4.300   2.719
 7082SOL    HW222146   6.410   4.194   2.762
 7083SOL     OW22147   0.092   3.139   2.361
 7083SOL    HW122148   0.009   3.083   2.371
 7083SOL    HW222149   0.067   3.232   2.334
 7084SOL     OW22150   0.846   5.980   0.059
 7084SOL    HW122151   0.748   5.962   0.058
 7084SOL    HW222152   0.862   6.073   0.093
 7085SOL     OW22153   0.866   3.119   2.237
 7085SOL    HW122154   0.960   3.092   2.219
 7085SOL    HW222155   0.808   3.037   2.243
 7086SOL     OW22156   5.681   1.127   4.698
 7086SOL    HW122157   5.710   1.155   4.789
 7086SOL    HW222158   5.696   1.028   4.688
 7087SOL     OW22159   5.472   3.035   3.040
 7087SOL    HW122160   5.554   2.982   3.018
 7087SOL    HW222161   5.391   2.977   3.029
 7088SOL     OW22162   6.200   1.559   4.797
 7088SOL    HW122163   6.251   1.645   4.786
 7088SOL    HW222164   6.154   1.537   4.711
 7089SOL     OW22165   3.346   5.706   1.795
 7089SOL    HW122166   3.305   5.655   1.870
 7089SOL    HW222167   3.316   5.669   1.708
 7090SOL     OW22168   4.123   2.038   1.372
 7090SOL    HW122169   4.085   1.954   1.333
 7090SOL    HW222170   4.219   2.023   1.396
 7091SOL     OW22171   0.198   6.534   6.194
 7091SOL    HW122172   0.275   6.470   6.190
 7091SOL    HW222173   0.189   6.569   6.287
 7092SOL     OW22174   4.441   2.042   6.963
 7092SOL    HW122175   4.379   1.982   6.912
 7092SOL    HW222176   4.535   2.025   6.934
 7093SOL     OW22177   3.583   3.926   1.162
 7093SOL    HW122178   3.521   3.908   1.237
 7093SOL    HW222179   3.542   3.896   1.076
 7094SOL     OW22180   2.811   7.012   5.277
 7094SOL    HW122181   2.838   0.081   5.249
 7094SOL    HW222182   2.811   7.006   5.377
 7095SOL     OW22183   2.582   4.427   5.346
 7095SOL    HW122184   2.503   4.465   5.394
 7095SOL    HW222185   2.597   4.478   5.261
 7096SOL     OW22186   7.005   0.840   0.919
 7096SOL    HW122187   6.924   0.782   0.921
 7096SOL    HW222188   6.998   0.905   0.843
 7097SOL     OW22189   4.639   0.803   1.697
 7097SOL    HW122190   4.671   0.831   1.788
 7097SOL    HW222191   4.703   0.736   1.658
 7098SOL     OW22192   0.753   6.544   4.452
 7098SOL    HW122193   0.704   6.604   4.390
 7098SOL    HW222194   0.689   6.482   4.497
 7099SOL     OW22195   2.976   2.198   4.209
 7099SOL    HW122196   3.006   2.189   4.304
 7099SOL    HW222197   2.885   2.240   4.207
 7100SOL     OW22198   6.173   3.861   1.081
 7100SOL    HW122199   6.094   3.837   1.137
 7100SOL    HW222200   6.228   3.929   1.129
 7101SOL     OW22201   2.177   6.326   5.273
 7101SOL    HW122202   2.089   6.293   5.242
 7101SOL    HW222203   2.223   6.255   5.327
 7102SOL     OW22204   5.875   0.808   1.414
 7102SOL    HW122205   5.968   0.831   1.384
 7102SOL    HW222206   5.820   0.892   1.418
 7103SOL     OW22207   5.011   3.925   2.963
 7103SOL    HW122208   5.072   3.994   2.925
 7103SOL    HW222209   4.954   3.886   2.891
 7104SOL     OW22210   4.944   3.280   3.323
 7104SOL    HW122211   5.037   3.301   3.354
 7104SOL    HW222212   4.931   3.314   3.230
 7105SOL     OW22213   3.039   3.709   4.008
 7105SOL    HW122214   3.123   3.654   4.013
 7105SOL    HW222215   2.989   3.685   3.925
 7106SOL     OW22216   2.821   3.202   1.208
 7106SOL    HW122217   2.729   3.238   1.218
 7106SOL    HW222218   2.854   3.222   1.116
 7107SOL     OW22219   3.725   0.819   6.210
 7107SOL    HW122220   3.647   0.771   6.169
 7107SOL    HW222221   3.799   0.755   6.227
 7108SOL     OW22222   3.554   0.116   2.650
 7108SOL    HW122223   3.505   0.185   2.596
 7108SOL    HW222224   3.500   0.092   2.730
 7109SOL     OW22225   2.226   0.052   5.548
 7109SOL    HW122226   2.203   0.089   5.458
 7109SOL    HW222227   2.142   0.039   5.601
 7110SOL     OW22228   3.474   6.309   4.472
 7110SOL    HW122229   3.378   6.279   4.470
 7110SOL    HW222230   3.478   6.405   4.500
 7111SOL     OW22231   6.867   0.641   4.658
 7111SOL    HW122232   6.859   0.727   4.608
 7111SOL    HW222233   6.792   0.633   4.723
 7112SOL     OW22234   1.884   5.136   4.419
 7112SOL    HW122235   1.887   5.096   4.328
 7112SOL    HW222236   1.975   5.129   4.462
 7113SOL     OW22237   3.303   5.127   5.515
 7113SOL    HW122238   3.373   5.154   5.449
 7113SOL    HW222239   3.213   5.130   5.472
 7114SOL     OW22240   4.942   4.980   0.406
 7114SOL    HW122241   4.863   4.936   0.449
 7114SOL    HW222242   4.922   4.998   0.309
 7115SOL     OW22243   6.430   4.293   0.167
 7115SOL    HW122244   6.511   4.315   0.221
 7115SOL    HW222245   6.456   4.234   0.090
 7116SOL     OW22246   6.558   3.766   4.384
 7116SOL    HW122247   6.484   3.788   4.321
 7116SOL    HW222248   6.581   3.847   4.438
 7117SOL     OW22249   5.935   0.181   3.161
 7117SOL    HW122250   5.870   0.155   3.232
 7117SOL    HW222251   6.024   0.201   3.202
 7118SOL     OW22252   4.244   4.483   5.362
 7118SOL    HW122253   4.248   4.489   5.262
 7118SOL    HW222254   4.266   4.572   5.402
 7119SOL     OW22255   3.829   6.585   4.676
 7119SOL    HW122256   3.916   6.551   4.713
 7119SOL    HW222257   3.806   6.534   4.593
 7120SOL     OW22258   4.735   0.862   0.623
 7120SOL    HW122259   4.755   0.765   0.639
 7120SOL    HW222260   4.810   0.918   0.657
 7121SOL     OW22261   1.690   6.342   2.928
 7121SOL    HW122262   1.638   6.425   2.950
 7121SOL    HW222263   1.787   6.363   2.929
 7122SOL     OW22264   2.548   0.644   6.001
 7122SOL    HW122265   2.513   0.678   5.914
 7122SOL    HW222266   2.648   0.651   6.001
 7123SOL     OW22267   5.263   5.019   6.132
 7123SOL    HW122268   5.266   4.924   6.101
 7123SOL    HW222269   5.191   5.030   6.200
 7124SOL     OW22270   1.675   2.338   1.398
 7124SOL    HW122271   1.664   2.431   1.433
 7124SOL    HW222272   1.755   2.334   1.339
 7125SOL     OW22273   1.201   6.805   1.122
 7125SOL    HW122274   1.182   6.890   1.073
 7125SOL    HW222275   1.203   6.729   1.058
 7126SOL     OW22276   3.962   5.828   1.250
 7126SOL    HW122277   3.868   5.801   1.271
 7126SOL    HW222278   3.967   5.867   1.158
 7127SOL     OW22279   2.691   6.606   5.128
 7127SOL    HW122280   2.700   6.703   5.107
 7127SOL    HW222281   2.603   6.573   5.093
 7128SOL     OW22282   3.969   4.385   6.473
 7128SOL    HW122283   3.973   4.288   6.495
 7128SOL    HW222284   3.928   4.397   6.382
 7129SOL     OW22285   0.785   0.111   0.560
 7129SOL    HW122286   0.837   0.196   0.554
 7129SOL    HW222287   0.706   0.124   0.619
 7130SOL     OW22288   3.462   6.779   4.410
 7130SOL    HW122289   3.384   6.828   4.451
 7130SOL    HW222290   3.514   6.843   4.354
 7131SOL     OW22291   3.821   1.029   2.438
 7131SOL    HW122292   3.860   1.047   2.348
 7131SOL    HW222293   3.890   1.046   2.508
 7132SOL     OW22294   5.363   4.064   0.538
 7132SOL    HW122295   5.442   4.005   0.520
 7132SOL    HW222296   5.377   4.153   0.494
 7133SOL     OW22297   3.557   5.434   3.121
 7133SOL    HW122298   3.513   5.362   3.175
 7133SOL    HW222299   3.557   5.408   3.024
 7134SOL     OW22300   5.864   5.042   1.088
 7134SOL    HW122301   5.842   5.040   0.990
 7134SOL    HW222302   5.780   5.028   1.141
 7135SOL     OW22303   1.994   3.100   1.515
 7135SOL    HW122304   2.035   3.186   1.483
 7135SOL    HW222305   1.909   3.119   1.563
 7136SOL     OW22306   2.011   1.456   1.977
 7136SOL    HW122307   2.009   1.378   2.039
 7136SOL    HW222308   2.059   1.431   1.893
 7137SOL     OW22309   2.458   2.187   1.634
 7137SOL    HW122310   2.540   2.244   1.636
 7137SOL    HW222311   2.435   2.164   1.540
 7138SOL     OW22312   1.209   2.514   0.962
 7138SOL    HW122313   1.264   2.523   0.879
 7138SOL    HW222314   1.236   2.583   1.029
 7139SOL     OW22315   6.165   5.970   1.423
 7139SOL    HW122316   6.228   5.896   1.399
 7139SOL    HW222317   6.117   5.947   1.507
 7140SOL     OW22318   6.867   2.965   0.495
 7140SOL    HW122319   6.797   3.036   0.486
 7140SOL    HW222320   6.956   3.003   0.469
 7141SOL     OW22321   3.545   0.640   1.012
 7141SOL    HW122322   3.619   0.609   0.952
 7141SOL    HW222323   3.499   0.718   0.969
 7142SOL     OW22324   2.949   0.249   5.190
 7142SOL    HW122325   2.951   0.344   5.157
 7142SOL    HW222326   3.039   0.207   5.175
 7143SOL     OW22327   2.617   4.794   6.904
 7143SOL    HW122328   2.560   4.714   6.886
 7143SOL    HW222329   2.560   4.870   6.933
 7144SOL     OW22330   6.780   0.326   5.423
 7144SOL    HW122331   6.788   0.295   5.328
 7144SOL    HW222332   6.748   0.421   5.425
 7145SOL     OW22333   5.070   2.167   6.429
 7145SOL    HW122334   5.130   2.244   6.405
 7145SOL    HW222335   5.030   2.183   6.519
 7146SOL     OW22336   1.759   1.587   5.321
 7146SOL    HW122337   1.843   1.635   5.295
 7146SOL    HW222338   1.762   1.493   5.285
 7147SOL     OW22339   6.046   5.949   1.950
 7147SOL    HW122340   6.068   5.873   2.012
 7147SOL    HW222341   6.130   5.994   1.921
 7148SOL     OW22342   6.775   6.586   0.758
 7148SOL    HW122343   6.756   6.674   0.715
 7148SOL    HW222344   6.800   6.600   0.854
 7149SOL     OW22345   6.215   4.349   4.946
 7149SOL    HW122346   6.141   4.388   4.891
 7149SOL    HW222347   6.230   4.254   4.919
 7150SOL     OW22348   3.885   3.530   6.856
 7150SOL    HW122349   3.944   3.450   6.851
 7150SOL    HW222350   3.871   3.567   6.764
 7151SOL     OW22351   3.624   1.069   0.766
 7151SOL    HW122352   3.676   1.155   0.771
 7151SOL    HW222353   3.628   1.023   0.855
 7152SOL     OW22354   6.435   1.299   6.400
 7152SOL    HW122355   6.373   1.377   6.407
 7152SOL    HW222356   6.443   1.255   6.490
 7153SOL     OW22357   4.032   6.231   1.004
 7153SOL    HW122358   4.068   6.248   1.096
 7153SOL    HW222359   4.108   6.218   0.940
 7154SOL     OW22360   4.190   1.916   1.702
 7154SOL    HW122361   4.129   1.853   1.653
 7154SOL    HW222362   4.154   1.934   1.793
 7155SOL     OW22363   3.023   1.490   2.282
 7155SOL    HW122364   3.047   1.404   2.238
 7155SOL    HW222365   2.924   1.495   2.294
 7156SOL     OW22366   5.995   3.770   6.888
 7156SOL    HW122367   6.072   3.747   6.828
 7156SOL    HW222368   6.024   3.837   6.956
 7157SOL     OW22369   6.332   4.773   6.746
 7157SOL    HW122370   6.233   4.767   6.735
 7157SOL    HW222371   6.375   4.778   6.656
 7158SOL     OW22372   4.601   6.593   4.261
 7158SOL    HW122373   4.521   6.559   4.213
 7158SOL    HW222374   4.669   6.521   4.268
 7159SOL     OW22375   0.941   6.036   3.342
 7159SOL    HW122376   0.939   6.046   3.243
 7159SOL    HW222377   1.035   6.024   3.373
 7160SOL     OW22378   6.500   0.125   3.458
 7160SOL    HW122379   6.579   0.160   3.407
 7160SOL    HW222380   6.416   0.159   3.416
 7161SOL     OW22381   3.884   3.481   3.668
 7161SOL    HW122382   3.919   3.442   3.583
 7161SOL    HW222383   3.925   3.434   3.746
 7162SOL     OW22384   0.322   5.944   1.735
 7162SOL    HW122385   0.288   5.855   1.765
 7162SOL    HW222386   0.253   5.988   1.677
 7163SOL     OW22387   0.631   1.454   2.362
 7163SOL    HW122388   0.693   1.419   2.292
 7163SOL    HW222389   0.628   1.554   2.357
 7164SOL     OW22390   1.942   1.140   6.768
 7164SOL    HW122391   1.982   1.066   6.823
 7164SOL    HW222392   1.948   1.226   6.818
 7165SOL     OW22393   5.715   1.085   0.180
 7165SOL    HW122394   5.651   1.158   0.160
 7165SOL    HW222395   5.713   1.017   0.107
 7166SOL     OW22396   5.995   6.421   5.927
 7166SOL    HW122397   6.092   6.423   5.948
 7166SOL    HW222398   5.951   6.348   5.980
 7167SOL     OW22399   5.758   2.114   4.750
 7167SOL    HW122400   5.792   2.197   4.706
 7167SOL    HW222401   5.659   2.120   4.762
 7168SOL     OW22402   2.875   1.124   2.198
 7168SOL    HW122403   2.855   1.043   2.144
 7168SOL    HW222404   2.970   1.153   2.182
 7169SOL     OW22405   1.360   4.046   6.741
 7169SOL    HW122406   1.373   4.080   6.648
 7169SOL    HW222407   1.340   4.123   6.801
 7170SOL     OW22408   4.006   1.353   0.761
 7170SOL    HW122409   4.057   1.287   0.816
 7170SOL    HW222410   4.022   1.445   0.798
 7171SOL     OW22411   6.811   4.355   0.619
 7171SOL    HW122412   6.837   4.290   0.690
 7171SOL    HW222413   6.768   4.435   0.661
 7172SOL     OW22414   1.779   1.247   4.108
 7172SOL    HW122415   1.846   1.210   4.043
 7172SOL    HW222416   1.751   1.175   4.172
 7173SOL     OW22417   5.011   5.591   6.221
 7173SOL    HW122418   5.098   5.623   6.258
 7173SOL    HW222419   5.020   5.495   6.193
 7174SOL     OW22420   6.528   4.327   1.850
 7174SOL    HW122421   6.623   4.313   1.819
 7174SOL    HW222422   6.527   4.394   1.924
 7175SOL     OW22423   5.623   3.507   6.398
 7175SOL    HW122424   5.584   3.598   6.382
 7175SOL    HW222425   5.576   3.440   6.340
 7176SOL     OW22426   0.663   0.464   6.021
 7176SOL    HW122427   0.699   0.385   5.969
 7176SOL    HW222428   0.707   0.467   6.111
 7177SOL     OW22429   1.839   5.169   3.610
 7177SOL    HW122430   1.892   5.245   3.648
 7177SOL    HW222431   1.785   5.202   3.532
 7178SOL     OW22432   1.682   0.964   5.304
 7178SOL    HW122433   1.671   0.957   5.403
 7178SOL    HW222434   1.678   0.873   5.263
 7179SOL     OW22435   3.300   5.905   6.212
 7179SOL    HW122436   3.293   5.953   6.299
 7179SOL    HW222437   3.363   5.955   6.152
 7180SOL     OW22438   1.613   4.224   1.186
 7180SOL    HW122439   1.646   4.194   1.276
 7180SOL    HW222440   1.553   4.303   1.197
 7181SOL     OW22441   2.755   1.702   6.146
 7181SOL    HW122442   2.791   1.726   6.236
 7181SOL    HW222443   2.655   1.707   6.149
 7182SOL     OW22444   1.631   2.115   4.734
 7182SOL    HW122445   1.600   2.041   4.673
 7182SOL    HW222446   1.552   2.168   4.765
 7183SOL     OW22447   0.641   6.677   1.902
 7183SOL    HW122448   0.646   6.775   1.924
 7183SOL    HW222449   0.705   6.658   1.828
 7184SOL     OW22450   6.362   0.423   3.676
 7184SOL    HW122451   6.417   0.355   3.725
 7184SOL    HW222452   6.280   0.444   3.729
 7185SOL     OW22453   4.344   0.943   4.330
 7185SOL    HW122454   4.365   1.000   4.250
 7185SOL    HW222455   4.426   0.936   4.388
 7186SOL     OW22456   0.349   0.022   6.795
 7186SOL    HW122457   0.371   6.987   6.717
 7186SOL    HW222458   0.401   0.107   6.789
 7187SOL     OW22459   3.491   2.849   4.080
 7187SOL    HW122460   3.398   2.848   4.043
 7187SOL    HW222461   3.492   2.898   4.167
 7188SOL     OW22462   3.744   4.106   6.890
 7188SOL    HW122463   3.725   4.017   6.930
 7188SOL    HW222464   3.785   4.094   6.799
 7189SOL     OW22465   6.116   2.681   5.848
 7189SOL    HW122466   6.107   2.778   5.825
 7189SOL    HW222467   6.050   2.658   5.920
 7190SOL     OW22468   5.963   5.600   1.256
 7190SOL    HW122469   5.914   5.563   1.335
 7190SOL    HW222470   5.917   5.572   1.172
 7191SOL     OW22471   0.173   4.663   3.785
 7191SOL    HW122472   0.151   4.574   3.825
 7191SOL    HW222473   0.189   4.652   3.687
 7192SOL     OW22474   1.774   4.987   6.996
 7192SOL    HW122475   1.783   5.081   0.006
 7192SOL    HW222476   1.757   4.989   6.898
 7193SOL     OW22477   2.599   2.389   2.505
 7193SOL    HW122478   2.564   2.296   2.524
 7193SOL    HW222479   2.620   2.397   2.408
 7194SOL     OW22480   2.823   2.596   6.365
 7194SOL    HW122481   2.820   2.694   6.347
 7194SOL    HW222482   2.801   2.546   6.281
 7195SOL     OW22483   0.087   3.866   5.669
 7195SOL    HW122484   0.087   3.817   5.581
 7195SOL    HW222485   0.089   3.964   5.652
 7196SOL     OW22486   3.250   4.032   2.057
 7196SOL    HW122487   3.254   4.004   1.961
 7196SOL    HW222488   3.335   4.078   2.082
 7197SOL     OW22489   2.271   3.928   5.738
 7197SOL    HW122490   2.363   3.916   5.700
 7197SOL    HW222491   2.203   3.904   5.669
 7198SOL     OW22492   0.274   0.458   1.744
 7198SOL    HW122493   0.308   0.548   1.771
 7198SOL    HW222494   0.309   0.435   1.653
 7199SOL     OW22495   0.562   1.093   2.484
 7199SOL    HW122496   0.484   1.153   2.463
 7199SOL    HW222497   0.624   1.140   2.546
 7200SOL     OW22498   1.003   2.345   0.987
 7200SOL    HW122499   1.020   2.307   0.895
 7200SOL    HW222500   1.056   2.429   0.998
 7201SOL     OW22501   5.614   5.314   3.867
 7201SOL    HW122502   5.697   5.320   3.811
 7201SOL    HW222503   5.629   5.364   3.953
 7202SOL     OW22504   5.166   0.397   5.661
 7202SOL    HW122505   5.238   0.358   5.605
 7202SOL    HW222506   5.106   0.454   5.604
 7203SOL     OW22507   0.638   1.402   1.568
 7203SOL    HW122508   0.548   1.442   1.583
 7203SOL    HW222509   0.671   1.358   1.652
 7204SOL     OW22510   6.574   6.658   1.037
 7204SOL    HW122511   6.486   6.683   0.996
 7204SOL    HW222512   6.594   6.717   1.115
 7205SOL     OW22513   2.411   2.319   4.723
 7205SOL    HW122514   2.311   2.324   4.719
 7205SOL    HW222515   2.448   2.404   4.760
 7206SOL     OW22516   1.667   3.148   0.767
 7206SOL    HW122517   1.624   3.187   0.848
 7206SOL    HW222518   1.609   3.167   0.687
 7207SOL     OW22519   1.870   1.330   4.404
 7207SOL    HW122520   1.930   1.349   4.482
 7207SOL    HW222521   1.861   1.413   4.348
 7208SOL     OW22522   2.818   0.293   4.275
 7208SOL    HW122523   2.722   0.289   4.301
 7208SOL    HW222524   2.869   0.345   4.344
 7209SOL     OW22525   2.744   2.027   2.401
 7209SOL    HW122526   2.796   2.107   2.372
 7209SOL    HW222527   2.649   2.053   2.417
 7210SOL     OW22528   2.855   1.059   3.188
 7210SOL    HW122529   2.870   1.040   3.092
 7210SOL    HW222530   2.910   0.998   3.244
 7211SOL     OW22531   3.189   5.570   4.944
 7211SOL    HW122532   3.250   5.563   5.023
 7211SOL    HW222533   3.113   5.506   4.955
 7212SOL     OW22534   6.163   4.405   6.055
 7212SOL    HW122535   6.185   4.400   6.153
 7212SOL    HW222536   6.086   4.469   6.042
 7213SOL     OW22537   4.227   1.575   0.410
 7213SOL    HW122538   4.238   1.672   0.432
 7213SOL    HW222539   4.299   1.547   0.346
 7214SOL     OW22540   0.057   0.952   6.449
 7214SOL    HW122541   0.002   0.981   6.371
 7214SOL    HW222542   0.142   1.006   6.451
 7215SOL     OW22543   6.734   2.540   2.539
 7215SOL    HW122544   6.736   2.446   2.503
 7215SOL    HW222545   6.799   2.548   2.614
 7216SOL     OW22546   3.417   6.242   3.002
 7216SOL    HW122547   3.414   6.314   2.934
 7216SOL    HW222548   3.512   6.231   3.034
 7217SOL     OW22549   1.301   4.045   3.457
 7217SOL    HW122550   1.228   4.086   3.401
 7217SOL    HW222551   1.350   4.117   3.506
 7218SOL     OW22552   6.402   4.036   4.492
 7218SOL    HW122553   6.389   4.107   4.560
 7218SOL    HW222554   6.358   3.951   4.523
 7219SOL     OW22555   3.743   5.756   2.102
 7219SOL    HW122556   3.687   5.832   2.137
 7219SOL    HW222557   3.797   5.788   2.024
 7220SOL     OW22558   6.076   4.833   4.457
 7220SOL    HW122559   6.175   4.839   4.465
 7220SOL    HW222560   6.039   4.922   4.430
 7221SOL     OW22561   3.605   5.744   4.592
 7221SOL    HW122562   3.521   5.692   4.608
 7221SOL    HW222563   3.684   5.682   4.603
 7222SOL     OW22564   0.141   6.906   4.303
 7222SOL    HW122565   0.229   6.861   4.314
 7222SOL    HW222566   0.153   7.005   4.308
 7223SOL     OW22567   0.683   2.656   1.189
 7223SOL    HW122568   0.688   2.696   1.098
 7223SOL    HW222569   0.740   2.574   1.192
 7224SOL     OW22570   3.994   2.007   3.228
 7224SOL    HW122571   3.929   1.971   3.295
 7224SOL    HW222572   4.037   1.931   3.179
 7225SOL     OW22573   1.553   0.342   0.783
 7225SOL    HW122574   1.488   0.342   0.859
 7225SOL    HW222575   1.531   0.267   0.721
 7226SOL     OW22576   6.147   6.426   0.688
 7226SOL    HW122577   6.154   6.513   0.640
 7226SOL    HW222578   6.175   6.437   0.783
 7227SOL     OW22579   2.791   1.181   1.907
 7227SOL    HW122580   2.783   1.194   2.006
 7227SOL    HW222581   2.883   1.149   1.885
 7228SOL     OW22582   0.446   3.601   2.003
 7228SOL    HW122583   0.488   3.516   2.034
 7228SOL    HW222584   0.503   3.678   2.032
 7229SOL     OW22585   0.228   0.209   4.849
 7229SOL    HW122586   0.305   0.146   4.840
 7229SOL    HW222587   0.240   0.265   4.930
 7230SOL     OW22588   1.959   5.079   3.943
 7230SOL    HW122589   2.051   5.102   3.914
 7230SOL    HW222590   1.960   5.049   4.038
 7231SOL     OW22591   4.593   1.503   6.303
 7231SOL    HW122592   4.515   1.495   6.365
 7231SOL    HW222593   4.660   1.566   6.342
 7232SOL     OW22594   6.069   6.833   3.173
 7232SOL    HW122595   5.992   6.895   3.188
 7232SOL    HW222596   6.125   6.829   3.256
 7233SOL     OW22597   6.637   1.471   4.909
 7233SOL    HW122598   6.658   1.568   4.920
 7233SOL    HW222599   6.718   1.422   4.878
 7234SOL     OW22600   5.403   3.755   2.756
 7234SOL    HW122601   5.433   3.825   2.820
 7234SOL    HW222602   5.359   3.798   2.678
 7235SOL     OW22603   0.354   6.157   1.524
 7235SOL    HW122604   0.310   6.220   1.461
 7235SOL    HW222605   0.317   6.065   1.510
 7236SOL     OW22606   2.678   2.388   3.346
 7236SOL    HW122607   2.764   2.354   3.384
 7236SOL    HW222608   2.603   2.327   3.372
 7237SOL     OW22609   5.096   0.530   0.103
 7237SOL    HW122610   5.090   0.438   0.062
 7237SOL    HW222611   5.095   0.522   0.202
 7238SOL     OW22612   4.349   3.386   0.218
 7238SOL    HW122613   4.436   3.411   0.176
 7238SOL    HW222614   4.334   3.441   0.300
 7239SOL     OW22615   0.613   3.348   2.309
 7239SOL    HW122616   0.669   3.431   2.303
 7239SOL    HW222617   0.662   3.278   2.360
 7240SOL     OW22618   6.593   1.816   5.743
 7240SOL    HW122619   6.631   1.745   5.683
 7240SOL    HW222620   6.598   1.905   5.698
 7241SOL     OW22621   2.838   1.661   2.128
 7241SOL    HW122622   2.741   1.671   2.152
 7241SOL    HW222623   2.892   1.726   2.182
 7242SOL     OW22624   6.779   5.459   4.389
 7242SOL    HW122625   6.854   5.450   4.324
 7242SOL    HW222626   6.757   5.369   4.428
 7243SOL     OW22627   6.198   3.862   6.321
 7243SOL    HW122628   6.258   3.891   6.395
 7243SOL    HW222629   6.246   3.870   6.233
 7244SOL     OW22630   0.129   6.569   6.455
 7244SOL    HW122631   0.102   6.650   6.508
 7244SOL    HW222632   0.050   6.509   6.444
 7245SOL     OW22633   1.456   2.711   6.504
 7245SOL    HW122634   1.504   2.661   6.576
 7245SOL    HW222635   1.387   2.652   6.462
 7246SOL     OW22636   3.192   0.353   4.093
 7246SOL    HW122637   3.218   0.288   4.164
 7246SOL    HW222638   3.129   0.309   4.029
 7247SOL     OW22639   2.253   2.587   5.289
 7247SOL    HW122640   2.207   2.659   5.341
 7247SOL    HW222641   2.326   2.627   5.234
 7248SOL     OW22642   3.619   0.917   4.423
 7248SOL    HW122643   3.560   0.880   4.495
 7248SOL    HW222644   3.715   0.910   4.452
 7249SOL     OW22645   3.905   5.247   1.806
 7249SOL    HW122646   3.814   5.228   1.843
 7249SOL    HW222647   3.915   5.200   1.718
 7250SOL     OW22648   5.319   5.666   5.570
 7250SOL    HW122649   5.251   5.645   5.640
 7250SOL    HW222650   5.276   5.716   5.495
 7251SOL     OW22651   0.446   5.985   5.605
 7251SOL    HW122652   0.494   5.899   5.620
 7251SOL    HW222653   0.353   5.966   5.572
 7252SOL     OW22654   2.958   3.812   2.323
 7252SOL    HW122655   2.900   3.872   2.378
 7252SOL    HW222656   2.915   3.722   2.315
 7253SOL     OW22657   1.193   5.699   5.373
 7253SOL    HW122658   1.286   5.728   5.393
 7253SOL    HW222659   1.189   5.658   5.282
 7254SOL     OW22660   5.286   4.263   3.955
 7254SOL    HW122661   5.274   4.341   4.017
 7254SOL    HW222662   5.197   4.237   3.918
 7255SOL     OW22663   4.675   3.065   6.605
 7255SOL    HW122664   4.749   2.998   6.599
 7255SOL    HW222665   4.600   3.038   6.545
 7256SOL     OW22666   3.406   6.592   6.356
 7256SOL    HW122667   3.492   6.577   6.306
 7256SOL    HW222668   3.342   6.518   6.335
 7257SOL     OW22669   0.655   1.186   4.599
 7257SOL    HW122670   0.587   1.158   4.666
 7257SOL    HW222671   0.746   1.171   4.636
 7258SOL     OW22672   6.023   1.923   2.613
 7258SOL    HW122673   6.038   1.855   2.685
 7258SOL    HW222674   6.005   1.876   2.526
 7259SOL     OW22675   0.672   3.821   3.375
 7259SOL    HW122676   0.727   3.768   3.311
 7259SOL    HW222677   0.675   3.777   3.465
 7260SOL     OW22678   5.455   2.812   0.380
 7260SOL    HW122679   5.511   2.893   0.361
 7260SOL    HW222680   5.499   2.757   0.450
 7261SOL     OW22681   0.089   4.016   0.316
 7261SOL    HW122682   0.090   4.090   0.384
 7261SOL    HW222683   0.110   3.929   0.360
 7262SOL     OW22684   6.073   2.026   5.987
 7262SOL    HW122685   6.130   2.099   5.949
 7262SOL    HW222686   6.130   1.947   6.008
 7263SOL     OW22687   0.548   5.859   0.194
 7263SOL    HW122688   0.518   5.955   0.196
 7263SOL    HW222689   0.504   5.813   0.117
 7264SOL     OW22690   5.615   0.942   0.451
 7264SOL    HW122691   5.629   0.962   0.354
 7264SOL    HW222692   5.699   0.905   0.491
 7265SOL     OW22693   4.552   5.903   5.431
 7265SOL    HW122694   4.465   5.903   5.382
 7265SOL    HW222695   4.535   5.894   5.529
 7266SOL     OW22696   6.816   0.544   4.049
 7266SOL    HW122697   6.805   0.527   3.951
 7266SOL    HW222698   6.817   0.643   4.066
 7267SOL     OW22699   6.562   5.616   5.215
 7267SOL    HW122700   6.529   5.526   5.245
 7267SOL    HW222701   6.608   5.606   5.127
 7268SOL     OW22702   6.530   6.267   4.485
 7268SOL    HW122703   6.569   6.280   4.576
 7268SOL    HW222704   6.603   6.263   4.418
 7269SOL     OW22705   2.376   5.069   5.712
 7269SOL    HW122706   2.428   5.005   5.768
 7269SOL    HW222707   2.310   5.118   5.769
 7270SOL     OW22708   0.636   1.500   4.147
 7270SOL    HW122709   0.684   1.493   4.235
 7270SOL    HW222710   0.538   1.492   4.163
 7271SOL     OW22711   0.483   4.389   3.821
 7271SOL    HW122712   0.453   4.315   3.881
 7271SOL    HW222713   0.570   4.426   3.854
 7272SOL     OW22714   6.166   5.494   2.215
 7272SOL    HW122715   6.256   5.461   2.186
 7272SOL    HW222716   6.168   5.514   2.313
 7273SOL     OW22717   6.656   3.064   5.769
 7273SOL    HW122718   6.744   3.040   5.812
 7273SOL    HW222719   6.588   3.079   5.841
 7274SOL     OW22720   0.239   4.420   0.174
 7274SOL    HW122721   0.223   4.323   0.156
 7274SOL    HW222722   0.162   4.474   0.139
 7275SOL     OW22723   6.467   0.543   2.856
 7275SOL    HW122724   6.552   0.570   2.901
 7275SOL    HW222725   6.486   0.518   2.761
 7276SOL     OW22726   4.583   6.551   3.751
 7276SOL    HW122727   4.507   6.489   3.766
 7276SOL    HW222728   4.653   6.536   3.820
 7277SOL     OW22729   4.074   0.633   5.693
 7277SOL    HW122730   4.142   0.563   5.716
 7277SOL    HW222731   4.096   0.672   5.603
 7278SOL     OW22732   3.127   3.740   2.125
 7278SOL    HW122733   3.064   3.773   2.194
 7278SOL    HW222734   3.181   3.817   2.090
 7279SOL     OW22735   3.764   6.001   0.397
 7279SOL    HW122736   3.802   6.007   0.305
 7279SOL    HW222737   3.836   6.018   0.464
 7280SOL     OW22738   4.393   6.839   5.546
 7280SOL    HW122739   4.437   6.749   5.544
 7280SOL    HW222740   4.460   6.909   5.520
 7281SOL     OW22741   4.018   2.113   6.291
 7281SOL    HW122742   3.924   2.144   6.276
 7281SOL    HW222743   4.052   2.067   6.209
 7282SOL     OW22744   5.849   5.351   1.722
 7282SOL    HW122745   5.777   5.378   1.786
 7282SOL    HW222746   5.815   5.276   1.664
 7283SOL     OW22747   2.735   0.761   2.538
 7283SOL    HW122748   2.752   0.810   2.623
 7283SOL    HW222749   2.796   0.682   2.532
 7284SOL     OW22750   6.821   3.540   5.063
 7284SOL    HW122751   6.910   3.565   5.026
 7284SOL    HW222752   6.749   3.573   5.002
 7285SOL     OW22753   4.716   5.387   1.946
 7285SOL    HW122754   4.755   5.297   1.923
 7285SOL    HW222755   4.696   5.390   2.044
 7286SOL     OW22756   2.416   2.489   1.092
 7286SOL    HW122757   2.452   2.541   1.015
 7286SOL    HW222758   2.472   2.505   1.173
 7287SOL     OW22759   6.150   1.252   6.538
 7287SOL    HW122760   6.249   1.240   6.534
 7287SOL    HW222761   6.120   1.254   6.633
 7288SOL     OW22762   4.102   0.486   6.443
 7288SOL    HW122763   4.093   0.496   6.343
 7288SOL    HW222764   4.039   0.416   6.475
 7289SOL     OW22765   5.834   1.484   3.375
 7289SOL    HW122766   5.803   1.434   3.294
 7289SOL    HW222767   5.776   1.460   3.453
 7290SOL     OW22768   2.732   5.068   5.498
 7290SOL    HW122769   2.750   5.032   5.406
 7290SOL    HW222770   2.646   5.118   5.498
 7291SOL     OW22771   2.026   0.221   1.442
 7291SOL    HW122772   2.107   0.199   1.388
 7291SOL    HW222773   2.012   0.150   1.511
 7292SOL     OW22774   3.186   6.665   3.399
 7292SOL    HW122775   3.241   6.585   3.423
 7292SOL    HW222776   3.196   6.735   3.470
 7293SOL     OW22777   1.961   1.666   5.165
 7293SOL    HW122778   1.928   1.604   5.094
 7293SOL    HW222779   2.017   1.615   5.230
 7294SOL     OW22780   2.890   5.208   6.969
 7294SOL    HW122781   2.958   5.166   0.006
 7294SOL    HW222782   2.925   5.294   6.934
 7295SOL     OW22783   0.730   1.990   0.354
 7295SOL    HW122784   0.824   1.957   0.358
 7295SOL    HW222785   0.730   2.086   0.326
 7296SOL     OW22786   2.756   5.022   1.203
 7296SOL    HW122787   2.750   4.939   1.147
 7296SOL    HW222788   2.851   5.051   1.209
 7297SOL     OW22789   4.055   6.308   0.652
 7297SOL    HW122790   4.134   6.292   0.591
 7297SOL    HW222791   4.040   6.407   0.661
 7298SOL     OW22792   5.364   4.098   4.244
 7298SOL    HW122793   5.443   4.104   4.184
 7298SOL    HW222794   5.373   4.164   4.318
 7299SOL     OW22795   6.774   2.513   0.824
 7299SOL    HW122796   6.837   2.580   0.785
 7299SOL    HW222797   6.786   2.510   0.924
 7300SOL     OW22798   5.169   5.731   0.787
 7300SOL    HW122799   5.085   5.746   0.736
 7300SOL    HW222800   5.165   5.642   0.832
 7301SOL     OW22801   0.127   0.383   5.822
 7301SOL    HW122802   0.135   0.310   5.889
 7301SOL    HW222803   0.054   0.361   5.756
 7302SOL     OW22804   0.050   1.250   0.015
 7302SOL    HW122805   0.057   1.342   7.000
 7302SOL    HW222806   0.020   1.186   6.968
 7303SOL     OW22807   3.977   0.136   6.792
 7303SOL    HW122808   3.938   0.055   6.836
 7303SOL    HW222809   3.976   0.213   6.855
 7304SOL     OW22810   4.381   3.814   6.187
 7304SOL    HW122811   4.303   3.876   6.184
 7304SOL    HW222812   4.464   3.863   6.161
 7305SOL     OW22813   5.068   2.172   0.279
 7305SOL    HW122814   5.081   2.104   0.351
 7305SOL    HW222815   5.021   2.130   0.202
 7306SOL     OW22816   4.864   3.804   1.432
 7306SOL    HW122817   4.814   3.830   1.515
 7306SOL    HW222818   4.914   3.883   1.397
 7307SOL     OW22819   2.654   6.550   1.576
 7307SOL    HW122820   2.753   6.565   1.580
 7307SOL    HW222821   2.629   6.479   1.641
 7308SOL     OW22822   6.758   3.525   4.643
 7308SOL    HW122823   6.720   3.521   4.550
 7308SOL    HW222824   6.823   3.450   4.655
 7309SOL     OW22825   4.917   5.916   0.671
 7309SOL    HW122826   4.961   5.951   0.589
 7309SOL    HW222827   4.892   5.993   0.731
 7310SOL     OW22828   2.087   5.223   0.971
 7310SOL    HW122829   2.154   5.192   0.903
 7310SOL    HW222830   2.130   5.226   1.061
 7311SOL     OW22831   2.923   1.854   1.868
 7311SOL    HW122832   2.870   1.914   1.927
 7311SOL    HW222833   2.882   1.763   1.868
 7312SOL     OW22834   6.921   1.853   5.649
 7312SOL    HW122835   6.868   1.864   5.564
 7312SOL    HW222836   6.957   1.941   5.678
 7313SOL     OW22837   4.430   2.563   6.130
 7313SOL    HW122838   4.511   2.504   6.125
 7313SOL    HW222839   4.394   2.578   6.038
 7314SOL     OW22840   6.364   3.488   4.953
 7314SOL    HW122841   6.420   3.447   5.025
 7314SOL    HW222842   6.319   3.570   4.990
 7315SOL     OW22843   5.865   0.258   3.927
 7315SOL    HW122844   5.826   0.279   3.838
 7315SOL    HW222845   5.821   0.314   3.998
 7316SOL     OW22846   3.531   3.142   5.375
 7316SOL    HW122847   3.449   3.195   5.354
 7316SOL    HW222848   3.585   3.129   5.292
 7317SOL     OW22849   4.241   0.798   2.567
 7317SOL    HW122850   4.253   0.887   2.610
 7317SOL    HW222851   4.170   0.804   2.496
 7318SOL     OW22852   0.970   1.641   1.700
 7318SOL    HW122853   0.964   1.693   1.614
 7318SOL    HW222854   0.931   1.695   1.774
 7319SOL     OW22855   6.452   4.531   0.004
 7319SOL    HW122856   6.431   4.457   0.068
 7319SOL    HW222857   6.367   4.561   6.983
 7320SOL     OW22858   6.994   3.621   2.215
 7320SOL    HW122859   6.899   3.618   2.184
 7320SOL    HW222860   0.030   3.643   2.139
 7321SOL     OW22861   2.429   1.103   4.958
 7321SOL    HW122862   2.376   1.049   4.892
 7321SOL    HW222863   2.419   1.200   4.938
 7322SOL     OW22864   1.601   3.381   3.034
 7322SOL    HW122865   1.596   3.478   3.010
 7322SOL    HW222866   1.550   3.328   2.966
 7323SOL     OW22867   1.413   2.277   3.042
 7323SOL    HW122868   1.409   2.361   3.096
 7323SOL    HW222869   1.454   2.204   3.097
 7324SOL     OW22870   5.402   0.392   3.187
 7324SOL    HW122871   5.373   0.456   3.257
 7324SOL    HW222872   5.493   0.357   3.209
 7325SOL     OW22873   4.237   6.754   6.088
 7325SOL    HW122874   4.320   6.703   6.110
 7325SOL    HW222875   4.158   6.709   6.130
 7326SOL     OW22876   2.573   6.275   5.145
 7326SOL    HW122877   2.663   6.254   5.106
 7326SOL    HW222878   2.503   6.264   5.076
 7327SOL     OW22879   0.644   3.032   5.702
 7327SOL    HW122880   0.583   3.022   5.624
 7327SOL    HW222881   0.729   3.076   5.673
 7328SOL     OW22882   3.343   0.482   0.133
 7328SOL    HW122883   3.319   0.544   0.207
 7328SOL    HW222884   3.307   0.518   0.046
 7329SOL     OW22885   4.281   3.349   0.834
 7329SOL    HW122886   4.329   3.262   0.828
 7329SOL    HW222887   4.236   3.357   0.923
 7330SOL     OW22888   3.148   1.617   0.107
 7330SOL    HW122889   3.203   1.535   0.123
 7330SOL    HW222890   3.110   1.649   0.194
 7331SOL     OW22891   5.134   1.085   1.849
 7331SOL    HW122892   5.112   1.138   1.931
 7331SOL    HW222893   5.196   1.010   1.874
 7332SOL     OW22894   2.677   5.970   0.246
 7332SOL    HW122895   2.607   6.036   0.217
 7332SOL    HW222896   2.768   6.009   0.229
 7333SOL     OW22897   0.712   4.519   3.849
 7333SOL    HW122898   0.756   4.443   3.897
 7333SOL    HW222899   0.781   4.578   3.808
 7334SOL     OW22900   3.956   5.677   5.524
 7334SOL    HW122901   3.979   5.772   5.499
 7334SOL    HW222902   3.918   5.631   5.444
 7335SOL     OW22903   1.502   2.438   2.606
 7335SOL    HW122904   1.435   2.465   2.537
 7335SOL    HW222905   1.589   2.482   2.587
 7336SOL     OW22906   1.590   6.189   4.054
 7336SOL    HW122907   1.601   6.092   4.078
 7336SOL    HW222908   1.677   6.224   4.019
 7337SOL     OW22909   1.505   2.791   2.319
 7337SOL    HW122910   1.448   2.733   2.261
 7337SOL    HW222911   1.491   2.887   2.294
 7338SOL     OW22912   6.469   2.598   1.590
 7338SOL    HW122913   6.488   2.664   1.663
 7338SOL    HW222914   6.549   2.541   1.574
 7339SOL     OW22915   6.271   6.218   4.150
 7339SOL    HW122916   6.257   6.218   4.249
 7339SOL    HW222917   6.220   6.142   4.110
 7340SOL     OW22918   2.251   0.498   0.223
 7340SOL    HW122919   2.297   0.577   0.182
 7340SOL    HW222920   2.155   0.497   0.193
 7341SOL     OW22921   6.281   1.959   0.529
 7341SOL    HW122922   6.224   2.016   0.470
 7341SOL    HW222923   6.280   1.996   0.622
 7342SOL     OW22924   6.331   0.078   2.440
 7342SOL    HW122925   6.261   0.011   2.412
 7342SOL    HW222926   6.399   0.033   2.498
 7343SOL     OW22927   4.567   2.441   0.124
 7343SOL    HW122928   4.619   2.463   0.042
 7343SOL    HW222929   4.604   2.357   0.165
 7344SOL     OW22930   1.226   6.332   5.810
 7344SOL    HW122931   1.262   6.272   5.881
 7344SOL    HW222932   1.270   6.422   5.817
 7345SOL     OW22933   3.538   3.247   5.628
 7345SOL    HW122934   3.445   3.261   5.594
 7345SOL    HW222935   3.603   3.257   5.553
 7346SOL     OW22936   3.520   6.211   2.664
 7346SOL    HW122937   3.443   6.219   2.601
 7346SOL    HW222938   3.508   6.276   2.739
 7347SOL     OW22939   6.812   2.168   0.458
 7347SOL    HW122940   6.740   2.098   0.462
 7347SOL    HW222941   6.836   2.195   0.551
 7348SOL     OW22942   1.660   4.354   3.475
 7348SOL    HW122943   1.692   4.360   3.381
 7348SOL    HW222944   1.604   4.271   3.485
 7349SOL     OW22945   4.010   0.204   1.233
 7349SOL    HW122946   3.943   0.269   1.269
 7349SOL    HW222947   4.044   0.236   1.145
 7350SOL     OW22948   2.641   0.568   5.080
 7350SOL    HW122949   2.626   0.607   4.989
 7350SOL    HW222950   2.684   0.637   5.138
 7351SOL     OW22951   4.793   5.068   3.715
 7351SOL    HW122952   4.740   5.149   3.688
 7351SOL    HW222953   4.790   5.059   3.815
 7352SOL     OW22954   0.574   2.217   3.359
 7352SOL    HW122955   0.494   2.185   3.409
 7352SOL    HW222956   0.574   2.317   3.355
 7353SOL     OW22957   6.130   0.188   6.725
 7353SOL    HW122958   6.051   0.217   6.672
 7353SOL    HW222959   6.193   0.137   6.666
 7354SOL     OW22960   1.756   1.395   3.296
 7354SOL    HW122961   1.774   1.323   3.363
 7354SOL    HW222962   1.728   1.353   3.210
 7355SOL     OW22963   7.011   1.752   6.732
 7355SOL    HW122964   0.013   1.700   6.813
 7355SOL    HW222965   0.045   1.833   6.724
 7356SOL     OW22966   3.732   3.383   5.823
 7356SOL    HW122967   3.695   3.361   5.733
 7356SOL    HW222968   3.829   3.358   5.826
 7357SOL     OW22969   4.978   5.799   1.466
 7357SOL    HW122970   4.923   5.718   1.444
 7357SOL    HW222971   5.072   5.771   1.484
 7358SOL     OW22972   6.260   2.566   2.038
 7358SOL    HW122973   6.270   2.521   1.949
 7358SOL    HW222974   6.338   2.627   2.053
 7359SOL     OW22975   4.334   0.709   6.055
 7359SOL    HW122976   4.411   0.685   5.995
 7359SOL    HW222977   4.344   0.804   6.084
 7360SOL     OW22978   2.677   3.394   5.429
 7360SOL    HW122979   2.719   3.309   5.397
 7360SOL    HW222980   2.582   3.397   5.400
 7361SOL     OW22981   4.966   0.172   2.369
 7361SOL    HW122982   4.952   0.091   2.425
 7361SOL    HW222983   5.031   0.233   2.415
 7362SOL     OW22984   4.028   5.468   5.948
 7362SOL    HW122985   3.997   5.442   6.040
 7362SOL    HW222986   3.955   5.516   5.900
 7363SOL     OW22987   4.085   1.129   1.252
 7363SOL    HW122988   4.095   1.031   1.233
 7363SOL    HW222989   3.989   1.151   1.262
 7364SOL     OW22990   4.151   6.968   1.576
 7364SOL    HW122991   4.210   6.948   1.654
 7364SOL    HW222992   4.095   6.888   1.556
 7365SOL     OW22993   6.092   4.616   2.382
 7365SOL    HW122994   6.073   4.686   2.451
 7365SOL    HW222995   6.151   4.545   2.422
 7366SOL     OW22996   2.513   0.926   4.344
 7366SOL    HW122997   2.431   0.872   4.327
 7366SOL    HW222998   2.510   1.010   4.290
 7367SOL     OW22999   4.761   1.631   6.484
 7367SOL    HW123000   4.843   1.574   6.487
 7367SOL    HW223001   4.714   1.627   6.572
 7368SOL     OW23002   3.938   3.427   2.800
 7368SOL    HW123003   3.867   3.389   2.742
 7368SOL    HW223004   4.028   3.409   2.760
 7369SOL     OW23005   4.443   2.872   0.149
 7369SOL    HW123006   4.396   2.857   0.236
 7369SOL    HW223007   4.381   2.851   0.074
 7370SOL     OW23008   2.380   1.624   4.849
 7370SOL    HW123009   2.462   1.682   4.842
 7370SOL    HW223010   2.310   1.672   4.901
 7371SOL     OW23011   4.183   0.081   3.338
 7371SOL    HW123012   4.259   0.130   3.296
 7371SOL    HW223013   4.131   0.143   3.397
 7372SOL     OW23014   3.818   0.406   4.616
 7372SOL    HW123015   3.763   0.490   4.618
 7372SOL    HW223016   3.819   0.365   4.708
 7373SOL     OW23017   4.676   2.018   4.801
 7373SOL    HW123018   4.749   2.072   4.759
 7373SOL    HW223019   4.698   2.002   4.897
 7374SOL     OW23020   1.016   1.453   4.823
 7374SOL    HW123021   0.956   1.533   4.825
 7374SOL    HW223022   1.045   1.431   4.916
 7375SOL     OW23023   2.234   2.977   2.375
 7375SOL    HW123024   2.296   3.013   2.306
 7375SOL    HW223025   2.205   3.051   2.436
 7376SOL     OW23026   0.705   3.572   0.858
 7376SOL    HW123027   0.644   3.584   0.936
 7376SOL    HW223028   0.799   3.559   0.891
 7377SOL     OW23029   3.243   5.402   0.651
 7377SOL    HW123030   3.275   5.428   0.559
 7377SOL    HW223031   3.161   5.455   0.673
 7378SOL     OW23032   1.898   6.299   4.209
 7378SOL    HW123033   1.945   6.379   4.248
 7378SOL    HW223034   1.817   6.329   4.159
 7379SOL     OW23035   4.120   0.733   1.434
 7379SOL    HW123036   4.112   0.730   1.534
 7379SOL    HW223037   4.053   0.797   1.397
 7380SOL     OW23038   6.029   4.082   3.280
 7380SOL    HW123039   6.046   4.052   3.186
 7380SOL    HW223040   6.117   4.102   3.324
 7381SOL     OW23041   4.086   1.428   0.053
 7381SOL    HW123042   4.006   1.431   0.113
 7381SOL    HW223043   4.134   1.516   0.057
 7382SOL     OW23044   0.392   1.937   6.057
 7382SOL    HW123045   0.443   1.901   5.979
 7382SOL    HW223046   0.296   1.913   6.048
 7383SOL     OW23047   1.483   0.032   1.922
 7383SOL    HW123048   1.560   0.026   1.858
 7383SOL    HW223049   1.510   7.013   2.008
 7384SOL     OW23050   0.907   0.098   0.876
 7384SOL    HW123051   0.967   0.042   0.820
 7384SOL    HW223052   0.820   0.052   0.889
 7385SOL     OW23053   4.042   5.404   2.774
 7385SOL    HW123054   4.019   5.471   2.704
 7385SOL    HW223055   4.002   5.316   2.749
 7386SOL     OW23056   6.259   3.283   0.764
 7386SOL    HW123057   6.183   3.348   0.767
 7386SOL    HW223058   6.252   3.220   0.842
 7387SOL     OW23059   6.494   4.684   5.630
 7387SOL    HW123060   6.400   4.668   5.598
 7387SOL    HW223061   6.492   4.709   5.727
 7388SOL     OW23062   1.577   6.501   2.144
 7388SOL    HW123063   1.498   6.440   2.149
 7388SOL    HW223064   1.546   6.596   2.156
 7389SOL     OW23065   6.727   3.191   0.514
 7389SOL    HW123066   6.649   3.225   0.567
 7389SOL    HW223067   6.809   3.192   0.571
 7390SOL     OW23068   2.113   1.643   3.169
 7390SOL    HW123069   2.083   1.655   3.264
 7390SOL    HW223070   2.087   1.552   3.137
 7391SOL     OW23071   4.072   3.149   2.513
 7391SOL    HW123072   4.083   3.103   2.425
 7391SOL    HW223073   3.981   3.130   2.549
 7392SOL     OW23074   4.133   5.395   6.682
 7392SOL    HW123075   4.121   5.394   6.781
 7392SOL    HW223076   4.100   5.309   6.644
 7393SOL     OW23077   6.317   4.884   4.474
 7393SOL    HW123078   6.324   4.897   4.375
 7393SOL    HW223079   6.324   4.973   4.519
 7394SOL     OW23080   2.345   2.582   5.829
 7394SOL    HW123081   2.397   2.546   5.907
 7394SOL    HW223082   2.247   2.568   5.845
 7395SOL     OW23083   2.652   4.096   0.997
 7395SOL    HW123084   2.700   4.028   1.052
 7395SOL    HW223085   2.687   4.094   0.903
 7396SOL     OW23086   2.919   5.296   1.726
 7396SOL    HW123087   2.904   5.258   1.636
 7396SOL    HW223088   3.009   5.268   1.760
 7397SOL     OW23089   5.569   3.611   4.244
 7397SOL    HW123090   5.584   3.709   4.257
 7397SOL    HW223091   5.655   3.567   4.219
 7398SOL     OW23092   1.791   4.572   3.027
 7398SOL    HW123093   1.815   4.514   3.105
 7398SOL    HW223094   1.766   4.514   2.950
 7399SOL     OW23095   5.453   2.276   4.989
 7399SOL    HW123096   5.376   2.295   5.050
 7399SOL    HW223097   5.508   2.359   4.977
 7400SOL     OW23098   5.494   2.422   5.468
 7400SOL    HW123099   5.410   2.369   5.480
 7400SOL    HW223100   5.495   2.499   5.531
 7401SOL     OW23101   1.553   2.813   3.503
 7401SOL    HW123102   1.474   2.869   3.479
 7401SOL    HW223103   1.637   2.863   3.482
 7402SOL     OW23104   2.816   5.684   5.119
 7402SOL    HW123105   2.725   5.703   5.082
 7402SOL    HW223106   2.882   5.748   5.079
 7403SOL     OW23107   1.206   2.711   3.991
 7403SOL    HW123108   1.203   2.633   4.052
 7403SOL    HW223109   1.122   2.765   4.001
 7404SOL     OW23110   2.792   3.607   1.268
 7404SOL    HW123111   2.851   3.542   1.222
 7404SOL    HW223112   2.778   3.579   1.363
 7405SOL     OW23113   3.099   5.628   5.366
 7405SOL    HW123114   3.022   5.572   5.338
 7405SOL    HW223115   3.086   5.722   5.335
 7406SOL     OW23116   0.560   0.649   4.894
 7406SOL    HW123117   0.578   0.720   4.827
 7406SOL    HW223118   0.519   0.570   4.849
 7407SOL     OW23119   0.580   5.819   6.763
 7407SOL    HW123120   0.544   5.896   6.817
 7407SOL    HW223121   0.679   5.813   6.776
 7408SOL     OW23122   3.593   3.902   5.417
 7408SOL    HW123123   3.564   3.981   5.363
 7408SOL    HW223124   3.640   3.836   5.357
 7409SOL     OW23125   6.536   4.164   0.730
 7409SOL    HW123126   6.524   4.248   0.782
 7409SOL    HW223127   6.448   4.136   0.691
 7410SOL     OW23128   6.998   0.033   1.350
 7410SOL    HW123129   7.018   6.963   1.319
 7410SOL    HW223130   6.936   0.029   1.428
 7411SOL     OW23131   0.819   2.024   5.856
 7411SOL    HW123132   0.838   2.098   5.791
 7411SOL    HW223133   0.783   2.063   5.941
 7412SOL     OW23134   4.016   6.991   0.151
 7412SOL    HW123135   3.990   0.054   0.193
 7412SOL    HW223136   3.968   6.916   0.196
 7413SOL     OW23137   4.206   5.819   3.389
 7413SOL    HW123138   4.260   5.749   3.437
 7413SOL    HW223139   4.138   5.775   3.331
 7414SOL     OW23140   2.138   2.139   4.466
 7414SOL    HW123141   2.152   2.063   4.529
 7414SOL    HW223142   2.217   2.146   4.405
 7415SOL     OW23143   4.029   6.599   6.675
 7415SOL    HW123144   3.941   6.623   6.717
 7415SOL    HW223145   4.033   6.635   6.582
 7416SOL     OW23146   0.847   1.882   2.687
 7416SOL    HW123147   0.768   1.881   2.626
 7416SOL    HW223148   0.825   1.933   2.770
 7417SOL     OW23149   1.072   1.978   3.813
 7417SOL    HW123150   1.067   2.055   3.877
 7417SOL    HW223151   0.990   1.921   3.824
 7418SOL     OW23152   1.523   3.680   6.174
 7418SOL    HW123153   1.580   3.618   6.228
 7418SOL    HW223154   1.436   3.636   6.153
 7419SOL     OW23155   6.356   4.098   3.870
 7419SOL    HW123156   6.430   4.119   3.935
 7419SOL    HW223157   6.365   4.004   3.839
 7420SOL     OW23158   6.890   0.028   2.015
 7420SOL    HW123159   6.801   0.071   2.032
 7420SOL    HW223160   6.923   7.011   2.099
 7421SOL     OW23161   4.659   3.855   1.636
 7421SOL    HW123162   4.593   3.929   1.650
 7421SOL    HW223163   4.609   3.769   1.623
 7422SOL     OW23164   5.980   2.619   1.857
 7422SOL    HW123165   5.946   2.699   1.905
 7422SOL    HW223166   6.067   2.643   1.812
 7423SOL     OW23167   5.553   2.160   5.523
 7423SOL    HW123168   5.459   2.170   5.556
 7423SOL    HW223169   5.585   2.246   5.486
 7424SOL     OW23170   7.019   0.886   5.014
 7424SOL    HW123171   0.027   0.852   4.926
 7424SOL    HW223172   0.074   0.900   5.074
 7425SOL     OW23173   5.594   6.938   0.716
 7425SOL    HW123174   5.601   6.866   0.647
 7425SOL    HW223175   5.531   7.009   0.683
 7426SOL     OW23176   3.517   2.813   5.747
 7426SOL    HW123177   3.518   2.911   5.765
 7426SOL    HW223178   3.610   2.778   5.747
 7427SOL     OW23179   3.725   1.445   3.660
 7427SOL    HW123180   3.722   1.354   3.618
 7427SOL    HW223181   3.640   1.494   3.639
 7428SOL     OW23182   4.546   6.627   5.603
 7428SOL    HW123183   4.521   6.604   5.697
 7428SOL    HW223184   4.552   6.542   5.550
 7429SOL     OW23185   1.705   0.170   2.853
 7429SOL    HW123186   1.772   0.106   2.892
 7429SOL    HW223187   1.741   0.263   2.857
 7430SOL     OW23188   6.692   5.166   3.046
 7430SOL    HW123189   6.611   5.112   3.070
 7430SOL    HW223190   6.734   5.201   3.130
 7431SOL     OW23191   1.931   2.525   4.735
 7431SOL    HW123192   1.847   2.524   4.680
 7431SOL    HW223193   1.955   2.620   4.757
 7432SOL     OW23194   1.715   0.031   3.573
 7432SOL    HW123195   1.789   7.000   3.535
 7432SOL    HW223196   1.732   0.128   3.556
 7433SOL     OW23197   2.987   6.636   6.862
 7433SOL    HW123198   2.957   6.712   6.804
 7433SOL    HW223199   2.954   6.550   6.824
 7434SOL     OW23200   4.232   6.063   5.547
 7434SOL    HW123201   4.141   6.047   5.509
 7434SOL    HW223202   4.274   5.975   5.569
 7435SOL     OW23203   4.989   6.274   3.059
 7435SOL    HW123204   5.054   6.335   3.013
 7435SOL    HW223205   4.931   6.328   3.120
 7436SOL     OW23206   5.029   3.501   6.172
 7436SOL    HW123207   4.934   3.531   6.168
 7436SOL    HW223208   5.032   3.402   6.186
 7437SOL     OW23209   4.362   6.314   1.314
 7437SOL    HW123210   4.396   6.231   1.357
 7437SOL    HW223211   4.431   6.350   1.251
 7438SOL     OW23212   2.490   1.029   0.083
 7438SOL    HW123213   2.542   0.944   0.093
 7438SOL    HW223214   2.483   1.053   7.010
 7439SOL     OW23215   1.368   4.681   6.414
 7439SOL    HW123216   1.371   4.632   6.327
 7439SOL    HW223217   1.277   4.720   6.428
 7440SOL     OW23218   5.010   2.895   3.836
 7440SOL    HW123219   5.046   2.903   3.743
 7440SOL    HW223220   5.065   2.831   3.889
 7441SOL     OW23221   6.306   6.481   1.920
 7441SOL    HW123222   6.361   6.488   1.836
 7441SOL    HW223223   6.323   6.393   1.963
 7442SOL     OW23224   5.373   0.304   5.518
 7442SOL    HW123225   5.408   0.217   5.483
 7442SOL    HW223226   5.360   0.367   5.442
 7443SOL     OW23227   0.015   6.750   2.076
 7443SOL    HW123228   0.015   6.838   2.123
 7443SOL    HW223229   0.077   6.754   1.998
 7444SOL     OW23230   0.845   6.832   6.111
 7444SOL    HW123231   0.802   6.871   6.192
 7444SOL    HW223232   0.940   6.808   6.133
 7445SOL     OW23233   4.527   6.109   2.161
 7445SOL    HW123234   4.512   6.145   2.253
 7445SOL    HW223235   4.547   6.184   2.098
 7446SOL     OW23236   5.313   3.369   6.908
 7446SOL    HW123237   5.403   3.343   6.940
 7446SOL    HW223238   5.291   3.461   6.938
 7447SOL     OW23239   0.558   4.568   1.264
 7447SOL    HW123240   0.643   4.542   1.310
 7447SOL    HW223241   0.494   4.491   1.266
 7448SOL     OW23242   4.629   5.357   6.129
 7448SOL    HW123243   4.598   5.419   6.058
 7448SOL    HW223244   4.682   5.283   6.088
 7449SOL     OW23245   0.486   4.267   6.808
 7449SOL    HW123246   0.405   4.323   6.791
 7449SOL    HW223247   0.526   4.237   6.722
 7450SOL     OW23248   5.484   1.885   5.561
 7450SOL    HW123249   5.504   1.980   5.536
 7450SOL    HW223250   5.386   1.867   5.551
 7451SOL     OW23251   5.511   4.925   2.336
 7451SOL    HW123252   5.443   4.859   2.368
 7451SOL    HW223253   5.600   4.880   2.329
 7452SOL     OW23254   5.306   6.132   5.189
 7452SOL    HW123255   5.314   6.097   5.283
 7452SOL    HW223256   5.246   6.212   5.188
 7453SOL     OW23257   4.240   5.682   6.358
 7453SOL    HW123258   4.146   5.663   6.384
 7453SOL    HW223259   4.271   5.615   6.291
 7454SOL     OW23260   3.795   2.359   0.640
 7454SOL    HW123261   3.846   2.440   0.612
 7454SOL    HW223262   3.704   2.361   0.598
 7455SOL     OW23263   6.499   2.843   2.671
 7455SOL    HW123264   6.413   2.840   2.721
 7455SOL    HW223265   6.491   2.792   2.586
 7456SOL     OW23266   3.071   2.303   5.578
 7456SOL    HW123267   3.088   2.271   5.671
 7456SOL    HW223268   3.149   2.281   5.520
 7457SOL     OW23269   3.095   0.069   2.690
 7457SOL    HW123270   3.102   7.023   2.761
 7457SOL    HW223271   3.001   0.103   2.686
 7458SOL     OW23272   0.857   6.479   5.326
 7458SOL    HW123273   0.808   6.566   5.328
 7458SOL    HW223274   0.921   6.475   5.403
 7459SOL     OW23275   6.239   0.974   2.902
 7459SOL    HW123276   6.256   0.994   2.999
 7459SOL    HW223277   6.263   1.055   2.848
 7460SOL     OW23278   1.221   0.240   1.191
 7460SOL    HW123279   1.174   0.326   1.211
 7460SOL    HW223280   1.240   0.192   1.277
 7461SOL     OW23281   0.774   5.655   5.937
 7461SOL    HW123282   0.775   5.737   5.994
 7461SOL    HW223283   0.867   5.622   5.925
 7462SOL     OW23284   1.341   5.336   1.283
 7462SOL    HW123285   1.365   5.376   1.371
 7462SOL    HW223286   1.278   5.259   1.298
 7463SOL     OW23287   4.205   4.738   6.951
 7463SOL    HW123288   4.127   4.785   6.992
 7463SOL    HW223289   4.178   4.700   6.862
 7464SOL     OW23290   6.689   6.130   5.436
 7464SOL    HW123291   6.759   6.191   5.473
 7464SOL    HW223292   6.673   6.152   5.340
 7465SOL     OW23293   2.565   5.208   0.252
 7465SOL    HW123294   2.649   5.231   0.301
 7465SOL    HW223295   2.578   5.222   0.154
 7466SOL     OW23296   0.362   6.696   4.341
 7466SOL    HW123297   0.352   6.652   4.430
 7466SOL    HW223298   0.289   6.665   4.280
 7467SOL     OW23299   0.402   3.474   6.043
 7467SOL    HW123300   0.468   3.449   6.113
 7467SOL    HW223301   0.337   3.399   6.029
 7468SOL     OW23302   5.750   3.187   5.599
 7468SOL    HW123303   5.758   3.192   5.499
 7468SOL    HW223304   5.720   3.096   5.626
 7469SOL     OW23305   6.824   2.784   0.707
 7469SOL    HW123306   6.893   2.809   0.638
 7469SOL    HW223307   6.824   2.854   0.779
 7470SOL     OW23308   5.571   3.422   3.981
 7470SOL    HW123309   5.550   3.514   4.016
 7470SOL    HW223310   5.490   3.364   3.990
 7471SOL     OW23311   5.895   5.373   6.636
 7471SOL    HW123312   5.840   5.403   6.714
 7471SOL    HW223313   5.836   5.330   6.568
 7472SOL     OW23314   6.328   6.239   5.480
 7472SOL    HW123315   6.346   6.186   5.396
 7472SOL    HW223316   6.339   6.179   5.559
 7473SOL     OW23317   4.255   6.634   3.759
 7473SOL    HW123318   4.315   6.596   3.830
 7473SOL    HW223319   4.179   6.682   3.803
 7474SOL     OW23320   6.242   1.797   5.962
 7474SOL    HW123321   6.284   1.863   5.899
 7474SOL    HW223322   6.313   1.738   6.000
 7475SOL     OW23323   4.660   2.620   1.120
 7475SOL    HW123324   4.637   2.625   1.023
 7475SOL    HW223325   4.594   2.562   1.167
 7476SOL     OW23326   2.447   0.976   2.943
 7476SOL    HW123327   2.477   0.935   3.030
 7476SOL    HW223328   2.420   0.903   2.880
 7477SOL     OW23329   0.912   4.034   5.570
 7477SOL    HW123330   0.829   3.978   5.570
 7477SOL    HW223331   0.888   4.130   5.557
 7478SOL     OW23332   0.322   1.712   5.065
 7478SOL    HW123333   0.339   1.763   4.980
 7478SOL    HW223334   0.233   1.668   5.060
 7479SOL     OW23335   6.358   3.169   6.864
 7479SOL    HW123336   6.330   3.191   6.771
 7479SOL    HW223337   6.303   3.093   6.899
 7480SOL     OW23338   3.706   4.877   2.239
 7480SOL    HW123339   3.662   4.840   2.158
 7480SOL    HW223340   3.652   4.854   2.320
 7481SOL     OW23341   6.900   4.142   6.847
 7481SOL    HW123342   6.832   4.074   6.872
 7481SOL    HW223343   6.991   4.110   6.872
 7482SOL     OW23344   4.118   2.086   2.310
 7482SOL    HW123345   4.089   2.014   2.247
 7482SOL    HW223346   4.218   2.091   2.311
 7483SOL     OW23347   4.461   2.481   5.617
 7483SOL    HW123348   4.423   2.389   5.625
 7483SOL    HW223349   4.409   2.534   5.550
 7484SOL     OW23350   3.194   6.884   4.452
 7484SOL    HW123351   3.126   6.812   4.466
 7484SOL    HW223352   3.192   6.947   4.530
 7485SOL     OW23353   2.732   0.033   3.942
 7485SOL    HW123354   2.694   6.992   3.876
 7485SOL    HW223355   2.829   0.014   3.956
 7486SOL     OW23356   1.870   6.514   0.318
 7486SOL    HW123357   1.964   6.498   0.346
 7486SOL    HW223358   1.868   6.573   0.237
 7487SOL     OW23359   4.069   6.663   3.504
 7487SOL    HW123360   4.027   6.572   3.500
 7487SOL    HW223361   4.156   6.657   3.554
 7488SOL     OW23362   0.806   5.741   3.682
 7488SOL    HW123363   0.880   5.713   3.744
 7488SOL    HW223364   0.723   5.689   3.703
 7489SOL     OW23365   6.321   3.910   6.585
 7489SOL    HW123366   6.305   3.969   6.664
 7489SOL    HW223367   6.372   3.829   6.614
 7490SOL     OW23368   1.176   2.020   2.625
 7490SOL    HW123369   1.273   2.006   2.647
 7490SOL    HW223370   1.122   2.016   2.709
 7491SOL     OW23371   4.208   3.086   6.947
 7491SOL    HW123372   4.203   3.143   0.005
 7491SOL    HW223373   4.205   3.143   6.866
 7492SOL     OW23374   1.263   0.382   4.543
 7492SOL    HW123375   1.335   0.353   4.606
 7492SOL    HW223376   1.278   0.477   4.517
 7493SOL     OW23377   6.084   3.878   5.130
 7493SOL    HW123378   6.178   3.898   5.102
 7493SOL    HW223379   6.059   3.936   5.207
 7494SOL     OW23380   5.790   1.681   2.787
 7494SOL    HW123381   5.754   1.637   2.869
 7494SOL    HW223382   5.719   1.738   2.746
 7495SOL     OW23383   2.194   3.873   4.762
 7495SOL    HW123384   2.156   3.906   4.848
 7495SOL    HW223385   2.244   3.788   4.777
 7496SOL     OW23386   5.897   4.052   2.525
 7496SOL    HW123387   5.804   4.051   2.564
 7496SOL    HW223388   5.962   4.022   2.595
 7497SOL     OW23389   0.566   6.681   0.600
 7497SOL    HW123390   0.482   6.729   0.625
 7497SOL    HW223391   0.546   6.584   0.587
 7498SOL     OW23392   3.393   0.050   2.861
 7498SOL    HW123393   3.372   6.982   2.829
 7498SOL    HW223394   3.309   0.097   2.887
 7499SOL     OW23395   3.567   2.046   3.685
 7499SOL    HW123396   3.634   1.976   3.660
 7499SOL    HW223397   3.587   2.079   3.777
 7500SOL     OW23398   4.480   6.732   3.076
 7500SOL    HW123399   4.469   6.633   3.077
 7500SOL    HW223400   4.398   6.774   3.116
 7501SOL     OW23401   6.041   2.235   4.866
 7501SOL    HW123402   5.973   2.304   4.840
 7501SOL    HW223403   6.024   2.206   4.960
 7502SOL     OW23404   3.911   0.284   4.218
 7502SOL    HW123405   3.987   0.224   4.242
 7502SOL    HW223406   3.926   0.374   4.258
 7503SOL     OW23407   2.057   6.096   1.369
 7503SOL    HW123408   2.053   6.177   1.311
 7503SOL    HW223409   2.109   6.117   1.452
 7504SOL     OW23410   6.633   6.655   3.537
 7504SOL    HW123411   6.656   6.620   3.628
 7504SOL    HW223412   6.659   6.751   3.530
 7505SOL     OW23413   0.745   0.089   5.259
 7505SOL    HW123414   0.799   0.023   5.207
 7505SOL    HW223415   0.648   0.074   5.241
 7506SOL     OW23416   2.550   1.343   3.397
 7506SOL    HW123417   2.526   1.257   3.443
 7506SOL    HW223418   2.642   1.336   3.360
 7507SOL     OW23419   6.162   3.616   4.722
 7507SOL    HW123420   6.167   3.637   4.819
 7507SOL    HW223421   6.140   3.519   4.709
 7508SOL     OW23422   1.797   5.632   0.091
 7508SOL    HW123423   1.755   5.654   0.003
 7508SOL    HW223424   1.823   5.716   0.138
 7509SOL     OW23425   5.074   4.026   0.063
 7509SOL    HW123426   4.992   4.001   0.114
 7509SOL    HW223427   5.152   4.030   0.124
 7510SOL     OW23428   3.311   4.164   3.692
 7510SOL    HW123429   3.237   4.106   3.725
 7510SOL    HW223430   3.378   4.178   3.765
 7511SOL     OW23431   3.529   5.590   2.826
 7511SOL    HW123432   3.618   5.545   2.835
 7511SOL    HW223433   3.520   5.661   2.896
 7512SOL     OW23434   3.325   6.579   6.034
 7512SOL    HW123435   3.298   6.649   5.967
 7512SOL    HW223436   3.272   6.496   6.019
 7513SOL     OW23437   1.564   2.127   3.293
 7513SOL    HW123438   1.655   2.098   3.263
 7513SOL    HW223439   1.569   2.161   3.387
 7514SOL     OW23440   2.321   4.166   3.141
 7514SOL    HW123441   2.259   4.166   3.063
 7514SOL    HW223442   2.366   4.076   3.148
 7515SOL     OW23443   0.227   4.008   4.658
 7515SOL    HW123444   0.312   4.059   4.651
 7515SOL    HW223445   0.214   3.975   4.752
 7516SOL     OW23446   1.148   5.412   5.262
 7516SOL    HW123447   1.061   5.460   5.260
 7516SOL    HW223448   1.177   5.399   5.357
 7517SOL     OW23449   0.297   2.084   6.925
 7517SOL    HW123450   0.374   2.099   6.862
 7517SOL    HW223451   0.305   2.146   7.003
 7518SOL     OW23452   4.751   2.783   3.821
 7518SOL    HW123453   4.721   2.723   3.895
 7518SOL    HW223454   4.849   2.799   3.830
 7519SOL     OW23455   3.849   6.865   5.246
 7519SOL    HW123456   3.878   6.854   5.151
 7519SOL    HW223457   3.916   6.920   5.296
 7520SOL     OW23458   1.878   2.378   1.684
 7520SOL    HW123459   1.930   2.320   1.746
 7520SOL    HW223460   1.848   2.324   1.605
 7521SOL     OW23461   4.310   0.993   5.089
 7521SOL    HW123462   4.274   1.053   5.018
 7521SOL    HW223463   4.395   1.031   5.125
 7522SOL     OW23464   1.594   6.515   3.150
 7522SOL    HW123465   1.509   6.566   3.160
 7522SOL    HW223466   1.654   6.535   3.228
 7523SOL     OW23467   5.505   1.552   6.411
 7523SOL    HW123468   5.604   1.569   6.418
 7523SOL    HW223469   5.479   1.481   6.476
 7524SOL     OW23470   0.105   2.685   4.653
 7524SOL    HW123471   0.009   2.709   4.663
 7524SOL    HW223472   0.121   2.644   4.563
 7525SOL     OW23473   4.434   6.032   6.144
 7525SOL    HW123474   4.485   6.084   6.213
 7525SOL    HW223475   4.442   5.934   6.165
 7526SOL     OW23476   2.045   3.436   1.804
 7526SOL    HW123477   2.069   3.436   1.707
 7526SOL    HW223478   2.128   3.435   1.859
 7527SOL     OW23479   3.876   5.453   3.603
 7527SOL    HW123480   3.902   5.379   3.665
 7527SOL    HW223481   3.946   5.462   3.531
 7528SOL     OW23482   6.601   2.892   6.410
 7528SOL    HW123483   6.511   2.893   6.454
 7528SOL    HW223484   6.589   2.877   6.311
 7529SOL     OW23485   6.096   2.487   3.995
 7529SOL    HW123486   6.093   2.391   4.023
 7529SOL    HW223487   6.083   2.493   3.896
 7530SOL     OW23488   6.423   1.787   2.073
 7530SOL    HW123489   6.468   1.741   1.996
 7530SOL    HW223490   6.389   1.718   2.137
 7531SOL     OW23491   4.357   2.025   3.325
 7531SOL    HW123492   4.261   2.045   3.305
 7531SOL    HW223493   4.372   2.030   3.424
 7532SOL     OW23494   4.336   5.585   6.738
 7532SOL    HW123495   4.332   5.485   6.731
 7532SOL    HW223496   4.250   5.624   6.706
 7533SOL     OW23497   4.660   3.529   1.621
 7533SOL    HW123498   4.613   3.545   1.535
 7533SOL    HW223499   4.623   3.448   1.665
 7534SOL     OW23500   4.638   6.851   4.158
 7534SOL    HW123501   4.621   6.756   4.185
 7534SOL    HW223502   4.658   6.905   4.240
 7535SOL     OW23503   0.716   5.342   4.094
 7535SOL    HW123504   0.641   5.277   4.094
 7535SOL    HW223505   0.733   5.374   4.001
 7536SOL     OW23506   4.892   5.608   3.953
 7536SOL    HW123507   4.828   5.536   3.977
 7536SOL    HW223508   4.959   5.573   3.888
 7537SOL     OW23509   3.129   6.175   2.749
 7537SOL    HW123510   3.195   6.123   2.803
 7537SOL    HW223511   3.129   6.270   2.779
 7538SOL     OW23512   0.866   3.778   1.365
 7538SOL    HW123513   0.960   3.750   1.384
 7538SOL    HW223514   0.847   3.768   1.267
 7539SOL     OW23515   0.293   5.937   3.620
 7539SOL    HW123516   0.224   6.008   3.604
 7539SOL    HW223517   0.250   5.860   3.667
 7540SOL     OW23518   5.696   4.994   4.080
 7540SOL    HW123519   5.681   4.914   4.138
 7540SOL    HW223520   5.686   4.968   3.984
 7541SOL     OW23521   0.827   3.926   6.836
 7541SOL    HW123522   0.777   3.884   6.760
 7541SOL    HW223523   0.762   3.971   6.897
 7542SOL     OW23524   5.983   5.101   6.267
 7542SOL    HW123525   6.040   5.159   6.210
 7542SOL    HW223526   6.041   5.051   6.332
 7543SOL     OW23527   2.912   0.764   5.561
 7543SOL    HW123528   2.838   0.828   5.585
 7543SOL    HW223529   2.945   0.785   5.469
 7544SOL     OW23530   0.042   3.062   3.434
 7544SOL    HW123531   0.042   3.084   3.531
 7544SOL    HW223532   6.999   2.990   3.415
 7545SOL     OW23533   0.788   5.104   0.168
 7545SOL    HW123534   0.881   5.129   0.197
 7545SOL    HW223535   0.764   5.015   0.205
 7546SOL     OW23536   2.996   2.986   1.686
 7546SOL    HW123537   3.050   2.974   1.603
 7546SOL    HW223538   3.057   2.991   1.765
 7547SOL     OW23539   4.539   0.357   1.841
 7547SOL    HW123540   4.487   0.273   1.850
 7547SOL    HW223541   4.555   0.397   1.932
 7548SOL     OW23542   4.697   2.427   6.387
 7548SOL    HW123543   4.689   2.374   6.472
 7548SOL    HW223544   4.694   2.365   6.309
 7549SOL     OW23545   4.454   2.628   5.235
 7549SOL    HW123546   4.469   2.727   5.239
 7549SOL    HW223547   4.356   2.609   5.234
 7550SOL     OW23548   1.582   3.880   4.151
 7550SOL    HW123549   1.652   3.808   4.156
 7550SOL    HW223550   1.626   3.969   4.164
 7551SOL     OW23551   6.005   2.308   5.481
 7551SOL    HW123552   5.968   2.355   5.560
 7551SOL    HW223553   6.092   2.265   5.505
 7552SOL     OW23554   2.686   5.944   4.909
 7552SOL    HW123555   2.596   5.952   4.866
 7552SOL    HW223556   2.688   5.863   4.967
 7553SOL     OW23557   5.563   6.047   6.038
 7553SOL    HW123558   5.550   5.961   5.988
 7553SOL    HW223559   5.572   6.027   6.136
 7554SOL     OW23560   5.366   1.052   0.684
 7554SOL    HW123561   5.289   1.078   0.743
 7554SOL    HW223562   5.425   0.988   0.733
 7555SOL     OW23563   3.649   5.432   6.030
 7555SOL    HW123564   3.659   5.528   6.006
 7555SOL    HW223565   3.706   5.377   5.969
 7556SOL     OW23566   0.284   0.157   0.886
 7556SOL    HW123567   0.359   0.152   0.952
 7556SOL    HW223568   0.196   0.155   0.934
 7557SOL     OW23569   4.747   0.322   0.556
 7557SOL    HW123570   4.723   0.248   0.619
 7557SOL    HW223571   4.837   0.304   0.516
 7558SOL     OW23572   1.713   2.433   3.996
 7558SOL    HW123573   1.803   2.395   3.974
 7558SOL    HW223574   1.665   2.455   3.911
 7559SOL     OW23575   4.194   2.259   4.800
 7559SOL    HW123576   4.287   2.228   4.781
 7559SOL    HW223577   4.192   2.307   4.888
 7560SOL     OW23578   6.982   0.574   6.184
 7560SOL    HW123579   7.006   0.643   6.116
 7560SOL    HW223580   6.941   0.620   6.264
 7561SOL     OW23581   5.599   2.120   5.148
 7561SOL    HW123582   5.652   2.193   5.191
 7561SOL    HW223583   5.540   2.158   5.078
 7562SOL     OW23584   1.527   4.831   3.978
 7562SOL    HW123585   1.565   4.902   3.919
 7562SOL    HW223586   1.570   4.744   3.957
 7563SOL     OW23587   3.338   5.774   2.235
 7563SOL    HW123588   3.382   5.686   2.215
 7563SOL    HW223589   3.408   5.842   2.256
 7564SOL     OW23590   5.019   1.191   4.054
 7564SOL    HW123591   5.007   1.106   4.106
 7564SOL    HW223592   5.077   1.253   4.106
 7565SOL     OW23593   5.573   3.238   6.250
 7565SOL    HW123594   5.498   3.249   6.315
 7565SOL    HW223595   5.568   3.310   6.181
 7566SOL     OW23596   3.955   4.110   1.501
 7566SOL    HW123597   3.894   4.189   1.496
 7566SOL    HW223598   4.027   4.128   1.567
 7567SOL     OW23599   0.478   0.399   4.849
 7567SOL    HW123600   0.395   0.430   4.895
 7567SOL    HW223601   0.553   0.396   4.914
 7568SOL     OW23602   5.862   5.426   1.023
 7568SOL    HW123603   5.829   5.492   0.956
 7568SOL    HW223604   5.785   5.388   1.074
 7569SOL     OW23605   4.235   3.793   6.721
 7569SOL    HW123606   4.254   3.813   6.817
 7569SOL    HW223607   4.220   3.878   6.671
 7570SOL     OW23608   6.604   3.024   3.108
 7570SOL    HW123609   6.518   3.026   3.057
 7570SOL    HW223610   6.667   3.093   3.072
 7571SOL     OW23611   4.657   2.721   2.644
 7571SOL    HW123612   4.632   2.646   2.705
 7571SOL    HW223613   4.584   2.789   2.643
 7572SOL     OW23614   4.878   6.037   2.330
 7572SOL    HW123615   4.865   5.941   2.303
 7572SOL    HW223616   4.815   6.058   2.405
 7573SOL     OW23617   5.557   6.367   5.993
 7573SOL    HW123618   5.623   6.326   5.929
 7573SOL    HW223619   5.470   6.318   5.988
 7574SOL     OW23620   0.139   1.399   4.348
 7574SOL    HW123621   0.123   1.305   4.377
 7574SOL    HW223622   0.124   1.406   4.249
 7575SOL     OW23623   6.908   6.161   1.531
 7575SOL    HW123624   6.828   6.178   1.588
 7575SOL    HW223625   6.961   6.246   1.521
 7576SOL     OW23626   5.471   3.117   0.619
 7576SOL    HW123627   5.555   3.088   0.666
 7576SOL    HW223628   5.474   3.085   0.524
 7577SOL     OW23629   0.851   0.366   0.863
 7577SOL    HW123630   0.945   0.394   0.884
 7577SOL    HW223631   0.848   0.266   0.853
 7578SOL     OW23632   6.777   6.042   3.543
 7578SOL    HW123633   6.717   6.118   3.519
 7578SOL    HW223634   6.857   6.043   3.484
 7579SOL     OW23635   6.789   1.312   0.396
 7579SOL    HW123636   6.692   1.287   0.406
 7579SOL    HW223637   6.834   1.246   0.337
 7580SOL     OW23638   2.415   4.855   3.226
 7580SOL    HW123639   2.508   4.887   3.242
 7580SOL    HW223640   2.364   4.857   3.312
 7581SOL     OW23641   6.856   1.030   2.270
 7581SOL    HW123642   6.934   1.016   2.332
 7581SOL    HW223643   6.836   0.946   2.221
 7582SOL     OW23644   3.736   1.589   4.338
 7582SOL    HW123645   3.722   1.593   4.436
 7582SOL    HW223646   3.650   1.607   4.291
 7583SOL     OW23647   4.896   3.437   3.563
 7583SOL    HW123648   4.909   3.382   3.480
 7583SOL    HW223649   4.910   3.533   3.541
 7584SOL     OW23650   0.239   0.715   2.992
 7584SOL    HW123651   0.294   0.797   3.007
 7584SOL    HW223652   0.273   0.665   2.912
 7585SOL     OW23653   0.515   2.391   6.604
 7585SOL    HW123654   0.548   2.322   6.668
 7585SOL    HW223655   0.592   2.449   6.576
 7586SOL     OW23656   1.209   1.397   2.942
 7586SOL    HW123657   1.182   1.371   2.850
 7586SOL    HW223658   1.160   1.480   2.969
 7587SOL     OW23659   3.155   1.477   0.532
 7587SOL    HW123660   3.142   1.484   0.631
 7587SOL    HW223661   3.233   1.417   0.512
 7588SOL     OW23662   1.455   2.704   4.494
 7588SOL    HW123663   1.420   2.747   4.577
 7588SOL    HW223664   1.530   2.759   4.457
 7589SOL     OW23665   6.893   1.016   3.150
 7589SOL    HW123666   6.952   1.042   3.074
 7589SOL    HW223667   6.948   0.972   3.221
 7590SOL     OW23668   0.057   1.532   6.950
 7590SOL    HW123669   0.152   1.512   6.975
 7590SOL    HW223670   0.021   1.601   7.013
 7591SOL     OW23671   4.171   3.140   5.502
 7591SOL    HW123672   4.191   3.236   5.483
 7591SOL    HW223673   4.074   3.123   5.486
 7592SOL     OW23674   0.008   6.368   5.278
 7592SOL    HW123675   7.006   6.437   5.211
 7592SOL    HW223676   0.016   6.279   5.233
 7593SOL     OW23677   0.166   1.468   5.928
 7593SOL    HW123678   0.128   1.406   5.860
 7593SOL    HW223679   0.219   1.415   5.995
 7594SOL     OW23680   0.545   4.235   0.865
 7594SOL    HW123681   0.579   4.327   0.847
 7594SOL    HW223682   0.445   4.236   0.867
 7595SOL     OW23683   6.378   2.616   5.992
 7595SOL    HW123684   6.295   2.638   5.940
 7595SOL    HW223685   6.363   2.534   6.046
 7596SOL     OW23686   2.854   0.718   4.865
 7596SOL    HW123687   2.755   0.732   4.868
 7596SOL    HW223688   2.881   0.692   4.772
 7597SOL     OW23689   1.472   4.575   1.975
 7597SOL    HW123690   1.412   4.654   1.967
 7597SOL    HW223691   1.424   4.501   2.022
 7598SOL     OW23692   5.811   1.038   3.469
 7598SOL    HW123693   5.829   1.016   3.373
 7598SOL    HW223694   5.893   1.020   3.523
 7599SOL     OW23695   3.914   2.901   1.095
 7599SOL    HW123696   3.911   2.864   1.187
 7599SOL    HW223697   3.888   2.998   1.097
 7600SOL     OW23698   1.402   1.139   4.273
 7600SOL    HW123699   1.497   1.147   4.303
 7600SOL    HW223700   1.363   1.054   4.308
 7601SOL     OW23701   3.882   5.850   1.897
 7601SOL    HW123702   3.970   5.894   1.880
 7601SOL    HW223703   3.826   5.854   1.815
 7602SOL     OW23704   0.217   1.702   0.800
 7602SOL    HW123705   0.297   1.726   0.855
 7602SOL    HW223706   0.210   1.765   0.722
 7603SOL     OW23707   2.370   0.347   5.365
 7603SOL    HW123708   2.463   0.356   5.328
 7603SOL    HW223709   2.326   0.267   5.324
 7604SOL     OW23710   0.823   2.455   5.011
 7604SOL    HW123711   0.874   2.397   5.075
 7604SOL    HW223712   0.806   2.544   5.052
 7605SOL     OW23713   2.584   0.189   0.039
 7605SOL    HW123714   2.643   0.200   0.119
 7605SOL    HW223715   2.538   0.276   0.020
 7606SOL     OW23716   6.690   1.814   3.557
 7606SOL    HW123717   6.692   1.895   3.498
 7606SOL    HW223718   6.656   1.736   3.505
 7607SOL     OW23719   2.770   5.668   5.834
 7607SOL    HW123720   2.841   5.629   5.892
 7607SOL    HW223721   2.769   5.621   5.746
 7608SOL     OW23722   6.055   2.957   6.177
 7608SOL    HW123723   6.106   2.948   6.263
 7608SOL    HW223724   6.001   3.041   6.178
 7609SOL     OW23725   0.547   1.960   5.013
 7609SOL    HW123726   0.475   2.010   5.060
 7609SOL    HW223727   0.620   2.023   4.986
 7610SOL     OW23728   3.124   4.648   5.619
 7610SOL    HW123729   3.138   4.591   5.539
 7610SOL    HW223730   3.062   4.723   5.596
 7611SOL     OW23731   4.436   3.322   1.197
 7611SOL    HW123732   4.504   3.353   1.129
 7611SOL    HW223733   4.449   3.225   1.215
 7612SOL     OW23734   2.792   1.306   3.264
 7612SOL    HW123735   2.830   1.215   3.244
 7612SOL    HW223736   2.827   1.337   3.352
 7613SOL     OW23737   0.707   1.322   2.589
 7613SOL    HW123738   0.650   1.364   2.660
 7613SOL    HW223739   0.687   1.365   2.501
 7614SOL     OW23740   5.223   3.399   0.421
 7614SOL    HW123741   5.172   3.331   0.369
 7614SOL    HW223742   5.262   3.357   0.503
 7615SOL     OW23743   5.331   3.181   4.627
 7615SOL    HW123744   5.371   3.109   4.571
 7615SOL    HW223745   5.292   3.252   4.567
 7616SOL     OW23746   6.735   6.953   3.440
 7616SOL    HW123747   6.639   6.977   3.424
 7616SOL    HW223748   6.769   7.001   3.521
 7617SOL     OW23749   5.578   5.550   3.330
 7617SOL    HW123750   5.586   5.520   3.235
 7617SOL    HW223751   5.575   5.470   3.390
 7618SOL     OW23752   2.815   3.108   0.682
 7618SOL    HW123753   2.887   3.100   0.613
 7618SOL    HW223754   2.747   3.036   0.668
 7619SOL     OW23755   0.502   2.387   4.220
 7619SOL    HW123756   0.512   2.306   4.162
 7619SOL    HW223757   0.550   2.373   4.306
 7620SOL     OW23758   3.908   3.850   1.340
 7620SOL    HW123759   3.888   3.934   1.391
 7620SOL    HW223760   3.996   3.860   1.295
 7621SOL     OW23761   0.414   5.553   1.028
 7621SOL    HW123762   0.381   5.468   0.987
 7621SOL    HW223763   0.412   5.626   0.960
 7622SOL     OW23764   3.199   4.059   0.958
 7622SOL    HW123765   3.270   3.989   0.959
 7622SOL    HW223766   3.234   4.141   0.912
 7623SOL     OW23767   4.834   4.932   1.074
 7623SOL    HW123768   4.799   4.924   0.981
 7623SOL    HW223769   4.876   5.022   1.087
 7624SOL     OW23770   0.720   2.599   1.952
 7624SOL    HW123771   0.636   2.597   1.898
 7624SOL    HW223772   0.798   2.621   1.892
 7625SOL     OW23773   5.040   1.943   0.478
 7625SOL    HW123774   5.071   1.916   0.569
 7625SOL    HW223775   5.057   1.868   0.414
 7626SOL     OW23776   5.290   0.622   5.048
 7626SOL    HW123777   5.344   0.674   4.982
 7626SOL    HW223778   5.289   0.526   5.021
 7627SOL     OW23779   3.373   1.951   6.710
 7627SOL    HW123780   3.412   2.021   6.649
 7627SOL    HW223781   3.416   1.958   6.800
 7628SOL     OW23782   3.297   3.446   0.486
 7628SOL    HW123783   3.393   3.476   0.482
 7628SOL    HW223784   3.248   3.502   0.553
 7629SOL     OW23785   5.833   3.469   4.194
 7629SOL    HW123786   5.914   3.440   4.245
 7629SOL    HW223787   5.848   3.455   4.096
 7630SOL     OW23788   1.386   6.834   5.696
 7630SOL    HW123789   1.455   6.825   5.768
 7630SOL    HW223790   1.423   6.889   5.621
 7631SOL     OW23791   2.050   6.608   5.214
 7631SOL    HW123792   2.094   6.689   5.255
 7631SOL    HW223793   2.006   6.554   5.286
 7632SOL     OW23794   4.639   5.640   0.513
 7632SOL    HW123795   4.585   5.612   0.434
 7632SOL    HW223796   4.587   5.706   0.567
 7633SOL     OW23797   5.987   1.148   0.893
 7633SOL    HW123798   6.068   1.201   0.869
 7633SOL    HW223799   5.907   1.208   0.892
 7634SOL     OW23800   0.553   1.817   0.257
 7634SOL    HW123801   0.467   1.864   0.278
 7634SOL    HW223802   0.630   1.873   0.289
 7635SOL     OW23803   2.601   5.058   6.399
 7635SOL    HW123804   2.559   5.010   6.476
 7635SOL    HW223805   2.656   4.993   6.346
 7636SOL     OW23806   0.742   3.708   4.901
 7636SOL    HW123807   0.728   3.659   4.815
 7636SOL    HW223808   0.816   3.666   4.952
 7637SOL     OW23809   0.527   6.386   4.229
 7637SOL    HW123810   0.581   6.470   4.238
 7637SOL    HW223811   0.499   6.355   4.320
 7638SOL     OW23812   0.689   5.033   1.705
 7638SOL    HW123813   0.740   5.064   1.785
 7638SOL    HW223814   0.671   5.111   1.645
 7639SOL     OW23815   1.485   1.057   7.018
 7639SOL    HW123816   1.507   1.003   0.075
 7639SOL    HW223817   1.395   1.030   6.983
 7640SOL     OW23818   3.149   0.950   6.259
 7640SOL    HW123819   3.121   1.043   6.235
 7640SOL    HW223820   3.182   0.903   6.176
 7641SOL     OW23821   0.238   3.900   3.066
 7641SOL    HW123822   0.236   3.884   2.967
 7641SOL    HW223823   0.173   3.972   3.090
 7642SOL     OW23824   6.289   1.041   3.561
 7642SOL    HW123825   6.263   1.092   3.643
 7642SOL    HW223826   6.379   1.000   3.575
 7643SOL     OW23827   5.220   2.484   3.148
 7643SOL    HW123828   5.254   2.565   3.101
 7643SOL    HW223829   5.123   2.471   3.125
 7644SOL     OW23830   4.896   3.568   1.299
 7644SOL    HW123831   4.884   3.628   1.378
 7644SOL    HW223832   4.861   3.613   1.218
 7645SOL     OW23833   3.022   3.465   6.162
 7645SOL    HW123834   3.000   3.389   6.223
 7645SOL    HW223835   3.009   3.435   6.067
 7646SOL     OW23836   0.454   2.589   3.081
 7646SOL    HW123837   0.399   2.508   3.062
 7646SOL    HW223838   0.417   2.668   3.031
 7647SOL     OW23839   0.151   3.143   5.021
 7647SOL    HW123840   0.061   3.105   5.000
 7647SOL    HW223841   0.144   3.205   5.099
 7648SOL     OW23842   2.580   1.697   2.203
 7648SOL    HW123843   2.519   1.626   2.169
 7648SOL    HW223844   2.540   1.787   2.186
 7649SOL     OW23845   5.843   0.940   5.176
 7649SOL    HW123846   5.747   0.912   5.182
 7649SOL    HW223847   5.861   1.014   5.240
 7650SOL     OW23848   4.120   2.040   0.974
 7650SOL    HW123849   4.201   1.987   0.949
 7650SOL    HW223850   4.044   1.977   0.992
 7651SOL     OW23851   2.262   4.871   5.494
 7651SOL    HW123852   2.173   4.901   5.460
 7651SOL    HW223853   2.283   4.921   5.579
 7652SOL     OW23854   6.168   1.587   3.822
 7652SOL    HW123855   6.126   1.610   3.734
 7652SOL    HW223856   6.268   1.583   3.812
 7653SOL     OW23857   0.512   1.803   6.720
 7653SOL    HW123858   0.600   1.793   6.768
 7653SOL    HW223859   0.437   1.792   6.785
 7654SOL     OW23860   5.809   2.787   6.235
 7654SOL    HW123861   5.757   2.817   6.315
 7654SOL    HW223862   5.891   2.843   6.226
 7655SOL     OW23863   3.334   0.405   3.214
 7655SOL    HW123864   3.349   0.487   3.158
 7655SOL    HW223865   3.356   0.425   3.309
 7656SOL     OW23866   6.640   3.197   6.932
 7656SOL    HW123867   6.661   3.283   6.884
 7656SOL    HW223868   6.542   3.179   6.927
 7657SOL     OW23869   1.506   3.966   4.572
 7657SOL    HW123870   1.591   3.924   4.541
 7657SOL    HW223871   1.431   3.941   4.510
 7658SOL     OW23872   2.799   1.600   0.731
 7658SOL    HW123873   2.819   1.504   0.748
 7658SOL    HW223874   2.726   1.631   0.793
 7659SOL     OW23875   4.207   3.730   5.400
 7659SOL    HW123876   4.268   3.701   5.326
 7659SOL    HW223877   4.261   3.752   5.481
 7660SOL     OW23878   0.140   5.166   4.618
 7660SOL    HW123879   0.083   5.101   4.567
 7660SOL    HW223880   0.204   5.210   4.555
 7661SOL     OW23881   4.818   3.008   5.982
 7661SOL    HW123882   4.797   2.967   6.070
 7661SOL    HW223883   4.903   2.971   5.946
 7662SOL     OW23884   1.110   1.850   2.419
 7662SOL    HW123885   1.119   1.905   2.502
 7662SOL    HW223886   1.014   1.843   2.393
 7663SOL     OW23887   6.265   5.406   5.504
 7663SOL    HW123888   6.174   5.394   5.463
 7663SOL    HW223889   6.259   5.474   5.577
 7664SOL     OW23890   3.606   1.993   2.668
 7664SOL    HW123891   3.524   2.020   2.718
 7664SOL    HW223892   3.595   2.013   2.571
 7665SOL     OW23893   4.137   1.422   4.636
 7665SOL    HW123894   4.049   1.434   4.681
 7665SOL    HW223895   4.164   1.325   4.640
 7666SOL     OW23896   5.592   5.194   4.293
 7666SOL    HW123897   5.526   5.257   4.254
 7666SOL    HW223898   5.605   5.116   4.231
 7667SOL     OW23899   5.094   6.314   1.635
 7667SOL    HW123900   5.068   6.222   1.603
 7667SOL    HW223901   5.023   6.379   1.609
 7668SOL     OW23902   2.191   5.106   1.283
 7668SOL    HW123903   2.250   5.052   1.223
 7668SOL    HW223904   2.240   5.126   1.369
 7669SOL     OW23905   2.795   6.576   5.697
 7669SOL    HW123906   2.795   6.608   5.602
 7669SOL    HW223907   2.887   6.584   5.735
 7670SOL     OW23908   0.034   6.713   0.568
 7670SOL    HW123909   7.012   6.792   0.609
 7670SOL    HW223910   0.011   6.707   0.471
 7671SOL     OW23911   4.666   0.538   1.198
 7671SOL    HW123912   4.599   0.533   1.272
 7671SOL    HW223913   4.710   0.628   1.199
 7672SOL     OW23914   5.638   4.950   3.109
 7672SOL    HW123915   5.575   4.895   3.164
 7672SOL    HW223916   5.732   4.921   3.126
 7673SOL     OW23917   0.548   5.618   3.750
 7673SOL    HW123918   0.458   5.620   3.792
 7673SOL    HW223919   0.579   5.524   3.739
 7674SOL     OW23920   4.120   6.422   4.484
 7674SOL    HW123921   4.094   6.416   4.581
 7674SOL    HW223922   4.194   6.358   4.465
 7675SOL     OW23923   3.905   0.125   2.628
 7675SOL    HW123924   3.887   0.094   2.534
 7675SOL    HW223925   3.996   0.094   2.656
 7676SOL     OW23926   2.862   3.112   5.453
 7676SOL    HW123927   2.898   3.168   5.527
 7676SOL    HW223928   2.923   3.118   5.374
 7677SOL     OW23929   6.013   4.612   1.523
 7677SOL    HW123930   5.926   4.661   1.512
 7677SOL    HW223931   6.067   4.621   1.440
 7678SOL     OW23932   1.153   1.310   5.630
 7678SOL    HW123933   1.142   1.382   5.699
 7678SOL    HW223934   1.207   1.345   5.554
 7679SOL     OW23935   1.479   5.352   5.316
 7679SOL    HW123936   1.512   5.259   5.333
 7679SOL    HW223937   1.436   5.357   5.227
 7680SOL     OW23938   1.876   0.680   5.161
 7680SOL    HW123939   1.911   0.592   5.195
 7680SOL    HW223940   1.777   0.685   5.178
 7681SOL     OW23941   2.740   3.453   6.667
 7681SOL    HW123942   2.689   3.536   6.643
 7681SOL    HW223943   2.835   3.462   6.637
 7682SOL     OW23944   3.098   1.512   2.820
 7682SOL    HW123945   3.187   1.498   2.776
 7682SOL    HW223946   3.068   1.427   2.863
 7683SOL     OW23947   1.016   0.930   4.546
 7683SOL    HW123948   1.002   0.887   4.457
 7683SOL    HW223949   1.037   1.027   4.533
 7684SOL     OW23950   3.999   2.175   1.574
 7684SOL    HW123951   3.906   2.156   1.607
 7684SOL    HW223952   4.039   2.092   1.536
 7685SOL     OW23953   2.911   0.966   0.129
 7685SOL    HW123954   2.862   0.975   0.042
 7685SOL    HW223955   2.852   1.000   0.203
 7686SOL     OW23956   5.814   0.787   4.268
 7686SOL    HW123957   5.889   0.725   4.291
 7686SOL    HW223958   5.835   0.879   4.303
 7687SOL     OW23959   5.349   5.349   4.889
 7687SOL    HW123960   5.418   5.277   4.887
 7687SOL    HW223961   5.262   5.313   4.924
 7688SOL     OW23962   0.682   4.826   6.475
 7688SOL    HW123963   0.701   4.919   6.445
 7688SOL    HW223964   0.767   4.772   6.471
 7689SOL     OW23965   4.735   0.474   1.726
 7689SOL    HW123966   4.663   0.442   1.787
 7689SOL    HW223967   4.824   0.443   1.761
 7690SOL     OW23968   6.435   5.743   1.076
 7690SOL    HW123969   6.484   5.656   1.081
 7690SOL    HW223970   6.345   5.729   1.037
 7691SOL     OW23971   4.646   4.571   2.971
 7691SOL    HW123972   4.739   4.545   2.943
 7691SOL    HW223973   4.584   4.560   2.893
 7692SOL     OW23974   2.019   6.666   2.410
 7692SOL    HW123975   1.974   6.684   2.498
 7692SOL    HW223976   1.951   6.635   2.344
 7693SOL     OW23977   2.643   1.826   1.137
 7693SOL    HW123978   2.662   1.777   1.052
 7693SOL    HW223979   2.728   1.859   1.176
 7694SOL     OW23980   6.015   1.839   5.169
 7694SOL    HW123981   5.947   1.912   5.164
 7694SOL    HW223982   5.978   1.763   5.222
 7695SOL     OW23983   5.826   0.702   2.779
 7695SOL    HW123984   5.833   0.682   2.681
 7695SOL    HW223985   5.882   0.637   2.830
 7696SOL     OW23986   0.441   2.882   6.530
 7696SOL    HW123987   0.419   2.925   6.617
 7696SOL    HW223988   0.379   2.805   6.514
 7697SOL     OW23989   4.485   6.846   2.522
 7697SOL    HW123990   4.547   6.815   2.594
 7697SOL    HW223991   4.532   6.842   2.434
 7698SOL     OW23992   5.873   1.810   6.950
 7698SOL    HW123993   5.895   1.736   6.886
 7698SOL    HW223994   5.816   1.774   7.023
 7699SOL     OW23995   3.484   5.205   5.324
 7699SOL    HW123996   3.527   5.289   5.357
 7699SOL    HW223997   3.423   5.226   5.247
 7700SOL     OW23998   5.065   4.910   2.463
 7700SOL    HW123999   5.026   4.887   2.373
 7700SOL    HW224000   4.999   4.886   2.535
 7701SOL     OW24001   0.283   2.592   6.140
 7701SOL    HW124002   0.228   2.625   6.216
 7701SOL    HW224003   0.308   2.669   6.081
 7702SOL     OW24004   4.848   0.150   4.874
 7702SOL    HW124005   4.782   0.160   4.949
 7702SOL    HW224006   4.939   0.138   4.912
 7703SOL     OW24007   6.338   6.543   4.954
 7703SOL    HW124008   6.385   6.536   5.042
 7703SOL    HW224009   6.396   6.594   4.890
 7704SOL     OW24010   6.454   1.637   4.219
 7704SOL    HW124011   6.438   1.625   4.317
 7704SOL    HW224012   6.404   1.567   4.168
 7705SOL     OW24013   2.342   5.197   0.545
 7705SOL    HW124014   2.318   5.294   0.539
 7705SOL    HW224015   2.302   5.157   0.627
 7706SOL     OW24016   3.680   3.074   2.311
 7706SOL    HW124017   3.592   3.057   2.267
 7706SOL    HW224018   3.701   3.172   2.306
 7707SOL     OW24019   6.827   5.376   6.912
 7707SOL    HW124020   6.849   5.447   6.846
 7707SOL    HW224021   6.892   5.300   6.903
 7708SOL     OW24022   2.604   6.891   4.719
 7708SOL    HW124023   2.550   6.809   4.703
 7708SOL    HW224024   2.583   6.959   4.649
 7709SOL     OW24025   0.320   5.017   1.743
 7709SOL    HW124026   0.403   5.025   1.799
 7709SOL    HW224027   0.269   5.103   1.746
 7710SOL     OW24028   1.019   3.684   0.755
 7710SOL    HW124029   0.965   3.615   0.707
 7710SOL    HW224030   1.109   3.692   0.713
 7711SOL     OW24031   6.933   5.148   5.152
 7711SOL    HW124032   6.889   5.063   5.182
 7711SOL    HW224033   7.001   5.127   5.081
 7712SOL     OW24034   6.527   4.521   6.091
 7712SOL    HW124035   6.569   4.431   6.101
 7712SOL    HW224036   6.439   4.512   6.044
 7713SOL     OW24037   2.197   4.946   0.346
 7713SOL    HW124038   2.106   4.984   0.362
 7713SOL    HW224039   2.205   4.858   0.394
 7714SOL     OW24040   6.611   0.944   4.800
 7714SOL    HW124041   6.534   0.894   4.761
 7714SOL    HW224042   6.617   0.925   4.898
 7715SOL     OW24043   2.784   2.883   5.669
 7715SOL    HW124044   2.789   2.904   5.571
 7715SOL    HW224045   2.726   2.951   5.715
 7716SOL     OW24046   1.044   5.615   5.570
 7716SOL    HW124047   1.110   5.621   5.495
 7716SOL    HW224048   0.965   5.561   5.541
 7717SOL     OW24049   1.251   1.871   6.797
 7717SOL    HW124050   1.168   1.925   6.785
 7717SOL    HW224051   1.285   1.883   6.890
 7718SOL     OW24052   1.019   4.090   2.567
 7718SOL    HW124053   1.093   4.064   2.505
 7718SOL    HW224054   0.938   4.114   2.513
 7719SOL     OW24055   1.167   3.834   4.985
 7719SOL    HW124056   1.246   3.834   4.923
 7719SOL    HW224057   1.183   3.901   5.057
 7720SOL     OW24058   5.440   1.719   6.990
 7720SOL    HW124059   5.377   1.750   0.037
 7720SOL    HW224060   5.497   1.796   6.961
 7721SOL     OW24061   0.721   0.628   2.238
 7721SOL    HW124062   0.666   0.711   2.224
 7721SOL    HW224063   0.731   0.579   2.152
 7722SOL     OW24064   2.558   5.804   3.290
 7722SOL    HW124065   2.553   5.885   3.347
 7722SOL    HW224066   2.537   5.723   3.344
 7723SOL     OW24067   5.067   4.116   0.560
 7723SOL    HW124068   5.155   4.090   0.520
 7723SOL    HW224069   4.997   4.050   0.531
 7724SOL     OW24070   2.218   4.143   1.830
 7724SOL    HW124071   2.240   4.072   1.897
 7724SOL    HW224072   2.170   4.217   1.875
 7725SOL     OW24073   5.663   3.175   3.500
 7725SOL    HW124074   5.607   3.227   3.564
 7725SOL    HW224075   5.627   3.082   3.493
 7726SOL     OW24076   0.345   2.976   6.313
 7726SOL    HW124077   0.397   2.954   6.395
 7726SOL    HW224078   0.272   3.039   6.336
 7727SOL     OW24079   5.399   2.281   2.128
 7727SOL    HW124080   5.483   2.267   2.077
 7727SOL    HW224081   5.418   2.277   2.226
 7728SOL     OW24082   2.025   3.482   4.732
 7728SOL    HW124083   1.925   3.478   4.733
 7728SOL    HW224084   2.057   3.529   4.814
 7729SOL     OW24085   6.506   2.172   3.909
 7729SOL    HW124086   6.477   2.078   3.927
 7729SOL    HW224087   6.444   2.213   3.842
 7730SOL     OW24088   6.708   3.920   5.014
 7730SOL    HW124089   6.721   3.906   5.112
 7730SOL    HW224090   6.788   3.886   4.964
 7731SOL     OW24091   6.058   0.163   6.989
 7731SOL    HW124092   6.059   0.182   6.891
 7731SOL    HW224093   6.115   0.229   0.013
 7732SOL     OW24094   4.577   0.046   6.732
 7732SOL    HW124095   4.540   0.045   6.639
 7732SOL    HW224096   4.675   0.028   6.729
 7733SOL     OW24097   6.566   5.595   2.251
 7733SOL    HW124098   6.556   5.689   2.218
 7733SOL    HW224099   6.650   5.555   2.215
 7734SOL     OW24100   3.391   3.759   5.278
 7734SOL    HW124101   3.442   3.794   5.356
 7734SOL    HW224102   3.420   3.806   5.195
 7735SOL     OW24103   0.278   5.997   0.873
 7735SOL    HW124104   0.275   6.091   0.838
 7735SOL    HW224105   0.246   5.996   0.968
 7736SOL     OW24106   2.915   3.346   0.735
 7736SOL    HW124107   2.888   3.409   0.662
 7736SOL    HW224108   2.865   3.260   0.725
 7737SOL     OW24109   3.956   4.510   1.514
 7737SOL    HW124110   3.924   4.574   1.444
 7737SOL    HW224111   3.899   4.429   1.514
 7738SOL     OW24112   2.620   6.521   6.882
 7738SOL    HW124113   2.636   6.562   6.972
 7738SOL    HW224114   2.607   6.593   6.814
 7739SOL     OW24115   1.056   1.796   0.608
 7739SOL    HW124116   1.144   1.778   0.651
 7739SOL    HW224117   1.064   1.875   0.547
 7740SOL     OW24118   1.557   0.965   4.554
 7740SOL    HW124119   1.485   0.922   4.499
 7740SOL    HW224120   1.521   0.989   4.644
 7741SOL     OW24121   1.629   4.138   6.343
 7741SOL    HW124122   1.582   4.218   6.306
 7741SOL    HW224123   1.686   4.166   6.421
 7742SOL     OW24124   3.937   1.651   3.620
 7742SOL    HW124125   3.972   1.703   3.699
 7742SOL    HW224126   3.868   1.586   3.651
 7743SOL     OW24127   4.957   1.533   5.694
 7743SOL    HW124128   5.050   1.562   5.717
 7743SOL    HW224129   4.892   1.580   5.755
 7744SOL     OW24130   0.321   6.351   4.038
 7744SOL    HW124131   0.347   6.286   3.967
 7744SOL    HW224132   0.401   6.371   4.096
 7745SOL     OW24133   2.281   6.871   0.987
 7745SOL    HW124134   2.238   6.961   0.982
 7745SOL    HW224135   2.370   6.875   0.942
 7746SOL     OW24136   1.210   6.289   0.978
 7746SOL    HW124137   1.261   6.205   0.959
 7746SOL    HW224138   1.116   6.267   1.004
 7747SOL     OW24139   0.772   6.375   0.691
 7747SOL    HW124140   0.807   6.463   0.723
 7747SOL    HW224141   0.848   6.321   0.653
 7748SOL     OW24142   4.218   2.542   5.478
 7748SOL    HW124143   4.173   2.619   5.434
 7748SOL    HW224144   4.213   2.462   5.418
 7749SOL     OW24145   3.415   3.365   4.167
 7749SOL    HW124146   3.490   3.383   4.232
 7749SOL    HW224147   3.452   3.320   4.086
 7750SOL     OW24148   5.541   4.582   5.331
 7750SOL    HW124149   5.553   4.535   5.244
 7750SOL    HW224150   5.531   4.514   5.404
 7751SOL     OW24151   6.894   1.127   5.070
 7751SOL    HW124152   6.799   1.138   5.098
 7751SOL    HW224153   6.911   1.032   5.044
 7752SOL     OW24154   6.038   5.680   5.266
 7752SOL    HW124155   6.028   5.635   5.177
 7752SOL    HW224156   6.119   5.739   5.263
 7753SOL     OW24157   1.891   0.634   4.341
 7753SOL    HW124158   1.922   0.544   4.372
 7753SOL    HW224159   1.836   0.677   4.412
 7754SOL     OW24160   5.988   0.364   1.091
 7754SOL    HW124161   6.050   0.394   1.163
 7754SOL    HW224162   6.004   0.267   1.072
 7755SOL     OW24163   0.777   5.750   5.438
 7755SOL    HW124164   0.839   5.799   5.499
 7755SOL    HW224165   0.764   5.802   5.354
 7756SOL     OW24166   3.334   5.304   2.098
 7756SOL    HW124167   3.265   5.239   2.068
 7756SOL    HW224168   3.399   5.258   2.159
 7757SOL     OW24169   4.692   6.290   5.809
 7757SOL    HW124170   4.718   6.351   5.734
 7757SOL    HW224171   4.689   6.343   5.895
 7758SOL     OW24172   2.660   2.344   5.849
 7758SOL    HW124173   2.639   2.360   5.752
 7758SOL    HW224174   2.577   2.353   5.903
 7759SOL     OW24175   2.077   0.756   4.155
 7759SOL    HW124176   2.063   0.674   4.099
 7759SOL    HW224177   2.020   0.750   4.237
 7760SOL     OW24178   5.147   3.033   2.148
 7760SOL    HW124179   5.058   3.011   2.189
 7760SOL    HW224180   5.165   3.131   2.161
 7761SOL     OW24181   3.213   0.113   0.066
 7761SOL    HW124182   3.126   0.150   0.032
 7761SOL    HW224183   3.250   0.175   0.135
 7762SOL     OW24184   4.237   1.596   6.837
 7762SOL    HW124185   4.211   1.539   6.759
 7762SOL    HW224186   4.310   1.551   6.888
 7763SOL     OW24187   2.040   1.778   0.645
 7763SOL    HW124188   1.953   1.736   0.620
 7763SOL    HW224189   2.026   1.875   0.666
 7764SOL     OW24190   3.817   2.891   2.426
 7764SOL    HW124191   3.771   2.965   2.378
 7764SOL    HW224192   3.859   2.828   2.360
 7765SOL     OW24193   6.587   2.612   2.917
 7765SOL    HW124194   6.629   2.625   3.007
 7765SOL    HW224195   6.607   2.691   2.859
 7766SOL     OW24196   6.096   1.945   0.043
 7766SOL    HW124197   6.068   1.991   0.127
 7766SOL    HW224198   6.022   1.885   0.012
 7767SOL     OW24199   4.429   6.067   4.041
 7767SOL    HW124200   4.396   6.021   4.123
 7767SOL    HW224201   4.356   6.073   3.974
 7768SOL     OW24202   3.969   4.970   2.116
 7768SOL    HW124203   3.872   4.977   2.140
 7768SOL    HW224204   4.024   5.024   2.179
 7769SOL     OW24205   5.352   2.329   0.783
 7769SOL    HW124206   5.305   2.291   0.863
 7769SOL    HW224207   5.287   2.339   0.708
 7770SOL     OW24208   3.265   4.934   1.644
 7770SOL    HW124209   3.169   4.954   1.658
 7770SOL    HW224210   3.305   4.897   1.728
 7771SOL     OW24211   2.945   2.531   5.920
 7771SOL    HW124212   2.984   2.439   5.916
 7771SOL    HW224213   2.980   2.578   6.001
 7772SOL     OW24214   4.672   0.238   4.020
 7772SOL    HW124215   4.655   0.335   4.007
 7772SOL    HW224216   4.678   0.192   3.932
 7773SOL     OW24217   4.164   3.959   6.056
 7773SOL    HW124218   4.066   3.957   6.079
 7773SOL    HW224219   4.189   3.875   6.008
 7774SOL     OW24220   5.202   1.747   6.154
 7774SOL    HW124221   5.172   1.653   6.170
 7774SOL    HW224222   5.301   1.753   6.168
 7775SOL     OW24223   3.435   6.576   2.125
 7775SOL    HW124224   3.453   6.654   2.066
 7775SOL    HW224225   3.518   6.553   2.176
 7776SOL     OW24226   3.737   3.720   6.317
 7776SOL    HW124227   3.733   3.645   6.383
 7776SOL    HW224228   3.681   3.796   6.350
 7777SOL     OW24229   2.431   0.846   6.629
 7777SOL    HW124230   2.499   0.782   6.592
 7777SOL    HW224231   2.364   0.867   6.557
 7778SOL     OW24232   5.355   0.151   6.854
 7778SOL    HW124233   5.429   0.211   6.884
 7778SOL    HW224234   5.315   0.186   6.769
 7779SOL     OW24235   3.656   2.515   0.396
 7779SOL    HW124236   3.611   2.426   0.394
 7779SOL    HW224237   3.732   2.516   0.331
 7780SOL     OW24238   1.768   6.090   4.788
 7780SOL    HW124239   1.789   6.187   4.799
 7780SOL    HW224240   1.671   6.080   4.766
 7781SOL     OW24241   1.669   3.741   5.161
 7781SOL    HW124242   1.620   3.795   5.229
 7781SOL    HW224243   1.694   3.798   5.083
 7782SOL     OW24244   2.520   4.265   6.195
 7782SOL    HW124245   2.464   4.223   6.266
 7782SOL    HW224246   2.612   4.282   6.231
 7783SOL     OW24247   2.489   5.722   6.903
 7783SOL    HW124248   2.470   5.702   6.807
 7783SOL    HW224249   2.529   5.813   6.910
 7784SOL     OW24250   0.824   3.166   6.954
 7784SOL    HW124251   0.834   3.087   6.893
 7784SOL    HW224252   0.752   3.148   7.020
 7785SOL     OW24253   2.540   6.281   4.353
 7785SOL    HW124254   2.551   6.360   4.292
 7785SOL    HW224255   2.444   6.274   4.380
 7786SOL     OW24256   3.130   4.601   5.336
 7786SOL    HW124257   3.118   4.701   5.337
 7786SOL    HW224258   3.057   4.559   5.282
 7787SOL     OW24259   2.231   2.955   5.307
 7787SOL    HW124260   2.162   3.019   5.272
 7787SOL    HW224261   2.320   2.977   5.266
 7788SOL     OW24262   0.418   1.597   1.137
 7788SOL    HW124263   0.410   1.678   1.079
 7788SOL    HW224264   0.505   1.598   1.184
 7789SOL     OW24265   2.802   1.022   1.281
 7789SOL    HW124266   2.876   1.024   1.348
 7789SOL    HW224267   2.714   1.026   1.328
 7790SOL     OW24268   5.662   3.397   2.850
 7790SOL    HW124269   5.614   3.312   2.830
 7790SOL    HW224270   5.626   3.471   2.794
 7791SOL     OW24271   2.424   4.851   4.388
 7791SOL    HW124272   2.451   4.780   4.323
 7791SOL    HW224273   2.505   4.899   4.421
 7792SOL     OW24274   2.842   6.047   6.190
 7792SOL    HW124275   2.793   6.047   6.277
 7792SOL    HW224276   2.785   6.006   6.120
 7793SOL     OW24277   1.212   0.639   5.853
 7793SOL    HW124278   1.190   0.558   5.907
 7793SOL    HW224279   1.128   0.678   5.816
 7794SOL     OW24280   5.372   5.356   4.249
 7794SOL    HW124281   5.351   5.427   4.181
 7794SOL    HW224282   5.318   5.372   4.331
 7795SOL     OW24283   1.920   4.425   5.506
 7795SOL    HW124284   2.002   4.470   5.543
 7795SOL    HW224285   1.898   4.344   5.561
 7796SOL     OW24286   3.683   4.121   3.317
 7796SOL    HW124287   3.587   4.129   3.345
 7796SOL    HW224288   3.737   4.086   3.393
 7797SOL     OW24289   7.010   6.864   3.218
 7797SOL    HW124290   0.011   6.772   3.190
 7797SOL    HW224291   6.914   6.882   3.194
 7798SOL     OW24292   3.338   5.997   0.861
 7798SOL    HW124293   3.346   6.063   0.787
 7798SOL    HW224294   3.269   6.029   0.926
 7799SOL     OW24295   0.352   5.111   1.007
 7799SOL    HW124296   0.355   5.194   0.951
 7799SOL    HW224297   0.324   5.135   1.100
 7800SOL     OW24298   0.327   5.268   2.066
 7800SOL    HW124299   0.376   5.330   2.127
 7800SOL    HW224300   0.386   5.190   2.045
 7801SOL     OW24301   2.667   1.942   6.868
 7801SOL    HW124302   2.714   1.862   6.830
 7801SOL    HW224303   2.723   1.984   6.939
 7802SOL     OW24304   5.135   2.549   1.654
 7802SOL    HW124305   5.154   2.549   1.753
 7802SOL    HW224306   5.214   2.585   1.605
 7803SOL     OW24307   4.029   4.436   5.857
 7803SOL    HW124308   3.992   4.346   5.878
 7803SOL    HW224309   3.982   4.473   5.776
 7804SOL     OW24310   5.201   1.835   5.544
 7804SOL    HW124311   5.195   1.782   5.628
 7804SOL    HW224312   5.197   1.774   5.465
 7805SOL     OW24313   5.214   2.596   1.910
 7805SOL    HW124314   5.189   2.587   2.007
 7805SOL    HW224315   5.313   2.588   1.901
 7806SOL     OW24316   5.546   2.859   5.981
 7806SOL    HW124317   5.630   2.910   5.997
 7806SOL    HW224318   5.559   2.764   6.008
 7807SOL     OW24319   0.077   4.047   6.152
 7807SOL    HW124320   0.121   4.038   6.063
 7807SOL    HW224321   7.001   4.051   6.140
 7808SOL     OW24322   0.863   0.826   4.739
 7808SOL    HW124323   0.897   0.870   4.657
 7808SOL    HW224324   0.764   0.811   4.731
 7809SOL     OW24325   2.383   5.341   4.952
 7809SOL    HW124326   2.435   5.350   5.037
 7809SOL    HW224327   2.443   5.306   4.879
 7810SOL     OW24328   2.799   0.688   5.280
 7810SOL    HW124329   2.878   0.632   5.306
 7810SOL    HW224330   2.725   0.674   5.346
 7811SOL     OW24331   5.296   4.710   3.470
 7811SOL    HW124332   5.281   4.773   3.547
 7811SOL    HW224333   5.287   4.616   3.501
 7812SOL     OW24334   2.163   1.216   4.210
 7812SOL    HW124335   2.085   1.273   4.187
 7812SOL    HW224336   2.159   1.131   4.157
 7813SOL     OW24337   6.392   2.841   6.757
 7813SOL    HW124338   6.344   2.754   6.747
 7813SOL    HW224339   6.412   2.858   6.854
 7814SOL     OW24340   6.976   3.370   3.813
 7814SOL    HW124341   6.964   3.382   3.912
 7814SOL    HW224342   6.899   3.319   3.776
 7815SOL     OW24343   6.298   1.541   6.480
 7815SOL    HW124344   6.389   1.555   6.520
 7815SOL    HW224345   6.281   1.611   6.411
 7816SOL     OW24346   0.473   3.842   5.854
 7816SOL    HW124347   0.461   3.786   5.936
 7816SOL    HW224348   0.535   3.918   5.875
 7817SOL     OW24349   5.458   4.234   4.500
 7817SOL    HW124350   5.516   4.232   4.581
 7817SOL    HW224351   5.395   4.312   4.506
 7818SOL     OW24352   5.965   6.304   1.921
 7818SOL    HW124353   6.037   6.362   1.884
 7818SOL    HW224354   5.922   6.253   1.847
 7819SOL     OW24355   6.716   2.487   1.539
 7819SOL    HW124356   6.780   2.557   1.568
 7819SOL    HW224357   6.753   2.396   1.560
 7820SOL     OW24358   1.703   1.515   6.480
 7820SOL    HW124359   1.718   1.576   6.403
 7820SOL    HW224360   1.647   1.561   6.549
 7821SOL     OW24361   3.597   5.494   1.258
 7821SOL    HW124362   3.583   5.443   1.343
 7821SOL    HW224363   3.574   5.436   1.180
 7822SOL     OW24364   0.996   5.575   4.921
 7822SOL    HW124365   1.058   5.517   4.973
 7822SOL    HW224366   0.907   5.578   4.966
 7823SOL     OW24367   2.102   4.140   5.305
 7823SOL    HW124368   2.045   4.153   5.223
 7823SOL    HW224369   2.197   4.160   5.283
 7824SOL     OW24370   0.478   2.669   5.327
 7824SOL    HW124371   0.386   2.706   5.318
 7824SOL    HW224372   0.535   2.734   5.378
 7825SOL     OW24373   2.527   1.686   6.575
 7825SOL    HW124374   2.548   1.783   6.584
 7825SOL    HW224375   2.432   1.670   6.603
 7826SOL     OW24376   0.046   2.341   6.726
 7826SOL    HW124377   0.127   2.399   6.739
 7826SOL    HW224378   0.074   2.246   6.719
 7827SOL     OW24379   0.180   6.203   3.574
 7827SOL    HW124380   0.165   6.276   3.641
 7827SOL    HW224381   0.278   6.182   3.570
 7828SOL     OW24382   0.260   4.038   6.515
 7828SOL    HW124383   0.276   3.997   6.605
 7828SOL    HW224384   0.335   4.100   6.493
 7829SOL     OW24385   3.083   2.546   1.445
 7829SOL    HW124386   2.996   2.516   1.405
 7829SOL    HW224387   3.145   2.575   1.372
 7830SOL     OW24388   2.946   4.890   4.317
 7830SOL    HW124389   2.953   4.976   4.266
 7830SOL    HW224390   2.886   4.827   4.268
 7831SOL     OW24391   1.998   2.121   0.509
 7831SOL    HW124392   2.028   2.198   0.567
 7831SOL    HW224393   2.068   2.102   0.441
 7832SOL     OW24394   5.575   0.540   4.833
 7832SOL    HW124395   5.541   0.634   4.839
 7832SOL    HW224396   5.633   0.521   4.913
 7833SOL     OW24397   2.108   0.407   3.875
 7833SOL    HW124398   2.204   0.435   3.874
 7833SOL    HW224399   2.055   0.470   3.932
 7834SOL     OW24400   6.339   2.858   4.814
 7834SOL    HW124401   6.405   2.928   4.841
 7834SOL    HW224402   6.255   2.901   4.782
 7835SOL     OW24403   4.398   1.877   4.839
 7835SOL    HW124404   4.426   1.918   4.753
 7835SOL    HW224405   4.446   1.789   4.851
 7836SOL     OW24406   3.692   4.267   5.272
 7836SOL    HW124407   3.677   4.233   5.179
 7836SOL    HW224408   3.612   4.244   5.328
 7837SOL     OW24409   5.797   6.479   6.663
 7837SOL    HW124410   5.781   6.530   6.579
 7837SOL    HW224411   5.771   6.383   6.649
 7838SOL     OW24412   5.310   5.528   0.923
 7838SOL    HW124413   5.373   5.521   0.846
 7838SOL    HW224414   5.362   5.539   1.008
 7839SOL     OW24415   6.065   3.992   4.530
 7839SOL    HW124416   6.143   3.949   4.577
 7839SOL    HW224417   5.981   3.943   4.553
 7840SOL     OW24418   2.060   3.091   3.616
 7840SOL    HW124419   2.141   3.140   3.585
 7840SOL    HW224420   2.069   3.070   3.714
 7841SOL     OW24421   5.078   2.338   6.022
 7841SOL    HW124422   5.021   2.279   6.080
 7841SOL    HW224423   5.026   2.369   5.943
 7842SOL     OW24424   1.889   1.497   2.443
 7842SOL    HW124425   1.848   1.409   2.468
 7842SOL    HW224426   1.817   1.566   2.435
 7843SOL     OW24427   0.277   6.553   3.215
 7843SOL    HW124428   0.310   6.644   3.242
 7843SOL    HW224429   0.189   6.561   3.169
 7844SOL     OW24430   3.663   0.929   2.653
 7844SOL    HW124431   3.638   0.833   2.641
 7844SOL    HW224432   3.705   0.964   2.569
 7845SOL     OW24433   5.735   1.909   1.694
 7845SOL    HW124434   5.829   1.943   1.697
 7845SOL    HW224435   5.679   1.970   1.637
 7846SOL     OW24436   0.684   2.733   0.285
 7846SOL    HW124437   0.754   2.790   0.328
 7846SOL    HW224438   0.677   2.646   0.335
 7847SOL     OW24439   5.591   2.565   4.582
 7847SOL    HW124440   5.525   2.601   4.648
 7847SOL    HW224441   5.555   2.481   4.542
 7848SOL     OW24442   2.860   4.776   0.940
 7848SOL    HW124443   2.905   4.822   0.864
 7848SOL    HW224444   2.927   4.724   0.993
 7849SOL     OW24445   4.726   4.092   5.905
 7849SOL    HW124446   4.641   4.141   5.888
 7849SOL    HW224447   4.718   4.039   5.989
 7850SOL     OW24448   6.642   1.583   3.435
 7850SOL    HW124449   6.672   1.533   3.354
 7850SOL    HW224450   6.542   1.587   3.436
 7851SOL     OW24451   0.832   4.480   2.087
 7851SOL    HW124452   0.772   4.412   2.046
 7851SOL    HW224453   0.892   4.437   2.155
 7852SOL     OW24454   1.940   2.096   0.149
 7852SOL    HW124455   1.994   2.027   0.100
 7852SOL    HW224456   2.002   2.166   0.184
 7853SOL     OW24457   4.077   2.772   1.627
 7853SOL    HW124458   4.024   2.829   1.690
 7853SOL    HW224459   4.175   2.781   1.648
 7854SOL     OW24460   5.347   2.293   6.091
 7854SOL    HW124461   5.254   2.258   6.078
 7854SOL    HW224462   5.354   2.384   6.050
 7855SOL     OW24463   5.553   6.888   4.389
 7855SOL    HW124464   5.576   6.816   4.324
 7855SOL    HW224465   5.592   6.975   4.357
 7856SOL     OW24466   1.897   5.863   4.767
 7856SOL    HW124467   1.828   5.799   4.732
 7856SOL    HW224468   1.854   5.952   4.782
 7857SOL     OW24469   4.972   3.804   0.254
 7857SOL    HW124470   5.062   3.760   0.258
 7857SOL    HW224471   4.945   3.832   0.346
 7858SOL     OW24472   0.658   5.337   5.927
 7858SOL    HW124473   0.678   5.274   5.852
 7858SOL    HW224474   0.677   5.431   5.899
 7859SOL     OW24475   5.011   2.629   6.746
 7859SOL    HW124476   4.978   2.590   6.831
 7859SOL    HW224477   4.937   2.632   6.679
 7860SOL     OW24478   2.547   0.726   4.533
 7860SOL    HW124479   2.518   0.644   4.483
 7860SOL    HW224480   2.520   0.808   4.483
 7861SOL     OW24481   2.540   6.644   1.013
 7861SOL    HW124482   2.545   6.667   1.110
 7861SOL    HW224483   2.621   6.678   0.966
 7862SOL     OW24484   2.744   6.354   0.860
 7862SOL    HW124485   2.654   6.336   0.899
 7862SOL    HW224486   2.806   6.279   0.883
 7863SOL     OW24487   6.660   4.110   3.864
 7863SOL    HW124488   6.696   4.019   3.884
 7863SOL    HW224489   6.673   4.130   3.767
 7864SOL     OW24490   2.809   6.509   5.362
 7864SOL    HW124491   2.763   6.531   5.276
 7864SOL    HW224492   2.810   6.410   5.376
 7865SOL     OW24493   6.250   5.851   3.852
 7865SOL    HW124494   6.176   5.791   3.822
 7865SOL    HW224495   6.336   5.819   3.813
 7866SOL     OW24496   1.107   0.443   6.519
 7866SOL    HW124497   1.205   0.423   6.517
 7866SOL    HW224498   1.056   0.358   6.531
 7867SOL     OW24499   5.496   6.689   3.751
 7867SOL    HW124500   5.541   6.602   3.769
 7867SOL    HW224501   5.496   6.707   3.652
 7868SOL     OW24502   3.564   6.670   1.085
 7868SOL    HW124503   3.536   6.668   1.181
 7868SOL    HW224504   3.660   6.698   1.079
 7869SOL     OW24505   5.290   4.038   6.135
 7869SOL    HW124506   5.368   3.981   6.110
 7869SOL    HW224507   5.269   4.024   6.232
 7870SOL     OW24508   4.959   6.116   5.170
 7870SOL    HW124509   4.944   6.092   5.075
 7870SOL    HW224510   4.886   6.078   5.226
 7871SOL     OW24511   5.108   1.723   1.613
 7871SOL    HW124512   5.126   1.627   1.632
 7871SOL    HW224513   5.014   1.734   1.582
 7872SOL     OW24514   1.990   6.676   2.697
 7872SOL    HW124515   1.910   6.627   2.731
 7872SOL    HW224516   2.039   6.717   2.774
 7873SOL     OW24517   6.420   1.360   0.386
 7873SOL    HW124518   6.431   1.264   0.413
 7873SOL    HW224519   6.323   1.379   0.373
 7874SOL     OW24520   5.332   2.619   0.737
 7874SOL    HW124521   5.237   2.626   0.706
 7874SOL    HW224522   5.350   2.526   0.768
 7875SOL     OW24523   4.769   4.082   6.421
 7875SOL    HW124524   4.708   4.023   6.473
 7875SOL    HW224525   4.729   4.174   6.415
 7876SOL     OW24526   0.670   0.165   2.106
 7876SOL    HW124527   0.623   0.181   2.193
 7876SOL    HW224528   0.682   0.067   2.091
 7877SOL     OW24529   6.865   1.795   3.141
 7877SOL    HW124530   6.878   1.860   3.067
 7877SOL    HW224531   6.891   1.703   3.110
 7878SOL     OW24532   4.807   4.933   3.471
 7878SOL    HW124533   4.753   4.973   3.396
 7878SOL    HW224534   4.807   4.996   3.548
 7879SOL     OW24535   2.257   4.550   3.089
 7879SOL    HW124536   2.217   4.634   3.125
 7879SOL    HW224537   2.268   4.483   3.163
 7880SOL     OW24538   1.452   4.028   1.859
 7880SOL    HW124539   1.423   4.053   1.767
 7880SOL    HW224540   1.552   4.021   1.862
 7881SOL     OW24541   4.892   3.756   3.855
 7881SOL    HW124542   4.889   3.846   3.898
 7881SOL    HW224543   4.901   3.686   3.925
 7882SOL     OW24544   1.838   3.336   1.339
 7882SOL    HW124545   1.765   3.398   1.368
 7882SOL    HW224546   1.926   3.373   1.367
 7883SOL     OW24547   0.830   1.141   5.249
 7883SOL    HW124548   0.844   1.187   5.161
 7883SOL    HW224549   0.772   1.061   5.235
 7884SOL     OW24550   0.311   2.860   4.613
 7884SOL    HW124551   0.298   2.926   4.539
 7884SOL    HW224552   0.228   2.807   4.625
 7885SOL     OW24553   5.971   5.733   0.119
 7885SOL    HW124554   5.925   5.742   0.031
 7885SOL    HW224555   5.961   5.639   0.153
 7886SOL     OW24556   4.689   5.541   0.045
 7886SOL    HW124557   4.656   5.626   0.005
 7886SOL    HW224558   4.784   5.525   0.017
 7887SOL     OW24559   4.920   2.002   0.094
 7887SOL    HW124560   4.841   1.983   0.035
 7887SOL    HW224561   4.948   1.918   0.139
 7888SOL     OW24562   4.476   0.701   4.053
 7888SOL    HW124563   4.387   0.716   4.011
 7888SOL    HW224564   4.516   0.789   4.078
 7889SOL     OW24565   0.296   6.479   2.262
 7889SOL    HW124566   0.302   6.484   2.163
 7889SOL    HW224567   0.388   6.477   2.301
 7890SOL     OW24568   1.563   3.788   2.277
 7890SOL    HW124569   1.588   3.859   2.343
 7890SOL    HW224570   1.645   3.747   2.238
 7891SOL     OW24571   2.131   4.656   2.305
 7891SOL    HW124572   2.220   4.667   2.260
 7891SOL    HW224573   2.130   4.710   2.389
 7892SOL     OW24574   2.233   2.235   6.024
 7892SOL    HW124575   2.233   2.204   6.119
 7892SOL    HW224576   2.299   2.181   5.971
 7893SOL     OW24577   6.126   6.743   1.274
 7893SOL    HW124578   6.224   6.750   1.259
 7893SOL    HW224579   6.108   6.678   1.348
 7894SOL     OW24580   2.393   6.676   1.625
 7894SOL    HW124581   2.336   6.611   1.675
 7894SOL    HW224582   2.480   6.632   1.601
 7895SOL     OW24583   6.934   1.181   4.589
 7895SOL    HW124584   7.001   1.167   4.516
 7895SOL    HW224585   6.849   1.134   4.565
 7896SOL     OW24586   4.969   3.484   5.433
 7896SOL    HW124587   4.954   3.545   5.511
 7896SOL    HW224588   4.884   3.437   5.410
 7897SOL     OW24589   2.773   2.990   6.533
 7897SOL    HW124590   2.743   2.940   6.614
 7897SOL    HW224591   2.724   3.077   6.527
 7898SOL     OW24592   4.103   2.178   3.511
 7898SOL    HW124593   4.019   2.154   3.559
 7898SOL    HW224594   4.085   2.179   3.412
 7899SOL     OW24595   5.333   2.103   2.837
 7899SOL    HW124596   5.238   2.074   2.841
 7899SOL    HW224597   5.338   2.195   2.797
 7900SOL     OW24598   1.917   5.965   1.159
 7900SOL    HW124599   1.976   6.011   1.226
 7900SOL    HW224600   1.844   6.027   1.131
 7901SOL     OW24601   6.694   6.415   6.557
 7901SOL    HW124602   6.605   6.369   6.565
 7901SOL    HW224603   6.685   6.511   6.585
 7902SOL     OW24604   4.286   3.854   6.957
 7902SOL    HW124605   4.224   3.846   0.012
 7902SOL    HW224606   4.375   3.815   6.980
 7903SOL     OW24607   6.388   1.760   0.091
 7903SOL    HW124608   6.414   1.664   0.104
 7903SOL    HW224609   6.295   1.774   0.126
 7904SOL     OW24610   7.012   1.271   2.236
 7904SOL    HW124611   6.991   1.284   2.333
 7904SOL    HW224612   6.936   1.224   2.191
 7905SOL     OW24613   3.992   0.792   1.077
 7905SOL    HW124614   3.942   0.824   1.158
 7905SOL    HW224615   4.003   0.868   1.013
 7906SOL     OW24616   5.687   6.052   6.680
 7906SOL    HW124617   5.625   6.103   6.740
 7906SOL    HW224618   5.739   5.986   6.735
 7907SOL     OW24619   0.131   2.647   2.524
 7907SOL    HW124620   0.189   2.613   2.450
 7907SOL    HW224621   0.133   2.747   2.525
 7908SOL     OW24622   6.732   2.303   3.918
 7908SOL    HW124623   6.708   2.373   3.986
 7908SOL    HW224624   6.654   2.243   3.902
 7909SOL     OW24625   4.911   4.471   4.765
 7909SOL    HW124626   4.936   4.406   4.838
 7909SOL    HW224627   4.830   4.523   4.794
 7910SOL     OW24628   5.275   3.026   5.608
 7910SOL    HW124629   5.178   3.044   5.622
 7910SOL    HW224630   5.290   2.927   5.604
 7911SOL     OW24631   6.202   4.453   0.221
 7911SOL    HW124632   6.273   4.383   0.227
 7911SOL    HW224633   6.171   4.477   0.313
 7912SOL     OW24634   5.996   4.814   6.074
 7912SOL    HW124635   6.082   4.780   6.113
 7912SOL    HW224636   5.981   4.908   6.104
 7913SOL     OW24637   0.226   5.553   6.441
 7913SOL    HW124638   0.274   5.466   6.439
 7913SOL    HW224639   0.132   5.538   6.472
 7914SOL     OW24640   5.778   4.050   0.910
 7914SOL    HW124641   5.877   4.044   0.911
 7914SOL    HW224642   5.739   3.960   0.885
 7915SOL     OW24643   3.480   1.703   3.293
 7915SOL    HW124644   3.452   1.764   3.219
 7915SOL    HW224645   3.565   1.736   3.333
 7916SOL     OW24646   5.185   3.755   5.305
 7916SOL    HW124647   5.194   3.791   5.398
 7916SOL    HW224648   5.268   3.706   5.280
 7917SOL     OW24649   3.420   3.657   4.230
 7917SOL    HW124650   3.324   3.641   4.252
 7917SOL    HW224651   3.456   3.730   4.288
 7918SOL     OW24652   5.563   1.763   2.615
 7918SOL    HW124653   5.605   1.758   2.525
 7918SOL    HW224654   5.531   1.857   2.631
 7919SOL     OW24655   5.369   5.090   1.889
 7919SOL    HW124656   5.431   5.062   1.816
 7919SOL    HW224657   5.391   5.183   1.917
 7920SOL     OW24658   0.531   4.875   1.279
 7920SOL    HW124659   0.437   4.895   1.306
 7920SOL    HW224660   0.560   4.787   1.318
 7921SOL     OW24661   2.252   0.243   1.295
 7921SOL    HW124662   2.335   0.204   1.255
 7921SOL    HW224663   2.195   0.283   1.222
 7922SOL     OW24664   0.893   5.507   6.616
 7922SOL    HW124665   0.969   5.461   6.661
 7922SOL    HW224666   0.808   5.485   6.663
 7923SOL     OW24667   1.443   1.330   3.845
 7923SOL    HW124668   1.534   1.366   3.826
 7923SOL    HW224669   1.407   1.372   3.928
 7924SOL     OW24670   3.102   6.980   4.035
 7924SOL    HW124671   3.056   7.023   4.113
 7924SOL    HW224672   3.059   6.892   4.015
 7925SOL     OW24673   6.120   1.478   5.873
 7925SOL    HW124674   6.056   1.497   5.948
 7925SOL    HW224675   6.130   1.379   5.862
 7926SOL     OW24676   3.862   0.435   2.045
 7926SOL    HW124677   3.919   0.453   1.965
 7926SOL    HW224678   3.870   0.339   2.072
 7927SOL     OW24679   4.707   5.293   4.239
 7927SOL    HW124680   4.608   5.276   4.236
 7927SOL    HW224681   4.737   5.331   4.152
 7928SOL     OW24682   1.544   5.651   1.982
 7928SOL    HW124683   1.602   5.731   1.966
 7928SOL    HW224684   1.551   5.623   2.078
 7929SOL     OW24685   3.643   3.687   4.077
 7929SOL    HW124686   3.628   3.630   3.997
 7929SOL    HW224687   3.579   3.661   4.150
 7930SOL     OW24688   5.071   5.798   3.731
 7930SOL    HW124689   5.006   5.848   3.788
 7930SOL    HW224690   5.063   5.829   3.636
 7931SOL     OW24691   2.477   1.743   0.444
 7931SOL    HW124692   2.514   1.664   0.396
 7931SOL    HW224693   2.392   1.717   0.491
 7932SOL     OW24694   2.387   0.459   0.735
 7932SOL    HW124695   2.413   0.389   0.668
 7932SOL    HW224696   2.408   0.427   0.827
 7933SOL     OW24697   1.092   0.704   6.753
 7933SOL    HW124698   1.005   0.729   6.708
 7933SOL    HW224699   1.158   0.677   6.683
 7934SOL     OW24700   2.590   3.641   6.368
 7934SOL    HW124701   2.590   3.642   6.468
 7934SOL    HW224702   2.683   3.656   6.335
 7935SOL     OW24703   4.330   6.385   1.871
 7935SOL    HW124704   4.361   6.410   1.779
 7935SOL    HW224705   4.409   6.357   1.926
 7936SOL     OW24706   4.191   5.745   2.949
 7936SOL    HW124707   4.259   5.816   2.930
 7936SOL    HW224708   4.100   5.779   2.927
 7937SOL     OW24709   6.253   6.487   5.954
 7937SOL    HW124710   6.316   6.410   5.963
 7937SOL    HW224711   6.278   6.541   5.874
 7938SOL     OW24712   4.838   5.125   4.523
 7938SOL    HW124713   4.799   5.163   4.439
 7938SOL    HW224714   4.888   5.041   4.502
 7939SOL     OW24715   1.351   0.950   5.533
 7939SOL    HW124716   1.334   1.039   5.573
 7939SOL    HW224717   1.449   0.930   5.536
 7940SOL     OW24718   2.047   5.884   0.946
 7940SOL    HW124719   2.002   5.909   1.032
 7940SOL    HW224720   1.997   5.923   0.869
 7941SOL     OW24721   0.210   0.676   0.926
 7941SOL    HW124722   0.128   0.727   0.954
 7941SOL    HW224723   0.209   0.585   0.969
 7942SOL     OW24724   0.035   0.303   1.767
 7942SOL    HW124725   0.109   0.359   1.804
 7942SOL    HW224726   7.015   0.352   1.691
 7943SOL     OW24727   5.180   1.520   1.310
 7943SOL    HW124728   5.238   1.456   1.360
 7943SOL    HW224729   5.112   1.559   1.371
 7944SOL     OW24730   0.899   4.610   1.635
 7944SOL    HW124731   0.852   4.679   1.581
 7944SOL    HW224732   0.911   4.644   1.728
 7945SOL     OW24733   5.631   6.748   2.496
 7945SOL    HW124734   5.563   6.816   2.466
 7945SOL    HW224735   5.722   6.789   2.492
 7946SOL     OW24736   1.656   2.127   6.157
 7946SOL    HW124737   1.648   2.204   6.095
 7946SOL    HW224738   1.582   2.131   6.225
 7947SOL     OW24739   4.078   3.363   6.427
 7947SOL    HW124740   4.161   3.391   6.378
 7947SOL    HW224741   4.063   3.424   6.505
 7948SOL     OW24742   0.196   6.512   0.665
 7948SOL    HW124743   0.289   6.542   0.689
 7948SOL    HW224744   0.141   6.591   0.640
 7949SOL     OW24745   5.473   4.394   3.551
 7949SOL    HW124746   5.388   4.408   3.601
 7949SOL    HW224747   5.525   4.479   3.548
 7950SOL     OW24748   3.838   5.177   4.229
 7950SOL    HW124749   3.773   5.181   4.305
 7950SOL    HW224750   3.860   5.082   4.208
 7951SOL     OW24751   3.493   3.464   0.821
 7951SOL    HW124752   3.457   3.384   0.868
 7951SOL    HW224753   3.569   3.503   0.874
 7952SOL     OW24754   5.692   3.137   1.186
 7952SOL    HW124755   5.758   3.201   1.224
 7952SOL    HW224756   5.712   3.122   1.089
 7953SOL     OW24757   2.292   2.762   3.100
 7953SOL    HW124758   2.368   2.733   3.041
 7953SOL    HW224759   2.206   2.750   3.051
 7954SOL     OW24760   4.193   5.131   4.968
 7954SOL    HW124761   4.115   5.193   4.978
 7954SOL    HW224762   4.185   5.058   5.036
 7955SOL     OW24763   0.940   6.472   6.315
 7955SOL    HW124764   0.989   6.419   6.385
 7955SOL    HW224765   0.877   6.412   6.265
 7956SOL     OW24766   6.056   6.423   4.242
 7956SOL    HW124767   6.113   6.344   4.219
 7956SOL    HW224768   6.032   6.471   4.158
 7957SOL     OW24769   1.122   1.697   1.387
 7957SOL    HW124770   1.113   1.602   1.416
 7957SOL    HW224771   1.214   1.711   1.350
 7958SOL     OW24772   2.746   4.660   2.933
 7958SOL    HW124773   2.653   4.624   2.933
 7958SOL    HW224774   2.791   4.635   3.019
 7959SOL     OW24775   6.026   4.770   0.792
 7959SOL    HW124776   5.959   4.785   0.719
 7959SOL    HW224777   6.117   4.796   0.759
 7960SOL     OW24778   2.439   1.823   1.339
 7960SOL    HW124779   2.378   1.745   1.350
 7960SOL    HW224780   2.515   1.798   1.278
 7961SOL     OW24781   1.826   5.727   6.560
 7961SOL    HW124782   1.850   5.824   6.568
 7961SOL    HW224783   1.900   5.678   6.515
 7962SOL     OW24784   1.088   1.120   2.374
 7962SOL    HW124785   1.111   1.035   2.327
 7962SOL    HW224786   1.097   1.196   2.311
 7963SOL     OW24787   0.808   0.673   5.548
 7963SOL    HW124788   0.862   0.682   5.464
 7963SOL    HW224789   0.753   0.590   5.543
 7964SOL     OW24790   6.181   5.491   4.163
 7964SOL    HW124791   6.189   5.475   4.261
 7964SOL    HW224792   6.106   5.436   4.127
 7965SOL     OW24793   5.512   2.336   0.293
 7965SOL    HW124794   5.483   2.392   0.215
 7965SOL    HW224795   5.445   2.263   0.308
 7966SOL     OW24796   6.812   4.608   4.182
 7966SOL    HW124797   6.748   4.559   4.123
 7966SOL    HW224798   6.884   4.546   4.213
 7967SOL     OW24799   2.949   6.443   2.332
 7967SOL    HW124800   2.899   6.501   2.268
 7967SOL    HW224801   3.012   6.499   2.385
 7968SOL     OW24802   2.093   1.972   2.848
 7968SOL    HW124803   2.163   1.908   2.815
 7968SOL    HW224804   2.136   2.059   2.871
 7969SOL     OW24805   3.293   1.858   3.519
 7969SOL    HW124806   3.263   1.944   3.477
 7969SOL    HW224807   3.328   1.876   3.611
 7970SOL     OW24808   0.744   4.516   3.271
 7970SOL    HW124809   0.682   4.469   3.334
 7970SOL    HW224810   0.746   4.613   3.292
 7971SOL     OW24811   3.460   1.105   1.360
 7971SOL    HW124812   3.379   1.145   1.318
 7971SOL    HW224813   3.538   1.116   1.298
 7972SOL     OW24814   0.187   4.673   1.557
 7972SOL    HW124815   0.184   4.625   1.645
 7972SOL    HW224816   0.149   4.614   1.486
 7973SOL     OW24817   4.834   3.081   3.474
 7973SOL    HW124818   4.864   3.155   3.414
 7973SOL    HW224819   4.743   3.101   3.510
 7974SOL     OW24820   5.448   0.285   4.283
 7974SOL    HW124821   5.392   0.315   4.206
 7974SOL    HW224822   5.389   0.257   4.358
 7975SOL     OW24823   3.379   1.232   4.274
 7975SOL    HW124824   3.347   1.140   4.294
 7975SOL    HW224825   3.315   1.276   4.211
 7976SOL     OW24826   1.031   5.601   5.852
 7976SOL    HW124827   1.039   5.597   5.753
 7976SOL    HW224828   1.122   5.614   5.892
 7977SOL     OW24829   5.600   6.150   1.587
 7977SOL    HW124830   5.619   6.245   1.564
 7977SOL    HW224831   5.587   6.097   1.503
 7978SOL     OW24832   4.690   3.785   5.606
 7978SOL    HW124833   4.782   3.747   5.620
 7978SOL    HW224834   4.675   3.801   5.508
 7979SOL     OW24835   2.987   0.068   4.258
 7979SOL    HW124836   2.918   0.139   4.272
 7979SOL    HW224837   3.067   0.087   4.315
 7980SOL     OW24838   3.537   6.083   0.554
 7980SOL    HW124839   3.599   6.055   0.480
 7980SOL    HW224840   3.465   6.015   0.565
 7981SOL     OW24841   1.063   5.009   2.572
 7981SOL    HW124842   1.088   5.017   2.476
 7981SOL    HW224843   1.145   5.020   2.629
 7982SOL     OW24844   6.455   2.156   0.897
 7982SOL    HW124845   6.471   2.239   0.844
 7982SOL    HW224846   6.532   2.142   0.960
 7983SOL     OW24847   5.133   2.246   2.301
 7983SOL    HW124848   5.136   2.280   2.207
 7983SOL    HW224849   5.201   2.174   2.313
 7984SOL     OW24850   0.392   1.857   1.751
 7984SOL    HW124851   0.361   1.910   1.672
 7984SOL    HW224852   0.323   1.860   1.823
 7985SOL     OW24853   0.258   1.206   2.587
 7985SOL    HW124854   0.315   1.231   2.508
 7985SOL    HW224855   0.242   1.287   2.643
 7986SOL     OW24856   4.102   0.964   6.477
 7986SOL    HW124857   4.164   0.989   6.550
 7986SOL    HW224858   4.008   0.972   6.508
 7987SOL     OW24859   0.583   2.823   5.069
 7987SOL    HW124860   0.540   2.844   4.981
 7987SOL    HW224861   0.533   2.749   5.114
 7988SOL     OW24862   2.594   1.721   4.557
 7988SOL    HW124863   2.572   1.774   4.639
 7988SOL    HW224864   2.665   1.768   4.505
 7989SOL     OW24865   3.009   2.568   5.631
 7989SOL    HW124866   3.015   2.581   5.730
 7989SOL    HW224867   3.041   2.476   5.608
 7990SOL     OW24868   1.176   2.415   4.926
 7990SOL    HW124869   1.165   2.514   4.933
 7990SOL    HW224870   1.118   2.370   4.993
 7991SOL     OW24871   0.740   2.806   6.216
 7991SOL    HW124872   0.821   2.748   6.208
 7991SOL    HW224873   0.711   2.809   6.312
 7992SOL     OW24874   2.454   0.354   0.974
 7992SOL    HW124875   2.458   0.447   1.011
 7992SOL    HW224876   2.430   0.291   1.048
 7993SOL     OW24877   1.936   6.630   6.927
 7993SOL    HW124878   1.860   6.667   6.979
 7993SOL    HW224879   1.976   6.703   6.870
 7994SOL     OW24880   5.368   0.997   4.016
 7994SOL    HW124881   5.306   1.023   3.942
 7994SOL    HW224882   5.332   0.916   4.063
 7995SOL     OW24883   2.908   5.216   3.874
 7995SOL    HW124884   2.903   5.120   3.899
 7995SOL    HW224885   2.840   5.268   3.926
 7996SOL     OW24886   4.031   7.020   5.341
 7996SOL    HW124887   4.026   0.052   5.258
 7996SOL    HW224888   4.117   6.971   5.343
 7997SOL     OW24889   5.621   2.800   0.939
 7997SOL    HW124890   5.652   2.794   1.034
 7997SOL    HW224891   5.527   2.831   0.937
 7998SOL     OW24892   6.048   4.850   0.044
 7998SOL    HW124893   6.034   4.822   0.139
 7998SOL    HW224894   6.032   4.948   0.035
 7999SOL     OW24895   1.304   0.169   5.982
 7999SOL    HW124896   1.279   0.081   6.020
 7999SOL    HW224897   1.271   0.175   5.887
 8000SOL     OW24898   6.272   6.897   5.519
 8000SOL    HW124899   6.270   6.894   5.619
 8000SOL    HW224900   6.342   6.962   5.489
 8001SOL     OW24901   1.911   6.803   1.624
 8001SOL    HW124902   1.873   6.797   1.716
 8001SOL    HW224903   1.958   6.891   1.613
 8002SOL     OW24904   6.072   2.612   4.989
 8002SOL    HW124905   6.092   2.596   4.892
 8002SOL    HW224906   6.142   2.568   5.045
 8003SOL     OW24907   3.173   5.024   3.429
 8003SOL    HW124908   3.164   5.118   3.396
 8003SOL    HW224909   3.122   5.013   3.514
 8004SOL     OW24910   2.054   3.781   2.733
 8004SOL    HW124911   2.013   3.690   2.725
 8004SOL    HW224912   2.085   3.812   2.643
 8005SOL     OW24913   2.897   1.045   1.538
 8005SOL    HW124914   2.958   1.122   1.558
 8005SOL    HW224915   2.944   0.959   1.558
 8006SOL     OW24916   3.096   5.958   1.012
 8006SOL    HW124917   3.104   5.861   1.032
 8006SOL    HW224918   3.001   5.979   0.987
 8007SOL     OW24919   0.188   0.437   4.293
 8007SOL    HW124920   0.238   0.522   4.281
 8007SOL    HW224921   0.148   0.434   4.384
 8008SOL     OW24922   6.147   6.622   0.496
 8008SOL    HW124923   6.224   6.662   0.545
 8008SOL    HW224924   6.139   6.663   0.405
 8009SOL     OW24925   7.008   6.848   4.095
 8009SOL    HW124926   0.019   6.861   4.188
 8009SOL    HW224927   6.954   6.927   4.068
 8010SOL     OW24928   1.868   2.368   0.076
 8010SOL    HW124929   1.967   2.385   0.075
 8010SOL    HW224930   1.852   2.269   0.075
 8011SOL     OW24931   3.395   2.192   1.201
 8011SOL    HW124932   3.432   2.273   1.156
 8011SOL    HW224933   3.302   2.212   1.233
 8012SOL     OW24934   2.575   6.301   1.787
 8012SOL    HW124935   2.607   6.318   1.881
 8012SOL    HW224936   2.572   6.203   1.770
 8013SOL     OW24937   5.720   4.747   4.651
 8013SOL    HW124938   5.765   4.734   4.563
 8013SOL    HW224939   5.704   4.657   4.693
 8014SOL     OW24940   2.352   0.069   6.939
 8014SOL    HW124941   2.298   0.054   7.021
 8014SOL    HW224942   2.442   0.106   6.965
 8015SOL     OW24943   2.317   2.715   0.429
 8015SOL    HW124944   2.331   2.813   0.411
 8015SOL    HW224945   2.343   2.695   0.524
 8016SOL     OW24946   4.245   6.509   0.035
 8016SOL    HW124947   4.215   6.437   0.097
 8016SOL    HW224948   4.211   6.490   6.966
 8017SOL     OW24949   5.922   4.236   4.604
 8017SOL    HW124950   5.946   4.225   4.700
 8017SOL    HW224951   5.951   4.155   4.553
 8018SOL     OW24952   5.126   1.882   5.021
 8018SOL    HW124953   5.183   1.844   5.094
 8018SOL    HW224954   5.167   1.860   4.933
 8019SOL     OW24955   2.509   5.782   0.869
 8019SOL    HW124956   2.468   5.692   0.855
 8019SOL    HW224957   2.581   5.797   0.801
 8020SOL     OW24958   4.835   5.094   0.177
 8020SOL    HW124959   4.894   5.139   0.109
 8020SOL    HW224960   4.811   5.002   0.145
 8021SOL     OW24961   0.676   0.838   0.732
 8021SOL    HW124962   0.703   0.784   0.812
 8021SOL    HW224963   0.618   0.784   0.672
 8022SOL     OW24964   4.415   6.463   3.120
 8022SOL    HW124965   4.360   6.450   3.203
 8022SOL    HW224966   4.503   6.418   3.131
 8023SOL     OW24967   5.922   5.810   3.032
 8023SOL    HW124968   5.887   5.897   3.000
 8023SOL    HW224969   5.870   5.780   3.112
 8024SOL     OW24970   4.814   5.057   5.407
 8024SOL    HW124971   4.800   4.990   5.479
 8024SOL    HW224972   4.826   5.010   5.319
 8025SOL     OW24973   3.938   5.680   6.603
 8025SOL    HW124974   3.977   5.679   6.695
 8025SOL    HW224975   3.989   5.617   6.544
 8026SOL     OW24976   1.591   3.333   0.000
 8026SOL    HW124977   1.687   3.326   0.030
 8026SOL    HW224978   1.568   3.254   6.967
 8027SOL     OW24979   4.719   1.645   4.981
 8027SOL    HW124980   4.776   1.577   5.027
 8027SOL    HW224981   4.640   1.667   5.038
 8028SOL     OW24982   4.875   4.595   6.726
 8028SOL    HW124983   4.815   4.674   6.740
 8028SOL    HW224984   4.829   4.513   6.761
 8029SOL     OW24985   3.915   4.299   0.234
 8029SOL    HW124986   3.945   4.210   0.201
 8029SOL    HW224987   3.991   4.344   0.282
 8030SOL     OW24988   5.613   4.126   6.217
 8030SOL    HW124989   5.566   4.039   6.234
 8030SOL    HW224990   5.665   4.152   6.297
 8031SOL     OW24991   3.822   5.585   1.574
 8031SOL    HW124992   3.798   5.625   1.486
 8031SOL    HW224993   3.744   5.590   1.636
 8032SOL     OW24994   5.437   3.934   5.420
 8032SOL    HW124995   5.371   3.936   5.344
 8032SOL    HW224996   5.530   3.942   5.384
 8033SOL     OW24997   5.915   2.375   0.232
 8033SOL    HW124998   5.924   2.414   0.323
 8033SOL    HW224999   5.913   2.275   0.238
 8034SOL     OW25000   5.526   6.828   4.646
 8034SOL    HW125001   5.617   6.849   4.684
 8034SOL    HW225002   5.528   6.842   4.547
 8035SOL     OW25003   5.535   6.624   6.854
 8035SOL    HW125004   5.628   6.658   6.850
 8035SOL    HW225005   5.513   6.574   6.771
 8036SOL     OW25006   1.907   4.358   1.642
 8036SOL    HW125007   1.925   4.397   1.733
 8036SOL    HW225008   1.994   4.343   1.595
 8037SOL     OW25009   1.721   2.904   1.219
 8037SOL    HW125010   1.816   2.907   1.252
 8037SOL    HW225011   1.695   2.994   1.184
 8038SOL     OW25012   0.493   2.361   3.640
 8038SOL    HW125013   0.481   2.294   3.567
 8038SOL    HW225014   0.417   2.427   3.637
 8039SOL     OW25015   2.539   6.870   3.409
 8039SOL    HW125016   2.480   6.844   3.333
 8039SOL    HW225017   2.543   6.970   3.416
 8040SOL     OW25018   0.180   5.442   1.189
 8040SOL    HW125019   0.138   5.470   1.275
 8040SOL    HW225020   0.264   5.493   1.174
 8041SOL     OW25021   4.456   1.181   0.518
 8041SOL    HW125022   4.405   1.189   0.604
 8041SOL    HW225023   4.398   1.141   0.448
 8042SOL     OW25024   3.406   2.910   2.312
 8042SOL    HW125025   3.445   2.870   2.395
 8042SOL    HW225026   3.451   2.872   2.231
 8043SOL     OW25027   2.455   0.233   1.799
 8043SOL    HW125028   2.402   0.198   1.877
 8043SOL    HW225029   2.419   0.322   1.772
 8044SOL     OW25030   3.105   3.766   1.335
 8044SOL    HW125031   3.008   3.783   1.355
 8044SOL    HW225032   3.126   3.669   1.350
 8045SOL     OW25033   5.393   2.553   3.375
 8045SOL    HW125034   5.316   2.542   3.312
 8045SOL    HW225035   5.367   2.617   3.447
 8046SOL     OW25036   6.091   4.865   5.571
 8046SOL    HW125037   6.068   4.950   5.525
 8046SOL    HW225038   6.175   4.877   5.624
 8047SOL     OW25039   3.655   5.934   4.273
 8047SOL    HW125040   3.712   5.852   4.278
 8047SOL    HW225041   3.671   5.981   4.186
 8048SOL     OW25042   6.551   6.978   5.324
 8048SOL    HW125043   6.507   0.023   5.383
 8048SOL    HW225044   6.527   6.996   5.228
 8049SOL     OW25045   1.264   6.570   0.994
 8049SOL    HW125046   1.354   6.610   1.011
 8049SOL    HW225047   1.261   6.477   1.028
 8050SOL     OW25048   1.990   3.615   1.321
 8050SOL    HW125049   2.034   3.571   1.243
 8050SOL    HW225050   2.049   3.608   1.401
 8051SOL     OW25051   4.563   0.988   3.489
 8051SOL    HW125052   4.651   1.036   3.486
 8051SOL    HW225053   4.569   0.911   3.552
 8052SOL     OW25054   2.737   1.331   3.000
 8052SOL    HW125055   2.742   1.298   3.095
 8052SOL    HW225056   2.670   1.277   2.950
 8053SOL     OW25057   4.108   3.696   2.588
 8053SOL    HW125058   4.082   3.773   2.528
 8053SOL    HW225059   4.156   3.732   2.668
 8054SOL     OW25060   4.500   6.588   4.634
 8054SOL    HW125061   4.569   6.532   4.589
 8054SOL    HW225062   4.426   6.609   4.569
 8055SOL     OW25063   1.532   6.873   6.078
 8055SOL    HW125064   1.591   6.938   6.031
 8055SOL    HW225065   1.584   6.790   6.101
 8056SOL     OW25066   4.199   1.624   2.847
 8056SOL    HW125067   4.293   1.610   2.816
 8056SOL    HW225068   4.161   1.705   2.803
 8057SOL     OW25069   3.488   6.691   3.215
 8057SOL    HW125070   3.526   6.680   3.307
 8057SOL    HW225071   3.392   6.716   3.222
 8058SOL     OW25072   3.143   1.146   2.155
 8058SOL    HW125073   3.151   1.072   2.088
 8058SOL    HW225074   3.233   1.164   2.195
 8059SOL     OW25075   3.376   1.797   4.335
 8059SOL    HW125076   3.370   1.752   4.424
 8059SOL    HW225077   3.361   1.895   4.347
 8060SOL     OW25078   0.061   0.790   4.745
 8060SOL    HW125079   7.008   0.728   4.732
 8060SOL    HW225080   0.135   0.765   4.682
 8061SOL     OW25081   6.519   5.776   2.931
 8061SOL    HW125082   6.506   5.820   2.842
 8061SOL    HW225083   6.595   5.711   2.925
 8062SOL     OW25084   1.456   4.208   3.625
 8062SOL    HW125085   1.421   4.297   3.655
 8062SOL    HW225086   1.475   4.151   3.704
 8063SOL     OW25087   3.275   3.134   0.062
 8063SOL    HW125088   3.277   3.165   0.158
 8063SOL    HW225089   3.185   3.097   0.041
 8064SOL     OW25090   6.988   3.568   0.423
 8064SOL    HW125091   6.917   3.564   0.493
 8064SOL    HW225092   0.035   3.633   0.451
 8065SOL     OW25093   5.069   0.040   5.043
 8065SOL    HW125094   5.034   6.985   4.993
 8065SOL    HW225095   5.113   0.104   4.980
 8066SOL     OW25096   1.560   1.225   1.727
 8066SOL    HW125097   1.659   1.239   1.727
 8066SOL    HW225098   1.529   1.204   1.819
 8067SOL     OW25099   4.903   2.657   1.755
 8067SOL    HW125100   4.977   2.608   1.709
 8067SOL    HW225101   4.942   2.722   1.821
 8068SOL     OW25102   0.971   4.247   5.025
 8068SOL    HW125103   0.978   4.244   4.925
 8068SOL    HW225104   0.950   4.156   5.059
 8069SOL     OW25105   1.231   6.713   2.027
 8069SOL    HW125106   1.134   6.718   2.049
 8069SOL    HW225107   1.242   6.688   1.930
 8070SOL     OW25108   4.316   6.573   1.415
 8070SOL    HW125109   4.269   6.642   1.360
 8070SOL    HW225110   4.330   6.491   1.360
 8071SOL     OW25111   3.751   7.017   6.301
 8071SOL    HW125112   3.766   6.933   6.250
 8071SOL    HW225113   3.839   0.027   6.337
 8072SOL     OW25114   4.941   1.124   0.672
 8072SOL    HW125115   4.864   1.110   0.734
 8072SOL    HW225116   5.026   1.106   0.721
 8073SOL     OW25117   4.168   6.398   5.831
 8073SOL    HW125118   4.230   6.404   5.752
 8073SOL    HW225119   4.104   6.474   5.828
 8074SOL     OW25120   3.911   3.814   6.899
 8074SOL    HW125121   3.889   3.859   6.986
 8074SOL    HW225122   3.906   3.715   6.911
 8075SOL     OW25123   6.824   1.520   2.706
 8075SOL    HW125124   6.893   1.462   2.663
 8075SOL    HW225125   6.837   1.519   2.805
 8076SOL     OW25126   5.802   2.666   5.611
 8076SOL    HW125127   5.865   2.726   5.561
 8076SOL    HW225128   5.850   2.582   5.638
 8077SOL     OW25129   1.408   0.620   1.055
 8077SOL    HW125130   1.506   0.626   1.033
 8077SOL    HW225131   1.378   0.525   1.048
 8078SOL     OW25132   6.371   2.907   0.849
 8078SOL    HW125133   6.412   2.994   0.874
 8078SOL    HW225134   6.283   2.897   0.895
 8079SOL     OW25135   6.721   2.276   2.457
 8079SOL    HW125136   6.691   2.180   2.461
 8079SOL    HW225137   6.814   2.280   2.420
 8080SOL     OW25138   3.454   4.500   0.384
 8080SOL    HW125139   3.535   4.558   0.390
 8080SOL    HW225140   3.412   4.509   0.294
 8081SOL     OW25141   6.162   0.558   5.071
 8081SOL    HW125142   6.103   0.519   5.141
 8081SOL    HW225143   6.173   0.494   4.996
 8082SOL     OW25144   0.141   2.725   3.437
 8082SOL    HW125145   0.184   2.644   3.397
 8082SOL    HW225146   0.047   2.703   3.464
 8083SOL     OW25147   4.486   2.434   3.420
 8083SOL    HW125148   4.509   2.526   3.454
 8083SOL    HW225149   4.421   2.391   3.482
 8084SOL     OW25150   6.814   6.752   1.544
 8084SOL    HW125151   6.777   6.677   1.599
 8084SOL    HW225152   6.754   6.832   1.552
 8085SOL     OW25153   5.711   0.719   0.966
 8085SOL    HW125154   5.691   0.702   1.062
 8085SOL    HW225155   5.778   0.652   0.934
 8086SOL     OW25156   3.671   0.804   5.326
 8086SOL    HW125157   3.733   0.813   5.248
 8086SOL    HW225158   3.651   0.894   5.364
 8087SOL     OW25159   2.860   2.438   1.313
 8087SOL    HW125160   2.802   2.519   1.319
 8087SOL    HW225161   2.837   2.375   1.388
 8088SOL     OW25162   4.534   1.035   2.627
 8088SOL    HW125163   4.584   1.057   2.710
 8088SOL    HW225164   4.533   0.936   2.614
 8089SOL     OW25165   6.264   2.526   0.325
 8089SOL    HW125166   6.220   2.437   0.320
 8089SOL    HW225167   6.242   2.579   0.243
 8090SOL     OW25168   4.529   1.976   5.357
 8090SOL    HW125169   4.453   2.020   5.404
 8090SOL    HW225170   4.530   2.005   5.261
 8091SOL     OW25171   2.537   4.909   5.866
 8091SOL    HW125172   2.528   4.835   5.933
 8091SOL    HW225173   2.589   4.876   5.787
 8092SOL     OW25174   1.261   1.746   4.901
 8092SOL    HW125175   1.290   1.777   4.810
 8092SOL    HW225176   1.234   1.650   4.896
 8093SOL     OW25177   5.659   5.670   1.351
 8093SOL    HW125178   5.694   5.587   1.394
 8093SOL    HW225179   5.721   5.698   1.278
 8094SOL     OW25180   1.187   4.017   5.690
 8094SOL    HW125181   1.102   4.051   5.649
 8094SOL    HW225182   1.265   4.050   5.637
 8095SOL     OW25183   5.454   3.372   4.327
 8095SOL    HW125184   5.482   3.444   4.264
 8095SOL    HW225185   5.423   3.292   4.275
 8096SOL     OW25186   3.648   6.173   1.483
 8096SOL    HW125187   3.748   6.166   1.492
 8096SOL    HW225188   3.615   6.248   1.539
 8097SOL     OW25189   5.011   0.841   3.931
 8097SOL    HW125190   5.063   0.819   3.848
 8097SOL    HW225191   4.935   0.902   3.907
 8098SOL     OW25192   3.413   6.656   3.750
 8098SOL    HW125193   3.339   6.705   3.706
 8098SOL    HW225194   3.487   6.720   3.772
 8099SOL     OW25195   4.480   6.888   5.155
 8099SOL    HW125196   4.539   6.911   5.077
 8099SOL    HW225197   4.461   6.971   5.208
 8100SOL     OW25198   0.461   6.507   0.878
 8100SOL    HW125199   0.434   6.431   0.938
 8100SOL    HW225200   0.530   6.475   0.813
 8101SOL     OW25201   1.751   6.471   3.722
 8101SOL    HW125202   1.769   6.504   3.630
 8101SOL    HW225203   1.665   6.421   3.723
 8102SOL     OW25204   6.606   5.954   6.048
 8102SOL    HW125205   6.514   5.963   6.009
 8102SOL    HW225206   6.608   5.993   6.139
 8103SOL     OW25207   3.306   1.463   2.652
 8103SOL    HW125208   3.353   1.551   2.651
 8103SOL    HW225209   3.374   1.389   2.650
 8104SOL     OW25210   2.582   6.787   6.380
 8104SOL    HW125211   2.577   6.689   6.363
 8104SOL    HW225212   2.577   6.836   6.293
 8105SOL     OW25213   2.337   2.154   3.642
 8105SOL    HW125214   2.266   2.203   3.693
 8105SOL    HW225215   2.306   2.060   3.625
 8106SOL     OW25216   1.274   4.146   4.102
 8106SOL    HW125217   1.298   4.049   4.110
 8106SOL    HW225218   1.186   4.154   4.054
 8107SOL     OW25219   2.192   6.503   6.075
 8107SOL    HW125220   2.271   6.564   6.087
 8107SOL    HW225221   2.110   6.547   6.111
 8108SOL     OW25222   1.023   3.276   4.226
 8108SOL    HW125223   1.076   3.327   4.294
 8108SOL    HW225224   0.966   3.208   4.273
 8109SOL     OW25225   1.500   5.145   4.823
 8109SOL    HW125226   1.509   5.233   4.870
 8109SOL    HW225227   1.530   5.154   4.729
 8110SOL     OW25228   2.304   5.481   0.530
 8110SOL    HW125229   2.215   5.528   0.531
 8110SOL    HW225230   2.377   5.548   0.544
 8111SOL     OW25231   2.568   5.261   4.773
 8111SOL    HW125232   2.511   5.283   4.694
 8111SOL    HW225233   2.660   5.300   4.759
 8112SOL     OW25234   2.328   1.005   4.737
 8112SOL    HW125235   2.251   0.960   4.690
 8112SOL    HW225236   2.384   1.053   4.669
 8113SOL     OW25237   3.681   2.485   5.914
 8113SOL    HW125238   3.656   2.488   6.011
 8113SOL    HW225239   3.736   2.566   5.891
 8114SOL     OW25240   2.113   3.112   1.879
 8114SOL    HW125241   2.038   3.172   1.905
 8114SOL    HW225242   2.134   3.050   1.954
 8115SOL     OW25243   3.599   1.520   0.896
 8115SOL    HW125244   3.520   1.467   0.926
 8115SOL    HW225245   3.655   1.545   0.975
 8116SOL     OW25246   5.716   0.519   5.065
 8116SOL    HW125247   5.625   0.497   5.100
 8116SOL    HW225248   5.773   0.553   5.139
 8117SOL     OW25249   1.891   2.008   5.392
 8117SOL    HW125250   1.904   1.926   5.337
 8117SOL    HW225251   1.794   2.034   5.391
 8118SOL     OW25252   0.665   3.404   5.215
 8118SOL    HW125253   0.741   3.343   5.236
 8118SOL    HW225254   0.580   3.351   5.211
 8119SOL     OW25255   0.502   6.337   2.828
 8119SOL    HW125256   0.422   6.283   2.800
 8119SOL    HW225257   0.566   6.279   2.879
 8120SOL     OW25258   4.451   4.028   1.687
 8120SOL    HW125259   4.355   4.012   1.666
 8120SOL    HW225260   4.460   4.099   1.757
 8121SOL     OW25261   6.081   0.505   2.602
 8121SOL    HW125262   6.154   0.566   2.633
 8121SOL    HW225263   6.024   0.552   2.534
 8122SOL     OW25264   6.558   6.618   2.240
 8122SOL    HW125265   6.642   6.580   2.201
 8122SOL    HW225266   6.489   6.629   2.169
 8123SOL     OW25267   1.666   6.215   0.019
 8123SOL    HW125268   1.651   6.253   0.110
 8123SOL    HW225269   1.579   6.201   6.997
 8124SOL     OW25270   1.259   6.125   2.317
 8124SOL    HW125271   1.255   6.126   2.217
 8124SOL    HW225272   1.258   6.031   2.350
 8125SOL     OW25273   5.828   5.159   2.984
 8125SOL    HW125274   5.809   5.063   2.960
 8125SOL    HW225275   5.899   5.162   3.054
 8126SOL     OW25276   5.513   4.464   2.810
 8126SOL    HW125277   5.446   4.454   2.737
 8126SOL    HW225278   5.493   4.399   2.883
 8127SOL     OW25279   2.062   5.070   0.063
 8127SOL    HW125280   2.052   5.013   0.145
 8127SOL    HW225281   2.084   5.013   7.008
 8128SOL     OW25282   3.947   2.412   5.353
 8128SOL    HW125283   3.894   2.491   5.385
 8128SOL    HW225284   4.029   2.444   5.306
 8129SOL     OW25285   5.320   0.316   6.167
 8129SOL    HW125286   5.398   0.339   6.225
 8129SOL    HW225287   5.340   0.342   6.073
 8130SOL     OW25288   1.967   5.834   0.235
 8130SOL    HW125289   2.061   5.857   0.209
 8130SOL    HW225290   1.930   5.908   0.292
 8131SOL     OW25291   2.574   1.241   0.501
 8131SOL    HW125292   2.501   1.222   0.435
 8131SOL    HW225293   2.575   1.170   0.571
 8132SOL     OW25294   6.303   5.207   4.023
 8132SOL    HW125295   6.352   5.211   4.110
 8132SOL    HW225296   6.239   5.283   4.017
 8133SOL     OW25297   2.109   5.373   2.062
 8133SOL    HW125298   2.032   5.313   2.040
 8133SOL    HW225299   2.188   5.347   2.007
 8134SOL     OW25300   2.269   2.505   3.771
 8134SOL    HW125301   2.184   2.478   3.816
 8134SOL    HW225302   2.346   2.465   3.819
 8135SOL     OW25303   4.036   5.485   2.028
 8135SOL    HW125304   4.087   5.570   2.043
 8135SOL    HW225305   4.027   5.436   2.115
 8136SOL     OW25306   4.465   5.624   2.114
 8136SOL    HW125307   4.522   5.696   2.152
 8136SOL    HW225308   4.497   5.599   2.023
 8137SOL     OW25309   2.249   4.312   5.014
 8137SOL    HW125310   2.150   4.301   5.024
 8137SOL    HW225311   2.292   4.222   5.014
 8138SOL     OW25312   5.136   0.993   3.194
 8138SOL    HW125313   5.140   0.945   3.281
 8138SOL    HW225314   5.162   0.931   3.120
 8139SOL     OW25315   1.563   2.002   3.678
 8139SOL    HW125316   1.646   1.964   3.721
 8139SOL    HW225317   1.486   1.942   3.697
 8140SOL     OW25318   4.509   0.943   0.786
 8140SOL    HW125319   4.425   0.888   0.792
 8140SOL    HW225320   4.565   0.910   0.710
 8141SOL     OW25321   4.908   1.438   5.079
 8141SOL    HW125322   5.007   1.434   5.083
 8141SOL    HW225323   4.870   1.419   5.170
 8142SOL     OW25324   2.058   5.745   0.562
 8142SOL    HW125325   2.007   5.821   0.602
 8142SOL    HW225326   2.112   5.777   0.484
 8143SOL     OW25327   5.851   4.845   0.557
 8143SOL    HW125328   5.887   4.825   0.466
 8143SOL    HW225329   5.761   4.888   0.549
 8144SOL     OW25330   6.743   4.578   6.274
 8144SOL    HW125331   6.677   4.587   6.200
 8144SOL    HW225332   6.703   4.613   6.359
 8145SOL     OW25333   4.913   5.495   6.899
 8145SOL    HW125334   4.965   5.422   6.854
 8145SOL    HW225335   4.868   5.551   6.829
 8146SOL     OW25336   5.847   0.323   4.795
 8146SOL    HW125337   5.780   0.393   4.821
 8146SOL    HW225338   5.801   0.249   4.747
 8147SOL     OW25339   1.823   1.054   5.948
 8147SOL    HW125340   1.786   0.982   5.890
 8147SOL    HW225341   1.765   1.066   6.028
 8148SOL     OW25342   4.163   5.033   0.198
 8148SOL    HW125343   4.153   5.131   0.178
 8148SOL    HW225344   4.105   4.980   0.136
 8149SOL     OW25345   1.089   5.841   4.804
 8149SOL    HW125346   1.078   5.784   4.885
 8149SOL    HW225347   1.076   5.785   4.722
 8150SOL     OW25348   0.807   2.892   0.905
 8150SOL    HW125349   0.746   2.813   0.904
 8150SOL    HW225350   0.754   2.975   0.885
 8151SOL     OW25351   6.271   5.068   3.362
 8151SOL    HW125352   6.286   5.000   3.434
 8151SOL    HW225353   6.208   5.138   3.396
 8152SOL     OW25354   4.619   1.680   3.229
 8152SOL    HW125355   4.528   1.670   3.268
 8152SOL    HW225356   4.685   1.699   3.302
 8153SOL     OW25357   0.262   1.855   3.714
 8153SOL    HW125358   0.236   1.781   3.776
 8153SOL    HW225359   0.242   1.943   3.758
 8154SOL     OW25360   2.065   1.066   3.743
 8154SOL    HW125361   1.970   1.075   3.773
 8154SOL    HW225362   2.069   1.066   3.643
 8155SOL     OW25363   1.356   5.328   2.494
 8155SOL    HW125364   1.448   5.290   2.504
 8155SOL    HW225365   1.301   5.304   2.574
 8156SOL     OW25366   6.496   5.606   1.484
 8156SOL    HW125367   6.504   5.522   1.432
 8156SOL    HW225368   6.548   5.599   1.569
 8157SOL     OW25369   6.786   2.901   6.111
 8157SOL    HW125370   6.866   2.857   6.153
 8157SOL    HW225371   6.817   2.974   6.051
 8158SOL     OW25372   5.542   4.816   6.520
 8158SOL    HW125373   5.610   4.818   6.448
 8158SOL    HW225374   5.451   4.824   6.481
 8159SOL     OW25375   3.125   6.396   5.406
 8159SOL    HW125376   3.166   6.431   5.322
 8159SOL    HW225377   3.081   6.471   5.455
 8160SOL     OW25378   5.048   1.088   3.618
 8160SOL    HW125379   5.057   1.175   3.666
 8160SOL    HW225380   5.108   1.020   3.661
 8161SOL     OW25381   5.815   2.805   1.197
 8161SOL    HW125382   5.808   2.814   1.297
 8161SOL    HW225383   5.852   2.889   1.159
 8162SOL     OW25384   0.179   4.774   6.232
 8162SOL    HW125385   0.156   4.701   6.297
 8162SOL    HW225386   0.264   4.818   6.261
 8163SOL     OW25387   4.712   4.711   4.932
 8163SOL    HW125388   4.805   4.718   4.969
 8163SOL    HW225389   4.681   4.801   4.901
 8164SOL     OW25390   5.356   1.162   0.381
 8164SOL    HW125391   5.335   1.253   0.416
 8164SOL    HW225392   5.398   1.107   0.453
 8165SOL     OW25393   6.844   1.477   6.768
 8165SOL    HW125394   6.928   1.513   6.809
 8165SOL    HW225395   6.813   1.539   6.696
 8166SOL     OW25396   1.748   2.030   4.969
 8166SOL    HW125397   1.698   2.038   4.883
 8166SOL    HW225398   1.729   2.111   5.026
 8167SOL     OW25399   0.549   2.819   4.091
 8167SOL    HW125400   0.471   2.878   4.111
 8167SOL    HW225401   0.524   2.755   4.018
 8168SOL     OW25402   2.585   0.864   1.965
 8168SOL    HW125403   2.660   0.881   2.029
 8168SOL    HW225404   2.610   0.790   1.903
 8169SOL     OW25405   5.102   2.694   0.990
 8169SOL    HW125406   5.181   2.685   0.929
 8169SOL    HW225407   5.064   2.786   0.982
 8170SOL     OW25408   6.026   4.825   1.996
 8170SOL    HW125409   5.948   4.762   2.004
 8170SOL    HW225410   5.996   4.917   2.019
 8171SOL     OW25411   1.723   1.089   0.778
 8171SOL    HW125412   1.710   1.033   0.697
 8171SOL    HW225413   1.811   1.066   0.821
 8172SOL     OW25414   0.780   3.040   1.541
 8172SOL    HW125415   0.734   2.953   1.557
 8172SOL    HW225416   0.851   3.053   1.609
 8173SOL     OW25417   5.369   1.228   2.272
 8173SOL    HW125418   5.284   1.219   2.221
 8173SOL    HW225419   5.382   1.323   2.300
 8174SOL     OW25420   2.465   5.183   2.656
 8174SOL    HW125421   2.366   5.197   2.654
 8174SOL    HW225422   2.484   5.086   2.674
 8175SOL     OW25423   0.904   1.676   4.909
 8175SOL    HW125424   0.894   1.763   4.861
 8175SOL    HW225425   0.956   1.690   4.994
 8176SOL     OW25426   2.027   4.193   0.734
 8176SOL    HW125427   1.961   4.264   0.710
 8176SOL    HW225428   2.098   4.232   0.792
 8177SOL     OW25429   3.895   1.266   2.849
 8177SOL    HW125430   3.947   1.346   2.817
 8177SOL    HW225431   3.932   1.234   2.936
 8178SOL     OW25432   2.078   6.412   0.965
 8178SOL    HW125433   2.158   6.362   0.933
 8178SOL    HW225434   2.081   6.506   0.932
 8179SOL     OW25435   5.389   1.088   3.584
 8179SOL    HW125436   5.406   1.163   3.521
 8179SOL    HW225437   5.434   1.005   3.550
 8180SOL     OW25438   4.784   6.342   6.983
 8180SOL    HW125439   4.706   6.321   6.924
 8180SOL    HW225440   4.788   6.276   0.034
 8181SOL     OW25441   0.542   1.136   0.689
 8181SOL    HW125442   0.551   1.061   0.755
 8181SOL    HW225443   0.633   1.173   0.668
 8182SOL     OW25444   2.966   3.872   4.914
 8182SOL    HW125445   2.886   3.849   4.970
 8182SOL    HW225446   3.048   3.835   4.957
 8183SOL     OW25447   7.018   0.442   5.158
 8183SOL    HW125448   0.026   0.434   5.253
 8183SOL    HW225449   6.939   0.383   5.143
 8184SOL     OW25450   0.356   6.334   6.267
 8184SOL    HW125451   0.343   6.365   6.361
 8184SOL    HW225452   0.319   6.241   6.257
 8185SOL     OW25453   1.068   6.706   0.118
 8185SOL    HW125454   1.109   6.690   0.207
 8185SOL    HW225455   0.972   6.677   0.119
 8186SOL     OW25456   1.162   5.443   6.693
 8186SOL    HW125457   1.209   5.424   6.607
 8186SOL    HW225458   1.154   5.542   6.706
 8187SOL     OW25459   0.982   0.672   6.406
 8187SOL    HW125460   1.035   0.591   6.431
 8187SOL    HW225461   0.948   0.717   6.489
 8188SOL     OW25462   2.397   1.895   3.660
 8188SOL    HW125463   2.428   1.850   3.577
 8188SOL    HW225464   2.450   1.862   3.738
 8189SOL     OW25465   4.980   4.496   3.724
 8189SOL    HW125466   4.939   4.584   3.699
 8189SOL    HW225467   4.984   4.437   3.644
 8190SOL     OW25468   6.198   3.450   3.329
 8190SOL    HW125469   6.208   3.354   3.357
 8190SOL    HW225470   6.286   3.484   3.297
 8191SOL     OW25471   3.922   5.110   1.556
 8191SOL    HW125472   3.989   5.037   1.569
 8191SOL    HW225473   3.873   5.096   1.470
 8192SOL     OW25474   1.276   5.084   4.088
 8192SOL    HW125475   1.274   5.024   4.008
 8192SOL    HW225476   1.347   5.153   4.075
 8193SOL     OW25477   0.594   3.786   5.190
 8193SOL    HW125478   0.643   3.720   5.247
 8193SOL    HW225479   0.627   3.780   5.096
 8194SOL     OW25480   4.819   6.571   1.827
 8194SOL    HW125481   4.846   6.623   1.745
 8194SOL    HW225482   4.822   6.473   1.807
 8195SOL     OW25483   5.789   6.823   3.714
 8195SOL    HW125484   5.781   6.789   3.620
 8195SOL    HW225485   5.826   6.916   3.713
 8196SOL     OW25486   4.829   6.988   0.430
 8196SOL    HW125487   4.924   7.017   0.442
 8196SOL    HW225488   4.789   0.013   0.352
 8197SOL     OW25489   4.693   1.621   2.197
 8197SOL    HW125490   4.639   1.606   2.279
 8197SOL    HW225491   4.669   1.710   2.157
 8198SOL     OW25492   2.007   0.536   2.593
 8198SOL    HW125493   1.938   0.599   2.628
 8198SOL    HW225494   2.084   0.589   2.557
 8199SOL     OW25495   5.283   2.809   5.899
 8199SOL    HW125496   5.321   2.793   5.808
 8199SOL    HW225497   5.351   2.855   5.957
 8200SOL     OW25498   4.233   2.855   1.329
 8200SOL    HW125499   4.308   2.793   1.348
 8200SOL    HW225500   4.176   2.863   1.411
 8201SOL     OW25501   6.766   6.917   5.477
 8201SOL    HW125502   6.727   6.867   5.554
 8201SOL    HW225503   6.693   6.955   5.420
 8202SOL     OW25504   0.666   6.459   2.103
 8202SOL    HW125505   0.622   6.537   2.059
 8202SOL    HW225506   0.598   6.389   2.124
 8203SOL     OW25507   1.221   3.344   1.138
 8203SOL    HW125508   1.229   3.265   1.078
 8203SOL    HW225509   1.308   3.358   1.186
 8204SOL     OW25510   3.875   3.119   1.624
 8204SOL    HW125511   3.900   3.126   1.527
 8204SOL    HW225512   3.930   3.183   1.677
 8205SOL     OW25513   1.257   3.499   0.853
 8205SOL    HW125514   1.316   3.569   0.813
 8205SOL    HW225515   1.240   3.428   0.784
 8206SOL     OW25516   4.081   1.216   6.650
 8206SOL    HW125517   4.148   1.142   6.663
 8206SOL    HW225518   4.032   1.232   6.736
 8207SOL     OW25519   3.812   3.074   4.857
 8207SOL    HW125520   3.805   3.165   4.898
 8207SOL    HW225521   3.897   3.030   4.885
 8208SOL     OW25522   1.866   0.947   0.373
 8208SOL    HW125523   1.920   0.867   0.345
 8208SOL    HW225524   1.911   0.990   0.452
 8209SOL     OW25525   6.433   0.863   5.568
 8209SOL    HW125526   6.431   0.956   5.533
 8209SOL    HW225527   6.388   0.801   5.504
 8210SOL     OW25528   1.516   2.807   0.416
 8210SOL    HW125529   1.608   2.821   0.452
 8210SOL    HW225530   1.483   2.892   0.375
 8211SOL     OW25531   2.855   4.601   0.684
 8211SOL    HW125532   2.804   4.530   0.637
 8211SOL    HW225533   2.814   4.619   0.774
 8212SOL     OW25534   1.761   2.292   3.038
 8212SOL    HW125535   1.708   2.211   3.062
 8212SOL    HW225536   1.791   2.285   2.943
 8213SOL     OW25537   0.325   4.755   1.856
 8213SOL    HW125538   0.292   4.826   1.794
 8213SOL    HW225539   0.425   4.756   1.858
 8214SOL     OW25540   5.433   4.245   2.966
 8214SOL    HW125541   5.425   4.305   3.046
 8214SOL    HW225542   5.527   4.213   2.957
 8215SOL     OW25543   3.468   4.908   4.923
 8215SOL    HW125544   3.536   4.943   4.859
 8215SOL    HW225545   3.383   4.890   4.875
 8216SOL     OW25546   4.706   4.386   3.884
 8216SOL    HW125547   4.786   4.376   3.944
 8216SOL    HW225548   4.674   4.480   3.887
 8217SOL     OW25549   2.605   6.499   0.379
 8217SOL    HW125550   2.647   6.452   0.301
 8217SOL    HW225551   2.662   6.484   0.460
 8218SOL     OW25552   0.293   1.418   0.048
 8218SOL    HW125553   0.346   1.483   0.102
 8218SOL    HW225554   0.301   1.327   0.088
 8219SOL     OW25555   5.806   2.161   6.483
 8219SOL    HW125556   5.801   2.061   6.476
 8219SOL    HW225557   5.733   2.201   6.428
 8220SOL     OW25558   3.542   3.662   2.726
 8220SOL    HW125559   3.487   3.746   2.727
 8220SOL    HW225560   3.638   3.686   2.712
 8221SOL     OW25561   5.541   6.179   3.724
 8221SOL    HW125562   5.444   6.158   3.709
 8221SOL    HW225563   5.592   6.093   3.731
 8222SOL     OW25564   5.956   1.315   2.082
 8222SOL    HW125565   6.002   1.396   2.117
 8222SOL    HW225566   5.916   1.335   1.993
 8223SOL     OW25567   0.396   4.276   6.454
 8223SOL    HW125568   0.447   4.362   6.452
 8223SOL    HW225569   0.361   4.255   6.363
 8224SOL     OW25570   1.108   3.097   3.066
 8224SOL    HW125571   1.206   3.115   3.077
 8224SOL    HW225572   1.071   3.156   2.994
 8225SOL     OW25573   5.019   1.545   6.633
 8225SOL    HW125574   5.005   1.523   6.729
 8225SOL    HW225575   5.102   1.499   6.600
 8226SOL     OW25576   5.008   0.604   1.268
 8226SOL    HW125577   4.940   0.669   1.234
 8226SOL    HW225578   4.972   0.557   1.348
 8227SOL     OW25579   6.412   3.187   3.290
 8227SOL    HW125580   6.477   3.224   3.225
 8227SOL    HW225581   6.350   3.123   3.244
 8228SOL     OW25582   6.719   2.572   4.959
 8228SOL    HW125583   6.680   2.638   5.024
 8228SOL    HW225584   6.763   2.621   4.884
 8229SOL     OW25585   3.446   5.650   6.995
 8229SOL    HW125586   3.456   5.551   6.985
 8229SOL    HW225587   3.479   5.678   0.061
 8230SOL     OW25588   5.339   0.116   4.842
 8230SOL    HW125589   5.422   0.140   4.791
 8230SOL    HW225590   5.284   0.198   4.855
 8231SOL     OW25591   5.596   5.220   0.831
 8231SOL    HW125592   5.623   5.270   0.749
 8231SOL    HW225593   5.586   5.283   0.908
 8232SOL     OW25594   3.820   1.893   0.051
 8232SOL    HW125595   3.778   1.915   6.986
 8232SOL    HW225596   3.914   1.926   0.053
 8233SOL     OW25597   0.835   5.322   6.347
 8233SOL    HW125598   0.845   5.418   6.372
 8233SOL    HW225599   0.845   5.313   6.247
 8234SOL     OW25600   2.977   2.499   6.998
 8234SOL    HW125601   2.942   2.427   6.938
 8234SOL    HW225602   2.906   2.528   0.038
 8235SOL     OW25603   3.989   3.575   1.208
 8235SOL    HW125604   4.064   3.611   1.264
 8235SOL    HW225605   3.909   3.559   1.265
 8236SOL     OW25606   6.607   2.763   0.349
 8236SOL    HW125607   6.635   2.725   0.261
 8236SOL    HW225608   6.535   2.830   0.335
 8237SOL     OW25609   3.709   5.845   4.973
 8237SOL    HW125610   3.762   5.764   4.949
 8237SOL    HW225611   3.672   5.835   5.066
 8238SOL     OW25612   2.330   3.640   6.681
 8238SOL    HW125613   2.294   3.574   6.747
 8238SOL    HW225614   2.323   3.603   6.589
 8239SOL     OW25615   0.154   1.789   5.539
 8239SOL    HW125616   0.154   1.784   5.439
 8239SOL    HW225617   0.060   1.780   5.572
 8240SOL     OW25618   3.191   4.055   2.643
 8240SOL    HW125619   3.191   4.128   2.574
 8240SOL    HW225620   3.285   4.031   2.666
 8241SOL     OW25621   3.232   6.862   0.247
 8241SOL    HW125622   3.230   6.953   0.206
 8241SOL    HW225623   3.265   6.796   0.180
 8242SOL     OW25624   0.727   4.588   5.201
 8242SOL    HW125625   0.630   4.605   5.186
 8242SOL    HW225626   0.767   4.662   5.254
 8243SOL     OW25627   0.510   3.053   5.976
 8243SOL    HW125628   0.533   3.057   5.879
 8243SOL    HW225629   0.592   3.074   6.030
 8244SOL     OW25630   0.967   6.421   4.062
 8244SOL    HW125631   1.008   6.385   3.978
 8244SOL    HW225632   1.040   6.454   4.122
 8245SOL     OW25633   4.546   2.003   0.741
 8245SOL    HW125634   4.499   2.028   0.657
 8245SOL    HW225635   4.571   2.086   0.791
 8246SOL     OW25636   6.044   3.633   6.314
 8246SOL    HW125637   6.095   3.719   6.317
 8246SOL    HW225638   5.960   3.641   6.368
 8247SOL     OW25639   0.644   0.277   1.610
 8247SOL    HW125640   0.682   0.357   1.564
 8247SOL    HW225641   0.625   0.299   1.706
 8248SOL     OW25642   5.670   3.971   3.678
 8248SOL    HW125643   5.614   3.911   3.620
 8248SOL    HW225644   5.617   4.052   3.703
 8249SOL     OW25645   1.903   4.525   4.558
 8249SOL    HW125646   1.910   4.427   4.535
 8249SOL    HW225647   1.967   4.546   4.631
 8250SOL     OW25648   3.732   4.003   3.054
 8250SOL    HW125649   3.820   3.959   3.039
 8250SOL    HW225650   3.736   4.059   3.137
 8251SOL     OW25651   5.485   1.864   4.808
 8251SOL    HW125652   5.453   1.948   4.764
 8251SOL    HW225653   5.566   1.830   4.761
 8252SOL     OW25654   2.227   2.971   6.000
 8252SOL    HW125655   2.156   2.901   6.011
 8252SOL    HW225656   2.303   2.932   5.948
 8253SOL     OW25657   3.237   2.992   5.156
 8253SOL    HW125658   3.231   2.956   5.249
 8253SOL    HW225659   3.328   2.976   5.119
 8254SOL     OW25660   4.298   4.701   3.862
 8254SOL    HW125661   4.342   4.625   3.814
 8254SOL    HW225662   4.367   4.768   3.889
 8255SOL     OW25663   4.537   5.805   3.956
 8255SOL    HW125664   4.505   5.899   3.948
 8255SOL    HW225665   4.458   5.743   3.967
 8256SOL     OW25666   5.354   1.306   4.253
 8256SOL    HW125667   5.356   1.207   4.248
 8256SOL    HW225668   5.259   1.338   4.250
 8257SOL     OW25669   5.868   4.607   3.322
 8257SOL    HW125670   5.868   4.675   3.395
 8257SOL    HW225671   5.774   4.592   3.291
 8258SOL     OW25672   4.017   1.661   0.230
 8258SOL    HW125673   4.020   1.758   0.208
 8258SOL    HW225674   4.084   1.640   0.301
 8259SOL     OW25675   3.518   2.071   3.413
 8259SOL    HW125676   3.424   2.051   3.386
 8259SOL    HW225677   3.521   2.086   3.512
 8260SOL     OW25678   2.555   6.889   1.683
 8260SOL    HW125679   2.489   6.815   1.672
 8260SOL    HW225680   2.549   6.951   1.604
 8261SOL     OW25681   5.736   1.036   1.455
 8261SOL    HW125682   5.766   1.099   1.383
 8261SOL    HW225683   5.669   1.080   1.513
 8262SOL     OW25684   0.823   2.422   1.624
 8262SOL    HW125685   0.842   2.514   1.658
 8262SOL    HW225686   0.778   2.369   1.695
 8263SOL     OW25687   6.415   1.363   1.515
 8263SOL    HW125688   6.506   1.364   1.473
 8263SOL    HW225689   6.374   1.273   1.502
 8264SOL     OW25690   1.366   5.934   2.737
 8264SOL    HW125691   1.375   5.928   2.637
 8264SOL    HW225692   1.374   6.029   2.766
 8265SOL     OW25693   1.431   0.807   1.742
 8265SOL    HW125694   1.426   0.731   1.676
 8265SOL    HW225695   1.416   0.771   1.834
 8266SOL     OW25696   2.650   6.844   2.782
 8266SOL    HW125697   2.598   6.826   2.698
 8266SOL    HW225698   2.644   6.941   2.805
 8267SOL     OW25699   1.740   3.738   1.099
 8267SOL    HW125700   1.675   3.811   1.120
 8267SOL    HW225701   1.833   3.773   1.111
 8268SOL     OW25702   2.413   6.728   6.088
 8268SOL    HW125703   2.432   6.793   6.014
 8268SOL    HW225704   2.468   6.646   6.075
 8269SOL     OW25705   5.307   1.858   1.105
 8269SOL    HW125706   5.380   1.926   1.111
 8269SOL    HW225707   5.260   1.852   1.193
 8270SOL     OW25708   3.237   6.565   3.961
 8270SOL    HW125709   3.266   6.576   4.056
 8270SOL    HW225710   3.312   6.592   3.900
 8271SOL     OW25711   6.627   2.109   2.782
 8271SOL    HW125712   6.623   2.082   2.686
 8271SOL    HW225713   6.535   2.104   2.821
 8272SOL     OW25714   4.427   0.663   2.335
 8272SOL    HW125715   4.339   0.653   2.382
 8272SOL    HW225716   4.500   0.663   2.403
 8273SOL     OW25717   1.709   0.318   1.164
 8273SOL    HW125718   1.710   0.231   1.115
 8273SOL    HW225719   1.712   0.301   1.262
 8274SOL     OW25720   4.328   5.359   3.215
 8274SOL    HW125721   4.396   5.382   3.146
 8274SOL    HW225722   4.286   5.272   3.192
 8275SOL     OW25723   4.675   2.003   6.290
 8275SOL    HW125724   4.747   1.939   6.316
 8275SOL    HW225725   4.715   2.079   6.238
 8276SOL     OW25726   1.139   2.286   4.691
 8276SOL    HW125727   1.055   2.325   4.654
 8276SOL    HW225728   1.152   2.318   4.785
 8277SOL     OW25729   6.850   0.425   6.527
 8277SOL    HW125730   6.800   0.429   6.440
 8277SOL    HW225731   6.785   0.415   6.602
 8278SOL     OW25732   2.443   1.794   6.954
 8278SOL    HW125733   2.515   1.852   6.916
 8278SOL    HW225734   2.378   1.851   7.005
 8279SOL     OW25735   0.652   6.233   3.754
 8279SOL    HW125736   0.654   6.308   3.821
 8279SOL    HW225737   0.734   6.177   3.764
 8280SOL     OW25738   3.151   2.506   6.576
 8280SOL    HW125739   3.249   2.508   6.599
 8280SOL    HW225740   3.121   2.597   6.547
 8281SOL     OW25741   0.783   5.545   1.779
 8281SOL    HW125742   0.873   5.576   1.751
 8281SOL    HW225743   0.724   5.535   1.698
 8282SOL     OW25744   5.282   3.015   6.161
 8282SOL    HW125745   5.194   2.968   6.149
 8282SOL    HW225746   5.315   3.046   6.072
 8283SOL     OW25747   1.358   4.541   6.184
 8283SOL    HW125748   1.395   4.453   6.155
 8283SOL    HW225749   1.262   4.547   6.157
 8284SOL     OW25750   0.198   4.483   2.178
 8284SOL    HW125751   0.155   4.492   2.268
 8284SOL    HW225752   0.222   4.574   2.144
 8285SOL     OW25753   3.967   3.318   4.858
 8285SOL    HW125754   4.062   3.348   4.855
 8285SOL    HW225755   3.936   3.294   4.766
 8286SOL     OW25756   6.767   2.435   5.633
 8286SOL    HW125757   6.802   2.476   5.549
 8286SOL    HW225758   6.711   2.502   5.682
 8287SOL     OW25759   0.902   5.588   4.267
 8287SOL    HW125760   0.803   5.604   4.264
 8287SOL    HW225761   0.945   5.656   4.325
 8288SOL     OW25762   2.393   2.658   2.852
 8288SOL    HW125763   2.489   2.659   2.827
 8288SOL    HW225764   2.358   2.565   2.846
 8289SOL     OW25765   0.784   0.629   0.519
 8289SOL    HW125766   0.819   0.698   0.456
 8289SOL    HW225767   0.821   0.647   0.611
 8290SOL     OW25768   6.239   2.059   0.790
 8290SOL    HW125769   6.192   2.013   0.865
 8290SOL    HW225770   6.328   2.092   0.822
 8291SOL     OW25771   4.421   0.113   6.445
 8291SOL    HW125772   4.404   0.210   6.463
 8291SOL    HW225773   4.439   0.100   6.347
 8292SOL     OW25774   2.820   6.798   0.542
 8292SOL    HW125775   2.884   6.851   0.597
 8292SOL    HW225776   2.729   6.804   0.582
 8293SOL     OW25777   4.504   6.616   5.875
 8293SOL    HW125778   4.464   6.547   5.936
 8293SOL    HW225779   4.504   6.705   5.921
 8294SOL     OW25780   6.208   2.400   6.710
 8294SOL    HW125781   6.293   2.360   6.743
 8294SOL    HW225782   6.168   2.340   6.640
 8295SOL     OW25783   5.727   4.478   1.764
 8295SOL    HW125784   5.641   4.435   1.790
 8295SOL    HW225785   5.802   4.413   1.774
 8296SOL     OW25786   1.102   5.685   6.819
 8296SOL    HW125787   1.129   5.747   6.746
 8296SOL    HW225788   1.083   5.737   6.903
 8297SOL     OW25789   6.192   2.327   3.418
 8297SOL    HW125790   6.152   2.238   3.397
 8297SOL    HW225791   6.131   2.400   3.386
 8298SOL     OW25792   4.476   1.504   1.651
 8298SOL    HW125793   4.426   1.516   1.737
 8298SOL    HW225794   4.568   1.470   1.670
 8299SOL     OW25795   0.098   2.828   1.977
 8299SOL    HW125796   0.051   2.839   1.889
 8299SOL    HW225797   0.119   2.917   2.015
 8300SOL     OW25798   0.730   4.329   5.130
 8300SOL    HW125799   0.808   4.314   5.069
 8300SOL    HW225800   0.731   4.423   5.163
 8301SOL     OW25801   4.293   2.560   1.502
 8301SOL    HW125802   4.303   2.646   1.552
 8301SOL    HW225803   4.244   2.577   1.417
 8302SOL     OW25804   6.082   6.737   6.535
 8302SOL    HW125805   6.142   6.738   6.455
 8302SOL    HW225806   5.989   6.761   6.506
 8303SOL     OW25807   0.624   0.108   4.901
 8303SOL    HW125808   0.580   0.112   4.812
 8303SOL    HW225809   0.718   0.075   4.889
 8304SOL     OW25810   0.529   3.825   6.705
 8304SOL    HW125811   0.548   3.786   6.795
 8304SOL    HW225812   0.487   3.755   6.647
 8305SOL     OW25813   3.116   5.302   4.026
 8305SOL    HW125814   3.211   5.285   4.002
 8305SOL    HW225815   3.057   5.274   3.950
 8306SOL     OW25816   0.605   2.448   5.539
 8306SOL    HW125817   0.638   2.537   5.506
 8306SOL    HW225818   0.545   2.407   5.470
 8307SOL     OW25819   3.328   5.537   0.883
 8307SOL    HW125820   3.281   5.486   0.811
 8307SOL    HW225821   3.402   5.481   0.922
 8308SOL     OW25822   3.804   6.863   1.622
 8308SOL    HW125823   3.836   6.891   1.712
 8308SOL    HW225824   3.734   6.927   1.590
 8309SOL     OW25825   6.117   6.191   2.689
 8309SOL    HW125826   6.051   6.140   2.634
 8309SOL    HW225827   6.092   6.185   2.785
 8310SOL     OW25828   0.795   4.930   0.632
 8310SOL    HW125829   0.725   4.897   0.696
 8310SOL    HW225830   0.872   4.866   0.631
 8311SOL     OW25831   6.780   0.668   6.652
 8311SOL    HW125832   6.766   0.640   6.557
 8311SOL    HW225833   6.845   0.744   6.655
 8312SOL     OW25834   4.881   6.769   1.634
 8312SOL    HW125835   4.888   6.857   1.682
 8312SOL    HW225836   4.969   6.749   1.589
 8313SOL     OW25837   3.399   1.667   2.917
 8313SOL    HW125838   3.382   1.569   2.932
 8313SOL    HW225839   3.477   1.679   2.857
 8314SOL     OW25840   5.782   0.229   1.357
 8314SOL    HW125841   5.873   0.211   1.318
 8314SOL    HW225842   5.771   0.327   1.371
 8315SOL     OW25843   4.814   3.227   0.507
 8315SOL    HW125844   4.879   3.160   0.543
 8315SOL    HW225845   4.759   3.264   0.582
 8316SOL     OW25846   0.633   4.502   0.828
 8316SOL    HW125847   0.709   4.558   0.796
 8316SOL    HW225848   0.594   4.543   0.910
 8317SOL     OW25849   1.922   4.071   2.480
 8317SOL    HW125850   1.950   4.146   2.540
 8317SOL    HW225851   1.994   4.002   2.476
 8318SOL     OW25852   4.085   1.681   4.717
 8318SOL    HW125853   4.045   1.678   4.809
 8318SOL    HW225854   4.118   1.590   4.692
 8319SOL     OW25855   3.268   1.175   5.284
 8319SOL    HW125856   3.336   1.127   5.230
 8319SOL    HW225857   3.180   1.174   5.235
 8320SOL     OW25858   2.934   4.771   1.347
 8320SOL    HW125859   2.958   4.754   1.251
 8320SOL    HW225860   2.986   4.709   1.406
 8321SOL     OW25861   0.263   1.148   0.190
 8321SOL    HW125862   0.214   1.192   0.115
 8321SOL    HW225863   0.206   1.075   0.228
 8322SOL     OW25864   0.090   0.041   6.907
 8322SOL    HW125865   0.188   0.049   6.887
 8322SOL    HW225866   0.038   0.100   6.846
 8323SOL     OW25867   0.891   0.843   2.527
 8323SOL    HW125868   0.866   0.939   2.544
 8323SOL    HW225869   0.918   0.800   2.614
 8324SOL     OW25870   6.180   0.681   2.320
 8324SOL    HW125871   6.190   0.735   2.403
 8324SOL    HW225872   6.093   0.704   2.276
 8325SOL     OW25873   3.999   3.062   4.101
 8325SOL    HW125874   3.926   3.022   4.157
 8325SOL    HW225875   3.966   3.073   4.007
 8326SOL     OW25876   4.524   3.496   5.540
 8326SOL    HW125877   4.553   3.587   5.570
 8326SOL    HW225878   4.587   3.461   5.471
 8327SOL     OW25879   5.351   2.533   5.969
 8327SOL    HW125880   5.429   2.584   6.005
 8327SOL    HW225881   5.271   2.593   5.967
 8328SOL     OW25882   2.352   3.806   6.319
 8328SOL    HW125883   2.254   3.797   6.305
 8328SOL    HW225884   2.392   3.716   6.338
 8329SOL     OW25885   0.277   2.865   5.304
 8329SOL    HW125886   0.257   2.881   5.207
 8329SOL    HW225887   0.193   2.840   5.352
 8330SOL     OW25888   1.668   6.623   0.855
 8330SOL    HW125889   1.714   6.538   0.883
 8330SOL    HW225890   1.600   6.603   0.785
 8331SOL     OW25891   3.267   0.474   1.068
 8331SOL    HW125892   3.215   0.389   1.080
 8331SOL    HW225893   3.287   0.487   0.971
 8332SOL     OW25894   5.135   5.234   1.731
 8332SOL    HW125895   5.060   5.268   1.674
 8332SOL    HW225896   5.100   5.162   1.792
 8333SOL     OW25897   0.576   6.265   6.984
 8333SOL    HW125898   0.491   6.308   7.015
 8333SOL    HW225899   0.555   6.175   6.946
 8334SOL     OW25900   5.995   1.630   3.589
 8334SOL    HW125901   5.924   1.700   3.578
 8334SOL    HW225902   5.968   1.547   3.540
 8335SOL     OW25903   6.169   5.448   6.294
 8335SOL    HW125904   6.199   5.529   6.244
 8335SOL    HW225905   6.170   5.467   6.392
 8336SOL     OW25906   0.214   1.607   2.358
 8336SOL    HW125907   0.186   1.702   2.368
 8336SOL    HW225908   0.246   1.572   2.446
 8337SOL     OW25909   0.720   6.210   2.959
 8337SOL    HW125910   0.797   6.163   2.915
 8337SOL    HW225911   0.745   6.304   2.979
 8338SOL     OW25912   1.963   5.157   1.506
 8338SOL    HW125913   2.062   5.145   1.502
 8338SOL    HW225914   1.919   5.067   1.511
 8339SOL     OW25915   6.158   0.837   2.541
 8339SOL    HW125916   6.078   0.898   2.546
 8339SOL    HW225917   6.180   0.804   2.633
 8340SOL     OW25918   4.854   3.666   1.056
 8340SOL    HW125919   4.772   3.621   1.020
 8340SOL    HW225920   4.849   3.764   1.041
 8341SOL     OW25921   2.122   0.064   1.023
 8341SOL    HW125922   2.095   0.160   1.027
 8341SOL    HW225923   2.046   0.007   1.053
 8342SOL     OW25924   3.762   0.594   0.838
 8342SOL    HW125925   3.807   0.681   0.818
 8342SOL    HW225926   3.750   0.542   0.753
 8343SOL     OW25927   1.677   5.659   6.130
 8343SOL    HW125928   1.654   5.702   6.043
 8343SOL    HW225929   1.633   5.569   6.135
 8344SOL     OW25930   4.472   6.126   5.878
 8344SOL    HW125931   4.556   6.166   5.843
 8344SOL    HW225932   4.477   6.119   5.978
 8345SOL     OW25933   6.089   1.946   3.031
 8345SOL    HW125934   6.090   1.898   2.943
 8345SOL    HW225935   6.010   2.007   3.034
 8346SOL     OW25936   2.511   4.908   0.506
 8346SOL    HW125937   2.554   4.817   0.504
 8346SOL    HW225938   2.583   4.978   0.507
 8347SOL     OW25939   2.761   6.529   4.873
 8347SOL    HW125940   2.842   6.578   4.844
 8347SOL    HW225941   2.741   6.551   4.969
 8348SOL     OW25942   1.164   0.802   1.472
 8348SOL    HW125943   1.170   0.703   1.480
 8348SOL    HW225944   1.207   0.831   1.386
 8349SOL     OW25945   5.667   3.799   0.851
 8349SOL    HW125946   5.573   3.822   0.828
 8349SOL    HW225947   5.686   3.705   0.822
 8350SOL     OW25948   6.310   1.075   5.041
 8350SOL    HW125949   6.327   0.980   5.017
 8350SOL    HW225950   6.396   1.124   5.050
 8351SOL     OW25951   3.429   6.111   4.184
 8351SOL    HW125952   3.446   6.044   4.256
 8351SOL    HW225953   3.383   6.066   4.107
 8352SOL     OW25954   6.603   6.894   2.338
 8352SOL    HW125955   6.529   6.917   2.276
 8352SOL    HW225956   6.618   6.795   2.338
 8353SOL     OW25957   6.256   3.575   2.381
 8353SOL    HW125958   6.302   3.660   2.407
 8353SOL    HW225959   6.234   3.578   2.283
 8354SOL     OW25960   3.016   1.751   6.783
 8354SOL    HW125961   3.066   1.704   6.710
 8354SOL    HW225962   2.920   1.725   6.779
 8355SOL     OW25963   3.023   0.550   0.325
 8355SOL    HW125964   3.004   0.565   0.228
 8355SOL    HW225965   3.117   0.578   0.345
 8356SOL     OW25966   1.026   6.228   0.489
 8356SOL    HW125967   1.050   6.171   0.567
 8356SOL    HW225968   1.095   6.299   0.476
 8357SOL     OW25969   3.388   5.549   4.603
 8357SOL    HW125970   3.295   5.522   4.629
 8357SOL    HW225971   3.453   5.480   4.635
 8358SOL     OW25972   1.693   2.412   5.464
 8358SOL    HW125973   1.785   2.413   5.425
 8358SOL    HW225974   1.694   2.360   5.549
 8359SOL     OW25975   4.242   5.420   4.282
 8359SOL    HW125976   4.143   5.428   4.297
 8359SOL    HW225977   4.281   5.512   4.273
 8360SOL     OW25978   4.487   0.185   2.784
 8360SOL    HW125979   4.394   0.213   2.762
 8360SOL    HW225980   4.506   0.096   2.742
 8361SOL     OW25981   1.694   1.486   2.735
 8361SOL    HW125982   1.730   1.407   2.785
 8361SOL    HW225983   1.767   1.553   2.722
 8362SOL     OW25984   2.372   2.725   0.702
 8362SOL    HW125985   2.394   2.635   0.738
 8362SOL    HW225986   2.443   2.790   0.729
 8363SOL     OW25987   1.167   3.025   0.997
 8363SOL    HW125988   1.131   3.115   0.969
 8363SOL    HW225989   1.103   2.981   1.059
 8364SOL     OW25990   6.428   3.557   3.218
 8364SOL    HW125991   6.509   3.616   3.222
 8364SOL    HW225992   6.374   3.581   3.138
 8365SOL     OW25993   1.538   3.427   0.686
 8365SOL    HW125994   1.547   3.518   0.725
 8365SOL    HW225995   1.628   3.394   0.657
 8366SOL     OW25996   4.721   6.043   2.572
 8366SOL    HW125997   4.760   6.093   2.650
 8366SOL    HW225998   4.686   5.955   2.602
 8367SOL     OW25999   4.739   6.263   3.543
 8367SOL    HW126000   4.777   6.185   3.594
 8367SOL    HW226001   4.748   6.246   3.445
 8368SOL     OW26002   2.644   5.407   6.010
 8368SOL    HW126003   2.575   5.467   5.970
 8368SOL    HW226004   2.613   5.312   6.004
 8369SOL     OW26005   2.156   0.881   0.088
 8369SOL    HW126006   2.120   0.837   0.170
 8369SOL    HW226007   2.229   0.825   0.049
 8370SOL     OW26008   1.902   2.081   6.299
 8370SOL    HW126009   1.833   2.114   6.235
 8370SOL    HW226010   1.945   2.160   6.345
 8371SOL     OW26011   1.314   2.874   0.703
 8371SOL    HW126012   1.370   2.791   0.704
 8371SOL    HW226013   1.278   2.891   0.794
 8372SOL     OW26014   0.407   0.322   2.727
 8372SOL    HW126015   0.421   0.317   2.628
 8372SOL    HW226016   0.462   0.252   2.772
 8373SOL     OW26017   0.992   6.777   5.632
 8373SOL    HW126018   0.947   6.696   5.670
 8373SOL    HW226019   0.998   6.848   5.702
 8374SOL     OW26020   6.517   1.099   0.239
 8374SOL    HW126021   6.558   1.060   0.322
 8374SOL    HW226022   6.587   1.108   0.168
 8375SOL     OW26023   3.391   5.995   5.819
 8375SOL    HW126024   3.380   5.903   5.856
 8375SOL    HW226025   3.420   6.058   5.891
 8376SOL     OW26026   3.069   0.180   3.890
 8376SOL    HW126027   3.155   0.186   3.839
 8376SOL    HW226028   3.070   0.098   3.947
 8377SOL     OW26029   6.208   5.522   1.187
 8377SOL    HW126030   6.229   5.569   1.101
 8377SOL    HW226031   6.138   5.573   1.237
 8378SOL     OW26032   5.322   3.430   2.953
 8378SOL    HW126033   5.364   3.431   3.044
 8378SOL    HW226034   5.256   3.354   2.947
 8379SOL     OW26035   6.494   3.701   1.807
 8379SOL    HW126036   6.463   3.734   1.718
 8379SOL    HW226037   6.467   3.606   1.819
 8380SOL     OW26038   5.929   1.010   2.534
 8380SOL    HW126039   5.839   0.966   2.525
 8380SOL    HW226040   5.917   1.109   2.537
 8381SOL     OW26041   1.447   5.284   4.489
 8381SOL    HW126042   1.409   5.213   4.429
 8381SOL    HW226043   1.373   5.326   4.541
 8382SOL     OW26044   1.429   1.978   2.738
 8382SOL    HW126045   1.469   2.069   2.733
 8382SOL    HW226046   1.433   1.944   2.832
 8383SOL     OW26047   2.680   2.395   6.958
 8383SOL    HW126048   2.649   2.466   7.021
 8383SOL    HW226049   2.664   2.425   6.864
 8384SOL     OW26050   6.993   6.219   1.002
 8384SOL    HW126051   6.893   6.219   1.000
 8384SOL    HW226052   0.002   6.309   1.032
 8385SOL     OW26053   4.902   1.971   2.281
 8385SOL    HW126054   4.990   1.965   2.234
 8385SOL    HW226055   4.917   1.980   2.379
 8386SOL     OW26056   0.688   3.958   2.747
 8386SOL    HW126057   0.656   3.886   2.810
 8386SOL    HW226058   0.783   3.981   2.770
 8387SOL     OW26059   1.494   1.453   1.216
 8387SOL    HW126060   1.395   1.443   1.211
 8387SOL    HW226061   1.527   1.419   1.304
 8388SOL     OW26062   3.025   6.319   1.665
 8388SOL    HW126063   2.986   6.241   1.714
 8388SOL    HW226064   2.971   6.338   1.584
 8389SOL     OW26065   5.289   2.874   1.859
 8389SOL    HW126066   5.235   2.790   1.866
 8389SOL    HW226067   5.311   2.908   1.950
 8390SOL     OW26068   4.635   1.893   5.637
 8390SOL    HW126069   4.703   1.830   5.674
 8390SOL    HW226070   4.574   1.844   5.575
 8391SOL     OW26071   6.471   0.177   0.770
 8391SOL    HW126072   6.524   0.172   0.686
 8391SOL    HW226073   6.524   0.222   0.842
 8392SOL     OW26074   5.762   3.534   4.494
 8392SOL    HW126075   5.677   3.504   4.537
 8392SOL    HW226076   5.784   3.472   4.418
 8393SOL     OW26077   4.811   7.009   1.720
 8393SOL    HW126078   4.827   7.008   1.818
 8393SOL    HW226079   4.713   7.018   1.702
 8394SOL     OW26080   5.979   3.645   2.328
 8394SOL    HW126081   5.895   3.618   2.375
 8394SOL    HW226082   6.056   3.592   2.363
 8395SOL     OW26083   2.345   0.638   5.351
 8395SOL    HW126084   2.333   0.539   5.355
 8395SOL    HW226085   2.288   0.676   5.278
 8396SOL     OW26086   4.755   5.550   5.022
 8396SOL    HW126087   4.853   5.561   5.007
 8396SOL    HW226088   4.715   5.639   5.043
 8397SOL     OW26089   6.577   1.217   3.781
 8397SOL    HW126090   6.569   1.304   3.732
 8397SOL    HW226091   6.652   1.222   3.846
 8398SOL     OW26092   5.236   2.081   5.819
 8398SOL    HW126093   5.179   2.092   5.738
 8398SOL    HW226094   5.316   2.141   5.813
 8399SOL     OW26095   6.971   5.666   6.943
 8399SOL    HW126096   6.982   5.628   6.851
 8399SOL    HW226097   6.996   5.597   7.011
 8400SOL     OW26098   1.618   2.283   4.202
 8400SOL    HW126099   1.526   2.256   4.175
 8400SOL    HW226100   1.664   2.327   4.124
 8401SOL     OW26101   2.657   0.360   5.500
 8401SOL    HW126102   2.645   0.322   5.408
 8401SOL    HW226103   2.641   0.459   5.497
 8402SOL     OW26104   4.513   1.096   5.662
 8402SOL    HW126105   4.575   1.095   5.740
 8402SOL    HW226106   4.465   1.009   5.655
 8403SOL     OW26107   6.444   4.302   4.222
 8403SOL    HW126108   6.407   4.326   4.132
 8403SOL    HW226109   6.535   4.262   4.212
 8404SOL     OW26110   2.439   2.273   6.476
 8404SOL    HW126111   2.454   2.332   6.555
 8404SOL    HW226112   2.527   2.243   6.440
 8405SOL     OW26113   3.831   1.233   5.131
 8405SOL    HW126114   3.914   1.224   5.186
 8405SOL    HW226115   3.796   1.327   5.138
 8406SOL     OW26116   5.101   0.937   6.422
 8406SOL    HW126117   5.170   0.964   6.489
 8406SOL    HW226118   5.016   0.912   6.470
 8407SOL     OW26119   3.696   6.414   3.314
 8407SOL    HW126120   3.679   6.347   3.387
 8407SOL    HW226121   3.616   6.474   3.305
 8408SOL     OW26122   5.199   0.237   1.066
 8408SOL    HW126123   5.137   0.196   0.999
 8408SOL    HW226124   5.165   0.219   1.158
 8409SOL     OW26125   4.453   2.397   2.138
 8409SOL    HW126126   4.461   2.300   2.117
 8409SOL    HW226127   4.481   2.451   2.059
 8410SOL     OW26128   6.620   1.967   1.712
 8410SOL    HW126129   6.589   2.056   1.677
 8410SOL    HW226130   6.582   1.894   1.656
 8411SOL     OW26131   0.838   6.624   0.787
 8411SOL    HW126132   0.853   6.713   0.742
 8411SOL    HW226133   0.853   6.634   0.885
 8412SOL     OW26134   2.850   3.522   0.524
 8412SOL    HW126135   2.932   3.575   0.545
 8412SOL    HW226136   2.827   3.534   0.427
 8413SOL     OW26137   4.136   5.475   5.508
 8413SOL    HW126138   4.147   5.394   5.566
 8413SOL    HW226139   4.086   5.545   5.558
 8414SOL     OW26140   1.654   1.159   2.684
 8414SOL    HW126141   1.564   1.196   2.708
 8414SOL    HW226142   1.664   1.068   2.723
 8415SOL     OW26143   2.588   7.004   4.208
 8415SOL    HW126144   2.614   7.010   4.112
 8415SOL    HW226145   2.645   6.936   4.254
 8416SOL     OW26146   6.444   1.677   4.491
 8416SOL    HW126147   6.406   1.720   4.573
 8416SOL    HW226148   6.526   1.624   4.515
 8417SOL     OW26149   0.818   2.941   4.989
 8417SOL    HW126150   0.757   2.867   5.018
 8417SOL    HW226151   0.890   2.953   5.058
 8418SOL     OW26152   1.175   5.891   2.427
 8418SOL    HW126153   1.251   5.826   2.414
 8418SOL    HW226154   1.090   5.840   2.435
 8419SOL     OW26155   5.143   0.475   3.727
 8419SOL    HW126156   5.186   0.468   3.817
 8419SOL    HW226157   5.044   0.468   3.737
 8420SOL     OW26158   3.185   6.479   2.032
 8420SOL    HW126159   3.270   6.517   2.066
 8420SOL    HW226160   3.121   6.466   2.108
 8421SOL     OW26161   4.031   6.550   6.152
 8421SOL    HW126162   4.076   6.461   6.142
 8421SOL    HW226163   3.934   6.541   6.127
 8422SOL     OW26164   4.633   2.542   2.850
 8422SOL    HW126165   4.599   2.453   2.821
 8422SOL    HW226166   4.626   2.550   2.949
 8423SOL     OW26167   5.681   4.248   5.743
 8423SOL    HW126168   5.583   4.252   5.763
 8423SOL    HW226169   5.731   4.225   5.826
 8424SOL     OW26170   2.059   0.048   3.355
 8424SOL    HW126171   2.134   0.082   3.412
 8424SOL    HW226172   1.998   7.015   3.411
 8425SOL     OW26173   2.972   3.549   3.169
 8425SOL    HW126174   2.943   3.566   3.075
 8425SOL    HW226175   3.009   3.633   3.209
 8426SOL     OW26176   3.877   2.964   2.063
 8426SOL    HW126177   3.787   2.999   2.087
 8426SOL    HW226178   3.947   3.031   2.090
 8427SOL     OW26179   2.844   3.363   3.353
 8427SOL    HW126180   2.888   3.442   3.309
 8427SOL    HW226181   2.750   3.355   3.320
 8428SOL     OW26182   6.702   0.890   0.858
 8428SOL    HW126183   6.724   0.807   0.909
 8428SOL    HW226184   6.615   0.878   0.810
 8429SOL     OW26185   1.943   5.784   6.154
 8429SOL    HW126186   1.969   5.744   6.242
 8429SOL    HW226187   1.856   5.746   6.124
 8430SOL     OW26188   4.320   5.940   4.263
 8430SOL    HW126189   4.348   5.922   4.357
 8430SOL    HW226190   4.249   6.010   4.262
 8431SOL     OW26191   2.658   3.236   6.535
 8431SOL    HW126192   2.666   3.264   6.439
 8431SOL    HW226193   2.678   3.314   6.594
 8432SOL     OW26194   6.960   5.760   6.184
 8432SOL    HW126195   0.018   5.715   6.147
 8432SOL    HW226196   6.912   5.697   6.245
 8433SOL     OW26197   4.583   2.663   0.873
 8433SOL    HW126198   4.525   2.593   0.832
 8433SOL    HW226199   4.537   2.752   0.866
 8434SOL     OW26200   2.253   5.589   5.378
 8434SOL    HW126201   2.311   5.654   5.329
 8434SOL    HW226202   2.189   5.547   5.314
 8435SOL     OW26203   4.927   1.063   2.509
 8435SOL    HW126204   4.869   1.032   2.434
 8435SOL    HW226205   4.883   1.141   2.555
 8436SOL     OW26206   2.430   6.529   3.285
 8436SOL    HW126207   2.528   6.538   3.300
 8436SOL    HW226208   2.394   6.611   3.241
 8437SOL     OW26209   2.406   2.641   2.267
 8437SOL    HW126210   2.363   2.672   2.351
 8437SOL    HW226211   2.482   2.579   2.290
 8438SOL     OW26212   1.441   4.585   3.413
 8438SOL    HW126213   1.511   4.546   3.473
 8438SOL    HW226214   1.378   4.514   3.384
 8439SOL     OW26215   5.995   5.679   3.353
 8439SOL    HW126216   6.034   5.769   3.371
 8439SOL    HW226217   5.899   5.688   3.330
 8440SOL     OW26218   2.231   1.253   3.341
 8440SOL    HW126219   2.305   1.214   3.397
 8440SOL    HW226220   2.254   1.244   3.244
 8441SOL     OW26221   5.556   0.006   5.508
 8441SOL    HW126222   5.647   0.012   5.468
 8441SOL    HW226223   5.492   6.996   5.438
 8442SOL     OW26224   3.864   0.834   5.134
 8442SOL    HW126225   3.947   0.816   5.188
 8442SOL    HW226226   3.885   0.899   5.061
 8443SOL     OW26227   1.556   5.047   3.496
 8443SOL    HW126228   1.600   4.979   3.437
 8443SOL    HW226229   1.595   5.137   3.478
 8444SOL     OW26230   4.593   5.981   3.273
 8444SOL    HW126231   4.606   5.887   3.304
 8444SOL    HW226232   4.503   5.990   3.230
 8445SOL     OW26233   3.342   6.989   6.909
 8445SOL    HW126234   3.297   6.902   6.889
 8445SOL    HW226235   3.284   0.020   6.970
 8446SOL     OW26236   0.325   6.086   5.114
 8446SOL    HW126237   0.377   6.117   5.035
 8446SOL    HW226238   0.387   6.072   5.192
 8447SOL     OW26239   3.856   1.480   2.422
 8447SOL    HW126240   3.849   1.580   2.419
 8447SOL    HW226241   3.767   1.440   2.404
 8448SOL     OW26242   5.060   6.682   2.759
 8448SOL    HW126243   5.022   6.612   2.698
 8448SOL    HW226244   5.133   6.732   2.711
 8449SOL     OW26245   1.875   2.555   3.456
 8449SOL    HW126246   1.910   2.630   3.512
 8449SOL    HW226247   1.945   2.483   3.450
 8450SOL     OW26248   6.655   1.047   6.860
 8450SOL    HW126249   6.587   1.117   6.881
 8450SOL    HW226250   6.669   1.042   6.761
 8451SOL     OW26251   4.455   1.946   1.207
 8451SOL    HW126252   4.555   1.949   1.196
 8451SOL    HW226253   4.431   1.869   1.266
 8452SOL     OW26254   5.207   1.808   4.779
 8452SOL    HW126255   5.303   1.837   4.774
 8452SOL    HW226256   5.195   1.723   4.729
 8453SOL     OW26257   0.840   6.363   6.945
 8453SOL    HW126258   0.897   6.294   6.990
 8453SOL    HW226259   0.744   6.336   6.951
 8454SOL     OW26260   0.479   4.571   0.055
 8454SOL    HW126261   0.577   4.587   0.044
 8454SOL    HW226262   0.462   4.473   0.061
 8455SOL     OW26263   0.990   0.636   2.706
 8455SOL    HW126264   0.954   0.547   2.677
 8455SOL    HW226265   1.079   0.623   2.750
 8456SOL     OW26266   5.412   1.328   3.302
 8456SOL    HW126267   5.393   1.397   3.231
 8456SOL    HW226268   5.326   1.288   3.332
 8457SOL     OW26269   6.230   6.281   4.996
 8457SOL    HW126270   6.209   6.279   5.094
 8457SOL    HW226271   6.263   6.373   4.971
 8458SOL     OW26272   6.748   0.375   6.857
 8458SOL    HW126273   6.677   0.350   6.791
 8458SOL    HW226274   6.732   0.468   6.889
 8459SOL     OW26275   1.557   5.910   3.112
 8459SOL    HW126276   1.598   5.833   3.063
 8459SOL    HW226277   1.514   5.878   3.196
 8460SOL     OW26278   3.262   4.175   5.056
 8460SOL    HW126279   3.337   4.182   4.990
 8460SOL    HW226280   3.200   4.102   5.027
 8461SOL     OW26281   6.732   2.832   5.049
 8461SOL    HW126282   6.735   2.865   4.954
 8461SOL    HW226283   6.668   2.887   5.102
 8462SOL     OW26284   2.276   2.098   1.824
 8462SOL    HW126285   2.308   2.091   1.918
 8462SOL    HW226286   2.343   2.055   1.763
 8463SOL     OW26287   5.894   0.792   2.233
 8463SOL    HW126288   5.892   0.716   2.169
 8463SOL    HW226289   5.875   0.877   2.184
 8464SOL     OW26290   5.973   2.918   4.428
 8464SOL    HW126291   5.920   2.953   4.505
 8464SOL    HW226292   5.921   2.930   4.343
 8465SOL     OW26293   1.633   1.978   0.574
 8465SOL    HW126294   1.699   1.955   0.503
 8465SOL    HW226295   1.655   2.068   0.611
 8466SOL     OW26296   0.746   5.657   3.241
 8466SOL    HW126297   0.753   5.751   3.274
 8466SOL    HW226298   0.747   5.656   3.141
 8467SOL     OW26299   2.962   5.528   0.937
 8467SOL    HW126300   3.008   5.439   0.930
 8467SOL    HW226301   3.027   5.597   0.970
 8468SOL     OW26302   4.676   1.966   6.842
 8468SOL    HW126303   4.773   1.947   6.829
 8468SOL    HW226304   4.624   1.881   6.833
 8469SOL     OW26305   3.191   2.773   6.437
 8469SOL    HW126306   3.276   2.733   6.402
 8469SOL    HW226307   3.210   2.823   6.521
 8470SOL     OW26308   2.657   3.357   6.907
 8470SOL    HW126309   2.640   3.398   6.817
 8470SOL    HW226310   2.710   3.273   6.897
 8471SOL     OW26311   3.387   0.874   3.730
 8471SOL    HW126312   3.306   0.832   3.688
 8471SOL    HW226313   3.362   0.912   3.819
 8472SOL     OW26314   0.941   6.711   4.316
 8472SOL    HW126315   0.884   6.649   4.371
 8472SOL    HW226316   1.023   6.662   4.287
 8473SOL     OW26317   0.019   5.182   6.856
 8473SOL    HW126318   7.018   5.085   6.858
 8473SOL    HW226319   0.096   5.198   6.917
 8474SOL     OW26320   3.329   3.913   1.276
 8474SOL    HW126321   3.330   4.008   1.245
 8474SOL    HW226322   3.234   3.883   1.288
 8475SOL     OW26323   5.952   1.514   2.626
 8475SOL    HW126324   6.043   1.536   2.661
 8475SOL    HW226325   5.886   1.579   2.663
 8476SOL     OW26326   4.446   1.001   1.968
 8476SOL    HW126327   4.529   1.052   1.945
 8476SOL    HW226328   4.367   1.062   1.966
 8477SOL     OW26329   2.647   0.599   1.204
 8477SOL    HW126330   2.564   0.602   1.148
 8477SOL    HW226331   2.690   0.510   1.194
 8478SOL     OW26332   1.308   0.660   5.517
 8478SOL    HW126333   1.311   0.757   5.539
 8478SOL    HW226334   1.233   0.643   5.453
 8479SOL     OW26335   5.823   0.941   0.758
 8479SOL    HW126336   5.784   1.022   0.801
 8479SOL    HW226337   5.811   0.862   0.819
 8480SOL     OW26338   3.357   0.871   1.461
 8480SOL    HW126339   3.424   0.942   1.436
 8480SOL    HW226340   3.306   0.844   1.380
 8481SOL     OW26341   3.842   1.321   4.354
 8481SOL    HW126342   3.791   1.291   4.435
 8481SOL    HW226343   3.794   1.398   4.312
 8482SOL     OW26344   1.266   6.991   2.217
 8482SOL    HW126345   1.322   0.006   2.290
 8482SOL    HW226346   1.314   7.000   2.130
 8483SOL     OW26347   3.720   6.044   0.775
 8483SOL    HW126348   3.709   6.048   0.874
 8483SOL    HW226349   3.630   6.045   0.731
 8484SOL     OW26350   0.577   5.052   4.623
 8484SOL    HW126351   0.509   4.981   4.605
 8484SOL    HW226352   0.584   5.066   4.722
 8485SOL     OW26353   2.303   4.072   0.115
 8485SOL    HW126354   2.317   4.013   0.035
 8485SOL    HW226355   2.286   4.016   0.196
 8486SOL     OW26356   5.694   0.888   2.049
 8486SOL    HW126357   5.701   0.900   1.950
 8486SOL    HW226358   5.699   0.791   2.072
 8487SOL     OW26359   5.083   0.278   1.313
 8487SOL    HW126360   5.019   0.210   1.348
 8487SOL    HW226361   5.048   0.370   1.330
 8488SOL     OW26362   4.959   3.579   4.059
 8488SOL    HW126363   4.907   3.561   4.142
 8488SOL    HW226364   4.945   3.505   3.994
 8489SOL     OW26365   4.887   4.493   1.675
 8489SOL    HW126366   4.939   4.479   1.760
 8489SOL    HW226367   4.937   4.454   1.599
 8490SOL     OW26368   4.527   4.848   3.081
 8490SOL    HW126369   4.436   4.809   3.092
 8490SOL    HW226370   4.584   4.784   3.029
 8491SOL     OW26371   2.208   0.601   2.288
 8491SOL    HW126372   2.224   0.578   2.384
 8491SOL    HW226373   2.279   0.663   2.256
 8492SOL     OW26374   6.189   2.474   5.208
 8492SOL    HW126375   6.164   2.383   5.176
 8492SOL    HW226376   6.288   2.483   5.209
 8493SOL     OW26377   4.436   1.568   6.543
 8493SOL    HW126378   4.400   1.657   6.514
 8493SOL    HW226379   4.361   1.506   6.562
 8494SOL     OW26380   3.221   5.603   6.622
 8494SOL    HW126381   3.134   5.635   6.584
 8494SOL    HW226382   3.228   5.631   6.718
 8495SOL     OW26383   6.986   2.370   1.048
 8495SOL    HW126384   0.051   2.413   1.066
 8495SOL    HW226385   6.913   2.426   1.087
 8496SOL     OW26386   0.209   2.504   3.329
 8496SOL    HW126387   0.131   2.457   3.288
 8496SOL    HW226388   0.292   2.484   3.277
 8497SOL     OW26389   5.992   5.271   3.576
 8497SOL    HW126390   5.969   5.233   3.486
 8497SOL    HW226391   6.052   5.350   3.564
 8498SOL     OW26392   0.257   0.930   1.346
 8498SOL    HW126393   0.224   1.000   1.410
 8498SOL    HW226394   0.200   0.929   1.264
 8499SOL     OW26395   3.147   4.511   6.408
 8499SOL    HW126396   3.141   4.417   6.444
 8499SOL    HW226397   3.242   4.537   6.398
 8500SOL     OW26398   2.558   6.517   6.058
 8500SOL    HW126399   2.622   6.462   6.005
 8500SOL    HW226400   2.541   6.473   6.146
 8501SOL     OW26401   1.905   3.574   6.728
 8501SOL    HW126402   1.941   3.637   6.660
 8501SOL    HW226403   1.810   3.598   6.748
 8502SOL     OW26404   6.749   6.942   1.777
 8502SOL    HW126405   6.790   6.990   1.855
 8502SOL    HW226406   6.745   6.844   1.797
 8503SOL     OW26407   2.679   4.964   3.246
 8503SOL    HW126408   2.719   4.878   3.215
 8503SOL    HW226409   2.715   4.987   3.337
 8504SOL     OW26410   1.342   5.326   3.520
 8504SOL    HW126411   1.245   5.318   3.497
 8504SOL    HW226412   1.352   5.333   3.619
 8505SOL     OW26413   4.902   3.680   3.439
 8505SOL    HW126414   4.894   3.780   3.433
 8505SOL    HW226415   4.902   3.641   3.346
 8506SOL     OW26416   1.646   6.817   0.539
 8506SOL    HW126417   1.555   6.852   0.516
 8506SOL    HW226418   1.646   6.717   0.537
 8507SOL     OW26419   1.674   1.051   6.178
 8507SOL    HW126420   1.578   1.032   6.196
 8507SOL    HW226421   1.696   1.143   6.209
 8508SOL     OW26422   6.902   2.174   5.498
 8508SOL    HW126423   6.903   2.157   5.399
 8508SOL    HW226424   6.882   2.270   5.515
 8509SOL     OW26425   6.376   1.927   4.019
 8509SOL    HW126426   6.276   1.917   4.012
 8509SOL    HW226427   6.401   1.938   4.115
 8510SOL     OW26428   5.694   5.968   2.755
 8510SOL    HW126429   5.598   5.998   2.752
 8510SOL    HW226430   5.697   5.869   2.740
 8511SOL     OW26431   6.962   4.721   1.880
 8511SOL    HW126432   0.024   4.670   1.888
 8511SOL    HW226433   6.920   4.730   1.970
 8512SOL     OW26434   5.133   2.323   0.059
 8512SOL    HW126435   5.134   2.278   0.148
 8512SOL    HW226436   5.220   2.370   0.045
 8513SOL     OW26437   6.460   4.461   1.343
 8513SOL    HW126438   6.382   4.425   1.394
 8513SOL    HW226439   6.531   4.489   1.408
 8514SOL     OW26440   2.649   1.168   4.831
 8514SOL    HW126441   2.582   1.144   4.902
 8514SOL    HW226442   2.643   1.266   4.812
 8515SOL     OW26443   0.838   1.009   0.572
 8515SOL    HW126444   0.794   0.932   0.619
 8515SOL    HW226445   0.837   0.994   0.473
 8516SOL     OW26446   5.783   2.879   2.426
 8516SOL    HW126447   5.878   2.905   2.409
 8516SOL    HW226448   5.730   2.959   2.453
 8517SOL     OW26449   1.469   2.878   5.308
 8517SOL    HW126450   1.558   2.896   5.266
 8517SOL    HW226451   1.438   2.786   5.280
 8518SOL     OW26452   5.504   4.778   6.797
 8518SOL    HW126453   5.514   4.783   6.697
 8518SOL    HW226454   5.445   4.851   6.829
 8519SOL     OW26455   1.461   4.150   0.892
 8519SOL    HW126456   1.467   4.050   0.884
 8519SOL    HW226457   1.544   4.192   0.857
 8520SOL     OW26458   3.857   3.928   4.622
 8520SOL    HW126459   3.762   3.895   4.623
 8520SOL    HW226460   3.880   3.958   4.530
 8521SOL     OW26461   1.495   6.121   5.344
 8521SOL    HW126462   1.553   6.064   5.402
 8521SOL    HW226463   1.498   6.216   5.376
 8522SOL     OW26464   1.479   0.056   0.725
 8522SOL    HW126465   1.394   0.107   0.734
 8522SOL    HW226466   1.477   0.003   0.640
 8523SOL     OW26467   2.633   0.160   6.350
 8523SOL    HW126468   2.562   0.102   6.309
 8523SOL    HW226469   2.657   0.233   6.285
 8524SOL     OW26470   1.663   5.124   4.557
 8524SOL    HW126471   1.596   5.185   4.515
 8524SOL    HW226472   1.740   5.111   4.495
 8525SOL     OW26473   6.958   4.792   1.483
 8525SOL    HW126474   6.978   4.875   1.432
 8525SOL    HW226475   0.019   4.756   1.522
 8526SOL     OW26476   2.524   6.925   0.838
 8526SOL    HW126477   2.523   6.848   0.774
 8526SOL    HW226478   2.607   6.922   0.893
 8527SOL     OW26479   3.720   0.278   6.516
 8527SOL    HW126480   3.691   0.191   6.476
 8527SOL    HW226481   3.640   0.335   6.533
 8528SOL     OW26482   4.826   2.509   0.792
 8528SOL    HW126483   4.869   2.495   0.881
 8528SOL    HW226484   4.729   2.527   0.804
 8529SOL     OW26485   1.086   6.040   6.955
 8529SOL    HW126486   1.004   6.025   7.010
 8529SOL    HW226487   1.165   6.053   7.016
 8530SOL     OW26488   2.870   3.473   4.200
 8530SOL    HW126489   2.867   3.567   4.233
 8530SOL    HW226490   2.868   3.472   4.100
 8531SOL     OW26491   6.868   5.632   3.865
 8531SOL    HW126492   6.820   5.637   3.952
 8531SOL    HW226493   6.959   5.674   3.874
 8532SOL     OW26494   3.600   6.282   4.062
 8532SOL    HW126495   3.547   6.236   4.133
 8532SOL    HW226496   3.545   6.288   3.978
 8533SOL     OW26497   1.135   6.214   6.736
 8533SOL    HW126498   1.112   6.137   6.796
 8533SOL    HW226499   1.053   6.268   6.718
 8534SOL     OW26500   4.273   2.371   3.914
 8534SOL    HW126501   4.243   2.413   4.000
 8534SOL    HW226502   4.198   2.317   3.876
 8535SOL     OW26503   5.716   0.876   3.724
 8535SOL    HW126504   5.814   0.891   3.716
 8535SOL    HW226505   5.681   0.925   3.804
 8536SOL     OW26506   0.304   0.755   4.619
 8536SOL    HW126507   0.346   0.834   4.576
 8536SOL    HW226508   0.371   0.682   4.629
 8537SOL     OW26509   6.862   1.307   3.330
 8537SOL    HW126510   6.872   1.233   3.264
 8537SOL    HW226511   6.953   1.342   3.356
 8538SOL     OW26512   1.270   1.895   0.308
 8538SOL    HW126513   1.318   1.836   0.372
 8538SOL    HW226514   1.336   1.943   0.250
 8539SOL     OW26515   6.375   3.051   2.967
 8539SOL    HW126516   6.359   2.970   2.912
 8539SOL    HW226517   6.287   3.086   3.001
 8540SOL     OW26518   4.438   6.877   6.907
 8540SOL    HW126519   4.363   6.823   6.869
 8540SOL    HW226520   4.453   6.958   6.850
 8541SOL     OW26521   2.097   2.251   3.791
 8541SOL    HW126522   2.046   2.183   3.739
 8541SOL    HW226523   2.052   2.264   3.880
 8542SOL     OW26524   4.295   4.143   6.222
 8542SOL    HW126525   4.331   4.234   6.198
 8542SOL    HW226526   4.306   4.082   6.144
 8543SOL     OW26527   2.051   2.816   0.293
 8543SOL    HW126528   2.038   2.760   0.374
 8543SOL    HW226529   2.120   2.886   0.311
 8544SOL     OW26530   5.323   2.811   3.815
 8544SOL    HW126531   5.420   2.788   3.818
 8544SOL    HW226532   5.278   2.777   3.898
 8545SOL     OW26533   5.016   6.322   5.369
 8545SOL    HW126534   5.090   6.388   5.354
 8545SOL    HW226535   5.008   6.261   5.290
 8546SOL     OW26536   4.882   1.541   4.012
 8546SOL    HW126537   4.938   1.591   3.947
 8546SOL    HW226538   4.899   1.576   4.104
 8547SOL     OW26539   1.097   4.361   3.633
 8547SOL    HW126540   1.074   4.378   3.537
 8547SOL    HW226541   1.049   4.279   3.664
 8548SOL     OW26542   5.403   1.090   4.887
 8548SOL    HW126543   5.406   1.059   4.792
 8548SOL    HW226544   5.309   1.088   4.920
 8549SOL     OW26545   6.488   3.114   3.969
 8549SOL    HW126546   6.456   3.073   4.054
 8549SOL    HW226547   6.451   3.207   3.961
 8550SOL     OW26548   1.430   5.062   6.550
 8550SOL    HW126549   1.527   5.077   6.528
 8550SOL    HW226550   1.384   5.022   6.472
 8551SOL     OW26551   3.502   3.953   6.766
 8551SOL    HW126552   3.543   4.033   6.723
 8551SOL    HW226553   3.494   3.968   6.864
 8552SOL     OW26554   2.940   5.914   3.436
 8552SOL    HW126555   2.876   5.971   3.384
 8552SOL    HW226556   3.028   5.912   3.390
 8553SOL     OW26557   4.898   6.624   0.613
 8553SOL    HW126558   4.911   6.681   0.694
 8553SOL    HW226559   4.928   6.531   0.632
 8554SOL     OW26560   6.983   4.233   0.094
 8554SOL    HW126561   6.902   4.175   0.091
 8554SOL    HW226562   7.018   4.237   0.187
 8555SOL     OW26563   1.098   0.686   4.245
 8555SOL    HW126564   1.070   0.611   4.306
 8555SOL    HW226565   1.167   0.653   4.182
 8556SOL     OW26566   6.708   0.422   3.815
 8556SOL    HW126567   6.687   0.432   3.717
 8556SOL    HW226568   6.634   0.370   3.859
 8557SOL     OW26569   0.051   6.804   1.265
 8557SOL    HW126570   0.053   6.747   1.348
 8557SOL    HW226571   0.135   6.789   1.212
 8558SOL     OW26572   1.474   5.215   2.221
 8558SOL    HW126573   1.463   5.116   2.225
 8558SOL    HW226574   1.434   5.249   2.136
 8559SOL     OW26575   1.391   0.265   2.009
 8559SOL    HW126576   1.431   0.186   1.962
 8559SOL    HW226577   1.293   0.271   1.987
 8560SOL     OW26578   6.371   1.709   0.458
 8560SOL    HW126579   6.324   1.795   0.479
 8560SOL    HW226580   6.310   1.651   0.403
 8561SOL     OW26581   4.970   6.464   3.489
 8561SOL    HW126582   4.888   6.413   3.462
 8561SOL    HW226583   5.032   6.403   3.537
 8562SOL     OW26584   3.529   7.009   4.228
 8562SOL    HW126585   3.619   0.016   4.197
 8562SOL    HW226586   3.477   6.975   4.150
 8563SOL     OW26587   2.572   2.785   7.010
 8563SOL    HW126588   2.517   2.718   6.960
 8563SOL    HW226589   2.602   2.746   0.073
 8564SOL     OW26590   1.109   6.823   3.615
 8564SOL    HW126591   1.082   6.858   3.704
 8564SOL    HW226592   1.154   6.895   3.563
 8565SOL     OW26593   3.871   6.961   0.870
 8565SOL    HW126594   3.840   0.009   0.932
 8565SOL    HW226595   3.971   6.966   0.861
 8566SOL     OW26596   1.180   2.125   3.136
 8566SOL    HW126597   1.100   2.165   3.182
 8566SOL    HW226598   1.228   2.196   3.085
 8567SOL     OW26599   5.279   1.334   0.865
 8567SOL    HW126600   5.209   1.335   0.936
 8567SOL    HW226601   5.243   1.378   0.783
 8568SOL     OW26602   5.369   1.874   0.366
 8568SOL    HW126603   5.320   1.822   0.436
 8568SOL    HW226604   5.459   1.833   0.350
 8569SOL     OW26605   4.710   1.206   4.294
 8569SOL    HW126606   4.733   1.275   4.361
 8569SOL    HW226607   4.755   1.227   4.207
 8570SOL     OW26608   0.344   4.016   6.767
 8570SOL    HW126609   0.413   3.945   6.750
 8570SOL    HW226610   0.387   4.106   6.764
 8571SOL     OW26611   6.799   4.009   4.634
 8571SOL    HW126612   6.807   4.108   4.648
 8571SOL    HW226613   6.831   3.961   4.715
 8572SOL     OW26614   2.028   4.956   5.370
 8572SOL    HW126615   1.947   4.903   5.345
 8572SOL    HW226616   2.004   5.053   5.376
 8573SOL     OW26617   4.171   5.794   5.767
 8573SOL    HW126618   4.121   5.739   5.834
 8573SOL    HW226619   4.184   5.886   5.804
 8574SOL     OW26620   0.398   3.839   5.592
 8574SOL    HW126621   0.407   3.845   5.691
 8574SOL    HW226622   0.356   3.752   5.568
 8575SOL     OW26623   3.202   2.644   0.820
 8575SOL    HW126624   3.260   2.669   0.898
 8575SOL    HW226625   3.108   2.631   0.852
 8576SOL     OW26626   1.186   0.236   1.584
 8576SOL    HW126627   1.090   0.207   1.584
 8576SOL    HW226628   1.234   0.193   1.507
 8577SOL     OW26629   6.226   6.165   3.416
 8577SOL    HW126630   6.228   6.151   3.515
 8577SOL    HW226631   6.271   6.089   3.370
 8578SOL     OW26632   4.615   0.050   3.598
 8578SOL    HW126633   4.625   6.975   3.612
 8578SOL    HW226634   4.595   0.068   3.502
 8579SOL     OW26635   1.308   4.823   3.374
 8579SOL    HW126636   1.310   4.899   3.439
 8579SOL    HW226637   1.342   4.740   3.418
 8580SOL     OW26638   1.700   6.097   1.559
 8580SOL    HW126639   1.771   6.027   1.554
 8580SOL    HW226640   1.614   6.059   1.527
 8581SOL     OW26641   3.161   1.800   0.707
 8581SOL    HW126642   3.239   1.747   0.674
 8581SOL    HW226643   3.112   1.839   0.629
 8582SOL     OW26644   4.524   4.572   1.899
 8582SOL    HW126645   4.513   4.481   1.938
 8582SOL    HW226646   4.457   4.635   1.939
 8583SOL     OW26647   6.284   6.915   5.798
 8583SOL    HW126648   6.241   7.000   5.769
 8583SOL    HW226649   6.256   6.893   5.891
 8584SOL     OW26650   6.773   5.149   0.531
 8584SOL    HW126651   6.850   5.213   0.533
 8584SOL    HW226652   6.688   5.199   0.512
 8585SOL     OW26653   0.080   0.921   0.200
 8585SOL    HW126654   0.117   0.874   0.120
 8585SOL    HW226655   0.120   0.881   0.283
 8586SOL     OW26656   3.793   5.510   2.912
 8586SOL    HW126657   3.883   5.477   2.882
 8586SOL    HW226658   3.802   5.550   3.003
 8587SOL     OW26659   0.302   1.894   2.545
 8587SOL    HW126660   0.328   1.988   2.569
 8587SOL    HW226661   0.209   1.894   2.507
 8588SOL     OW26662   4.308   2.378   7.022
 8588SOL    HW126663   4.327   2.400   0.094
 8588SOL    HW226664   4.393   2.376   6.970
 8589SOL     OW26665   3.771   1.343   3.942
 8589SOL    HW126666   3.742   1.381   3.854
 8589SOL    HW226667   3.695   1.346   4.006
 8590SOL     OW26668   5.989   5.330   5.429
 8590SOL    HW126669   5.925   5.393   5.386
 8590SOL    HW226670   5.971   5.327   5.528
 8591SOL     OW26671   0.905   3.626   6.479
 8591SOL    HW126672   0.875   3.567   6.404
 8591SOL    HW226673   0.862   3.716   6.470
 8592SOL     OW26674   6.430   4.435   0.783
 8592SOL    HW126675   6.421   4.488   0.867
 8592SOL    HW226676   6.496   4.480   0.723
 8593SOL     OW26677   2.001   0.414   2.233
 8593SOL    HW126678   1.929   0.472   2.271
 8593SOL    HW226679   2.085   0.467   2.222
 8594SOL     OW26680   2.892   3.720   4.294
 8594SOL    HW126681   2.887   3.777   4.377
 8594SOL    HW226682   2.948   3.766   4.225
 8595SOL     OW26683   1.840   2.003   2.345
 8595SOL    HW126684   1.759   2.059   2.366
 8595SOL    HW226685   1.813   1.907   2.338
 8596SOL     OW26686   6.088   5.097   1.633
 8596SOL    HW126687   6.027   5.174   1.649
 8596SOL    HW226688   6.139   5.111   1.548
 8597SOL     OW26689   2.776   1.690   0.448
 8597SOL    HW126690   2.709   1.640   0.393
 8597SOL    HW226691   2.764   1.667   0.545
 8598SOL     OW26692   6.036   4.140   1.118
 8598SOL    HW126693   5.994   4.212   1.063
 8598SOL    HW226694   6.046   4.057   1.063
 8599SOL     OW26695   1.935   3.012   3.132
 8599SOL    HW126696   1.885   3.098   3.132
 8599SOL    HW226697   1.995   3.008   3.213
 8600SOL     OW26698   6.615   5.103   6.774
 8600SOL    HW126699   6.676   5.169   6.731
 8600SOL    HW226700   6.561   5.149   6.845
 8601SOL     OW26701   0.552   0.115   3.862
 8601SOL    HW126702   0.634   0.117   3.804
 8601SOL    HW226703   0.544   0.025   3.905
 8602SOL     OW26704   2.608   5.807   2.293
 8602SOL    HW126705   2.587   5.727   2.350
 8602SOL    HW226706   2.658   5.778   2.212
 8603SOL     OW26707   3.930   3.280   0.069
 8603SOL    HW126708   3.900   3.334   0.148
 8603SOL    HW226709   3.989   3.336   0.012
 8604SOL     OW26710   5.288   3.086   3.795
 8604SOL    HW126711   5.307   2.989   3.782
 8604SOL    HW226712   5.189   3.099   3.809
 8605SOL     OW26713   2.601   6.267   3.290
 8605SOL    HW126714   2.528   6.211   3.252
 8605SOL    HW226715   2.571   6.306   3.377
 8606SOL     OW26716   4.011   4.681   5.620
 8606SOL    HW126717   4.102   4.719   5.634
 8606SOL    HW226718   4.017   4.582   5.605
 8607SOL     OW26719   4.369   5.386   2.233
 8607SOL    HW126720   4.410   5.460   2.181
 8607SOL    HW226721   4.404   5.389   2.327
 8608SOL     OW26722   4.493   5.393   2.491
 8608SOL    HW126723   4.528   5.300   2.489
 8608SOL    HW226724   4.408   5.396   2.544
 8609SOL     OW26725   3.303   0.925   5.369
 8609SOL    HW126726   3.328   1.014   5.407
 8609SOL    HW226727   3.346   0.915   5.279
 8610SOL     OW26728   1.246   6.595   3.721
 8610SOL    HW126729   1.159   6.639   3.745
 8610SOL    HW226730   1.268   6.615   3.625
 8611SOL     OW26731   1.793   1.941   4.557
 8611SOL    HW126732   1.786   2.019   4.495
 8611SOL    HW226733   1.851   1.965   4.635
 8612SOL     OW26734   4.040   2.914   5.893
 8612SOL    HW126735   4.106   2.922   5.818
 8612SOL    HW226736   4.084   2.871   5.971
 8613SOL     OW26737   1.933   1.939   0.987
 8613SOL    HW126738   1.995   1.971   1.059
 8613SOL    HW226739   1.874   1.867   1.025
 8614SOL     OW26740   0.907   2.452   3.028
 8614SOL    HW126741   0.978   2.419   3.090
 8614SOL    HW226742   0.859   2.529   3.070
 8615SOL     OW26743   4.513   2.004   5.093
 8615SOL    HW126744   4.476   1.920   5.052
 8615SOL    HW226745   4.469   2.084   5.053
 8616SOL     OW26746   0.807   4.582   0.623
 8616SOL    HW126747   0.883   4.647   0.622
 8616SOL    HW226748   0.746   4.601   0.546
 8617SOL     OW26749   6.126   2.889   0.967
 8617SOL    HW126750   6.069   2.836   0.904
 8617SOL    HW226751   6.141   2.835   1.051
 8618SOL     OW26752   4.619   0.038   2.980
 8618SOL    HW126753   4.608   0.100   2.903
 8618SOL    HW226754   4.715   0.039   3.010
 8619SOL     OW26755   4.453   5.182   6.937
 8619SOL    HW126756   4.474   5.234   6.854
 8619SOL    HW226757   4.466   5.085   6.919
 8620SOL     OW26758   6.239   6.486   2.385
 8620SOL    HW126759   6.222   6.410   2.323
 8620SOL    HW226760   6.327   6.472   2.431
 8621SOL     OW26761   5.889   1.168   3.812
 8621SOL    HW126762   5.943   1.084   3.816
 8621SOL    HW226763   5.938   1.242   3.858
 8622SOL     OW26764   4.700   4.858   0.542
 8622SOL    HW126765   4.742   4.814   0.621
 8622SOL    HW226766   4.636   4.794   0.499
 8623SOL     OW26767   0.539   3.832   2.996
 8623SOL    HW126768   0.443   3.807   2.989
 8623SOL    HW226769   0.596   3.750   2.993
 8624SOL     OW26770   0.530   4.250   3.064
 8624SOL    HW126771   0.567   4.232   3.155
 8624SOL    HW226772   0.604   4.252   2.997
 8625SOL     OW26773   3.996   0.868   4.892
 8625SOL    HW126774   4.028   0.776   4.916
 8625SOL    HW226775   4.072   0.932   4.899
 8626SOL     OW26776   3.132   3.583   4.295
 8626SOL    HW126777   3.163   3.493   4.264
 8626SOL    HW226778   3.033   3.588   4.287
 8627SOL     OW26779   1.013   0.879   0.795
 8627SOL    HW126780   0.966   0.900   0.881
 8627SOL    HW226781   1.016   0.961   0.738
 8628SOL     OW26782   5.322   0.716   6.747
 8628SOL    HW126783   5.414   0.681   6.765
 8628SOL    HW226784   5.260   0.639   6.730
 8629SOL     OW26785   1.163   4.381   4.172
 8629SOL    HW126786   1.228   4.456   4.185
 8629SOL    HW226787   1.212   4.297   4.152
 8630SOL     OW26788   5.845   4.201   3.994
 8630SOL    HW126789   5.913   4.132   3.971
 8630SOL    HW226790   5.866   4.239   4.085
 8631SOL     OW26791   3.836   6.056   4.849
 8631SOL    HW126792   3.798   5.978   4.899
 8631SOL    HW226793   3.807   6.141   4.894
 8632SOL     OW26794   4.161   0.170   2.909
 8632SOL    HW126795   4.158   0.247   2.845
 8632SOL    HW226796   4.092   0.182   2.980
 8633SOL     OW26797   5.524   1.505   4.148
 8633SOL    HW126798   5.472   1.584   4.179
 8633SOL    HW226799   5.479   1.421   4.180
 8634SOL     OW26800   0.015   4.883   2.192
 8634SOL    HW126801   6.968   4.815   2.170
 8634SOL    HW226802   0.007   4.910   2.287
 8635SOL     OW26803   5.986   3.330   5.670
 8635SOL    HW126804   5.969   3.427   5.685
 8635SOL    HW226805   5.901   3.286   5.639
 8636SOL     OW26806   6.638   5.908   0.517
 8636SOL    HW126807   6.682   5.837   0.572
 8636SOL    HW226808   6.579   5.964   0.576
 8637SOL     OW26809   1.777   0.807   0.799
 8637SOL    HW126810   1.739   0.830   0.710
 8637SOL    HW226811   1.725   0.730   0.838
 8638SOL     OW26812   2.708   5.077   0.517
 8638SOL    HW126813   2.773   5.096   0.444
 8638SOL    HW226814   2.745   5.110   0.604
 8639SOL     OW26815   6.213   3.734   1.887
 8639SOL    HW126816   6.123   3.705   1.854
 8639SOL    HW226817   6.277   3.738   1.811
 8640SOL     OW26818   5.148   5.076   0.822
 8640SOL    HW126819   5.137   5.037   0.731
 8640SOL    HW226820   5.119   5.172   0.821
 8641SOL     OW26821   6.577   4.145   3.047
 8641SOL    HW126822   6.629   4.215   3.095
 8641SOL    HW226823   6.536   4.184   2.964
 8642SOL     OW26824   4.444   0.980   1.576
 8642SOL    HW126825   4.407   1.059   1.626
 8642SOL    HW226826   4.489   0.918   1.640
 8643SOL     OW26827   4.449   0.593   6.285
 8643SOL    HW126828   4.390   0.656   6.235
 8643SOL    HW226829   4.545   0.615   6.265
 8644SOL     OW26830   5.889   2.366   4.656
 8644SOL    HW126831   5.967   2.317   4.617
 8644SOL    HW226832   5.921   2.453   4.695
 8645SOL     OW26833   6.303   4.075   1.210
 8645SOL    HW126834   6.301   4.096   1.308
 8645SOL    HW226835   6.267   4.153   1.158
 8646SOL     OW26836   5.368   0.542   7.012
 8646SOL    HW126837   5.370   0.552   0.087
 8646SOL    HW226838   5.273   0.538   6.980
 8647SOL     OW26839   3.983   4.884   0.042
 8647SOL    HW126840   3.916   4.835   0.099
 8647SOL    HW226841   3.950   4.888   6.971
 8648SOL     OW26842   5.631   1.001   3.956
 8648SOL    HW126843   5.559   0.967   4.017
 8648SOL    HW226844   5.711   1.027   4.010
 8649SOL     OW26845   6.234   3.995   5.571
 8649SOL    HW126846   6.195   4.041   5.651
 8649SOL    HW226847   6.287   4.061   5.518
 8650SOL     OW26848   2.210   5.146   3.614
 8650SOL    HW126849   2.157   5.062   3.604
 8650SOL    HW226850   2.305   5.130   3.587
 8651SOL     OW26851   3.573   1.702   0.031
 8651SOL    HW126852   3.654   1.642   0.027
 8651SOL    HW226853   3.599   1.794   0.004
 8652SOL     OW26854   1.862   3.660   3.566
 8652SOL    HW126855   1.872   3.608   3.481
 8652SOL    HW226856   1.816   3.603   3.635
 8653SOL     OW26857   0.366   3.002   0.008
 8653SOL    HW126858   0.352   2.959   0.097
 8653SOL    HW226859   0.340   3.098   0.013
 8654SOL     OW26860   0.211   6.849   2.965
 8654SOL    HW126861   0.121   6.862   2.923
 8654SOL    HW226862   0.205   6.776   3.033
 8655SOL     OW26863   6.381   6.092   4.880
 8655SOL    HW126864   6.426   6.047   4.957
 8655SOL    HW226865   6.327   6.170   4.913
 8656SOL     OW26866   6.724   0.973   1.203
 8656SOL    HW126867   6.738   1.006   1.110
 8656SOL    HW226868   6.777   1.030   1.267
 8657SOL     OW26869   4.526   4.498   6.583
 8657SOL    HW126870   4.572   4.419   6.624
 8657SOL    HW226871   4.431   4.475   6.564
 8658SOL     OW26872   5.960   5.130   0.035
 8658SOL    HW126873   5.881   5.109   7.001
 8658SOL    HW226874   6.024   5.189   7.009
 8659SOL     OW26875   5.102   0.482   3.225
 8659SOL    HW126876   5.098   0.437   3.315
 8659SOL    HW226877   5.175   0.550   3.225
 8660SOL     OW26878   5.662   3.560   0.734
 8660SOL    HW126879   5.701   3.482   0.686
 8660SOL    HW226880   5.564   3.545   0.749
 8661SOL     OW26881   6.970   3.940   1.997
 8661SOL    HW126882   6.966   3.966   2.094
 8661SOL    HW226883   0.026   3.881   1.983
 8662SOL     OW26884   6.536   6.155   1.165
 8662SOL    HW126885   6.630   6.133   1.139
 8662SOL    HW226886   6.509   6.242   1.123
 8663SOL     OW26887   2.333   5.673   1.209
 8663SOL    HW126888   2.433   5.670   1.203
 8663SOL    HW226889   2.303   5.768   1.215
 8664SOL     OW26890   3.908   5.944   6.897
 8664SOL    HW126891   3.959   5.972   6.815
 8664SOL    HW226892   3.908   5.844   6.903
 8665SOL     OW26893   4.659   5.521   5.327
 8665SOL    HW126894   4.645   5.605   5.274
 8665SOL    HW226895   4.715   5.457   5.274
 8666SOL     OW26896   4.958   2.483   5.518
 8666SOL    HW126897   5.032   2.473   5.583
 8666SOL    HW226898   4.926   2.393   5.488
 8667SOL     OW26899   5.010   1.279   3.796
 8667SOL    HW126900   5.028   1.263   3.893
 8667SOL    HW226901   4.911   1.274   3.780
 8668SOL     OW26902   4.952   1.918   4.352
 8668SOL    HW126903   4.881   1.984   4.327
 8668SOL    HW226904   4.951   1.905   4.451
 8669SOL     OW26905   4.174   0.388   6.039
 8669SOL    HW126906   4.148   0.303   6.085
 8669SOL    HW226907   4.096   0.451   6.038
 8670SOL     OW26908   3.489   5.635   4.270
 8670SOL    HW126909   3.434   5.694   4.329
 8670SOL    HW226910   3.496   5.676   4.179
 8671SOL     OW26911   6.347   6.680   4.226
 8671SOL    HW126912   6.435   6.686   4.179
 8671SOL    HW226913   6.280   6.634   4.167
 8672SOL     OW26914   3.510   5.018   4.389
 8672SOL    HW126915   3.567   4.959   4.447
 8672SOL    HW226916   3.531   5.114   4.408
 8673SOL     OW26917   6.650   2.118   0.680
 8673SOL    HW126918   6.637   2.216   0.695
 8673SOL    HW226919   6.610   2.092   0.592
 8674SOL     OW26920   6.767   0.438   2.675
 8674SOL    HW126921   6.795   0.504   2.745
 8674SOL    HW226922   6.747   0.488   2.590
 8675SOL     OW26923   2.316   0.836   3.431
 8675SOL    HW126924   2.222   0.810   3.411
 8675SOL    HW226925   2.346   0.791   3.515
 8676SOL     OW26926   4.197   0.275   2.451
 8676SOL    HW126927   4.110   0.319   2.432
 8676SOL    HW226928   4.182   0.193   2.507
 8677SOL     OW26929   2.832   4.405   6.071
 8677SOL    HW126930   2.930   4.417   6.086
 8677SOL    HW226931   2.816   4.326   6.012
 8678SOL     OW26932   1.008   0.306   6.910
 8678SOL    HW126933   1.062   0.226   6.885
 8678SOL    HW226934   0.959   0.290   6.995
 8679SOL     OW26935   6.201   1.849   5.414
 8679SOL    HW126936   6.127   1.852   5.347
 8679SOL    HW226937   6.258   1.768   5.398
 8680SOL     OW26938   1.152   3.789   0.169
 8680SOL    HW126939   1.074   3.750   0.120
 8680SOL    HW226940   1.235   3.737   0.147
 8681SOL     OW26941   4.289   4.251   0.177
 8681SOL    HW126942   4.363   4.250   0.109
 8681SOL    HW226943   4.256   4.345   0.189
 8682SOL     OW26944   2.598   6.441   2.427
 8682SOL    HW126945   2.653   6.397   2.498
 8682SOL    HW226946   2.502   6.444   2.457
 8683SOL     OW26947   0.567   2.855   1.375
 8683SOL    HW126948   0.549   2.848   1.473
 8683SOL    HW226949   0.598   2.766   1.340
 8684SOL     OW26950   6.231   2.919   5.103
 8684SOL    HW126951   6.294   2.850   5.066
 8684SOL    HW226952   6.150   2.925   5.046
 8685SOL     OW26953   0.756   1.856   6.570
 8685SOL    HW126954   0.784   1.876   6.477
 8685SOL    HW226955   0.659   1.832   6.572
 8686SOL     OW26956   6.947   2.168   2.676
 8686SOL    HW126957   6.942   2.146   2.579
 8686SOL    HW226958   6.868   2.223   2.703
 8687SOL     OW26959   3.652   6.875   2.115
 8687SOL    HW126960   3.749   6.900   2.108
 8687SOL    HW226961   3.641   6.798   2.178
 8688SOL     OW26962   2.885   0.365   1.421
 8688SOL    HW126963   2.843   0.408   1.341
 8688SOL    HW226964   2.980   0.395   1.429
 8689SOL     OW26965   4.365   6.090   0.085
 8689SOL    HW126966   4.278   6.133   0.060
 8689SOL    HW226967   4.347   6.004   0.133
 8690SOL     OW26968   0.597   1.788   3.836
 8690SOL    HW126969   0.593   1.856   3.763
 8690SOL    HW226970   0.690   1.754   3.844
 8691SOL     OW26971   4.598   2.717   6.395
 8691SOL    HW126972   4.507   2.707   6.437
 8691SOL    HW226973   4.605   2.653   6.319
 8692SOL     OW26974   2.630   2.114   3.720
 8692SOL    HW126975   2.539   2.073   3.733
 8692SOL    HW226976   2.620   2.207   3.686
 8693SOL     OW26977   5.751   2.050   1.002
 8693SOL    HW126978   5.786   2.085   0.915
 8693SOL    HW226979   5.815   2.073   1.076
 8694SOL     OW26980   4.486   0.310   6.833
 8694SOL    HW126981   4.495   0.390   6.773
 8694SOL    HW226982   4.534   0.233   6.792
 8695SOL     OW26983   5.135   3.452   5.221
 8695SOL    HW126984   5.211   3.516   5.233
 8695SOL    HW226985   5.080   3.449   5.304
 8696SOL     OW26986   2.609   5.747   1.228
 8696SOL    HW126987   2.616   5.843   1.203
 8696SOL    HW226988   2.658   5.731   1.314
 8697SOL     OW26989   6.805   3.542   0.980
 8697SOL    HW126990   6.864   3.612   0.939
 8697SOL    HW226991   6.764   3.577   1.064
 8698SOL     OW26992   5.294   6.164   4.748
 8698SOL    HW126993   5.278   6.202   4.658
 8698SOL    HW226994   5.355   6.085   4.741
 8699SOL     OW26995   0.926   1.614   5.803
 8699SOL    HW126996   0.878   1.637   5.718
 8699SOL    HW226997   0.860   1.588   5.873
 8700SOL     OW26998   2.261   0.679   5.076
 8700SOL    HW126999   2.172   0.725   5.073
 8700SOL    HW227000   2.333   0.744   5.055
 8701SOL     OW27001   1.036   0.727   5.009
 8701SOL    HW127002   0.943   0.738   4.974
 8701SOL    HW227003   1.076   0.643   4.971
 8702SOL     OW27004   5.516   5.080   0.156
 8702SOL    HW127005   5.541   5.165   0.201
 8702SOL    HW227006   5.598   5.036   0.119
 8703SOL     OW27007   3.073   5.681   1.149
 8703SOL    HW127008   3.152   5.696   1.208
 8703SOL    HW227009   3.008   5.619   1.194
 8704SOL     OW27010   6.708   4.891   2.371
 8704SOL    HW127011   6.632   4.874   2.308
 8704SOL    HW227012   6.744   4.983   2.357
 8705SOL     OW27013   5.208   0.036   6.148
 8705SOL    HW127014   5.221   0.135   6.153
 8705SOL    HW227015   5.110   0.016   6.144
 8706SOL     OW27016   5.099   2.146   6.874
 8706SOL    HW127017   5.097   2.201   6.957
 8706SOL    HW227018   5.172   2.077   6.881
 8707SOL     OW27019   4.440   2.839   6.802
 8707SOL    HW127020   4.520   2.897   6.818
 8707SOL    HW227021   4.358   2.887   6.831
 8708SOL     OW27022   3.818   1.144   1.263
 8708SOL    HW127023   3.794   1.175   1.354
 8708SOL    HW227024   3.743   1.091   1.224
 8709SOL     OW27025   6.958   4.528   0.276
 8709SOL    HW127026   0.017   4.570   0.239
 8709SOL    HW227027   6.882   4.541   0.212
 8710SOL     OW27028   1.872   3.543   2.986
 8710SOL    HW127029   1.801   3.610   2.965
 8710SOL    HW227030   1.871   3.471   2.917
 8711SOL     OW27031   6.255   0.717   2.764
 8711SOL    HW127032   6.268   0.797   2.821
 8711SOL    HW227033   6.308   0.640   2.801
 8712SOL     OW27034   2.952   1.603   4.853
 8712SOL    HW127035   2.965   1.505   4.839
 8712SOL    HW227036   3.032   1.641   4.901
 8713SOL     OW27037   6.488   4.500   3.593
 8713SOL    HW127038   6.464   4.545   3.507
 8713SOL    HW227039   6.406   4.482   3.646
 8714SOL     OW27040   1.381   0.875   5.919
 8714SOL    HW127041   1.388   0.956   5.861
 8714SOL    HW227042   1.287   0.842   5.920
 8715SOL     OW27043   6.253   1.260   1.906
 8715SOL    HW127044   6.296   1.195   1.843
 8715SOL    HW227045   6.267   1.230   2.000
 8716SOL     OW27046   0.774   1.332   1.367
 8716SOL    HW127047   0.745   1.236   1.367
 8716SOL    HW227048   0.755   1.372   1.457
 8717SOL     OW27049   4.128   3.610   1.920
 8717SOL    HW127050   4.220   3.575   1.937
 8717SOL    HW227051   4.086   3.638   2.007
 8718SOL     OW27052   6.854   2.703   4.629
 8718SOL    HW127053   6.863   2.624   4.569
 8718SOL    HW227054   6.757   2.730   4.635
 8719SOL     OW27055   0.963   0.483   5.940
 8719SOL    HW127056   0.946   0.557   6.006
 8719SOL    HW227057   0.998   0.403   5.989
 8720SOL     OW27058   5.345   4.939   5.055
 8720SOL    HW127059   5.420   4.910   5.114
 8720SOL    HW227060   5.275   4.986   5.109
 8721SOL     OW27061   6.690   2.225   4.467
 8721SOL    HW127062   6.746   2.255   4.391
 8721SOL    HW227063   6.700   2.288   4.544
 8722SOL     OW27064   3.728   2.351   0.932
 8722SOL    HW127065   3.744   2.336   0.834
 8722SOL    HW227066   3.762   2.273   0.984
 8723SOL     OW27067   6.719   5.710   0.727
 8723SOL    HW127068   6.783   5.778   0.762
 8723SOL    HW227069   6.757   5.618   0.741
 8724SOL     OW27070   5.531   0.504   5.881
 8724SOL    HW127071   5.585   0.562   5.941
 8724SOL    HW227072   5.573   0.413   5.875
 8725SOL     OW27073   2.125   0.247   0.449
 8725SOL    HW127074   2.213   0.236   0.403
 8725SOL    HW227075   2.128   0.203   0.538
 8726SOL     OW27076   6.169   0.232   1.589
 8726SOL    HW127077   6.236   0.291   1.545
 8726SOL    HW227078   6.096   0.210   1.524
 8727SOL     OW27079   6.376   6.402   1.583
 8727SOL    HW127080   6.302   6.335   1.582
 8727SOL    HW227081   6.456   6.363   1.536
 8728SOL     OW27082   3.226   6.553   5.192
 8728SOL    HW127083   3.198   6.525   5.100
 8728SOL    HW227084   3.180   6.638   5.216
 8729SOL     OW27085   4.002   5.458   3.359
 8729SOL    HW127086   4.038   5.539   3.313
 8729SOL    HW227087   4.045   5.376   3.320
 8730SOL     OW27088   0.504   6.202   2.474
 8730SOL    HW127089   0.594   6.192   2.516
 8730SOL    HW227090   0.433   6.182   2.542
 8731SOL     OW27091   1.206   1.808   3.437
 8731SOL    HW127092   1.214   1.903   3.467
 8731SOL    HW227093   1.131   1.764   3.485
 8732SOL     OW27094   5.746   3.547   1.706
 8732SOL    HW127095   5.767   3.482   1.633
 8732SOL    HW227096   5.714   3.633   1.666
 8733SOL     OW27097   1.008   6.362   1.804
 8733SOL    HW127098   0.971   6.422   1.875
 8733SOL    HW227099   1.108   6.365   1.806
 8734SOL     OW27100   0.495   5.713   1.359
 8734SOL    HW127101   0.514   5.671   1.270
 8734SOL    HW227102   0.402   5.749   1.360
 8735SOL     OW27103   0.340   1.801   6.958
 8735SOL    HW127104   0.344   1.761   0.026
 8735SOL    HW227105   0.324   1.899   6.965
 8736SOL     OW27106   0.627   4.925   6.725
 8736SOL    HW127107   0.686   4.877   6.789
 8736SOL    HW227108   0.657   4.907   6.632
 8737SOL     OW27109   3.428   6.130   6.089
 8737SOL    HW127110   3.513   6.163   6.047
 8737SOL    HW227111   3.396   6.198   6.156
 8738SOL     OW27112   1.293   3.867   4.110
 8738SOL    HW127113   1.269   3.782   4.063
 8738SOL    HW227114   1.390   3.865   4.134
 8739SOL     OW27115   6.805   3.545   5.499
 8739SOL    HW127116   6.716   3.500   5.484
 8739SOL    HW227117   6.795   3.643   5.487
 8740SOL     OW27118   2.807   0.222   6.757
 8740SOL    HW127119   2.716   0.191   6.786
 8740SOL    HW227120   2.834   0.301   6.812
 8741SOL     OW27121   0.921   2.689   2.374
 8741SOL    HW127122   1.014   2.711   2.405
 8741SOL    HW227123   0.862   2.677   2.453
 8742SOL     OW27124   4.512   0.011   1.575
 8742SOL    HW127125   4.548   0.102   1.594
 8742SOL    HW227126   4.414   0.009   1.597
 8743SOL     OW27127   1.942   5.611   2.332
 8743SOL    HW127128   1.904   5.533   2.382
 8743SOL    HW227129   1.993   5.670   2.394
 8744SOL     OW27130   4.158   2.838   6.132
 8744SOL    HW127131   4.257   2.848   6.124
 8744SOL    HW227132   4.120   2.920   6.176
 8745SOL     OW27133   6.214   2.113   5.442
 8745SOL    HW127134   6.303   2.156   5.457
 8745SOL    HW227135   6.224   2.014   5.445
 8746SOL     OW27136   5.061   4.784   5.327
 8746SOL    HW127137   5.073   4.703   5.270
 8746SOL    HW227138   5.008   4.761   5.408
 8747SOL     OW27139   1.187   2.519   4.208
 8747SOL    HW127140   1.147   2.595   4.258
 8747SOL    HW227141   1.262   2.479   4.262
 8748SOL     OW27142   1.439   0.419   6.830
 8748SOL    HW127143   1.461   0.321   6.834
 8748SOL    HW227144   1.439   0.457   6.922
 8749SOL     OW27145   3.953   0.509   3.240
 8749SOL    HW127146   4.049   0.532   3.223
 8749SOL    HW227147   3.927   0.538   3.332
 8750SOL     OW27148   1.945   2.484   5.035
 8750SOL    HW127149   1.880   2.429   4.982
 8750SOL    HW227150   1.933   2.581   5.012
 8751SOL     OW27151   0.929   0.228   2.241
 8751SOL    HW127152   0.982   0.306   2.208
 8751SOL    HW227153   0.849   0.215   2.182
 8752SOL     OW27154   2.021   3.674   6.506
 8752SOL    HW127155   2.028   3.734   6.426
 8752SOL    HW227156   2.045   3.581   6.480
 8753SOL     OW27157   5.703   1.555   4.901
 8753SOL    HW127158   5.730   1.633   4.845
 8753SOL    HW227159   5.718   1.576   4.997
 8754SOL     OW27160   0.805   1.367   6.144
 8754SOL    HW127161   0.854   1.300   6.200
 8754SOL    HW227162   0.824   1.351   6.048
 8755SOL     OW27163   2.562   0.884   0.538
 8755SOL    HW127164   2.582   0.886   0.637
 8755SOL    HW227165   2.604   0.803   0.497
 8756SOL     OW27166   2.144   3.067   4.198
 8756SOL    HW127167   2.239   3.093   4.218
 8756SOL    HW227168   2.128   3.072   4.100
 8757SOL     OW27169   4.064   6.458   4.771
 8757SOL    HW127170   4.070   6.384   4.838
 8757SOL    HW227171   4.076   6.546   4.818
 8758SOL     OW27172   5.988   6.580   2.254
 8758SOL    HW127173   6.083   6.565   2.282
 8758SOL    HW227174   5.951   6.495   2.217
 8759SOL     OW27175   4.887   0.786   6.095
 8759SOL    HW127176   4.952   0.819   6.163
 8759SOL    HW227177   4.936   0.763   6.011
 8760SOL     OW27178   1.895   1.988   4.140
 8760SOL    HW127179   1.801   1.969   4.168
 8760SOL    HW227180   1.958   1.937   4.198
 8761SOL     OW27181   5.120   0.268   6.996
 8761SOL    HW127182   5.040   0.283   6.937
 8761SOL    HW227183   5.195   0.232   6.941
 8762SOL     OW27184   1.133   3.605   1.482
 8762SOL    HW127185   1.106   3.555   1.400
 8762SOL    HW227186   1.177   3.542   1.546
 8763SOL     OW27187   0.295   6.158   5.768
 8763SOL    HW127188   0.291   6.124   5.674
 8763SOL    HW227189   0.362   6.106   5.820
 8764SOL     OW27190   4.742   1.422   4.481
 8764SOL    HW127191   4.722   1.400   4.576
 8764SOL    HW227192   4.714   1.516   4.462
 8765SOL     OW27193   5.985   6.971   4.249
 8765SOL    HW127194   5.939   7.006   4.168
 8765SOL    HW227195   5.934   6.893   4.286
 8766SOL     OW27196   2.359   4.974   2.996
 8766SOL    HW127197   2.392   4.915   2.922
 8766SOL    HW227198   2.381   4.933   3.084
 8767SOL     OW27199   4.917   1.121   3.075
 8767SOL    HW127200   4.841   1.063   3.106
 8767SOL    HW227201   5.002   1.087   3.114
 8768SOL     OW27202   2.047   3.711   0.237
 8768SOL    HW127203   1.995   3.771   0.299
 8768SOL    HW227204   2.070   3.762   0.154
 8769SOL     OW27205   1.154   6.926   5.829
 8769SOL    HW127206   1.190   6.926   5.922
 8769SOL    HW227207   1.222   6.886   5.767
 8770SOL     OW27208   5.376   3.386   1.423
 8770SOL    HW127209   5.281   3.415   1.408
 8770SOL    HW227210   5.438   3.460   1.398
 8771SOL     OW27211   1.908   1.681   6.704
 8771SOL    HW127212   1.870   1.671   6.612
 8771SOL    HW227213   1.939   1.775   6.718
 8772SOL     OW27214   5.678   1.361   6.541
 8772SOL    HW127215   5.764   1.401   6.509
 8772SOL    HW227216   5.665   1.382   6.638
 8773SOL     OW27217   2.870   2.155   3.158
 8773SOL    HW127218   2.938   2.190   3.094
 8773SOL    HW227219   2.786   2.134   3.110
 8774SOL     OW27220   1.031   1.468   0.660
 8774SOL    HW127221   0.971   1.413   0.718
 8774SOL    HW227222   0.981   1.547   0.626
 8775SOL     OW27223   6.215   6.843   3.460
 8775SOL    HW127224   6.220   6.743   3.465
 8775SOL    HW227225   6.271   6.883   3.532
 8776SOL     OW27226   3.247   3.231   5.048
 8776SOL    HW127227   3.230   3.146   5.097
 8776SOL    HW227228   3.346   3.246   5.040
 8777SOL     OW27229   6.191   6.269   2.218
 8777SOL    HW127230   6.236   6.254   2.130
 8777SOL    HW227231   6.215   6.194   2.280
 8778SOL     OW27232   0.154   2.160   3.705
 8778SOL    HW127233   0.102   2.192   3.626
 8778SOL    HW227234   0.117   2.201   3.788
 8779SOL     OW27235   1.557   4.933   1.049
 8779SOL    HW127236   1.572   5.029   1.072
 8779SOL    HW227237   1.561   4.878   1.132
 8780SOL     OW27238   0.606   5.312   4.538
 8780SOL    HW127239   0.703   5.316   4.514
 8780SOL    HW227240   0.587   5.226   4.586
 8781SOL     OW27241   0.586   1.927   3.096
 8781SOL    HW127242   0.637   1.956   3.177
 8781SOL    HW227243   0.493   1.965   3.100
 8782SOL     OW27244   4.289   1.317   2.679
 8782SOL    HW127245   4.356   1.374   2.725
 8782SOL    HW227246   4.198   1.335   2.717
 8783SOL     OW27247   5.599   3.874   4.219
 8783SOL    HW127248   5.611   3.924   4.304
 8783SOL    HW227249   5.565   3.937   4.148
 8784SOL     OW27250   5.545   5.153   5.630
 8784SOL    HW127251   5.471   5.183   5.569
 8784SOL    HW227252   5.517   5.072   5.680
 8785SOL     OW27253   5.674   4.509   0.096
 8785SOL    HW127254   5.765   4.486   0.063
 8785SOL    HW227255   5.667   4.488   0.194
 8786SOL     OW27256   1.757   6.679   0.123
 8786SOL    HW127257   1.801   6.769   0.133
 8786SOL    HW227258   1.662   6.692   0.093
 8787SOL     OW27259   1.719   3.561   1.371
 8787SOL    HW127260   1.808   3.603   1.352
 8787SOL    HW227261   1.658   3.629   1.412
 8788SOL     OW27262   0.408   2.002   5.231
 8788SOL    HW127263   0.320   2.033   5.269
 8788SOL    HW227264   0.426   1.908   5.262
 8789SOL     OW27265   6.555   0.381   6.630
 8789SOL    HW127266   6.482   0.433   6.674
 8789SOL    HW227267   6.540   0.380   6.531
 8790SOL     OW27268   6.261   1.353   0.063
 8790SOL    HW127269   6.344   1.404   0.083
 8790SOL    HW227270   6.242   1.291   0.139
 8791SOL     OW27271   4.907   6.496   6.095
 8791SOL    HW127272   4.954   6.547   6.167
 8791SOL    HW227273   4.860   6.559   6.034
 8792SOL     OW27274   4.570   6.787   2.821
 8792SOL    HW127275   4.629   6.859   2.857
 8792SOL    HW227276   4.524   6.740   2.897
 8793SOL     OW27277   1.881   5.998   3.377
 8793SOL    HW127278   1.836   6.003   3.467
 8793SOL    HW227279   1.872   5.906   3.340
 8794SOL     OW27280   2.153   0.042   2.729
 8794SOL    HW127281   2.117   0.107   2.662
 8794SOL    HW227282   2.186   6.984   2.682
 8795SOL     OW27283   1.591   6.588   5.826
 8795SOL    HW127284   1.595   6.597   5.925
 8795SOL    HW227285   1.636   6.667   5.784
 8796SOL     OW27286   4.701   2.333   5.525
 8796SOL    HW127287   4.607   2.304   5.543
 8796SOL    HW227288   4.704   2.433   5.517
 8797SOL     OW27289   0.505   6.898   6.327
 8797SOL    HW127290   0.475   6.876   6.234
 8797SOL    HW227291   0.551   6.987   6.327
 8798SOL     OW27292   5.476   3.410   4.987
 8798SOL    HW127293   5.387   3.404   4.942
 8798SOL    HW227294   5.516   3.319   4.994
 8799SOL     OW27295   3.106   4.823   3.236
 8799SOL    HW127296   3.169   4.840   3.160
 8799SOL    HW227297   3.114   4.896   3.303
 8800SOL     OW27298   4.701   4.991   6.484
 8800SOL    HW127299   4.733   4.973   6.577
 8800SOL    HW227300   4.753   5.066   6.444
 8801SOL     OW27301   2.475   1.400   4.158
 8801SOL    HW127302   2.424   1.427   4.240
 8801SOL    HW227303   2.538   1.473   4.132
 8802SOL     OW27304   2.043   6.311   2.303
 8802SOL    HW127305   2.053   6.322   2.402
 8802SOL    HW227306   2.061   6.398   2.258
 8803SOL     OW27307   2.982   5.682   0.000
 8803SOL    HW127308   2.950   5.766   6.981
 8803SOL    HW227309   2.950   5.603   6.971
 8804SOL     OW27310   4.192   0.355   1.029
 8804SOL    HW127311   4.133   0.420   0.981
 8804SOL    HW227312   4.251   0.405   1.093
 8805SOL     OW27313   0.466   0.137   3.235
 8805SOL    HW127314   0.528   0.143   3.313
 8805SOL    HW227315   0.371   0.144   3.267
 8806SOL     OW27316   1.520   5.173   0.468
 8806SOL    HW127317   1.526   5.242   0.540
 8806SOL    HW227318   1.469   5.094   0.502
 8807SOL     OW27319   0.448   5.956   5.999
 8807SOL    HW127320   0.460   5.871   5.947
 8807SOL    HW227321   0.535   6.006   6.002
 8808SOL     OW27322   5.256   1.080   0.129
 8808SOL    HW127323   5.286   1.093   0.223
 8808SOL    HW227324   5.292   0.994   0.094
 8809SOL     OW27325   5.692   3.957   1.356
 8809SOL    HW127326   5.627   3.999   1.292
 8809SOL    HW227327   5.782   3.953   1.314
 8810SOL     OW27328   4.181   1.373   3.630
 8810SOL    HW127329   4.095   1.337   3.592
 8810SOL    HW227330   4.253   1.305   3.619
 8811SOL     OW27331   1.921   1.827   3.357
 8811SOL    HW127332   1.923   1.779   3.445
 8811SOL    HW227333   1.875   1.770   3.289
 8812SOL     OW27334   1.307   1.028   0.695
 8812SOL    HW127335   1.238   1.039   0.624
 8812SOL    HW227336   1.320   1.116   0.743
 8813SOL     OW27337   1.561   7.005   2.199
 8813SOL    HW127338   1.650   6.969   2.227
 8813SOL    HW227339   1.527   0.045   2.268
 8814SOL     OW27340   5.961   0.949   6.584
 8814SOL    HW127341   6.057   0.965   6.558
 8814SOL    HW227342   5.939   0.852   6.575
 8815SOL     OW27343   0.158   5.964   2.506
 8815SOL    HW127344   0.200   5.926   2.424
 8815SOL    HW227345   0.093   6.035   2.480
 8816SOL     OW27346   1.254   5.938   1.632
 8816SOL    HW127347   1.277   5.889   1.716
 8816SOL    HW227348   1.193   6.015   1.653
 8817SOL     OW27349   1.753   5.785   5.155
 8817SOL    HW127350   1.686   5.854   5.126
 8817SOL    HW227351   1.705   5.705   5.190
 8818SOL     OW27352   0.398   4.906   3.777
 8818SOL    HW127353   0.406   4.818   3.731
 8818SOL    HW227354   0.340   4.967   3.721
 8819SOL     OW27355   5.264   6.634   4.195
 8819SOL    HW127356   5.260   6.648   4.096
 8819SOL    HW227357   5.317   6.551   4.215
 8820SOL     OW27358   1.424   2.430   4.405
 8820SOL    HW127359   1.502   2.399   4.352
 8820SOL    HW227360   1.446   2.517   4.449
 8821SOL     OW27361   2.673   0.361   6.194
 8821SOL    HW127362   2.635   0.413   6.117
 8821SOL    HW227363   2.759   0.403   6.223
 8822SOL     OW27364   0.863   1.813   3.763
 8822SOL    HW127365   0.824   1.881   3.701
 8822SOL    HW227366   0.903   1.738   3.711
 8823SOL     OW27367   1.848   6.805   0.830
 8823SOL    HW127368   1.867   6.826   0.734
 8823SOL    HW227369   1.779   6.733   0.835
 8824SOL     OW27370   3.413   3.868   0.591
 8824SOL    HW127371   3.501   3.845   0.632
 8824SOL    HW227372   3.419   3.858   0.491
 8825SOL     OW27373   0.786   1.346   2.182
 8825SOL    HW127374   0.885   1.353   2.175
 8825SOL    HW227375   0.754   1.266   2.131
 8826SOL     OW27376   5.408   1.305   6.519
 8826SOL    HW127377   5.508   1.301   6.513
 8826SOL    HW227378   5.381   1.310   6.615
 8827SOL     OW27379   2.038   1.450   3.392
 8827SOL    HW127380   2.103   1.380   3.363
 8827SOL    HW227381   1.950   1.435   3.347
 8828SOL     OW27382   3.156   6.577   2.494
 8828SOL    HW127383   3.103   6.661   2.485
 8828SOL    HW227384   3.201   6.576   2.583
 8829SOL     OW27385   0.017   2.040   6.946
 8829SOL    HW127386   0.009   2.086   0.010
 8829SOL    HW227387   0.112   2.044   6.915
 8830SOL     OW27388   1.024   1.587   0.256
 8830SOL    HW127389   1.049   1.560   0.163
 8830SOL    HW227390   1.082   1.539   0.321
 8831SOL     OW27391   6.516   1.238   3.192
 8831SOL    HW127392   6.561   1.181   3.123
 8831SOL    HW227393   6.527   1.334   3.167
 8832SOL     OW27394   6.476   0.399   2.617
 8832SOL    HW127395   6.566   0.422   2.579
 8832SOL    HW227396   6.407   0.403   2.545
 8833SOL     OW27397   2.386   5.197   4.465
 8833SOL    HW127398   2.475   5.151   4.461
 8833SOL    HW227399   2.392   5.275   4.527
 8834SOL     OW27400   6.113   2.963   4.689
 8834SOL    HW127401   6.084   2.885   4.635
 8834SOL    HW227402   6.056   2.969   4.772
 8835SOL     OW27403   0.050   6.617   5.756
 8835SOL    HW127404   0.069   6.522   5.780
 8835SOL    HW227405   7.007   6.620   5.681
 8836SOL     OW27406   4.283   1.033   6.709
 8836SOL    HW127407   4.241   0.963   6.766
 8836SOL    HW227408   4.343   1.090   6.765
 8837SOL     OW27409   0.431   0.699   1.790
 8837SOL    HW127410   0.450   0.795   1.808
 8837SOL    HW227411   0.466   0.675   1.699
 8838SOL     OW27412   2.748   5.214   3.140
 8838SOL    HW127413   2.720   5.128   3.184
 8838SOL    HW227414   2.810   5.195   3.064
 8839SOL     OW27415   6.232   6.116   3.694
 8839SOL    HW127416   6.220   6.026   3.734
 8839SOL    HW227417   6.320   6.154   3.720
 8840SOL     OW27418   5.633   2.306   1.989
 8840SOL    HW127419   5.665   2.211   1.996
 8840SOL    HW227420   5.701   2.360   1.939
 8841SOL     OW27421   0.843   1.634   5.549
 8841SOL    HW127422   0.797   1.683   5.475
 8841SOL    HW227423   0.875   1.545   5.517
 8842SOL     OW27424   2.463   2.545   2.000
 8842SOL    HW127425   2.439   2.613   2.071
 8842SOL    HW227426   2.440   2.582   1.910
 8843SOL     OW27427   1.027   2.678   4.941
 8843SOL    HW127428   1.001   2.703   4.847
 8843SOL    HW227429   0.945   2.674   4.998
 8844SOL     OW27430   6.385   0.575   6.276
 8844SOL    HW127431   6.364   0.572   6.374
 8844SOL    HW227432   6.355   0.663   6.239
 8845SOL     OW27433   5.060   4.306   0.028
 8845SOL    HW127434   5.083   4.209   0.016
 8845SOL    HW227435   4.970   4.314   0.070
 8846SOL     OW27436   2.168   4.642   3.938
 8846SOL    HW127437   2.148   4.715   3.873
 8846SOL    HW227438   2.133   4.555   3.902
 8847SOL     OW27439   3.310   0.132   1.990
 8847SOL    HW127440   3.302   0.127   1.890
 8847SOL    HW227441   3.301   0.228   2.019
 8848SOL     OW27442   1.746   0.602   2.391
 8848SOL    HW127443   1.660   0.630   2.347
 8848SOL    HW227444   1.731   0.590   2.489
 8849SOL     OW27445   2.758   6.830   1.433
 8849SOL    HW127446   2.732   6.780   1.350
 8849SOL    HW227447   2.695   6.807   1.507
 8850SOL     OW27448   3.562   2.324   6.640
 8850SOL    HW127449   3.505   2.356   6.716
 8850SOL    HW227450   3.511   2.258   6.586
 8851SOL     OW27451   1.440   4.621   2.664
 8851SOL    HW127452   1.385   4.613   2.581
 8851SOL    HW227453   1.506   4.547   2.668
 8852SOL     OW27454   1.124   1.546   6.211
 8852SOL    HW127455   1.068   1.467   6.187
 8852SOL    HW227456   1.067   1.617   6.250
 8853SOL     OW27457   3.864   1.021   0.154
 8853SOL    HW127458   3.808   1.101   0.132
 8853SOL    HW227459   3.937   1.048   0.217
 8854SOL     OW27460   1.258   3.183   5.161
 8854SOL    HW127461   1.250   3.281   5.178
 8854SOL    HW227462   1.336   3.167   5.100
 8855SOL     OW27463   5.778   5.034   0.835
 8855SOL    HW127464   5.804   5.038   0.739
 8855SOL    HW227465   5.722   5.113   0.858
 8856SOL     OW27466   0.573   5.491   6.373
 8856SOL    HW127467   0.507   5.456   6.306
 8856SOL    HW227468   0.625   5.566   6.332
 8857SOL     OW27469   6.366   1.211   5.614
 8857SOL    HW127470   6.389   1.232   5.519
 8857SOL    HW227471   6.451   1.199   5.666
 8858SOL     OW27472   6.314   4.944   4.785
 8858SOL    HW127473   6.221   4.925   4.818
 8858SOL    HW227474   6.380   4.924   4.858
 8859SOL     OW27475   0.586   0.364   3.656
 8859SOL    HW127476   0.599   0.460   3.630
 8859SOL    HW227477   0.490   0.347   3.675
 8860SOL     OW27478   6.940   2.458   2.182
 8860SOL    HW127479   6.943   2.370   2.134
 8860SOL    HW227480   7.009   2.519   2.144
 8861SOL     OW27481   4.669   2.324   1.693
 8861SOL    HW127482   4.698   2.228   1.685
 8861SOL    HW227483   4.721   2.368   1.766
 8862SOL     OW27484   4.867   5.017   5.156
 8862SOL    HW127485   4.831   5.092   5.101
 8862SOL    HW227486   4.898   4.943   5.096
 8863SOL     OW27487   2.029   3.905   3.754
 8863SOL    HW127488   1.954   3.970   3.767
 8863SOL    HW227489   2.067   3.915   3.662
 8864SOL     OW27490   5.773   1.478   5.601
 8864SOL    HW127491   5.851   1.541   5.595
 8864SOL    HW227492   5.801   1.396   5.650
 8865SOL     OW27493   2.073   1.697   6.443
 8865SOL    HW127494   2.010   1.770   6.416
 8865SOL    HW227495   2.046   1.612   6.399
 8866SOL     OW27496   6.023   5.828   2.385
 8866SOL    HW127497   6.006   5.914   2.433
 8866SOL    HW227498   5.952   5.762   2.410
 8867SOL     OW27499   6.510   4.104   2.542
 8867SOL    HW127500   6.557   4.189   2.517
 8867SOL    HW227501   6.418   4.105   2.502
 8868SOL     OW27502   0.329   3.514   3.558
 8868SOL    HW127503   0.230   3.517   3.542
 8868SOL    HW227504   0.375   3.568   3.488
 8869SOL     OW27505   3.303   6.416   3.539
 8869SOL    HW127506   3.353   6.336   3.507
 8869SOL    HW227507   3.302   6.417   3.639
 8870SOL     OW27508   1.677   0.551   2.654
 8870SOL    HW127509   1.732   0.483   2.701
 8870SOL    HW227510   1.658   0.628   2.715
 8871SOL     OW27511   0.575   0.617   2.684
 8871SOL    HW127512   0.624   0.690   2.731
 8871SOL    HW227513   0.485   0.650   2.656
 8872SOL     OW27514   0.400   4.861   4.653
 8872SOL    HW127515   0.356   4.880   4.741
 8872SOL    HW227516   0.358   4.780   4.612
 8873SOL     OW27517   1.662   0.873   2.680
 8873SOL    HW127518   1.578   0.822   2.700
 8873SOL    HW227519   1.669   0.889   2.582
 8874SOL     OW27520   3.169   5.977   0.368
 8874SOL    HW127521   3.211   5.969   0.458
 8874SOL    HW227522   3.240   5.988   0.299
 8875SOL     OW27523   0.276   3.222   3.734
 8875SOL    HW127524   0.279   3.314   3.773
 8875SOL    HW227525   0.181   3.194   3.721
 8876SOL     OW27526   3.564   0.583   6.099
 8876SOL    HW127527   3.563   0.583   5.999
 8876SOL    HW227528   3.505   0.510   6.133
 8877SOL     OW27529   1.808   4.466   1.230
 8877SOL    HW127530   1.888   4.473   1.171
 8877SOL    HW227531   1.820   4.390   1.294
 8878SOL     OW27532   4.445   3.787   0.900
 8878SOL    HW127533   4.487   3.874   0.873
 8878SOL    HW227534   4.373   3.804   0.968
 8879SOL     OW27535   6.009   4.733   2.850
 8879SOL    HW127536   6.063   4.703   2.771
 8879SOL    HW227537   5.927   4.780   2.818
 8880SOL     OW27538   4.340   6.911   4.151
 8880SOL    HW127539   4.401   6.939   4.077
 8880SOL    HW227540   4.348   6.976   4.227
 8881SOL     OW27541   4.189   5.098   4.515
 8881SOL    HW127542   4.147   5.188   4.528
 8881SOL    HW227543   4.226   5.090   4.423
 8882SOL     OW27544   4.289   0.590   0.840
 8882SOL    HW127545   4.202   0.567   0.883
 8882SOL    HW227546   4.363   0.575   0.906
 8883SOL     OW27547   6.996   6.362   4.889
 8883SOL    HW127548   0.027   6.429   4.940
 8883SOL    HW227549   6.919   6.332   4.945
 8884SOL     OW27550   5.249   3.619   4.777
 8884SOL    HW127551   5.183   3.564   4.725
 8884SOL    HW227552   5.204   3.653   4.860
 8885SOL     OW27553   6.356   5.485   0.421
 8885SOL    HW127554   6.417   5.450   0.492
 8885SOL    HW227555   6.381   5.446   0.333
 8886SOL     OW27556   3.387   5.634   6.381
 8886SOL    HW127557   3.320   5.611   6.310
 8886SOL    HW227558   3.339   5.669   6.462
 8887SOL     OW27559   5.162   1.474   1.719
 8887SOL    HW127560   5.063   1.456   1.725
 8887SOL    HW227561   5.199   1.483   1.811
 8888SOL     OW27562   2.423   1.563   3.557
 8888SOL    HW127563   2.472   1.485   3.518
 8888SOL    HW227564   2.462   1.648   3.521
 8889SOL     OW27565   0.504   6.502   6.114
 8889SOL    HW127566   0.454   6.436   6.170
 8889SOL    HW227567   0.492   6.480   6.017
 8890SOL     OW27568   0.418   6.940   0.374
 8890SOL    HW127569   0.476   6.886   0.314
 8890SOL    HW227570   0.375   6.881   0.442
 8891SOL     OW27571   5.975   4.197   0.280
 8891SOL    HW127572   5.962   4.257   0.202
 8891SOL    HW227573   5.983   4.252   0.364
 8892SOL     OW27574   3.041   5.565   3.621
 8892SOL    HW127575   3.099   5.634   3.664
 8892SOL    HW227576   3.021   5.592   3.527
 8893SOL     OW27577   1.411   4.888   4.864
 8893SOL    HW127578   1.446   4.978   4.837
 8893SOL    HW227579   1.470   4.851   4.936
 8894SOL     OW27580   4.543   1.509   0.123
 8894SOL    HW127581   4.466   1.465   0.169
 8894SOL    HW227582   4.573   1.589   0.177
 8895SOL     OW27583   0.391   3.758   1.283
 8895SOL    HW127584   0.439   3.731   1.367
 8895SOL    HW227585   0.324   3.829   1.304
 8896SOL     OW27586   0.311   2.227   4.710
 8896SOL    HW127587   0.298   2.201   4.806
 8896SOL    HW227588   0.378   2.301   4.704
 8897SOL     OW27589   1.827   3.751   4.145
 8897SOL    HW127590   1.803   3.655   4.157
 8897SOL    HW227591   1.918   3.757   4.103
 8898SOL     OW27592   5.183   4.143   2.936
 8898SOL    HW127593   5.123   4.197   2.995
 8898SOL    HW227594   5.277   4.178   2.942
 8899SOL     OW27595   6.799   3.775   5.991
 8899SOL    HW127596   6.733   3.715   5.947
 8899SOL    HW227597   6.891   3.753   5.960
 8900SOL     OW27598   5.071   2.705   4.272
 8900SOL    HW127599   5.144   2.754   4.321
 8900SOL    HW227600   4.999   2.770   4.247
 8901SOL     OW27601   1.243   2.926   4.410
 8901SOL    HW127602   1.167   2.861   4.411
 8901SOL    HW227603   1.273   2.940   4.315
 8902SOL     OW27604   0.657   4.345   0.261
 8902SOL    HW127605   0.669   4.286   0.340
 8902SOL    HW227606   0.594   4.301   0.196
 8903SOL     OW27607   1.469   6.983   5.448
 8903SOL    HW127608   1.562   7.020   5.442
 8903SOL    HW227609   1.404   0.024   5.409
 8904SOL     OW27610   0.454   0.696   3.507
 8904SOL    HW127611   0.546   0.657   3.514
 8904SOL    HW227612   0.395   0.633   3.458
 8905SOL     OW27613   1.381   3.751   2.015
 8905SOL    HW127614   1.439   3.823   1.978
 8905SOL    HW227615   1.428   3.707   2.092
 8906SOL     OW27616   6.748   6.919   0.372
 8906SOL    HW127617   6.737   6.990   0.442
 8906SOL    HW227618   6.690   6.940   0.293
 8907SOL     OW27619   3.153   3.008   4.858
 8907SOL    HW127620   3.106   3.041   4.776
 8907SOL    HW227621   3.123   3.062   4.937
 8908SOL     OW27622   1.146   5.927   0.640
 8908SOL    HW127623   1.094   5.923   0.555
 8908SOL    HW227624   1.127   5.846   0.695
 8909SOL     OW27625   2.917   0.667   0.080
 8909SOL    HW127626   2.821   0.642   0.097
 8909SOL    HW227627   2.930   0.763   0.103
 8910SOL     OW27628   2.086   1.858   3.930
 8910SOL    HW127629   2.008   1.917   3.951
 8910SOL    HW227630   2.102   1.859   3.832
 8911SOL     OW27631   4.764   1.287   4.041
 8911SOL    HW127632   4.800   1.380   4.044
 8911SOL    HW227633   4.834   1.226   4.003
 8912SOL     OW27634   3.247   3.560   5.137
 8912SOL    HW127635   3.284   3.472   5.165
 8912SOL    HW227636   3.302   3.634   5.176
 8913SOL     OW27637   5.452   5.858   6.986
 8913SOL    HW127638   5.473   5.805   0.045
 8913SOL    HW227639   5.432   5.952   7.011
 8914SOL     OW27640   4.836   6.294   6.411
 8914SOL    HW127641   4.931   6.302   6.381
 8914SOL    HW227642   4.817   6.364   6.480
 8915SOL     OW27643   0.985   1.158   3.917
 8915SOL    HW127644   0.898   1.199   3.946
 8915SOL    HW227645   0.980   1.136   3.819
 8916SOL     OW27646   5.261   1.082   6.830
 8916SOL    HW127647   5.293   1.019   6.901
 8916SOL    HW227648   5.165   1.104   6.846
 8917SOL     OW27649   5.630   1.725   0.475
 8917SOL    HW127650   5.648   1.739   0.572
 8917SOL    HW227651   5.631   1.627   0.455
 8918SOL     OW27652   0.827   4.121   2.360
 8918SOL    HW127653   0.829   4.040   2.301
 8918SOL    HW227654   0.737   4.128   2.403
 8919SOL     OW27655   5.817   3.689   0.514
 8919SOL    HW127656   5.750   3.671   0.586
 8919SOL    HW227657   5.868   3.772   0.535
 8920SOL     OW27658   6.513   1.551   0.616
 8920SOL    HW127659   6.568   1.491   0.558
 8920SOL    HW227660   6.450   1.605   0.559
 8921SOL     OW27661   1.414   3.247   1.452
 8921SOL    HW127662   1.460   3.316   1.396
 8921SOL    HW227663   1.382   3.172   1.394
 8922SOL     OW27664   3.944   0.269   3.058
 8922SOL    HW127665   3.895   0.204   3.115
 8922SOL    HW227666   3.971   0.348   3.113
 8923SOL     OW27667   1.609   2.252   5.063
 8923SOL    HW127668   1.580   2.289   4.975
 8923SOL    HW227669   1.631   2.327   5.126
 8924SOL     OW27670   5.011   5.548   4.985
 8924SOL    HW127671   5.075   5.621   5.006
 8924SOL    HW227672   5.049   5.460   5.015
 8925SOL     OW27673   1.173   0.736   3.423
 8925SOL    HW127674   1.139   0.823   3.388
 8925SOL    HW227675   1.106   0.664   3.405
 8926SOL     OW27676   6.588   3.034   5.223
 8926SOL    HW127677   6.517   3.034   5.294
 8926SOL    HW227678   6.647   3.114   5.234
 8927SOL     OW27679   6.897   1.083   6.292
 8927SOL    HW127680   6.967   1.132   6.239
 8927SOL    HW227681   6.860   1.143   6.363
 8928SOL     OW27682   1.850   6.591   5.057
 8928SOL    HW127683   1.789   6.561   5.130
 8928SOL    HW227684   1.944   6.597   5.090
 8929SOL     OW27685   6.902   2.479   4.460
 8929SOL    HW127686   6.836   2.479   4.384
 8929SOL    HW227687   6.952   2.392   4.459
 8930SOL     OW27688   1.380   4.489   3.995
 8930SOL    HW127689   1.383   4.505   4.094
 8930SOL    HW227690   1.473   4.493   3.958
 8931SOL     OW27691   3.628   2.624   0.921
 8931SOL    HW127692   3.576   2.644   0.838
 8931SOL    HW227693   3.681   2.540   0.908
 8932SOL     OW27694   0.513   3.229   2.850
 8932SOL    HW127695   0.434   3.249   2.909
 8932SOL    HW227696   0.502   3.137   2.812
 8933SOL     OW27697   3.754   1.613   5.687
 8933SOL    HW127698   3.707   1.581   5.770
 8933SOL    HW227699   3.828   1.675   5.713
 8934SOL     OW27700   2.490   6.098   3.867
 8934SOL    HW127701   2.561   6.040   3.907
 8934SOL    HW227702   2.416   6.041   3.831
 8935SOL     OW27703   7.002   5.201   1.448
 8935SOL    HW127704   6.933   5.217   1.518
 8935SOL    HW227705   7.016   5.102   1.438
 8936SOL     OW27706   1.798   3.433   0.737
 8936SOL    HW127707   1.785   3.478   0.825
 8936SOL    HW227708   1.831   3.340   0.752
 8937SOL     OW27709   0.755   6.176   5.704
 8937SOL    HW127710   0.702   6.197   5.623
 8937SOL    HW227711   0.742   6.248   5.772
 8938SOL     OW27712   6.485   4.946   0.882
 8938SOL    HW127713   6.583   4.969   0.887
 8938SOL    HW227714   6.445   4.954   0.973
 8939SOL     OW27715   5.344   2.360   4.525
 8939SOL    HW127716   5.307   2.424   4.458
 8939SOL    HW227717   5.269   2.327   4.584
 8940SOL     OW27718   6.531   0.944   3.585
 8940SOL    HW127719   6.577   1.028   3.556
 8940SOL    HW227720   6.566   0.917   3.674
 8941SOL     OW27721   5.243   2.641   6.401
 8941SOL    HW127722   5.238   2.637   6.501
 8941SOL    HW227723   5.267   2.550   6.365
 8942SOL     OW27724   0.241   2.171   4.985
 8942SOL    HW127725   0.250   2.230   5.065
 8942SOL    HW227726   0.183   2.093   5.008
 8943SOL     OW27727   4.759   3.153   1.386
 8943SOL    HW127728   4.803   3.093   1.318
 8943SOL    HW227729   4.683   3.105   1.429
 8944SOL     OW27730   4.208   5.473   0.788
 8944SOL    HW127731   4.161   5.424   0.715
 8944SOL    HW227732   4.270   5.541   0.748
 8945SOL     OW27733   2.317   0.735   4.308
 8945SOL    HW127734   2.333   0.637   4.296
 8945SOL    HW227735   2.239   0.763   4.252
 8946SOL     OW27736   3.563   1.976   4.766
 8946SOL    HW127737   3.506   1.950   4.845
 8946SOL    HW227738   3.641   2.029   4.798
 8947SOL     OW27739   4.020   3.490   5.297
 8947SOL    HW127740   3.975   3.518   5.212
 8947SOL    HW227741   3.983   3.543   5.374
 8948SOL     OW27742   5.503   4.847   3.349
 8948SOL    HW127743   5.419   4.797   3.372
 8948SOL    HW227744   5.556   4.864   3.433
 8949SOL     OW27745   1.353   6.992   0.203
 8949SOL    HW127746   1.430   0.031   0.192
 8949SOL    HW227747   1.268   0.018   0.189
 8950SOL     OW27748   4.703   2.688   4.896
 8950SOL    HW127749   4.768   2.640   4.837
 8950SOL    HW227750   4.680   2.776   4.856
 8951SOL     OW27751   1.562   2.664   5.498
 8951SOL    HW127752   1.618   2.596   5.452
 8951SOL    HW227753   1.470   2.664   5.459
 8952SOL     OW27754   0.776   1.355   2.946
 8952SOL    HW127755   0.866   1.340   2.906
 8952SOL    HW227756   0.777   1.327   3.042
 8953SOL     OW27757   2.021   3.484   0.092
 8953SOL    HW127758   2.072   3.502   0.008
 8953SOL    HW227759   2.024   3.564   0.151
 8954SOL     OW27760   1.753   6.133   6.535
 8954SOL    HW127761   1.738   6.187   6.618
 8954SOL    HW227762   1.830   6.071   6.549
 8955SOL     OW27763   6.791   4.271   3.425
 8955SOL    HW127764   6.886   4.242   3.437
 8955SOL    HW227765   6.779   4.308   3.333
 8956SOL     OW27766   0.314   0.657   6.250
 8956SOL    HW127767   0.349   0.598   6.178
 8956SOL    HW227768   0.285   0.744   6.210
 8957SOL     OW27769   2.564   4.653   2.459
 8957SOL    HW127770   2.647   4.661   2.514
 8957SOL    HW227771   2.585   4.671   2.363
 8958SOL     OW27772   1.767   6.553   4.389
 8958SOL    HW127773   1.835   6.579   4.457
 8958SOL    HW227774   1.701   6.490   4.430
 8959SOL     OW27775   1.024   4.754   0.666
 8959SOL    HW127776   1.043   4.807   0.748
 8959SOL    HW227777   1.110   4.720   0.627
 8960SOL     OW27778   3.629   5.619   1.744
 8960SOL    HW127779   3.533   5.634   1.766
 8960SOL    HW227780   3.679   5.591   1.826
 8961SOL     OW27781   1.807   2.388   3.731
 8961SOL    HW127782   1.747   2.433   3.665
 8961SOL    HW227783   1.820   2.292   3.705
 8962SOL     OW27784   6.032   0.741   3.353
 8962SOL    HW127785   6.000   0.646   3.346
 8962SOL    HW227786   6.106   0.747   3.419
 8963SOL     OW27787   6.063   0.650   4.297
 8963SOL    HW127788   6.059   0.684   4.391
 8963SOL    HW227789   6.138   0.696   4.248
 8964SOL     OW27790   5.369   4.620   1.871
 8964SOL    HW127791   5.433   4.693   1.897
 8964SOL    HW227792   5.293   4.658   1.819
 8965SOL     OW27793   1.552   5.222   1.731
 8965SOL    HW127794   1.648   5.211   1.756
 8965SOL    HW227795   1.545   5.261   1.640
 8966SOL     OW27796   2.063   2.556   6.271
 8966SOL    HW127797   1.981   2.582   6.323
 8966SOL    HW227798   2.145   2.578   6.324
 8967SOL     OW27799   4.095   0.644   0.319
 8967SOL    HW127800   4.025   0.610   0.380
 8967SOL    HW227801   4.175   0.584   0.322
 8968SOL     OW27802   5.340   6.177   1.304
 8968SOL    HW127803   5.246   6.194   1.273
 8968SOL    HW227804   5.339   6.106   1.374
 8969SOL     OW27805   6.193   0.930   3.914
 8969SOL    HW127806   6.206   1.018   3.869
 8969SOL    HW227807   6.163   0.945   4.008
 8970SOL     OW27808   3.409   2.550   1.510
 8970SOL    HW127809   3.339   2.576   1.577
 8970SOL    HW227810   3.470   2.482   1.550
 8971SOL     OW27811   3.772   5.479   1.921
 8971SOL    HW127812   3.865   5.513   1.939
 8971SOL    HW227813   3.766   5.383   1.949
 8972SOL     OW27814   5.405   6.132   5.472
 8972SOL    HW127815   5.325   6.094   5.519
 8972SOL    HW227816   5.431   6.219   5.513
 8973SOL     OW27817   1.308   5.079   0.263
 8973SOL    HW127818   1.379   5.009   0.260
 8973SOL    HW227819   1.293   5.108   0.358
 8974SOL     OW27820   0.918   4.059   6.140
 8974SOL    HW127821   0.939   3.962   6.128
 8974SOL    HW227822   0.950   4.090   6.229
 8975SOL     OW27823   3.074   0.311   0.778
 8975SOL    HW127824   3.044   0.397   0.736
 8975SOL    HW227825   2.994   0.260   0.809
 8976SOL     OW27826   1.894   5.635   4.531
 8976SOL    HW127827   1.814   5.634   4.591
 8976SOL    HW227828   1.875   5.582   4.449
 8977SOL     OW27829   6.377   1.453   5.763
 8977SOL    HW127830   6.339   1.422   5.676
 8977SOL    HW227831   6.306   1.497   5.817
 8978SOL     OW27832   5.919   6.525   0.418
 8978SOL    HW127833   5.941   6.463   0.343
 8978SOL    HW227834   6.002   6.568   0.452
 8979SOL     OW27835   1.747   3.812   4.881
 8979SOL    HW127836   1.741   3.713   4.869
 8979SOL    HW227837   1.825   3.833   4.939
 8980SOL     OW27838   3.446   3.138   4.625
 8980SOL    HW127839   3.423   3.046   4.658
 8980SOL    HW227840   3.367   3.176   4.576
 8981SOL     OW27841   3.501   1.563   4.731
 8981SOL    HW127842   3.531   1.607   4.815
 8981SOL    HW227843   3.429   1.617   4.689
 8982SOL     OW27844   3.084   4.325   0.560
 8982SOL    HW127845   3.115   4.231   0.547
 8982SOL    HW227846   3.040   4.358   0.477
 8983SOL     OW27847   4.061   5.297   0.195
 8983SOL    HW127848   4.125   5.373   0.202
 8983SOL    HW227849   3.985   5.312   0.257
 8984SOL     OW27850   2.453   5.934   3.031
 8984SOL    HW127851   2.470   5.878   3.112
 8984SOL    HW227852   2.394   5.884   2.968
 8985SOL     OW27853   3.754   3.122   6.962
 8985SOL    HW127854   3.677   3.138   0.000
 8985SOL    HW227855   3.837   3.162   7.001
 8986SOL     OW27856   3.847   5.029   3.028
 8986SOL    HW127857   3.844   5.118   3.073
 8986SOL    HW227858   3.781   4.968   3.070
 8987SOL     OW27859   5.307   5.784   2.723
 8987SOL    HW127860   5.326   5.748   2.815
 8987SOL    HW227861   5.317   5.710   2.656
 8988SOL     OW27862   0.484   5.183   4.064
 8988SOL    HW127863   0.549   5.110   4.042
 8988SOL    HW227864   0.395   5.160   4.025
 8989SOL     OW27865   4.237   2.903   6.427
 8989SOL    HW127866   4.240   2.806   6.449
 8989SOL    HW227867   4.147   2.940   6.452
 8990SOL     OW27868   0.244   5.173   3.892
 8990SOL    HW127869   0.228   5.271   3.886
 8990SOL    HW227870   0.312   5.146   3.823
 8991SOL     OW27871   1.465   2.301   4.849
 8991SOL    HW127872   1.483   2.399   4.840
 8991SOL    HW227873   1.367   2.285   4.846
 8992SOL     OW27874   6.179   2.269   0.152
 8992SOL    HW127875   6.270   2.250   0.115
 8992SOL    HW227876   6.138   2.346   0.103
 8993SOL     OW27877   4.054   3.419   6.054
 8993SOL    HW127878   4.070   3.371   5.967
 8993SOL    HW227879   4.141   3.429   6.103
 8994SOL     OW27880   2.068   4.683   4.722
 8994SOL    HW127881   2.008   4.627   4.778
 8994SOL    HW227882   2.039   4.779   4.728
 8995SOL     OW27883   6.955   1.381   1.428
 8995SOL    HW127884   0.014   1.420   1.470
 8995SOL    HW227885   6.923   1.442   1.355
 8996SOL     OW27886   5.235   3.822   6.781
 8996SOL    HW127887   5.285   3.802   6.865
 8996SOL    HW227888   5.213   3.737   6.734
 8997SOL     OW27889   5.618   1.117   5.078
 8997SOL    HW127890   5.547   1.114   5.007
 8997SOL    HW227891   5.708   1.121   5.035
 8998SOL     OW27892   6.079   4.049   3.897
 8998SOL    HW127893   6.073   3.954   3.927
 8998SOL    HW227894   6.174   4.080   3.904
 8999SOL     OW27895   4.590   0.078   5.850
 8999SOL    HW127896   4.584   0.048   5.755
 8999SOL    HW227897   4.584   0.178   5.854
 9000SOL     OW27898   1.748   4.583   1.647
 9000SOL    HW127899   1.768   4.524   1.725
 9000SOL    HW227900   1.790   4.545   1.564
 9001SOL     OW27901   6.978   4.903   2.444
 9001SOL    HW127902   7.009   4.834   2.509
 9001SOL    HW227903   6.881   4.887   2.422
 9002SOL     OW27904   1.145   4.259   5.504
 9002SOL    HW127905   1.229   4.204   5.498
 9002SOL    HW227906   1.124   4.297   5.414
 9003SOL     OW27907   5.243   2.197   1.000
 9003SOL    HW127908   5.317   2.130   1.008
 9003SOL    HW227909   5.222   2.234   1.091
 9004SOL     OW27910   4.378   5.182   0.664
 9004SOL    HW127911   4.337   5.114   0.603
 9004SOL    HW227912   4.467   5.211   0.627
 9005SOL     OW27913   5.439   1.410   6.186
 9005SOL    HW127914   5.476   1.467   6.259
 9005SOL    HW227915   5.348   1.444   6.160
 9006SOL     OW27916   3.408   0.443   0.615
 9006SOL    HW127917   3.457   0.433   0.701
 9006SOL    HW227918   3.324   0.388   0.618
 9007SOL     OW27919   2.466   1.368   2.588
 9007SOL    HW127920   2.428   1.349   2.678
 9007SOL    HW227921   2.566   1.357   2.591
 9008SOL     OW27922   0.106   5.607   2.758
 9008SOL    HW127923   0.174   5.612   2.832
 9008SOL    HW227924   0.062   5.696   2.748
 9009SOL     OW27925   3.822   5.424   0.764
 9009SOL    HW127926   3.819   5.470   0.852
 9009SOL    HW227927   3.832   5.491   0.691
 9010SOL     OW27928   2.413   6.559   3.973
 9010SOL    HW127929   2.369   6.470   3.964
 9010SOL    HW227930   2.483   6.570   3.902
 9011SOL     OW27931   4.643   0.751   2.705
 9011SOL    HW127932   4.729   0.802   2.701
 9011SOL    HW227933   4.635   0.706   2.794
 9012SOL     OW27934   2.643   5.686   0.632
 9012SOL    HW127935   2.612   5.621   0.562
 9012SOL    HW227936   2.653   5.776   0.591
 9013SOL     OW27937   1.612   6.767   4.623
 9013SOL    HW127938   1.699   6.744   4.667
 9013SOL    HW227939   1.536   6.729   4.677
 9014SOL     OW27940   6.342   2.468   1.816
 9014SOL    HW127941   6.439   2.452   1.832
 9014SOL    HW227942   6.314   2.425   1.730
 9015SOL     OW27943   4.797   2.876   0.788
 9015SOL    HW127944   4.779   2.780   0.809
 9015SOL    HW227945   4.814   2.885   0.690
 9016SOL     OW27946   5.706   5.281   6.442
 9016SOL    HW127947   5.755   5.334   6.373
 9016SOL    HW227948   5.608   5.293   6.429
 9017SOL     OW27949   3.468   1.245   4.956
 9017SOL    HW127950   3.419   1.329   4.976
 9017SOL    HW227951   3.457   1.181   5.032
 9018SOL     OW27952   3.648   3.266   6.710
 9018SOL    HW127953   3.704   3.185   6.732
 9018SOL    HW227954   3.577   3.275   6.779
 9019SOL     OW27955   1.133   3.409   3.071
 9019SOL    HW127956   1.219   3.359   3.072
 9019SOL    HW227957   1.076   3.375   2.996
 9020SOL     OW27958   6.574   5.492   1.780
 9020SOL    HW127959   6.653   5.450   1.825
 9020SOL    HW227960   6.493   5.437   1.797
 9021SOL     OW27961   0.004   0.209   3.725
 9021SOL    HW127962   0.046   0.217   3.815
 9021SOL    HW227963   6.932   0.179   3.736
 9022SOL     OW27964   3.628   2.761   6.595
 9022SOL    HW127965   3.580   2.810   6.668
 9022SOL    HW227966   3.721   2.797   6.586
 9023SOL     OW27967   3.970   3.157   1.372
 9023SOL    HW127968   4.050   3.216   1.361
 9023SOL    HW227969   3.910   3.166   1.293
 9024SOL     OW27970   0.984   5.052   5.747
 9024SOL    HW127971   0.980   5.145   5.711
 9024SOL    HW227972   1.037   4.995   5.685
 9025SOL     OW27973   0.377   5.754   0.836
 9025SOL    HW127974   0.335   5.835   0.876
 9025SOL    HW227975   0.371   5.759   0.736
 9026SOL     OW27976   3.804   1.526   0.055
 9026SOL    HW127977   3.850   1.565   0.135
 9026SOL    HW227978   3.834   1.574   6.996
 9027SOL     OW27979   0.896   3.948   3.457
 9027SOL    HW127980   0.821   3.897   3.414
 9027SOL    HW227981   0.917   4.028   3.401
 9028SOL     OW27982   3.728   3.800   5.153
 9028SOL    HW127983   3.796   3.872   5.137
 9028SOL    HW227984   3.651   3.811   5.090
 9029SOL     OW27985   4.285   0.566   4.639
 9029SOL    HW127986   4.247   0.596   4.551
 9029SOL    HW227987   4.259   0.471   4.656
 9030SOL     OW27988   2.352   2.669   4.049
 9030SOL    HW127989   2.395   2.705   4.132
 9030SOL    HW227990   2.265   2.625   4.074
 9031SOL     OW27991   4.609   0.261   4.648
 9031SOL    HW127992   4.705   0.251   4.676
 9031SOL    HW227993   4.603   0.252   4.548
 9032SOL     OW27994   4.769   3.346   1.202
 9032SOL    HW127995   4.754   3.284   1.279
 9032SOL    HW227996   4.845   3.408   1.223
 9033SOL     OW27997   0.657   5.107   2.268
 9033SOL    HW127998   0.733   5.172   2.263
 9033SOL    HW227999   0.578   5.153   2.309
 9034SOL     OW28000   3.475   6.382   4.817
 9034SOL    HW128001   3.448   6.354   4.725
 9034SOL    HW228002   3.534   6.462   4.811
 9035SOL     OW28003   2.423   5.826   0.204
 9035SOL    HW128004   2.356   5.842   0.131
 9035SOL    HW228005   2.510   5.868   0.180
 9036SOL     OW28006   1.252   3.503   4.742
 9036SOL    HW128007   1.175   3.494   4.679
 9036SOL    HW228008   1.218   3.496   4.837
 9037SOL     OW28009   0.930   2.419   3.929
 9037SOL    HW128010   1.001   2.445   3.864
 9037SOL    HW228011   0.878   2.342   3.893
 9038SOL     OW28012   4.478   3.019   6.415
 9038SOL    HW128013   4.392   2.969   6.408
 9038SOL    HW228014   4.548   2.973   6.360
 9039SOL     OW28015   3.479   4.918   6.945
 9039SOL    HW128016   3.536   4.912   6.863
 9039SOL    HW228017   3.515   4.990   7.005
 9040SOL     OW28018   2.069   2.269   1.910
 9040SOL    HW128019   2.008   2.216   1.969
 9040SOL    HW228020   2.130   2.207   1.861
 9041SOL     OW28021   0.493   2.425   0.972
 9041SOL    HW128022   0.539   2.495   0.916
 9041SOL    HW228023   0.455   2.354   0.912
 9042SOL     OW28024   3.348   5.790   5.548
 9042SOL    HW128025   3.250   5.790   5.569
 9042SOL    HW228026   3.386   5.880   5.566
 9043SOL     OW28027   2.630   1.232   6.692
 9043SOL    HW128028   2.638   1.297   6.617
 9043SOL    HW228029   2.646   1.278   6.779
 9044SOL     OW28030   0.338   0.279   0.056
 9044SOL    HW128031   0.373   0.272   0.149
 9044SOL    HW228032   0.332   0.188   0.015
 9045SOL     OW28033   4.327   0.353   3.322
 9045SOL    HW128034   4.278   0.428   3.278
 9045SOL    HW228035   4.297   0.344   3.417
 9046SOL     OW28036   3.588   3.135   2.630
 9046SOL    HW128037   3.526   3.150   2.706
 9046SOL    HW228038   3.569   3.201   2.557
 9047SOL     OW28039   1.689   4.269   5.774
 9047SOL    HW128040   1.685   4.208   5.853
 9047SOL    HW228041   1.785   4.288   5.751
 9048SOL     OW28042   5.966   2.501   6.495
 9048SOL    HW128043   5.870   2.511   6.469
 9048SOL    HW228044   6.001   2.590   6.524
 9049SOL     OW28045   3.279   6.822   6.179
 9049SOL    HW128046   3.181   6.820   6.200
 9049SOL    HW228047   3.313   6.728   6.176
 9050SOL     OW28048   0.733   4.402   1.664
 9050SOL    HW128049   0.655   4.450   1.624
 9050SOL    HW228050   0.811   4.464   1.668
 9051SOL     OW28051   2.783   1.567   1.342
 9051SOL    HW128052   2.839   1.647   1.321
 9051SOL    HW228053   2.791   1.545   1.439
 9052SOL     OW28054   1.846   3.147   4.679
 9052SOL    HW128055   1.861   3.145   4.580
 9052SOL    HW228056   1.934   3.141   4.726
 9053SOL     OW28057   2.127   1.823   1.421
 9053SOL    HW128058   2.081   1.887   1.482
 9053SOL    HW228059   2.171   1.873   1.346
 9054SOL     OW28060   2.843   5.673   3.803
 9054SOL    HW128061   2.771   5.711   3.744
 9054SOL    HW228062   2.888   5.597   3.755
 9055SOL     OW28063   0.185   4.244   5.022
 9055SOL    HW128064   0.104   4.303   5.031
 9055SOL    HW228065   0.265   4.300   5.001
 9056SOL     OW28066   6.014   2.192   2.523
 9056SOL    HW128067   5.944   2.163   2.458
 9056SOL    HW228068   6.048   2.113   2.574
 9057SOL     OW28069   4.469   1.156   4.644
 9057SOL    HW128070   4.511   1.112   4.565
 9057SOL    HW228071   4.527   1.231   4.676
 9058SOL     OW28072   1.285   0.709   6.555
 9058SOL    HW128073   1.249   0.765   6.481
 9058SOL    HW228074   1.375   0.675   6.529
 9059SOL     OW28075   1.451   2.318   2.257
 9059SOL    HW128076   1.396   2.269   2.190
 9059SOL    HW228077   1.537   2.346   2.216
 9060SOL     OW28078   4.723   2.777   4.543
 9060SOL    HW128079   4.689   2.792   4.636
 9060SOL    HW228080   4.763   2.686   4.537
 9061SOL     OW28081   4.930   5.349   2.484
 9061SOL    HW128082   4.861   5.421   2.476
 9061SOL    HW228083   4.911   5.294   2.565
 9062SOL     OW28084   1.464   5.405   1.507
 9062SOL    HW128085   1.437   5.459   1.587
 9062SOL    HW228086   1.540   5.449   1.460
 9063SOL     OW28087   2.775   1.705   3.352
 9063SOL    HW128088   2.874   1.690   3.347
 9063SOL    HW228089   2.730   1.662   3.274
 9064SOL     OW28090   6.371   3.443   6.874
 9064SOL    HW128091   6.352   3.344   6.870
 9064SOL    HW228092   6.468   3.459   6.856
 9065SOL     OW28093   3.006   0.984   0.526
 9065SOL    HW128094   2.944   1.029   0.462
 9065SOL    HW228095   2.987   0.886   0.528
 9066SOL     OW28096   5.153   6.553   0.265
 9066SOL    HW128097   5.149   6.629   0.330
 9066SOL    HW228098   5.113   6.582   0.178
 9067SOL     OW28099   1.569   6.608   3.509
 9067SOL    HW128100   1.472   6.583   3.509
 9067SOL    HW228101   1.624   6.527   3.488
 9068SOL     OW28102   1.662   6.022   6.033
 9068SOL    HW128103   1.760   6.034   6.050
 9068SOL    HW228104   1.610   6.048   6.114
 9069SOL     OW28105   1.976   2.340   6.051
 9069SOL    HW128106   1.987   2.406   6.125
 9069SOL    HW228107   2.065   2.302   6.027
 9070SOL     OW28108   1.379   4.228   4.764
 9070SOL    HW128109   1.379   4.204   4.861
 9070SOL    HW228110   1.378   4.145   4.709
 9071SOL     OW28111   6.217   6.652   0.088
 9071SOL    HW128112   6.281   6.702   0.146
 9071SOL    HW228113   6.267   6.601   0.018
 9072SOL     OW28114   6.551   4.177   6.977
 9072SOL    HW128115   6.525   4.137   6.889
 9072SOL    HW228116   6.621   4.119   7.019
 9073SOL     OW28117   1.681   0.973   2.403
 9073SOL    HW128118   1.603   0.926   2.361
 9073SOL    HW228119   1.665   1.071   2.402
 9074SOL     OW28120   1.200   0.015   3.462
 9074SOL    HW128121   1.202   0.115   3.459
 9074SOL    HW228122   1.239   7.002   3.377
 9075SOL     OW28123   6.690   0.593   2.472
 9075SOL    HW128124   6.675   0.573   2.375
 9075SOL    HW228125   6.711   0.690   2.483
 9076SOL     OW28126   6.662   0.739   5.691
 9076SOL    HW128127   6.579   0.787   5.665
 9076SOL    HW228128   6.644   0.681   5.771
 9077SOL     OW28129   5.808   6.101   2.343
 9077SOL    HW128130   5.849   6.180   2.298
 9077SOL    HW228131   5.798   6.026   2.278
 9078SOL     OW28132   3.891   3.268   4.574
 9078SOL    HW128133   3.929   3.198   4.514
 9078SOL    HW228134   3.942   3.354   4.562
 9079SOL     OW28135   3.317   6.643   5.642
 9079SOL    HW128136   3.353   6.552   5.662
 9079SOL    HW228137   3.293   6.689   5.727
 9080SOL     OW28138   5.630   2.051   0.537
 9080SOL    HW128139   5.657   2.115   0.464
 9080SOL    HW228140   5.671   1.962   0.520
 9081SOL     OW28141   5.735   6.617   2.039
 9081SOL    HW128142   5.690   6.599   2.127
 9081SOL    HW228143   5.754   6.531   1.993
 9082SOL     OW28144   3.063   1.127   3.962
 9082SOL    HW128145   3.045   1.157   3.869
 9082SOL    HW228146   2.976   1.106   4.007
 9083SOL     OW28147   4.930   4.715   4.650
 9083SOL    HW128148   4.956   4.769   4.730
 9083SOL    HW228149   4.922   4.619   4.675
 9084SOL     OW28150   3.336   4.164   3.157
 9084SOL    HW128151   3.435   4.169   3.174
 9084SOL    HW228152   3.319   4.165   3.059
 9085SOL     OW28153   1.804   2.242   1.166
 9085SOL    HW128154   1.861   2.223   1.086
 9085SOL    HW228155   1.712   2.266   1.135
 9086SOL     OW28156   0.721   4.103   1.317
 9086SOL    HW128157   0.650   4.092   1.247
 9086SOL    HW228158   0.809   4.117   1.273
 9087SOL     OW28159   4.924   3.592   2.130
 9087SOL    HW128160   4.886   3.668   2.079
 9087SOL    HW228161   4.937   3.514   2.069
 9088SOL     OW28162   5.331   0.954   6.592
 9088SOL    HW128163   5.343   0.863   6.632
 9088SOL    HW228164   5.317   1.021   6.664
 9089SOL     OW28165   4.417   0.158   5.572
 9089SOL    HW128166   4.451   0.252   5.578
 9089SOL    HW228167   4.352   0.141   5.646
 9090SOL     OW28168   5.631   1.321   4.520
 9090SOL    HW128169   5.658   1.250   4.586
 9090SOL    HW228170   5.536   1.306   4.492
 9091SOL     OW28171   3.259   3.776   6.741
 9091SOL    HW128172   3.336   3.822   6.785
 9091SOL    HW228173   3.174   3.819   6.770
 9092SOL     OW28174   6.694   2.759   0.080
 9092SOL    HW128175   6.738   2.837   0.124
 9092SOL    HW228176   6.755   2.722   0.009
 9093SOL     OW28177   1.327   6.587   5.707
 9093SOL    HW128178   1.320   6.686   5.703
 9093SOL    HW228179   1.420   6.561   5.734
 9094SOL     OW28180   0.240   3.240   1.838
 9094SOL    HW128181   0.231   3.286   1.926
 9094SOL    HW228182   0.244   3.141   1.851
 9095SOL     OW28183   5.630   5.993   5.337
 9095SOL    HW128184   5.606   5.933   5.260
 9095SOL    HW228185   5.552   6.052   5.358
 9096SOL     OW28186   6.192   5.533   2.493
 9096SOL    HW128187   6.184   5.554   2.591
 9096SOL    HW228188   6.288   5.521   2.469
 9097SOL     OW28189   1.021   3.020   6.193
 9097SOL    HW128190   0.951   3.012   6.123
 9097SOL    HW228191   1.097   2.960   6.172
 9098SOL     OW28192   1.718   3.626   4.513
 9098SOL    HW128193   1.621   3.651   4.515
 9098SOL    HW228194   1.772   3.705   4.485
 9099SOL     OW28195   2.122   3.759   7.013
 9099SOL    HW128196   2.206   3.705   7.024
 9099SOL    HW228197   2.124   3.806   6.924
 9100SOL     OW28198   0.990   4.576   2.951
 9100SOL    HW128199   0.948   4.501   2.899
 9100SOL    HW228200   0.987   4.660   2.896
 9101SOL     OW28201   1.494   2.305   1.888
 9101SOL    HW128202   1.570   2.281   1.948
 9101SOL    HW228203   1.408   2.274   1.929
 9102SOL     OW28204   4.556   6.159   2.941
 9102SOL    HW128205   4.576   6.183   3.036
 9102SOL    HW228206   4.612   6.215   2.880
 9103SOL     OW28207   5.966   1.636   0.528
 9103SOL    HW128208   5.952   1.699   0.604
 9103SOL    HW228209   5.912   1.553   0.543
 9104SOL     OW28210   6.059   1.104   6.793
 9104SOL    HW128211   6.100   1.029   6.844
 9104SOL    HW228212   6.017   1.069   6.710
 9105SOL     OW28213   2.178   0.328   6.278
 9105SOL    HW128214   2.101   0.311   6.339
 9105SOL    HW228215   2.216   0.418   6.298
 9106SOL     OW28216   1.677   4.766   0.145
 9106SOL    HW128217   1.725   4.841   0.099
 9106SOL    HW228218   1.736   4.725   0.213
 9107SOL     OW28219   2.259   1.253   6.810
 9107SOL    HW128220   2.310   1.338   6.829
 9107SOL    HW228221   2.271   1.228   6.714
 9108SOL     OW28222   5.690   4.829   5.993
 9108SOL    HW128223   5.700   4.924   6.025
 9108SOL    HW228224   5.743   4.817   5.910
 9109SOL     OW28225   5.259   2.688   2.834
 9109SOL    HW128226   5.192   2.732   2.775
 9109SOL    HW228227   5.253   2.588   2.823
 9110SOL     OW28228   1.401   5.970   4.299
 9110SOL    HW128229   1.374   5.884   4.343
 9110SOL    HW228230   1.403   6.043   4.366
 9111SOL     OW28231   4.289   2.896   5.384
 9111SOL    HW128232   4.209   2.838   5.397
 9111SOL    HW228233   4.261   2.991   5.376
 9112SOL     OW28234   1.151   5.485   2.355
 9112SOL    HW128235   1.220   5.449   2.417
 9112SOL    HW228236   1.115   5.412   2.298
 9113SOL     OW28237   5.423   1.853   3.578
 9113SOL    HW128238   5.481   1.781   3.616
 9113SOL    HW228239   5.342   1.812   3.536
 9114SOL     OW28240   1.200   5.752   5.098
 9114SOL    HW128241   1.281   5.767   5.041
 9114SOL    HW228242   1.172   5.839   5.139
 9115SOL     OW28243   5.517   4.411   4.187
 9115SOL    HW128244   5.586   4.367   4.244
 9115SOL    HW228245   5.548   4.414   4.092
 9116SOL     OW28246   1.036   6.941   3.202
 9116SOL    HW128247   1.128   6.948   3.164
 9116SOL    HW228248   0.969   6.966   3.133
 9117SOL     OW28249   3.904   0.852   6.763
 9117SOL    HW128250   3.855   0.906   6.695
 9117SOL    HW228251   3.922   0.761   6.726
 9118SOL     OW28252   6.419   4.129   1.523
 9118SOL    HW128253   6.361   4.210   1.515
 9118SOL    HW228254   6.428   4.103   1.619
 9119SOL     OW28255   3.776   0.274   0.832
 9119SOL    HW128256   3.708   0.202   0.846
 9119SOL    HW228257   3.747   0.334   0.758
 9120SOL     OW28258   6.105   3.265   5.406
 9120SOL    HW128259   6.192   3.312   5.390
 9120SOL    HW228260   6.074   3.286   5.499
 9121SOL     OW28261   3.216   0.854   4.785
 9121SOL    HW128262   3.205   0.785   4.714
 9121SOL    HW228263   3.158   0.933   4.764
 9122SOL     OW28264   2.272   4.178   2.381
 9122SOL    HW128265   2.207   4.234   2.330
 9122SOL    HW228266   2.356   4.230   2.397
 9123SOL     OW28267   0.955   0.217   3.968
 9123SOL    HW128268   1.024   0.238   3.899
 9123SOL    HW228269   0.999   0.183   4.051
 9124SOL     OW28270   2.822   5.495   1.551
 9124SOL    HW128271   2.854   5.403   1.570
 9124SOL    HW228272   2.724   5.493   1.531
 9125SOL     OW28273   4.831   6.188   1.188
 9125SOL    HW128274   4.760   6.142   1.134
 9125SOL    HW228275   4.808   6.284   1.199
 9126SOL     OW28276   3.831   4.734   0.221
 9126SOL    HW128277   3.816   4.657   0.160
 9126SOL    HW228278   3.762   4.734   0.293
 9127SOL     OW28279   0.282   4.177   5.344
 9127SOL    HW128280   0.368   4.129   5.324
 9127SOL    HW228281   0.221   4.168   5.265
 9128SOL     OW28282   5.723   3.426   5.352
 9128SOL    HW128283   5.704   3.481   5.271
 9128SOL    HW228284   5.689   3.333   5.337
 9129SOL     OW28285   1.503   2.656   0.822
 9129SOL    HW128286   1.576   2.610   0.872
 9129SOL    HW228287   1.449   2.712   0.886
 9130SOL     OW28288   2.693   3.980   5.323
 9130SOL    HW128289   2.617   3.970   5.259
 9130SOL    HW228290   2.729   4.074   5.317
 9131SOL     OW28291   5.218   2.351   1.242
 9131SOL    HW128292   5.143   2.392   1.294
 9131SOL    HW228293   5.303   2.399   1.263
 9132SOL     OW28294   7.019   4.483   3.383
 9132SOL    HW128295   6.981   4.391   3.375
 9132SOL    HW228296   6.981   4.541   3.310
 9133SOL     OW28297   4.692   1.294   0.488
 9133SOL    HW128298   4.759   1.233   0.531
 9133SOL    HW228299   4.601   1.255   0.497
 9134SOL     OW28300   4.131   5.142   0.458
 9134SOL    HW128301   4.093   5.234   0.472
 9134SOL    HW228302   4.162   5.133   0.364
 9135SOL     OW28303   0.048   6.623   2.787
 9135SOL    HW128304   0.090   6.568   2.714
 9135SOL    HW228305   6.977   6.643   2.763
 9136SOL     OW28306   6.109   4.182   6.768
 9136SOL    HW128307   6.025   4.178   6.821
 9136SOL    HW228308   6.132   4.278   6.748
 9137SOL     OW28309   5.268   6.189   6.539
 9137SOL    HW128310   5.274   6.096   6.503
 9137SOL    HW228311   5.355   6.214   6.582
 9138SOL     OW28312   3.338   3.318   1.034
 9138SOL    HW128313   3.249   3.288   1.001
 9138SOL    HW228314   3.331   3.342   1.131
 9139SOL     OW28315   6.961   6.942   0.939
 9139SOL    HW128316   0.009   6.872   0.939
 9139SOL    HW228317   6.998   0.005   0.972
 9140SOL     OW28318   0.975   3.810   2.849
 9140SOL    HW128319   0.922   3.882   2.895
 9140SOL    HW228320   1.020   3.753   2.918
 9141SOL     OW28321   6.669   5.636   5.518
 9141SOL    HW128322   6.589   5.691   5.538
 9141SOL    HW228323   6.724   5.624   5.601
 9142SOL     OW28324   1.484   4.275   4.232
 9142SOL    HW128325   1.425   4.204   4.193
 9142SOL    HW228326   1.571   4.276   4.183
 9143SOL     OW28327   0.004   4.146   2.935
 9143SOL    HW128328   6.962   4.070   2.932
 9143SOL    HW228329   7.001   4.210   3.007
 9144SOL     OW28330   2.490   4.763   5.402
 9144SOL    HW128331   2.406   4.800   5.442
 9144SOL    HW228332   2.502   4.800   5.309
 9145SOL     OW28333   1.311   5.891   5.620
 9145SOL    HW128334   1.263   5.809   5.652
 9145SOL    HW228335   1.377   5.865   5.550
 9146SOL     OW28336   6.162   3.014   3.223
 9146SOL    HW128337   6.140   3.027   3.319
 9146SOL    HW228338   6.135   2.922   3.195
 9147SOL     OW28339   4.156   6.894   4.464
 9147SOL    HW128340   4.095   6.835   4.410
 9147SOL    HW228341   4.249   6.856   4.462
 9148SOL     OW28342   6.115   6.207   1.584
 9148SOL    HW128343   6.146   6.142   1.514
 9148SOL    HW228344   6.031   6.173   1.626
 9149SOL     OW28345   0.498   3.314   2.080
 9149SOL    HW128346   0.552   3.314   2.164
 9149SOL    HW228347   0.560   3.307   2.001
 9150SOL     OW28348   2.503   2.528   0.840
 9150SOL    HW128349   2.583   2.584   0.820
 9150SOL    HW228350   2.530   2.433   0.853
 9151SOL     OW28351   1.581   2.999   3.822
 9151SOL    HW128352   1.513   2.930   3.797
 9151SOL    HW228353   1.669   2.975   3.780
 9152SOL     OW28354   1.659   4.357   2.744
 9152SOL    HW128355   1.639   4.267   2.704
 9152SOL    HW228356   1.690   4.419   2.672
 9153SOL     OW28357   0.241   3.893   6.298
 9153SOL    HW128358   0.197   3.957   6.236
 9153SOL    HW228359   0.238   3.929   6.391
 9154SOL     OW28360   5.291   4.796   2.499
 9154SOL    HW128361   5.201   4.829   2.473
 9154SOL    HW228362   5.314   4.829   2.591
 9155SOL     OW28363   1.486   6.605   2.774
 9155SOL    HW128364   1.466   6.703   2.771
 9155SOL    HW228365   1.435   6.562   2.849
 9156SOL     OW28366   6.885   4.052   6.381
 9156SOL    HW128367   6.945   4.119   6.424
 9156SOL    HW228368   6.939   3.973   6.352
 9157SOL     OW28369   1.650   4.728   6.407
 9157SOL    HW128370   1.574   4.700   6.466
 9157SOL    HW228371   1.693   4.647   6.367
 9158SOL     OW28372   6.494   3.901   4.786
 9158SOL    HW128373   6.545   3.984   4.810
 9158SOL    HW228374   6.541   3.821   4.824
 9159SOL     OW28375   3.191   1.351   4.080
 9159SOL    HW128376   3.253   1.372   4.005
 9159SOL    HW228377   3.159   1.256   4.072
 9160SOL     OW28378   0.305   4.419   1.410
 9160SOL    HW128379   0.339   4.480   1.481
 9160SOL    HW228380   0.218   4.454   1.374
 9161SOL     OW28381   6.791   4.479   2.127
 9161SOL    HW128382   6.806   4.467   2.028
 9161SOL    HW228383   6.771   4.390   2.168
 9162SOL     OW28384   3.898   1.969   1.771
 9162SOL    HW128385   3.956   2.048   1.790
 9162SOL    HW228386   3.803   1.993   1.785
 9163SOL     OW28387   1.462   2.231   3.850
 9163SOL    HW128388   1.543   2.182   3.818
 9163SOL    HW228389   1.407   2.259   3.771
 9164SOL     OW28390   2.758   7.016   0.371
 9164SOL    HW128391   2.790   6.928   0.335
 9164SOL    HW228392   2.663   7.008   0.400
 9165SOL     OW28393   5.432   1.783   6.283
 9165SOL    HW128394   5.373   1.829   6.349
 9165SOL    HW228395   5.470   1.700   6.324
 9166SOL     OW28396   5.455   5.725   1.561
 9166SOL    HW128397   5.521   5.696   1.492
 9166SOL    HW228398   5.488   5.700   1.652
 9167SOL     OW28399   1.868   1.111   4.620
 9167SOL    HW128400   1.917   1.151   4.542
 9167SOL    HW228401   1.784   1.161   4.635
 9168SOL     OW28402   6.933   6.074   4.500
 9168SOL    HW128403   6.954   6.017   4.580
 9168SOL    HW228404   6.834   6.080   4.489
 9169SOL     OW28405   6.803   5.941   0.832
 9169SOL    HW128406   6.808   5.947   0.932
 9169SOL    HW228407   6.709   5.957   0.802
 9170SOL     OW28408   1.108   1.246   6.067
 9170SOL    HW128409   1.052   1.205   5.996
 9170SOL    HW228410   1.190   1.286   6.026
 9171SOL     OW28411   3.224   4.830   6.878
 9171SOL    HW128412   3.317   4.835   6.915
 9171SOL    HW228413   3.195   4.921   6.847
 9172SOL     OW28414   4.527   1.344   3.891
 9172SOL    HW128415   4.580   1.331   3.975
 9172SOL    HW228416   4.435   1.377   3.914
 9173SOL     OW28417   5.744   2.919   4.887
 9173SOL    HW128418   5.767   2.821   4.887
 9173SOL    HW228419   5.645   2.929   4.886
 9174SOL     OW28420   0.381   4.367   0.399
 9174SOL    HW128421   0.329   4.394   0.317
 9174SOL    HW228422   0.411   4.448   0.447
 9175SOL     OW28423   1.950   0.238   0.019
 9175SOL    HW128424   1.882   0.284   0.076
 9175SOL    HW228425   1.908   0.209   6.957
 9176SOL     OW28426   1.606   1.546   2.390
 9176SOL    HW128427   1.609   1.446   2.384
 9176SOL    HW228428   1.563   1.572   2.477
 9177SOL     OW28429   0.441   4.670   3.640
 9177SOL    HW128430   0.392   4.599   3.588
 9177SOL    HW228431   0.479   4.629   3.723
 9178SOL     OW28432   2.058   5.535   0.756
 9178SOL    HW128433   2.053   5.604   0.684
 9178SOL    HW228434   2.090   5.577   0.841
 9179SOL     OW28435   3.363   5.380   4.368
 9179SOL    HW128436   3.398   5.457   4.315
 9179SOL    HW228437   3.316   5.414   4.449
 9180SOL     OW28438   6.632   1.122   5.124
 9180SOL    HW128439   6.643   1.102   5.222
 9180SOL    HW228440   6.560   1.190   5.112
 9181SOL     OW28441   2.540   1.803   3.438
 9181SOL    HW128442   2.496   1.848   3.360
 9181SOL    HW228443   2.627   1.763   3.408
 9182SOL     OW28444   1.104   1.629   3.120
 9182SOL    HW128445   1.166   1.703   3.145
 9182SOL    HW228446   1.015   1.666   3.094
 9183SOL     OW28447   1.061   1.965   6.449
 9183SOL    HW128448   1.078   2.064   6.457
 9183SOL    HW228449   1.131   1.915   6.499
 9184SOL     OW28450   3.723   3.344   0.583
 9184SOL    HW128451   3.760   3.424   0.629
 9184SOL    HW228452   3.757   3.261   0.628
 9185SOL     OW28453   0.774   1.219   6.861
 9185SOL    HW128454   0.863   1.245   6.900
 9185SOL    HW228455   0.708   1.292   6.880
 9186SOL     OW28456   5.434   1.154   6.306
 9186SOL    HW128457   5.440   1.237   6.249
 9186SOL    HW228458   5.403   1.179   6.398
 9187SOL     OW28459   5.797   2.188   0.774
 9187SOL    HW128460   5.731   2.183   0.699
 9187SOL    HW228461   5.889   2.199   0.736
 9188SOL     OW28462   1.692   0.750   2.104
 9188SOL    HW128463   1.704   0.674   2.040
 9188SOL    HW228464   1.778   0.767   2.152
 9189SOL     OW28465   4.088   1.390   4.997
 9189SOL    HW128466   4.128   1.477   5.026
 9189SOL    HW228467   4.013   1.408   4.933
 9190SOL     OW28468   6.797   1.870   5.335
 9190SOL    HW128469   6.787   1.962   5.297
 9190SOL    HW228470   6.885   1.832   5.306
 9191SOL     OW28471   5.868   6.941   0.439
 9191SOL    HW128472   5.798   6.872   0.457
 9191SOL    HW228473   5.831   0.008   0.457
 9192SOL     OW28474   5.230   4.442   4.163
 9192SOL    HW128475   5.206   4.528   4.209
 9192SOL    HW228476   5.327   4.422   4.177
 9193SOL     OW28477   3.151   3.024   3.279
 9193SOL    HW128478   3.138   2.983   3.189
 9193SOL    HW228479   3.167   3.122   3.268
 9194SOL     OW28480   3.596   5.654   2.493
 9194SOL    HW128481   3.587   5.745   2.532
 9194SOL    HW228482   3.656   5.598   2.549
 9195SOL     OW28483   0.489   2.780   2.331
 9195SOL    HW128484   0.433   2.861   2.315
 9195SOL    HW228485   0.576   2.790   2.283
 9196SOL     OW28486   4.549   0.075   3.327
 9196SOL    HW128487   4.598   0.106   3.245
 9196SOL    HW228488   4.457   0.045   3.302
 9197SOL     OW28489   3.416   2.762   5.194
 9197SOL    HW128490   3.368   2.751   5.107
 9197SOL    HW228491   3.370   2.709   5.265
 9198SOL     OW28492   5.270   2.282   5.450
 9198SOL    HW128493   5.276   2.283   5.350
 9198SOL    HW228494   5.189   2.229   5.478
 9199SOL     OW28495   1.453   3.907   6.311
 9199SOL    HW128496   1.517   3.983   6.318
 9199SOL    HW228497   1.494   3.834   6.255
 9200SOL     OW28498   6.159   6.172   0.630
 9200SOL    HW128499   6.075   6.118   0.626
 9200SOL    HW228500   6.136   6.269   0.634
 9201SOL     OW28501   1.811   4.363   3.219
 9201SOL    HW128502   1.732   4.352   3.160
 9201SOL    HW228503   1.862   4.277   3.224
 9202SOL     OW28504   3.403   5.637   3.763
 9202SOL    HW128505   3.375   5.543   3.784
 9202SOL    HW228506   3.441   5.640   3.671
 9203SOL     OW28507   5.157   1.053   6.139
 9203SOL    HW128508   5.154   1.146   6.101
 9203SOL    HW228509   5.170   1.058   6.238
 9204SOL     OW28510   4.756   4.144   1.666
 9204SOL    HW128511   4.705   4.078   1.610
 9204SOL    HW228512   4.704   4.229   1.672
 9205SOL     OW28513   4.917   2.954   2.233
 9205SOL    HW128514   4.884   2.878   2.290
 9205SOL    HW228515   4.854   2.969   2.157
 9206SOL     OW28516   0.572   6.697   3.155
 9206SOL    HW128517   0.538   6.657   3.070
 9206SOL    HW228518   0.658   6.653   3.181
 9207SOL     OW28519   3.882   6.605   7.007
 9207SOL    HW128520   3.866   6.629   6.911
 9207SOL    HW228521   3.962   6.655   0.017
 9208SOL     OW28522   4.747   4.595   2.296
 9208SOL    HW128523   4.708   4.675   2.341
 9208SOL    HW228524   4.823   4.623   2.238
 9209SOL     OW28525   3.867   0.787   3.066
 9209SOL    HW128526   3.885   0.698   3.107
 9209SOL    HW228527   3.876   0.859   3.135
 9210SOL     OW28528   1.375   6.924   0.530
 9210SOL    HW128529   1.329   6.854   0.584
 9210SOL    HW228530   1.312   6.959   0.461
 9211SOL     OW28531   4.837   1.631   6.081
 9211SOL    HW128532   4.774   1.648   6.157
 9211SOL    HW228533   4.916   1.579   6.114
 9212SOL     OW28534   5.904   3.391   4.805
 9212SOL    HW128535   5.975   3.353   4.745
 9212SOL    HW228536   5.908   3.491   4.803
 9213SOL     OW28537   6.834   6.951   2.453
 9213SOL    HW128538   6.747   6.945   2.404
 9213SOL    HW228539   6.845   0.019   2.491
 9214SOL     OW28540   1.899   2.398   5.296
 9214SOL    HW128541   1.918   2.431   5.203
 9214SOL    HW228542   1.986   2.384   5.345
 9215SOL     OW28543   0.522   3.093   2.545
 9215SOL    HW128544   0.504   3.010   2.597
 9215SOL    HW228545   0.615   3.125   2.563
 9216SOL     OW28546   2.815   5.493   4.092
 9216SOL    HW128547   2.900   5.522   4.136
 9216SOL    HW228548   2.810   5.533   4.000
 9217SOL     OW28549   4.668   0.932   6.113
 9217SOL    HW128550   4.729   0.853   6.107
 9217SOL    HW228551   4.662   0.976   6.024
 9218SOL     OW28552   6.127   5.462   6.565
 9218SOL    HW128553   6.041   5.422   6.595
 9218SOL    HW228554   6.202   5.426   6.621
 9219SOL     OW28555   3.449   2.744   5.494
 9219SOL    HW128556   3.458   2.754   5.593
 9219SOL    HW228557   3.517   2.803   5.449
 9220SOL     OW28558   0.929   6.446   3.668
 9220SOL    HW128559   0.914   6.509   3.744
 9220SOL    HW228560   0.861   6.464   3.596
 9221SOL     OW28561   2.245   1.363   0.466
 9221SOL    HW128562   2.227   1.276   0.512
 9221SOL    HW228563   2.253   1.348   0.368
 9222SOL     OW28564   1.836   3.184   4.126
 9222SOL    HW128565   1.835   3.129   4.210
 9222SOL    HW228566   1.931   3.208   4.104
 9223SOL     OW28567   0.229   2.885   5.017
 9223SOL    HW128568   0.300   2.858   4.952
 9223SOL    HW228569   0.212   2.983   5.009
 9224SOL     OW28570   2.211   4.264   3.569
 9224SOL    HW128571   2.140   4.334   3.573
 9224SOL    HW228572   2.231   4.231   3.661
 9225SOL     OW28573   5.292   5.750   6.591
 9225SOL    HW128574   5.270   5.773   6.686
 9225SOL    HW228575   5.256   5.821   6.530
 9226SOL     OW28576   0.892   0.911   1.016
 9226SOL    HW128577   0.933   0.995   1.050
 9226SOL    HW228578   0.795   0.909   1.042
 9227SOL     OW28579   2.395   4.459   0.710
 9227SOL    HW128580   2.488   4.449   0.745
 9227SOL    HW228581   2.351   4.537   0.754
 9228SOL     OW28582   3.319   3.312   5.351
 9228SOL    HW128583   3.230   3.319   5.306
 9228SOL    HW228584   3.324   3.380   5.425
 9229SOL     OW28585   0.090   4.943   0.366
 9229SOL    HW128586   0.052   4.908   0.280
 9229SOL    HW228587   0.119   4.867   0.424
 9230SOL     OW28588   4.546   1.347   5.034
 9230SOL    HW128589   4.483   1.277   5.066
 9230SOL    HW228590   4.512   1.437   5.059
 9231SOL     OW28591   6.564   5.850   3.437
 9231SOL    HW128592   6.615   5.765   3.426
 9231SOL    HW228593   6.621   5.918   3.483
 9232SOL     OW28594   1.206   5.099   2.343
 9232SOL    HW128595   1.155   5.154   2.277
 9232SOL    HW228596   1.287   5.151   2.373
 9233SOL     OW28597   0.615   6.720   6.928
 9233SOL    HW128598   0.518   6.719   6.907
 9233SOL    HW228599   0.659   6.794   6.877
 9234SOL     OW28600   2.151   4.004   0.559
 9234SOL    HW128601   2.249   4.006   0.582
 9234SOL    HW228602   2.102   4.072   0.614
 9235SOL     OW28603   2.022   2.274   3.142
 9235SOL    HW128604   2.028   2.297   3.239
 9235SOL    HW228605   1.926   2.277   3.114
 9236SOL     OW28606   2.364   3.248   6.613
 9236SOL    HW128607   2.454   3.246   6.570
 9236SOL    HW228608   2.322   3.157   6.610
 9237SOL     OW28609   5.465   5.266   3.591
 9237SOL    HW128610   5.445   5.206   3.669
 9237SOL    HW228611   5.469   5.211   3.508
 9238SOL     OW28612   1.149   2.637   4.674
 9238SOL    HW128613   1.230   2.579   4.674
 9238SOL    HW228614   1.158   2.706   4.601
 9239SOL     OW28615   1.318   4.897   6.923
 9239SOL    HW128616   1.219   4.913   6.928
 9239SOL    HW228617   1.336   4.799   6.931
 9240SOL     OW28618   4.282   2.045   2.872
 9240SOL    HW128619   4.350   2.118   2.867
 9240SOL    HW228620   4.191   2.084   2.861
 9241SOL     OW28621   5.711   6.898   1.081
 9241SOL    HW128622   5.672   6.857   0.998
 9241SOL    HW228623   5.703   6.997   1.077
 9242SOL     OW28624   1.443   2.592   0.572
 9242SOL    HW128625   1.462   2.673   0.516
 9242SOL    HW228626   1.475   2.609   0.666
 9243SOL     OW28627   1.132   0.904   0.238
 9243SOL    HW128628   1.104   0.918   0.143
 9243SOL    HW228629   1.193   0.825   0.243
 9244SOL     OW28630   3.672   6.640   5.706
 9244SOL    HW128631   3.590   6.583   5.706
 9244SOL    HW228632   3.682   6.684   5.617
 9245SOL     OW28633   1.349   4.960   3.635
 9245SOL    HW128634   1.271   5.008   3.596
 9245SOL    HW228635   1.433   4.993   3.592
 9246SOL     OW28636   5.878   0.179   6.570
 9246SOL    HW128637   5.818   0.169   6.650
 9246SOL    HW228638   5.833   0.140   6.490
 9247SOL     OW28639   3.962   6.318   3.042
 9247SOL    HW128640   3.954   6.239   3.103
 9247SOL    HW228641   3.942   6.290   2.948
 9248SOL     OW28642   2.311   0.716   6.842
 9248SOL    HW128643   2.339   0.781   6.772
 9248SOL    HW228644   2.224   0.673   6.815
 9249SOL     OW28645   3.282   6.271   0.847
 9249SOL    HW128646   3.338   6.329   0.905
 9249SOL    HW228647   3.259   6.320   0.762
 9250SOL     OW28648   0.493   3.061   3.682
 9250SOL    HW128649   0.467   2.964   3.686
 9250SOL    HW228650   0.413   3.118   3.699
 9251SOL     OW28651   3.117   2.905   0.954
 9251SOL    HW128652   3.033   2.866   0.914
 9251SOL    HW228653   3.171   2.832   0.994
 9252SOL     OW28654   5.491   1.852   5.098
 9252SOL    HW128655   5.490   1.826   5.001
 9252SOL    HW228656   5.534   1.942   5.108
 9253SOL     OW28657   0.884   5.548   5.316
 9253SOL    HW128658   0.825   5.491   5.260
 9253SOL    HW228659   0.830   5.623   5.355
 9254SOL     OW28660   6.891   4.311   2.549
 9254SOL    HW128661   6.886   4.349   2.642
 9254SOL    HW228662   6.913   4.213   2.554
 9255SOL     OW28663   6.722   4.136   0.460
 9255SOL    HW128664   6.736   4.047   0.503
 9255SOL    HW228665   6.753   4.208   0.523
 9256SOL     OW28666   2.933   6.470   1.416
 9256SOL    HW128667   2.898   6.386   1.376
 9256SOL    HW228668   2.898   6.549   1.365
 9257SOL     OW28669   6.792   5.630   4.123
 9257SOL    HW128670   6.874   5.596   4.168
 9257SOL    HW228671   6.729   5.667   4.191
 9258SOL     OW28672   3.328   5.147   1.312
 9258SOL    HW128673   3.289   5.233   1.345
 9258SOL    HW228674   3.257   5.077   1.309
 9259SOL     OW28675   2.065   1.967   6.970
 9259SOL    HW128676   2.054   2.017   6.885
 9259SOL    HW228677   2.025   1.875   6.961
 9260SOL     OW28678   5.702   3.976   4.753
 9260SOL    HW128679   5.629   4.008   4.812
 9260SOL    HW228680   5.717   3.878   4.767
 9261SOL     OW28681   3.586   2.468   1.738
 9261SOL    HW128682   3.669   2.500   1.691
 9261SOL    HW228683   3.609   2.390   1.796
 9262SOL     OW28684   6.565   6.276   5.167
 9262SOL    HW128685   6.536   6.371   5.174
 9262SOL    HW228686   6.485   6.217   5.150
 9263SOL     OW28687   2.041   4.471   3.754
 9263SOL    HW128688   1.997   4.391   3.794
 9263SOL    HW228689   1.974   4.524   3.702
 9264SOL     OW28690   4.785   4.321   0.085
 9264SOL    HW128691   4.761   4.229   0.053
 9264SOL    HW228692   4.756   4.389   0.017
 9265SOL     OW28693   5.773   1.762   0.993
 9265SOL    HW128694   5.772   1.853   0.952
 9265SOL    HW228695   5.701   1.756   1.062
 9266SOL     OW28696   1.238   4.828   1.402
 9266SOL    HW128697   1.174   4.768   1.353
 9266SOL    HW228698   1.332   4.805   1.377
 9267SOL     OW28699   6.857   0.865   4.497
 9267SOL    HW128700   6.784   0.913   4.545
 9267SOL    HW228701   6.883   0.918   4.416
 9268SOL     OW28702   0.569   0.028   1.519
 9268SOL    HW128703   0.600   0.095   1.586
 9268SOL    HW228704   0.648   7.006   1.478
 9269SOL     OW28705   3.710   1.236   0.075
 9269SOL    HW128706   3.739   1.332   0.082
 9269SOL    HW228707   3.610   1.233   0.072
 9270SOL     OW28708   1.858   0.336   6.409
 9270SOL    HW128709   1.840   0.250   6.458
 9270SOL    HW228710   1.794   0.345   6.332
 9271SOL     OW28711   1.303   5.964   4.722
 9271SOL    HW128712   1.217   5.945   4.770
 9271SOL    HW228713   1.284   5.996   4.630
 9272SOL     OW28714   6.667   6.133   6.263
 9272SOL    HW128715   6.673   6.228   6.233
 9272SOL    HW228716   6.757   6.103   6.297
 9273SOL     OW28717   4.635   4.758   3.672
 9273SOL    HW128718   4.599   4.821   3.604
 9273SOL    HW228719   4.578   4.676   3.676
 9274SOL     OW28720   0.457   2.998   0.654
 9274SOL    HW128721   0.482   2.998   0.557
 9274SOL    HW228722   0.533   3.034   0.707
 9275SOL     OW28723   6.821   0.748   0.315
 9275SOL    HW128724   6.793   0.745   0.411
 9275SOL    HW228725   6.770   0.820   0.269
 9276SOL     OW28726   2.764   5.567   0.279
 9276SOL    HW128727   2.793   5.503   0.349
 9276SOL    HW228728   2.831   5.642   0.272
 9277SOL     OW28729   5.188   5.633   1.558
 9277SOL    HW128730   5.283   5.662   1.566
 9277SOL    HW228731   5.183   5.534   1.544
 9278SOL     OW28732   1.013   0.375   5.632
 9278SOL    HW128733   1.029   0.431   5.550
 9278SOL    HW228734   1.035   0.428   5.714
 9279SOL     OW28735   4.161   5.754   1.455
 9279SOL    HW128736   4.207   5.685   1.398
 9279SOL    HW228737   4.074   5.779   1.414
 9280SOL     OW28738   1.449   6.866   2.708
 9280SOL    HW128739   1.540   6.893   2.678
 9280SOL    HW228740   1.388   6.857   2.629
 9281SOL     OW28741   2.339   5.449   0.020
 9281SOL    HW128742   2.256   5.499   0.046
 9281SOL    HW228743   2.419   5.496   0.058
 9282SOL     OW28744   3.429   0.225   4.972
 9282SOL    HW128745   3.522   0.207   5.005
 9282SOL    HW228746   3.432   0.283   4.891
 9283SOL     OW28747   4.537   6.456   1.142
 9283SOL    HW128748   4.636   6.452   1.157
 9283SOL    HW228749   4.505   6.548   1.164
 9284SOL     OW28750   3.911   3.957   5.054
 9284SOL    HW128751   3.989   3.961   5.117
 9284SOL    HW228752   3.927   4.019   4.977
 9285SOL     OW28753   0.618   5.149   2.626
 9285SOL    HW128754   0.714   5.171   2.612
 9285SOL    HW228755   0.561   5.220   2.584
 9286SOL     OW28756   4.881   6.465   1.545
 9286SOL    HW128757   4.878   6.552   1.496
 9286SOL    HW228758   4.789   6.425   1.548
 9287SOL     OW28759   3.880   3.950   5.614
 9287SOL    HW128760   3.886   3.875   5.549
 9287SOL    HW228761   3.901   3.917   5.706
 9288SOL     OW28762   3.296   2.093   2.513
 9288SOL    HW128763   3.300   2.088   2.613
 9288SOL    HW228764   3.200   2.102   2.484
 9289SOL     OW28765   5.079   6.392   0.666
 9289SOL    HW128766   5.149   6.352   0.608
 9289SOL    HW228767   5.112   6.398   0.760
 9290SOL     OW28768   4.767   0.960   3.837
 9290SOL    HW128769   4.756   1.055   3.806
 9290SOL    HW228770   4.705   0.901   3.784
 9291SOL     OW28771   0.923   4.426   6.143
 9291SOL    HW128772   0.996   4.376   6.096
 9291SOL    HW228773   0.891   4.501   6.085
 9292SOL     OW28774   0.909   1.394   6.471
 9292SOL    HW128775   0.950   1.480   6.502
 9292SOL    HW228776   0.971   1.319   6.493
 9293SOL     OW28777   4.560   2.648   4.306
 9293SOL    HW128778   4.553   2.718   4.377
 9293SOL    HW228779   4.626   2.578   4.335
 9294SOL     OW28780   4.939   0.631   6.499
 9294SOL    HW128781   4.873   0.705   6.486
 9294SOL    HW228782   4.995   0.622   6.416
 9295SOL     OW28783   0.475   0.950   5.414
 9295SOL    HW128784   0.380   0.978   5.398
 9295SOL    HW228785   0.526   0.952   5.328
 9296SOL     OW28786   1.876   4.658   6.633
 9296SOL    HW128787   1.781   4.659   6.665
 9296SOL    HW228788   1.883   4.707   6.546
 9297SOL     OW28789   6.328   5.843   2.421
 9297SOL    HW128790   6.256   5.798   2.368
 9297SOL    HW228791   6.313   5.941   2.420
 9298SOL     OW28792   1.484   5.063   6.817
 9298SOL    HW128793   1.412   5.003   6.851
 9298SOL    HW228794   1.465   5.088   6.722
 9299SOL     OW28795   2.539   2.614   4.693
 9299SOL    HW128796   2.489   2.690   4.653
 9299SOL    HW228797   2.627   2.647   4.729
 9300SOL     OW28798   1.787   5.460   4.932
 9300SOL    HW128799   1.812   5.430   4.840
 9300SOL    HW228800   1.824   5.551   4.948
 9301SOL     OW28801   0.043   4.737   4.900
 9301SOL    HW128802   6.986   4.760   4.846
 9301SOL    HW228803   0.114   4.805   4.884
 9302SOL     OW28804   2.009   3.488   5.289
 9302SOL    HW128805   1.990   3.482   5.387
 9302SOL    HW228806   2.015   3.584   5.263
 9303SOL     OW28807   2.330   4.429   0.454
 9303SOL    HW128808   2.340   4.426   0.553
 9303SOL    HW228809   2.394   4.365   0.412
 9304SOL     OW28810   4.447   4.982   0.199
 9304SOL    HW128811   4.492   5.026   0.121
 9304SOL    HW228812   4.350   5.008   0.201
 9305SOL     OW28813   2.109   2.060   1.586
 9305SOL    HW128814   2.159   2.103   1.661
 9305SOL    HW228815   2.011   2.081   1.595
 9306SOL     OW28816   6.514   5.907   5.044
 9306SOL    HW128817   6.483   5.839   5.110
 9306SOL    HW228818   6.547   5.860   4.961
 9307SOL     OW28819   2.170   3.604   1.566
 9307SOL    HW128820   2.171   3.700   1.539
 9307SOL    HW228821   2.221   3.593   1.651
 9308SOL     OW28822   2.126   3.735   2.213
 9308SOL    HW128823   2.029   3.757   2.204
 9308SOL    HW228824   2.153   3.673   2.139
 9309SOL     OW28825   4.788   5.342   6.415
 9309SOL    HW128826   4.838   5.283   6.351
 9309SOL    HW228827   4.849   5.415   6.447
 9310SOL     OW28828   5.946   6.641   0.035
 9310SOL    HW128829   6.042   6.655   0.059
 9310SOL    HW228830   5.926   6.543   0.036
 9311SOL     OW28831   4.511   3.540   1.370
 9311SOL    HW128832   4.568   3.621   1.352
 9311SOL    HW228833   4.535   3.468   1.305
 9312SOL     OW28834   0.515   2.928   3.242
 9312SOL    HW128835   0.570   2.915   3.160
 9312SOL    HW228836   0.567   2.981   3.309
 9313SOL     OW28837   0.534   1.027   2.127
 9313SOL    HW128838   0.587   0.992   2.204
 9313SOL    HW228839   0.440   1.044   2.156
 9314SOL     OW28840   5.196   3.664   0.328
 9314SOL    HW128841   5.208   3.572   0.366
 9314SOL    HW228842   5.270   3.724   0.361
 9315SOL     OW28843   5.208   6.839   6.332
 9315SOL    HW128844   5.189   6.849   6.429
 9315SOL    HW228845   5.197   6.927   6.286
 9316SOL     OW28846   4.895   0.817   5.526
 9316SOL    HW128847   4.821   0.754   5.549
 9316SOL    HW228848   4.968   0.808   5.593
 9317SOL     OW28849   3.911   6.064   3.274
 9317SOL    HW128850   4.002   6.056   3.316
 9317SOL    HW228851   3.895   5.986   3.214
 9318SOL     OW28852   4.083   6.420   1.717
 9318SOL    HW128853   3.994   6.435   1.761
 9318SOL    HW228854   4.152   6.400   1.787
 9319SOL     OW28855   2.750   3.102   6.930
 9319SOL    HW128856   2.806   3.100   7.013
 9319SOL    HW228857   2.752   3.012   6.887
 9320SOL     OW28858   6.512   6.513   6.973
 9320SOL    HW128859   6.568   6.502   0.032
 9320SOL    HW228860   6.461   6.429   6.956
 9321SOL     OW28861   0.490   3.520   4.962
 9321SOL    HW128862   0.586   3.548   4.959
 9321SOL    HW228863   0.484   3.430   5.006
 9322SOL     OW28864   5.915   3.355   6.866
 9322SOL    HW128865   5.834   3.393   6.910
 9322SOL    HW228866   5.983   3.332   6.935
 9323SOL     OW28867   0.574   2.089   5.660
 9323SOL    HW128868   0.555   2.149   5.738
 9323SOL    HW228869   0.662   2.043   5.674
 9324SOL     OW28870   1.168   4.688   2.202
 9324SOL    HW128871   1.077   4.730   2.209
 9324SOL    HW228872   1.159   4.594   2.171
 9325SOL     OW28873   0.987   4.415   3.355
 9325SOL    HW128874   0.952   4.493   3.303
 9325SOL    HW228875   0.912   4.373   3.406
 9326SOL     OW28876   4.604   4.373   1.707
 9326SOL    HW128877   4.673   4.424   1.757
 9326SOL    HW228878   4.532   4.343   1.769
 9327SOL     OW28879   3.987   0.868   3.415
 9327SOL    HW128880   3.984   0.920   3.329
 9327SOL    HW228881   4.026   0.925   3.487
 9328SOL     OW28882   2.331   0.035   4.209
 9328SOL    HW128883   2.310   6.971   4.253
 9328SOL    HW228884   2.430   0.039   4.190
 9329SOL     OW28885   0.523   5.232   6.828
 9329SOL    HW128886   0.485   5.139   6.833
 9329SOL    HW228887   0.519   5.265   6.734
 9330SOL     OW28888   6.470   6.091   6.779
 9330SOL    HW128889   6.560   6.050   6.788
 9330SOL    HW228890   6.461   6.133   6.688
 9331SOL     OW28891   1.535   3.483   4.007
 9331SOL    HW128892   1.477   3.419   4.057
 9331SOL    HW228893   1.619   3.500   4.060
 9332SOL     OW28894   4.751   5.716   0.826
 9332SOL    HW128895   4.824   5.774   0.789
 9332SOL    HW228896   4.790   5.628   0.854
 9333SOL     OW28897   4.441   4.021   0.567
 9333SOL    HW128898   4.429   4.068   0.654
 9333SOL    HW228899   4.530   4.044   0.528
 9334SOL     OW28900   5.896   5.953   5.988
 9334SOL    HW128901   5.900   5.919   6.081
 9334SOL    HW228902   5.867   6.049   5.988
 9335SOL     OW28903   0.757   3.708   1.598
 9335SOL    HW128904   0.663   3.680   1.582
 9335SOL    HW228905   0.795   3.749   1.515
 9336SOL     OW28906   5.871   6.779   5.634
 9336SOL    HW128907   5.888   6.683   5.652
 9336SOL    HW228908   5.863   6.794   5.535
 9337SOL     OW28909   2.364   0.178   6.131
 9337SOL    HW128910   2.301   0.224   6.195
 9337SOL    HW228911   2.418   0.247   6.084
 9338SOL     OW28912   5.716   6.722   0.495
 9338SOL    HW128913   5.786   6.655   0.467
 9338SOL    HW228914   5.634   6.710   0.439
 9339SOL     OW28915   5.905   3.790   5.592
 9339SOL    HW128916   5.821   3.823   5.636
 9339SOL    HW228917   5.944   3.864   5.536
 9340SOL     OW28918   4.005   5.418   1.299
 9340SOL    HW128919   3.956   5.354   1.239
 9340SOL    HW228920   3.940   5.483   1.339
 9341SOL     OW28921   5.224   4.077   6.735
 9341SOL    HW128922   5.169   4.093   6.653
 9341SOL    HW228923   5.223   3.980   6.757
 9342SOL     OW28924   3.642   0.337   4.074
 9342SOL    HW128925   3.696   0.421   4.084
 9342SOL    HW228926   3.592   0.320   4.159
 9343SOL     OW28927   4.412   3.986   1.333
 9343SOL    HW128928   4.361   4.058   1.285
 9343SOL    HW228929   4.416   4.007   1.430
 9344SOL     OW28930   6.099   6.382   5.233
 9344SOL    HW128931   6.119   6.474   5.266
 9344SOL    HW228932   6.096   6.319   5.311
 9345SOL     OW28933   0.998   5.905   0.404
 9345SOL    HW128934   1.049   5.835   0.354
 9345SOL    HW228935   0.980   5.983   0.344
 9346SOL     OW28936   5.604   5.981   0.573
 9346SOL    HW128937   5.650   6.002   0.659
 9346SOL    HW228938   5.530   5.916   0.590
 9347SOL     OW28939   3.504   5.327   0.930
 9347SOL    HW128940   3.531   5.272   1.009
 9347SOL    HW228941   3.548   5.291   0.848
 9348SOL     OW28942   2.714   5.757   2.049
 9348SOL    HW128943   2.786   5.825   2.036
 9348SOL    HW228944   2.656   5.753   1.967
 9349SOL     OW28945   6.819   5.377   1.862
 9349SOL    HW128946   6.811   5.403   1.959
 9349SOL    HW228947   6.870   5.448   1.813
 9350SOL     OW28948   6.640   0.520   5.869
 9350SOL    HW128949   6.729   0.491   5.903
 9350SOL    HW228950   6.573   0.516   5.943
 9351SOL     OW28951   3.378   2.426   5.950
 9351SOL    HW128952   3.438   2.415   6.029
 9351SOL    HW228953   3.364   2.524   5.932
 9352SOL     OW28954   3.299   2.689   5.859
 9352SOL    HW128955   3.380   2.739   5.830
 9352SOL    HW228956   3.227   2.753   5.885
 9353SOL     OW28957   0.783   3.377   1.319
 9353SOL    HW128958   0.791   3.283   1.285
 9353SOL    HW228959   0.689   3.408   1.307
 9354SOL     OW28960   4.927   1.972   1.377
 9354SOL    HW128961   4.858   1.900   1.376
 9354SOL    HW228962   4.885   2.059   1.353
 9355SOL     OW28963   6.695   0.237   3.312
 9355SOL    HW128964   6.632   0.190   3.249
 9355SOL    HW228965   6.786   0.242   3.271
 9356SOL     OW28966   4.397   4.573   2.475
 9356SOL    HW128967   4.306   4.613   2.464
 9356SOL    HW228968   4.422   4.521   2.393
 9357SOL     OW28969   3.847   3.130   0.690
 9357SOL    HW128970   3.821   3.050   0.743
 9357SOL    HW228971   3.947   3.135   0.682
 9358SOL     OW28972   5.833   4.615   2.017
 9358SOL    HW128973   5.803   4.578   1.929
 9358SOL    HW228974   5.871   4.541   2.073
 9359SOL     OW28975   6.378   3.821   5.736
 9359SOL    HW128976   6.377   3.872   5.822
 9359SOL    HW228977   6.356   3.882   5.660
 9360SOL     OW28978   1.958   0.721   6.986
 9360SOL    HW128979   2.028   0.785   7.018
 9360SOL    HW228980   1.870   0.767   6.981
 9361SOL     OW28981   2.828   0.016   2.103
 9361SOL    HW128982   2.898   6.975   2.076
 9361SOL    HW228983   2.756   0.018   2.033
 9362SOL     OW28984   2.295   1.239   2.987
 9362SOL    HW128985   2.381   1.193   2.970
 9362SOL    HW228986   2.232   1.222   2.912
 9363SOL     OW28987   3.016   5.902   2.265
 9363SOL    HW128988   3.082   5.897   2.190
 9363SOL    HW228989   2.970   5.814   2.276
 9364SOL     OW28990   4.543   4.718   0.150
 9364SOL    HW128991   4.489   4.802   0.144
 9364SOL    HW228992   4.489   4.641   0.115
 9365SOL     OW28993   2.665   1.458   4.851
 9365SOL    HW128994   2.574   1.450   4.892
 9365SOL    HW228995   2.712   1.538   4.889
 9366SOL     OW28996   2.748   1.945   0.469
 9366SOL    HW128997   2.650   1.961   0.482
 9366SOL    HW228998   2.766   1.847   0.463
 9367SOL     OW28999   6.723   5.635   3.411
 9367SOL    HW129000   6.659   5.562   3.387
 9367SOL    HW229001   6.769   5.612   3.497
 9368SOL     OW29002   3.106   2.219   1.398
 9368SOL    HW129003   3.027   2.233   1.338
 9368SOL    HW229004   3.097   2.278   1.478
 9369SOL     OW29005   0.088   2.265   4.522
 9369SOL    HW129006   0.115   2.346   4.470
 9369SOL    HW229007   0.151   2.253   4.600
 9370SOL     OW29008   6.141   1.322   3.088
 9370SOL    HW129009   6.203   1.246   3.110
 9370SOL    HW229010   6.068   1.288   3.028
 9371SOL     OW29011   0.528   6.397   0.562
 9371SOL    HW129012   0.601   6.376   0.628
 9371SOL    HW229013   0.458   6.327   0.566
 9372SOL     OW29014   5.858   6.646   4.691
 9372SOL    HW129015   5.939   6.599   4.727
 9372SOL    HW229016   5.862   6.743   4.717
 9373SOL     OW29017   3.775   1.956   3.381
 9373SOL    HW129018   3.777   1.858   3.360
 9373SOL    HW229019   3.681   1.985   3.398
 9374SOL     OW29020   5.372   3.480   0.125
 9374SOL    HW129021   5.451   3.419   0.122
 9374SOL    HW229022   5.319   3.462   0.208
 9375SOL     OW29023   0.655   1.453   3.725
 9375SOL    HW129024   0.697   1.452   3.634
 9375SOL    HW229025   0.559   1.479   3.716
 9376SOL     OW29026   2.276   4.088   1.574
 9376SOL    HW129027   2.234   4.112   1.662
 9376SOL    HW229028   2.375   4.100   1.580
 9377SOL     OW29029   5.879   5.125   4.319
 9377SOL    HW129030   5.903   5.091   4.228
 9377SOL    HW229031   5.780   5.135   4.325
 9378SOL     OW29032   2.460   0.225   0.508
 9378SOL    HW129033   2.528   0.266   0.447
 9378SOL    HW229034   2.499   0.215   0.599
 9379SOL     OW29035   5.286   4.711   4.197
 9379SOL    HW129036   5.356   4.673   4.257
 9379SOL    HW229037   5.221   4.765   4.250
 9380SOL     OW29038   5.956   6.984   5.805
 9380SOL    HW129039   5.960   6.896   5.757
 9380SOL    HW229040   5.960   6.968   5.904
 9381SOL     OW29041   2.415   1.674   5.809
 9381SOL    HW129042   2.491   1.738   5.813
 9381SOL    HW229043   2.331   1.723   5.784
 9382SOL     OW29044   5.044   2.160   2.765
 9382SOL    HW129045   5.069   2.255   2.750
 9382SOL    HW229046   5.003   2.123   2.682
 9383SOL     OW29047   3.864   5.978   4.589
 9383SOL    HW129048   3.834   5.882   4.588
 9383SOL    HW229049   3.845   6.018   4.679
 9384SOL     OW29050   4.781   5.801   1.716
 9384SOL    HW129051   4.850   5.829   1.650
 9384SOL    HW229052   4.780   5.865   1.793
 9385SOL     OW29053   3.635   1.114   3.089
 9385SOL    HW129054   3.642   1.040   3.021
 9385SOL    HW229055   3.648   1.202   3.043
 9386SOL     OW29056   2.837   0.009   5.554
 9386SOL    HW129057   2.867   0.100   5.582
 9386SOL    HW229058   2.823   6.976   5.635
 9387SOL     OW29059   3.569   6.992   0.048
 9387SOL    HW129060   3.484   6.989   7.018
 9387SOL    HW229061   3.584   6.903   0.091
 9388SOL     OW29062   6.842   0.619   3.200
 9388SOL    HW129063   6.761   0.668   3.166
 9388SOL    HW229064   6.848   0.630   3.299
 9389SOL     OW29065   2.461   0.807   5.799
 9389SOL    HW129066   2.513   0.889   5.822
 9389SOL    HW229067   2.379   0.833   5.747
 9390SOL     OW29068   2.848   5.151   2.482
 9390SOL    HW129069   2.926   5.192   2.530
 9390SOL    HW229070   2.784   5.223   2.455
 9391SOL     OW29071   0.512   1.033   6.047
 9391SOL    HW129072   0.569   1.115   6.054
 9391SOL    HW229073   0.569   0.956   6.018
 9392SOL     OW29074   1.626   5.941   4.133
 9392SOL    HW129075   1.683   5.876   4.183
 9392SOL    HW229076   1.538   5.950   4.180
 9393SOL     OW29077   3.626   2.133   5.229
 9393SOL    HW129078   3.542   2.119   5.176
 9393SOL    HW229079   3.699   2.078   5.189
 9394SOL     OW29080   6.165   3.011   2.565
 9394SOL    HW129081   6.156   3.014   2.466
 9394SOL    HW229082   6.077   3.032   2.607
 9395SOL     OW29083   1.879   3.639   0.575
 9395SOL    HW129084   1.822   3.581   0.633
 9395SOL    HW229085   1.855   3.624   0.479
 9396SOL     OW29086   6.387   0.215   6.143
 9396SOL    HW129087   6.373   0.297   6.086
 9396SOL    HW229088   6.476   0.175   6.123
 9397SOL     OW29089   2.881   0.141   1.121
 9397SOL    HW129090   2.910   0.045   1.130
 9397SOL    HW229091   2.816   0.163   1.194
 9398SOL     OW29092   2.842   1.792   6.390
 9398SOL    HW129093   2.942   1.803   6.394
 9398SOL    HW229094   2.799   1.850   6.460
 9399SOL     OW29095   6.868   0.534   5.630
 9399SOL    HW129096   6.787   0.589   5.648
 9399SOL    HW229097   6.855   0.442   5.667
 9400SOL     OW29098   5.875   3.180   2.255
 9400SOL    HW129099   5.887   3.255   2.190
 9400SOL    HW229100   5.947   3.113   2.242
 9401SOL     OW29101   3.138   6.938   2.905
 9401SOL    HW129102   3.202   6.922   2.980
 9401SOL    HW229103   3.044   6.932   2.940
 9402SOL     OW29104   1.938   5.388   6.445
 9402SOL    HW129105   1.939   5.355   6.539
 9402SOL    HW229106   1.914   5.313   6.384
 9403SOL     OW29107   5.065   1.753   3.919
 9403SOL    HW129108   5.002   1.831   3.913
 9403SOL    HW229109   5.106   1.736   3.830
 9404SOL     OW29110   1.157   4.786   6.613
 9404SOL    HW129111   1.152   4.885   6.621
 9404SOL    HW229112   1.235   4.752   6.666
 9405SOL     OW29113   6.310   6.688   0.960
 9405SOL    HW129114   6.267   6.688   0.870
 9405SOL    HW229115   6.240   6.676   1.031
 9406SOL     OW29116   0.541   1.377   4.958
 9406SOL    HW129117   0.502   1.286   4.943
 9406SOL    HW229118   0.479   1.431   5.013
 9407SOL     OW29119   3.315   6.008   2.872
 9407SOL    HW129120   3.364   6.082   2.917
 9407SOL    HW229121   3.376   5.962   2.807
 9408SOL     OW29122   4.059   1.719   6.123
 9408SOL    HW129123   4.047   1.655   6.047
 9408SOL    HW229124   3.977   1.718   6.181
 9409SOL     OW29125   6.005   3.795   3.837
 9409SOL    HW129126   6.004   3.867   3.768
 9409SOL    HW229127   5.961   3.713   3.801
 9410SOL     OW29128   4.256   6.195   2.571
 9410SOL    HW129129   4.278   6.292   2.565
 9410SOL    HW229130   4.262   6.165   2.666
 9411SOL     OW29131   4.069   5.394   0.516
 9411SOL    HW129132   4.160   5.421   0.484
 9411SOL    HW229133   4.003   5.465   0.492
 9412SOL     OW29134   0.028   2.212   1.304
 9412SOL    HW129135   6.966   2.187   1.258
 9412SOL    HW229136   0.105   2.172   1.255
 9413SOL     OW29137   3.989   5.946   5.424
 9413SOL    HW129138   3.894   5.973   5.441
 9413SOL    HW229139   4.014   5.967   5.329
 9414SOL     OW29140   3.032   1.617   2.540
 9414SOL    HW129141   3.085   1.569   2.610
 9414SOL    HW229142   3.058   1.583   2.450
 9415SOL     OW29143   2.247   6.586   2.281
 9415SOL    HW129144   2.159   6.595   2.327
 9415SOL    HW229145   2.281   6.676   2.254
 9416SOL     OW29146   1.026   2.004   1.741
 9416SOL    HW129147   1.080   1.979   1.822
 9416SOL    HW229148   1.076   2.072   1.688
 9417SOL     OW29149   2.584   5.433   5.556
 9417SOL    HW129150   2.521   5.356   5.544
 9417SOL    HW229151   2.588   5.487   5.473
 9418SOL     OW29152   2.596   5.084   1.422
 9418SOL    HW129153   2.646   5.073   1.336
 9418SOL    HW229154   2.633   5.020   1.490
 9419SOL     OW29155   3.153   6.707   4.971
 9419SOL    HW129156   3.202   6.722   5.056
 9419SOL    HW229157   3.196   6.631   4.921
 9420SOL     OW29158   0.278   1.337   4.794
 9420SOL    HW129159   0.208   1.407   4.810
 9420SOL    HW229160   0.234   1.248   4.779
 9421SOL     OW29161   0.832   4.270   5.398
 9421SOL    HW129162   0.800   4.254   5.305
 9421SOL    HW229163   0.812   4.365   5.424
 9422SOL     OW29164   5.139   0.768   2.256
 9422SOL    HW129165   5.083   0.818   2.191
 9422SOL    HW229166   5.079   0.720   2.321
 9423SOL     OW29167   3.869   0.856   3.754
 9423SOL    HW129168   3.966   0.879   3.740
 9423SOL    HW229169   3.813   0.937   3.738
 9424SOL     OW29170   3.730   6.405   4.458
 9424SOL    HW129171   3.730   6.473   4.385
 9424SOL    HW229172   3.648   6.349   4.452
 9425SOL     OW29173   0.790   3.157   4.830
 9425SOL    HW129174   0.714   3.131   4.770
 9425SOL    HW229175   0.808   3.082   4.894
 9426SOL     OW29176   3.176   0.340   6.842
 9426SOL    HW129177   3.128   0.305   6.761
 9426SOL    HW229178   3.274   0.326   6.830
 9427SOL     OW29179   2.882   5.367   4.797
 9427SOL    HW129180   2.937   5.366   4.881
 9427SOL    HW229181   2.806   5.431   4.807
 9428SOL     OW29182   5.809   0.187   2.924
 9428SOL    HW129183   5.877   0.189   2.997
 9428SOL    HW229184   5.846   0.139   2.845
 9429SOL     OW29185   0.381   4.205   2.385
 9429SOL    HW129186   0.461   4.178   2.439
 9429SOL    HW229187   0.307   4.139   2.402
 9430SOL     OW29188   6.508   0.141   1.794
 9430SOL    HW129189   6.423   0.091   1.811
 9430SOL    HW229190   6.585   0.092   1.836
 9431SOL     OW29191   6.681   4.137   1.035
 9431SOL    HW129192   6.652   4.212   1.095
 9431SOL    HW229193   6.687   4.052   1.088
 9432SOL     OW29194   6.340   7.020   2.870
 9432SOL    HW129195   6.277   6.985   2.939
 9432SOL    HW229196   6.434   7.004   2.899
 9433SOL     OW29197   3.392   4.657   5.392
 9433SOL    HW129198   3.305   4.616   5.362
 9433SOL    HW229199   3.409   4.741   5.340
 9434SOL     OW29200   5.338   4.852   2.778
 9434SOL    HW129201   5.299   4.802   2.855
 9434SOL    HW229202   5.399   4.923   2.811
 9435SOL     OW29203   1.428   0.726   4.147
 9435SOL    HW129204   1.458   0.648   4.201
 9435SOL    HW229205   1.373   0.695   4.070
 9436SOL     OW29206   2.544   3.464   0.329
 9436SOL    HW129207   2.644   3.473   0.336
 9436SOL    HW229208   2.502   3.555   0.338
 9437SOL     OW29209   1.695   5.253   3.391
 9437SOL    HW129210   1.688   5.353   3.395
 9437SOL    HW229211   1.698   5.224   3.296
 9438SOL     OW29212   0.933   6.510   2.034
 9438SOL    HW129213   0.925   6.610   2.033
 9438SOL    HW229214   0.844   6.469   2.052
 9439SOL     OW29215   0.298   2.596   2.342
 9439SOL    HW129216   0.361   2.671   2.321
 9439SOL    HW229217   0.350   2.514   2.364
 9440SOL     OW29218   5.261   6.449   6.190
 9440SOL    HW129219   5.350   6.480   6.224
 9440SOL    HW229220   5.212   6.526   6.150
 9441SOL     OW29221   1.619   5.061   5.063
 9441SOL    HW129222   1.707   5.098   5.031
 9441SOL    HW229223   1.555   5.057   4.986
 9442SOL     OW29224   0.187   3.123   0.794
 9442SOL    HW129225   0.273   3.131   0.745
 9442SOL    HW229226   0.145   3.034   0.773
 9443SOL     OW29227   1.981   3.974   1.294
 9443SOL    HW129228   1.997   3.958   1.197
 9443SOL    HW229229   2.054   3.931   1.348
 9444SOL     OW29230   0.362   3.288   0.045
 9444SOL    HW129231   0.353   3.371   7.014
 9444SOL    HW229232   0.447   3.292   0.098
 9445SOL     OW29233   5.695   3.775   1.565
 9445SOL    HW129234   5.688   3.824   1.652
 9445SOL    HW229235   5.692   3.840   1.490
 9446SOL     OW29236   6.625   5.797   2.066
 9446SOL    HW129237   6.571   5.772   1.986
 9446SOL    HW229238   6.710   5.841   2.036
 9447SOL     OW29239   6.046   3.924   2.327
 9447SOL    HW129240   5.986   3.968   2.394
 9447SOL    HW229241   6.017   3.829   2.315
 9448SOL     OW29242   5.655   6.308   0.258
 9448SOL    HW129243   5.581   6.243   0.245
 9448SOL    HW229244   5.690   6.302   0.352
 9449SOL     OW29245   5.740   5.190   5.860
 9449SOL    HW129246   5.643   5.201   5.840
 9449SOL    HW229247   5.751   5.148   5.950
 9450SOL     OW29248   3.194   4.897   4.786
 9450SOL    HW129249   3.170   4.875   4.691
 9450SOL    HW229250   3.131   4.848   4.847
 9451SOL     OW29251   4.428   5.372   6.323
 9451SOL    HW129252   4.508   5.345   6.269
 9451SOL    HW229253   4.457   5.401   6.414
 9452SOL     OW29254   2.487   4.778   1.632
 9452SOL    HW129255   2.572   4.725   1.628
 9452SOL    HW229256   2.446   4.768   1.722
 9453SOL     OW29257   2.765   4.929   2.919
 9453SOL    HW129258   2.670   4.960   2.923
 9453SOL    HW229259   2.768   4.829   2.918
 9454SOL     OW29260   1.566   3.404   5.942
 9454SOL    HW129261   1.583   3.321   5.890
 9454SOL    HW229262   1.652   3.449   5.963
 9455SOL     OW29263   3.395   1.495   2.257
 9455SOL    HW129264   3.480   1.536   2.226
 9455SOL    HW229265   3.342   1.562   2.310
 9456SOL     OW29266   1.089   3.634   1.044
 9456SOL    HW129267   1.087   3.555   1.106
 9456SOL    HW229268   1.120   3.605   0.954
 9457SOL     OW29269   1.347   3.133   0.104
 9457SOL    HW129270   1.361   3.036   0.083
 9457SOL    HW229271   1.252   3.157   0.084
 9458SOL     OW29272   6.929   5.414   5.094
 9458SOL    HW129273   6.915   5.315   5.093
 9458SOL    HW229274   6.982   5.439   5.175
 9459SOL     OW29275   6.451   5.723   1.852
 9459SOL    HW129276   6.366   5.672   1.861
 9459SOL    HW229277   6.507   5.682   1.780
 9460SOL     OW29278   1.220   1.867   5.455
 9460SOL    HW129279   1.160   1.840   5.380
 9460SOL    HW229280   1.315   1.844   5.432
 9461SOL     OW29281   0.960   0.760   3.998
 9461SOL    HW129282   1.047   0.727   3.960
 9461SOL    HW229283   0.927   0.694   4.066
 9462SOL     OW29284   1.014   2.628   1.996
 9462SOL    HW129285   1.069   2.571   1.935
 9462SOL    HW229286   1.070   2.701   2.034
 9463SOL     OW29287   5.728   1.476   0.362
 9463SOL    HW129288   5.773   1.431   0.439
 9463SOL    HW229289   5.664   1.412   0.319
 9464SOL     OW29290   6.043   6.872   6.060
 9464SOL    HW129291   6.135   6.841   6.085
 9464SOL    HW229292   5.976   6.802   6.085
 9465SOL     OW29293   6.317   0.487   4.212
 9465SOL    HW129294   6.261   0.411   4.179
 9465SOL    HW229295   6.399   0.451   4.257
 9466SOL     OW29296   2.332   2.919   6.306
 9466SOL    HW129297   2.432   2.919   6.303
 9466SOL    HW229298   2.297   2.959   6.222
 9467SOL     OW29299   1.794   2.893   2.336
 9467SOL    HW129300   1.856   2.850   2.270
 9467SOL    HW229301   1.701   2.858   2.322
 9468SOL     OW29302   6.964   3.434   5.710
 9468SOL    HW129303   6.902   3.485   5.650
 9468SOL    HW229304   0.025   3.414   5.660
 9469SOL     OW29305   5.983   5.273   2.538
 9469SOL    HW129306   5.983   5.239   2.632
 9469SOL    HW229307   6.066   5.328   2.523
 9470SOL     OW29308   4.416   3.771   0.324
 9470SOL    HW129309   4.448   3.841   0.387
 9470SOL    HW229310   4.471   3.688   0.334
 9471SOL     OW29311   0.028   2.078   5.755
 9471SOL    HW129312   0.051   2.124   5.669
 9471SOL    HW229313   0.030   2.145   5.830
 9472SOL     OW29314   5.475   4.599   4.366
 9472SOL    HW129315   5.461   4.540   4.445
 9472SOL    HW229316   5.502   4.543   4.287
 9473SOL     OW29317   2.341   5.803   6.100
 9473SOL    HW129318   2.407   5.763   6.036
 9473SOL    HW229319   2.248   5.774   6.074
 9474SOL     OW29320   4.594   5.135   2.420
 9474SOL    HW129321   4.508   5.093   2.390
 9474SOL    HW229322   4.669   5.098   2.366
 9475SOL     OW29323   2.728   3.830   1.150
 9475SOL    HW129324   2.815   3.879   1.138
 9475SOL    HW229325   2.746   3.740   1.188
 9476SOL     OW29326   4.196   3.348   5.169
 9476SOL    HW129327   4.121   3.396   5.214
 9476SOL    HW229328   4.272   3.412   5.152
 9477SOL     OW29329   0.972   2.305   1.428
 9477SOL    HW129330   1.063   2.302   1.469
 9477SOL    HW229331   0.905   2.337   1.495
 9478SOL     OW29332   5.844   4.564   5.351
 9478SOL    HW129333   5.748   4.587   5.341
 9478SOL    HW229334   5.853   4.479   5.405
 9479SOL     OW29335   6.186   5.998   6.406
 9479SOL    HW129336   6.268   6.054   6.418
 9479SOL    HW229337   6.144   6.018   6.317
 9480SOL     OW29338   5.617   4.773   0.108
 9480SOL    HW129339   5.532   4.794   0.157
 9480SOL    HW229340   5.639   4.677   0.122
 9481SOL     OW29341   6.929   3.646   1.794
 9481SOL    HW129342   6.967   3.555   1.814
 9481SOL    HW229343   7.002   3.704   1.757
 9482SOL     OW29344   4.629   1.185   1.962
 9482SOL    HW129345   4.716   1.184   1.913
 9482SOL    HW229346   4.645   1.200   2.059
 9483SOL     OW29347   2.129   1.703   0.256
 9483SOL    HW129348   2.163   1.687   0.349
 9483SOL    HW229349   2.082   1.621   0.224
 9484SOL     OW29350   6.495   1.427   3.941
 9484SOL    HW129351   6.568   1.427   4.010
 9484SOL    HW229352   6.501   1.510   3.886
 9485SOL     OW29353   0.887   0.363   2.641
 9485SOL    HW129354   0.850   0.345   2.732
 9485SOL    HW229355   0.812   0.385   2.578
 9486SOL     OW29356   2.926   5.986   1.451
 9486SOL    HW129357   2.894   6.076   1.422
 9486SOL    HW229358   2.998   5.955   1.389
 9487SOL     OW29359   3.288   3.601   3.984
 9487SOL    HW129360   3.360   3.585   4.052
 9487SOL    HW229361   3.324   3.659   3.911
 9488SOL     OW29362   1.393   6.385   1.487
 9488SOL    HW129363   1.351   6.312   1.434
 9488SOL    HW229364   1.490   6.366   1.500
 9489SOL     OW29365   4.106   4.816   1.407
 9489SOL    HW129366   4.066   4.848   1.492
 9489SOL    HW229367   4.035   4.775   1.350
 9490SOL     OW29368   5.214   1.121   1.432
 9490SOL    HW129369   5.198   1.122   1.334
 9490SOL    HW229370   5.274   1.197   1.457
 9491SOL     OW29371   6.147   4.981   5.097
 9491SOL    HW129372   6.150   4.903   5.035
 9491SOL    HW229373   6.133   5.065   5.045
 9492SOL     OW29374   3.334   4.010   1.809
 9492SOL    HW129375   3.331   4.009   1.709
 9492SOL    HW229376   3.420   4.052   1.839
 9493SOL     OW29377   4.675   5.857   3.000
 9493SOL    HW129378   4.579   5.847   2.976
 9493SOL    HW229379   4.700   5.954   2.998
 9494SOL     OW29380   5.006   3.244   6.210
 9494SOL    HW129381   5.008   3.219   6.113
 9494SOL    HW229382   4.929   3.199   6.255
 9495SOL     OW29383   6.216   1.878   4.970
 9495SOL    HW129384   6.174   1.919   4.890
 9495SOL    HW229385   6.145   1.848   5.033
 9496SOL     OW29386   5.729   3.882   0.180
 9496SOL    HW129387   5.741   3.790   0.145
 9496SOL    HW229388   5.669   3.934   0.120
 9497SOL     OW29389   5.603   5.484   0.038
 9497SOL    HW129390   5.542   5.461   6.986
 9497SOL    HW229391   5.603   5.583   0.052
 9498SOL     OW29392   3.646   0.162   5.612
 9498SOL    HW129393   3.585   0.141   5.537
 9498SOL    HW229394   3.724   0.099   5.610
 9499SOL     OW29395   2.779   3.871   5.581
 9499SOL    HW129396   2.746   3.906   5.493
 9499SOL    HW229397   2.808   3.776   5.571
 9500SOL     OW29398   4.325   5.947   1.582
 9500SOL    HW129399   4.283   5.879   1.522
 9500SOL    HW229400   4.398   5.903   1.635
 9501SOL     OW29401   3.586   1.231   4.453
 9501SOL    HW129402   3.526   1.278   4.389
 9501SOL    HW229403   3.589   1.133   4.431
 9502SOL     OW29404   6.438   2.459   5.009
 9502SOL    HW129405   6.519   2.410   4.980
 9502SOL    HW229406   6.361   2.437   4.949
 9503SOL     OW29407   0.720   0.026   1.832
 9503SOL    HW129408   0.702   0.125   1.832
 9503SOL    HW229409   0.661   7.004   1.898
 9504SOL     OW29410   0.514   2.981   0.357
 9504SOL    HW129411   0.564   2.896   0.363
 9504SOL    HW229412   0.424   2.964   0.317
 9505SOL     OW29413   6.584   3.345   3.140
 9505SOL    HW129414   6.526   3.416   3.180
 9505SOL    HW229415   6.670   3.340   3.190
 9506SOL     OW29416   6.970   3.637   0.156
 9506SOL    HW129417   6.890   3.579   0.139
 9506SOL    HW229418   6.998   3.629   0.252
 9507SOL     OW29419   1.209   1.490   3.671
 9507SOL    HW129420   1.288   1.430   3.679
 9507SOL    HW229421   1.186   1.527   3.761
 9508SOL     OW29422   5.305   1.713   0.892
 9508SOL    HW129423   5.292   1.768   0.975
 9508SOL    HW229424   5.379   1.752   0.837
 9509SOL     OW29425   2.260   6.583   5.497
 9509SOL    HW129426   2.223   6.658   5.551
 9509SOL    HW229427   2.306   6.518   5.558
 9510SOL     OW29428   6.510   4.643   2.601
 9510SOL    HW129429   6.596   4.660   2.649
 9510SOL    HW229430   6.455   4.726   2.600
 9511SOL     OW29431   0.664   2.070   0.005
 9511SOL    HW129432   0.694   1.974   0.001
 9511SOL    HW229433   0.684   2.107   0.095
 9512SOL     OW29434   1.077   2.170   3.992
 9512SOL    HW129435   1.058   2.142   4.086
 9512SOL    HW229436   1.173   2.195   3.983
 9513SOL     OW29437   2.099   3.758   4.017
 9513SOL    HW129438   2.088   3.669   3.972
 9513SOL    HW229439   2.086   3.831   3.951
 9514SOL     OW29440   1.692   3.628   0.247
 9514SOL    HW129441   1.651   3.710   0.289
 9514SOL    HW229442   1.761   3.656   0.180
 9515SOL     OW29443   1.562   6.477   6.290
 9515SOL    HW129444   1.465   6.486   6.270
 9515SOL    HW229445   1.580   6.387   6.330
 9516SOL     OW29446   5.440   4.098   3.792
 9516SOL    HW129447   5.396   4.008   3.793
 9516SOL    HW229448   5.388   4.160   3.852
 9517SOL     OW29449   0.599   5.546   1.560
 9517SOL    HW129450   0.544   5.606   1.503
 9517SOL    HW229451   0.673   5.506   1.506
 9518SOL     OW29452   0.751   2.541   6.487
 9518SOL    HW129453   0.768   2.632   6.524
 9518SOL    HW229454   0.688   2.547   6.410
 9519SOL     OW29455   3.185   3.610   2.929
 9519SOL    HW129456   3.260   3.591   2.992
 9519SOL    HW229457   3.216   3.596   2.835
 9520SOL     OW29458   0.076   0.484   5.441
 9520SOL    HW129459   0.020   0.524   5.514
 9520SOL    HW229460   0.145   0.551   5.412
 9521SOL     OW29461   3.173   0.043   0.962
 9521SOL    HW129462   3.193   6.973   0.991
 9521SOL    HW229463   3.184   0.049   0.863
 9522SOL     OW29464   4.191   5.979   1.155
 9522SOL    HW129465   4.216   5.895   1.202
 9522SOL    HW229466   4.106   5.965   1.104
 9523SOL     OW29467   2.493   5.413   4.573
 9523SOL    HW129468   2.592   5.419   4.566
 9523SOL    HW229469   2.453   5.503   4.553
 9524SOL     OW29470   1.795   4.206   1.405
 9524SOL    HW129471   1.811   4.249   1.494
 9524SOL    HW229472   1.856   4.128   1.393
 9525SOL     OW29473   1.992   2.136   5.630
 9525SOL    HW129474   2.052   2.204   5.588
 9525SOL    HW229475   1.960   2.072   5.561
 9526SOL     OW29476   5.242   5.171   6.745
 9526SOL    HW129477   5.223   5.259   6.699
 9526SOL    HW229478   5.156   5.125   6.764
 9527SOL     OW29479   3.752   6.937   3.365
 9527SOL    HW129480   3.749   6.882   3.449
 9527SOL    HW229481   3.813   6.894   3.299
 9528SOL     OW29482   6.155   1.396   0.996
 9528SOL    HW129483   6.245   1.410   0.953
 9528SOL    HW229484   6.084   1.400   0.926
 9529SOL     OW29485   6.334   2.025   1.624
 9529SOL    HW129486   6.272   2.036   1.547
 9529SOL    HW229487   6.324   1.934   1.663
 9530SOL     OW29488   0.632   5.371   3.742
 9530SOL    HW129489   0.600   5.282   3.775
 9530SOL    HW229490   0.662   5.363   3.647
 9531SOL     OW29491   4.049   4.851   3.364
 9531SOL    HW129492   4.065   4.825   3.459
 9531SOL    HW229493   4.013   4.945   3.361
 9532SOL     OW29494   5.815   5.361   2.286
 9532SOL    HW129495   5.871   5.343   2.205
 9532SOL    HW229496   5.862   5.326   2.367
 9533SOL     OW29497   1.798   5.489   3.735
 9533SOL    HW129498   1.808   5.567   3.798
 9533SOL    HW229499   1.887   5.447   3.719
 9534SOL     OW29500   5.993   4.720   4.694
 9534SOL    HW129501   6.024   4.734   4.600
 9534SOL    HW229502   5.903   4.763   4.706
 9535SOL     OW29503   1.185   1.527   5.797
 9535SOL    HW129504   1.101   1.578   5.810
 9535SOL    HW229505   1.222   1.500   5.886
 9536SOL     OW29506   3.604   3.843   4.694
 9536SOL    HW129507   3.558   3.763   4.733
 9536SOL    HW229508   3.556   3.926   4.723
 9537SOL     OW29509   1.322   0.752   3.666
 9537SOL    HW129510   1.280   0.809   3.737
 9537SOL    HW229511   1.253   0.730   3.596
 9538SOL     OW29512   3.717   0.675   4.677
 9538SOL    HW129513   3.621   0.698   4.659
 9538SOL    HW229514   3.760   0.748   4.729
 9539SOL     OW29515   3.768   2.927   3.400
 9539SOL    HW129516   3.696   2.904   3.465
 9539SOL    HW229517   3.751   2.881   3.313
 9540SOL     OW29518   4.820   5.109   3.987
 9540SOL    HW129519   4.771   5.063   4.062
 9540SOL    HW229520   4.916   5.083   3.990
 9541SOL     OW29521   1.637   6.305   5.106
 9541SOL    HW129522   1.636   6.304   5.206
 9541SOL    HW229523   1.545   6.325   5.071
 9542SOL     OW29524   5.676   4.762   4.221
 9542SOL    HW129525   5.610   4.761   4.296
 9542SOL    HW229526   5.758   4.711   4.249
 9543SOL     OW29527   2.849   0.879   6.101
 9543SOL    HW129528   2.900   0.961   6.072
 9543SOL    HW229529   2.768   0.907   6.152
 9544SOL     OW29530   5.249   3.928   3.465
 9544SOL    HW129531   5.184   3.889   3.531
 9544SOL    HW229532   5.223   4.022   3.443
 9545SOL     OW29533   1.309   4.785   1.968
 9545SOL    HW129534   1.250   4.854   1.926
 9545SOL    HW229535   1.256   4.734   2.036
 9546SOL     OW29536   3.062   1.420   5.720
 9546SOL    HW129537   2.971   1.394   5.753
 9546SOL    HW229538   3.054   1.470   5.634
 9547SOL     OW29539   3.274   6.333   3.803
 9547SOL    HW129540   3.265   6.406   3.871
 9547SOL    HW229541   3.218   6.255   3.830
 9548SOL     OW29542   1.064   5.191   6.431
 9548SOL    HW129543   0.968   5.212   6.444
 9548SOL    HW229544   1.108   5.176   6.520
 9549SOL     OW29545   3.989   1.949   2.510
 9549SOL    HW129546   4.053   2.004   2.455
 9549SOL    HW229547   3.929   2.010   2.562
 9550SOL     OW29548   5.364   2.643   1.515
 9550SOL    HW129549   5.447   2.620   1.566
 9550SOL    HW229550   5.371   2.737   1.481
 9551SOL     OW29551   6.020   1.831   6.608
 9551SOL    HW129552   6.102   1.857   6.557
 9551SOL    HW229553   6.030   1.858   6.704
 9552SOL     OW29554   2.241   0.941   6.467
 9552SOL    HW129555   2.249   1.035   6.501
 9552SOL    HW229556   2.161   0.933   6.408
 9553SOL     OW29557   5.254   2.492   0.353
 9553SOL    HW129558   5.353   2.493   0.368
 9553SOL    HW229559   5.234   2.531   0.263
 9554SOL     OW29560   2.534   6.532   4.247
 9554SOL    HW129561   2.583   6.603   4.298
 9554SOL    HW229562   2.442   6.566   4.225
 9555SOL     OW29563   6.635   1.159   3.426
 9555SOL    HW129564   6.709   1.216   3.390
 9555SOL    HW229565   6.560   1.156   3.360
 9556SOL     OW29566   2.021   4.491   1.020
 9556SOL    HW129567   1.995   4.565   0.958
 9556SOL    HW229568   2.078   4.426   0.971
 9557SOL     OW29569   5.309   0.237   1.674
 9557SOL    HW129570   5.240   0.167   1.658
 9557SOL    HW229571   5.267   0.316   1.719
 9558SOL     OW29572   5.838   6.350   5.485
 9558SOL    HW129573   5.826   6.310   5.576
 9558SOL    HW229574   5.784   6.299   5.418
 9559SOL     OW29575   1.506   3.941   0.033
 9559SOL    HW129576   1.496   3.842   0.037
 9559SOL    HW229577   1.419   3.984   0.057
 9560SOL     OW29578   3.569   0.392   1.805
 9560SOL    HW129579   3.618   0.400   1.892
 9560SOL    HW229580   3.632   0.407   1.729
 9561SOL     OW29581   0.627   0.752   1.149
 9561SOL    HW129582   0.570   0.833   1.161
 9561SOL    HW229583   0.586   0.694   1.078
 9562SOL     OW29584   2.490   5.474   3.887
 9562SOL    HW129585   2.415   5.531   3.920
 9562SOL    HW229586   2.524   5.416   3.961
 9563SOL     OW29587   0.581   6.772   0.243
 9563SOL    HW129588   0.569   6.688   0.296
 9563SOL    HW229589   0.649   6.756   0.171
 9564SOL     OW29590   1.650   0.583   0.883
 9564SOL    HW129591   1.600   0.497   0.870
 9564SOL    HW229592   1.694   0.582   0.973
 9565SOL     OW29593   3.295   0.976   3.983
 9565SOL    HW129594   3.207   1.022   3.978
 9565SOL    HW229595   3.299   0.920   4.065
 9566SOL     OW29596   2.530   6.771   0.615
 9566SOL    HW129597   2.508   6.818   0.530
 9566SOL    HW229598   2.498   6.676   0.610
 9567SOL     OW29599   7.011   4.796   0.635
 9567SOL    HW129600   6.946   4.749   0.576
 9567SOL    HW229601   0.080   4.780   0.601
 9568SOL     OW29602   3.954   1.900   6.801
 9568SOL    HW129603   4.006   1.985   6.813
 9568SOL    HW229604   3.856   1.920   6.804
 9569SOL     OW29605   5.822   0.435   1.664
 9569SOL    HW129606   5.871   0.519   1.685
 9569SOL    HW229607   5.806   0.430   1.565
 9570SOL     OW29608   0.426   3.369   0.806
 9570SOL    HW129609   0.390   3.317   0.883
 9570SOL    HW229610   0.518   3.401   0.827
 9571SOL     OW29611   2.661   2.626   6.658
 9571SOL    HW129612   2.619   2.617   6.568
 9571SOL    HW229613   2.742   2.568   6.663
 9572SOL     OW29614   2.126   3.916   3.500
 9572SOL    HW129615   2.156   4.012   3.499
 9572SOL    HW229616   2.123   3.881   3.406
 9573SOL     OW29617   6.748   0.793   5.410
 9573SOL    HW129618   6.685   0.731   5.457
 9573SOL    HW229619   6.773   0.754   5.322
 9574SOL     OW29620   3.934   2.864   1.381
 9574SOL    HW129621   3.937   2.842   1.479
 9574SOL    HW229622   3.929   2.963   1.368
 9575SOL     OW29623   5.656   6.979   2.165
 9575SOL    HW129624   5.723   6.923   2.117
 9575SOL    HW229625   5.569   6.929   2.170
 9576SOL     OW29626   1.398   1.468   0.398
 9576SOL    HW129627   1.394   1.420   0.310
 9576SOL    HW229628   1.487   1.512   0.407
 9577SOL     OW29629   0.197   6.248   0.804
 9577SOL    HW129630   0.117   6.228   0.861
 9577SOL    HW229631   0.183   6.336   0.757
 9578SOL     OW29632   1.412   2.860   2.783
 9578SOL    HW129633   1.445   2.819   2.868
 9578SOL    HW229634   1.313   2.851   2.777
 9579SOL     OW29635   5.885   0.285   2.392
 9579SOL    HW129636   5.949   0.251   2.461
 9579SOL    HW229637   5.920   0.370   2.354
 9580SOL     OW29638   5.327   4.554   0.934
 9580SOL    HW129639   5.346   4.507   1.020
 9580SOL    HW229640   5.343   4.491   0.858
 9581SOL     OW29641   6.666   0.628   6.910
 9581SOL    HW129642   6.605   0.699   6.945
 9581SOL    HW229643   6.669   0.634   6.810
 9582SOL     OW29644   3.771   5.638   4.339
 9582SOL    HW129645   3.780   5.624   4.241
 9582SOL    HW229646   3.677   5.621   4.367
 9583SOL     OW29647   3.356   4.554   1.674
 9583SOL    HW129648   3.443   4.589   1.710
 9583SOL    HW229649   3.281   4.611   1.706
 9584SOL     OW29650   1.615   4.387   4.799
 9584SOL    HW129651   1.609   4.486   4.812
 9584SOL    HW229652   1.525   4.350   4.776
 9585SOL     OW29653   5.309   5.957   1.456
 9585SOL    HW129654   5.393   5.905   1.472
 9585SOL    HW229655   5.260   5.967   1.543
 9586SOL     OW29656   4.510   4.945   1.560
 9586SOL    HW129657   4.551   4.990   1.639
 9586SOL    HW229658   4.508   5.008   1.482
 9587SOL     OW29659   2.314   6.362   2.046
 9587SOL    HW129660   2.289   6.371   2.142
 9587SOL    HW229661   2.293   6.269   2.015
 9588SOL     OW29662   5.886   6.294   0.829
 9588SOL    HW129663   5.955   6.347   0.778
 9588SOL    HW229664   5.803   6.348   0.837
 9589SOL     OW29665   1.685   3.529   6.335
 9589SOL    HW129666   1.693   3.566   6.427
 9589SOL    HW229667   1.723   3.436   6.333
 9590SOL     OW29668   5.636   1.578   2.030
 9590SOL    HW129669   5.677   1.513   2.094
 9590SOL    HW229670   5.706   1.611   1.967
 9591SOL     OW29671   3.586   6.574   6.165
 9591SOL    HW129672   3.650   6.513   6.118
 9591SOL    HW229673   3.498   6.572   6.117
 9592SOL     OW29674   2.525   4.413   6.510
 9592SOL    HW129675   2.603   4.383   6.565
 9592SOL    HW229676   2.545   4.397   6.413
 9593SOL     OW29677   2.186   1.397   5.760
 9593SOL    HW129678   2.203   1.355   5.850
 9593SOL    HW229679   2.232   1.486   5.757
 9594SOL     OW29680   2.312   6.301   3.953
 9594SOL    HW129681   2.266   6.275   4.038
 9594SOL    HW229682   2.345   6.218   3.907
 9595SOL     OW29683   0.555   3.395   3.660
 9595SOL    HW129684   0.473   3.440   3.625
 9595SOL    HW229685   0.589   3.330   3.591
 9596SOL     OW29686   0.983   5.075   1.069
 9596SOL    HW129687   0.935   5.032   1.145
 9596SOL    HW229688   0.920   5.085   0.991
 9597SOL     OW29689   1.124   4.467   1.879
 9597SOL    HW129690   1.029   4.475   1.850
 9597SOL    HW229691   1.128   4.465   1.979
 9598SOL     OW29692   1.632   3.974   2.471
 9598SOL    HW129693   1.732   3.967   2.466
 9598SOL    HW229694   1.606   4.018   2.557
 9599SOL     OW29695   3.487   6.910   3.844
 9599SOL    HW129696   3.462   6.890   3.939
 9599SOL    HW229697   3.586   6.926   3.838
 9600SOL     OW29698   2.817   0.409   1.092
 9600SOL    HW129699   2.836   0.453   1.005
 9600SOL    HW229700   2.825   0.310   1.082
 9601SOL     OW29701   6.810   4.684   1.284
 9601SOL    HW129702   6.796   4.594   1.325
 9601SOL    HW229703   6.799   4.755   1.354
 9602SOL     OW29704   4.542   4.799   5.700
 9602SOL    HW129705   4.501   4.732   5.638
 9602SOL    HW229706   4.509   4.891   5.677
 9603SOL     OW29707   5.801   6.242   6.095
 9603SOL    HW129708   5.709   6.217   6.064
 9603SOL    HW229709   5.795   6.322   6.155
 9604SOL     OW29710   4.860   0.545   1.470
 9604SOL    HW129711   4.810   0.531   1.556
 9604SOL    HW229712   4.859   0.642   1.446
 9605SOL     OW29713   0.118   5.149   3.153
 9605SOL    HW129714   0.103   5.217   3.081
 9605SOL    HW229715   0.154   5.065   3.112
 9606SOL     OW29716   1.634   1.263   6.867
 9606SOL    HW129717   1.593   1.184   6.914
 9606SOL    HW229718   1.633   1.246   6.769
 9607SOL     OW29719   3.200   1.839   6.986
 9607SOL    HW129720   3.152   1.765   0.010
 9607SOL    HW229721   3.181   1.833   6.888
 9608SOL     OW29722   6.797   4.605   2.664
 9608SOL    HW129723   6.844   4.613   2.576
 9608SOL    HW229724   6.790   4.696   2.706
 9609SOL     OW29725   3.768   2.585   6.379
 9609SOL    HW129726   3.866   2.601   6.373
 9609SOL    HW229727   3.732   2.628   6.462
 9610SOL     OW29728   1.718   4.589   2.578
 9610SOL    HW129729   1.792   4.577   2.644
 9610SOL    HW229730   1.686   4.684   2.580
 9611SOL     OW29731   2.069   6.701   0.972
 9611SOL    HW129732   2.148   6.759   0.986
 9611SOL    HW229733   2.001   6.749   0.916
 9612SOL     OW29734   0.593   2.978   1.852
 9612SOL    HW129735   0.624   3.073   1.853
 9612SOL    HW229736   0.550   2.956   1.940
 9613SOL     OW29737   5.986   6.527   3.444
 9613SOL    HW129738   5.981   6.441   3.393
 9613SOL    HW229739   6.082   6.552   3.457
 9614SOL     OW29740   3.816   2.179   2.647
 9614SOL    HW129741   3.780   2.255   2.593
 9614SOL    HW229742   3.740   2.119   2.675
 9615SOL     OW29743   2.683   2.180   1.024
 9615SOL    HW129744   2.782   2.188   1.036
 9615SOL    HW229745   2.639   2.176   1.113
 9616SOL     OW29746   3.545   3.084   1.134
 9616SOL    HW129747   3.550   2.984   1.132
 9616SOL    HW229748   3.485   3.115   1.060
 9617SOL     OW29749   2.127   2.919   3.866
 9617SOL    HW129750   2.202   2.865   3.828
 9617SOL    HW229751   2.090   2.874   3.946
 9618SOL     OW29752   2.813   0.815   1.085
 9618SOL    HW129753   2.785   0.728   1.126
 9618SOL    HW229754   2.810   0.887   1.155
 9619SOL     OW29755   1.868   0.214   5.546
 9619SOL    HW129756   1.807   0.284   5.584
 9619SOL    HW229757   1.943   0.198   5.610
 9620SOL     OW29758   4.886   0.610   4.641
 9620SOL    HW129759   4.787   0.592   4.645
 9620SOL    HW229760   4.935   0.523   4.633
 9621SOL     OW29761   1.876   2.969   2.002
 9621SOL    HW129762   1.824   2.964   1.917
 9621SOL    HW229763   1.891   3.065   2.027
 9622SOL     OW29764   5.853   1.369   0.585
 9622SOL    HW129765   5.777   1.303   0.584
 9622SOL    HW229766   5.868   1.401   0.678
 9623SOL     OW29767   2.206   2.930   6.839
 9623SOL    HW129768   2.227   2.856   6.775
 9623SOL    HW229769   2.277   3.000   6.834
 9624SOL     OW29770   6.047   3.422   3.037
 9624SOL    HW129771   5.999   3.421   2.949
 9624SOL    HW229772   6.113   3.497   3.038
 9625SOL     OW29773   5.472   5.734   0.231
 9625SOL    HW129774   5.467   5.637   0.255
 9625SOL    HW229775   5.550   5.775   0.277
 9626SOL     OW29776   3.748   5.056   0.499
 9626SOL    HW129777   3.723   5.119   0.573
 9626SOL    HW229778   3.671   5.045   0.436
 9627SOL     OW29779   0.687   6.169   6.564
 9627SOL    HW129780   0.758   6.098   6.563
 9627SOL    HW229781   0.626   6.155   6.485
 9628SOL     OW29782   5.158   5.335   0.811
 9628SOL    HW129783   5.194   5.410   0.866
 9628SOL    HW229784   5.203   5.334   0.722
 9629SOL     OW29785   1.627   0.716   1.432
 9629SOL    HW129786   1.559   0.768   1.380
 9629SOL    HW229787   1.708   0.773   1.448
 9630SOL     OW29788   6.389   0.158   5.119
 9630SOL    HW129789   6.404   0.230   5.186
 9630SOL    HW229790   6.293   0.130   5.122
 9631SOL     OW29791   6.433   0.010   6.430
 9631SOL    HW129792   6.375   0.090   6.416
 9631SOL    HW229793   6.421   7.000   6.524
 9632SOL     OW29794   1.743   6.504   2.664
 9632SOL    HW129795   1.651   6.543   2.658
 9632SOL    HW229796   1.747   6.419   2.612
 9633SOL     OW29797   5.900   5.447   6.938
 9633SOL    HW129798   5.893   5.540   6.902
 9633SOL    HW229799   5.839   5.437   7.017
 9634SOL     OW29800   1.601   6.398   4.747
 9634SOL    HW129801   1.690   6.395   4.792
 9634SOL    HW229802   1.544   6.323   4.782
 9635SOL     OW29803   2.230   5.165   5.124
 9635SOL    HW129804   2.231   5.198   5.218
 9635SOL    HW229805   2.319   5.185   5.082
 9636SOL     OW29806   3.836   1.688   5.269
 9636SOL    HW129807   3.874   1.638   5.346
 9636SOL    HW229808   3.768   1.754   5.301
 9637SOL     OW29809   2.240   2.201   6.298
 9637SOL    HW129810   2.290   2.227   6.381
 9637SOL    HW229811   2.142   2.202   6.317
 9638SOL     OW29812   6.749   3.270   5.118
 9638SOL    HW129813   6.650   3.277   5.119
 9638SOL    HW229814   6.789   3.361   5.108
 9639SOL     OW29815   4.182   1.683   2.459
 9639SOL    HW129816   4.164   1.586   2.468
 9639SOL    HW229817   4.098   1.730   2.430
 9640SOL     OW29818   2.384   2.614   3.316
 9640SOL    HW129819   2.460   2.569   3.270
 9640SOL    HW229820   2.341   2.679   3.253
 9641SOL     OW29821   5.078   6.785   0.395
 9641SOL    HW129822   4.999   6.757   0.449
 9641SOL    HW229823   5.048   6.825   0.309
 9642SOL     OW29824   3.537   0.440   4.818
 9642SOL    HW129825   3.614   0.377   4.818
 9642SOL    HW229826   3.561   0.523   4.868
 9643SOL     OW29827   5.165   3.971   3.185
 9643SOL    HW129828   5.111   3.949   3.103
 9643SOL    HW229829   5.252   4.012   3.157
 9644SOL     OW29830   1.260   3.170   6.504
 9644SOL    HW129831   1.335   3.236   6.500
 9644SOL    HW229832   1.294   3.083   6.539
 9645SOL     OW29833   3.116   5.191   5.329
 9645SOL    HW129834   3.159   5.202   5.240
 9645SOL    HW229835   3.023   5.228   5.326
 9646SOL     OW29836   4.310   5.043   2.307
 9646SOL    HW129837   4.214   5.069   2.293
 9646SOL    HW229838   4.349   5.013   2.220
 9647SOL     OW29839   6.459   3.152   1.327
 9647SOL    HW129840   6.472   3.126   1.232
 9647SOL    HW229841   6.455   3.070   1.384
 9648SOL     OW29842   4.384   2.196   1.153
 9648SOL    HW129843   4.298   2.215   1.201
 9648SOL    HW229844   4.420   2.108   1.182
 9649SOL     OW29845   2.323   6.500   0.244
 9649SOL    HW129846   2.310   6.538   0.153
 9649SOL    HW229847   2.408   6.536   0.283
 9650SOL     OW29848   6.953   5.587   2.235
 9650SOL    HW129849   6.980   5.557   2.327
 9650SOL    HW229850   6.927   5.683   2.238
 9651SOL     OW29851   0.792   1.617   6.059
 9651SOL    HW129852   0.861   1.646   6.125
 9651SOL    HW229853   0.769   1.521   6.073
 9652SOL     OW29854   0.761   4.688   2.522
 9652SOL    HW129855   0.742   4.762   2.458
 9652SOL    HW229856   0.675   4.654   2.560
 9653SOL     OW29857   4.760   4.738   4.347
 9653SOL    HW129858   4.692   4.808   4.325
 9653SOL    HW229859   4.780   4.683   4.267
 9654SOL     OW29860   2.161   2.470   2.263
 9654SOL    HW129861   2.214   2.526   2.326
 9654SOL    HW229862   2.067   2.504   2.259
 9655SOL     OW29863   6.923   1.848   6.251
 9655SOL    HW129864   6.932   1.761   6.299
 9655SOL    HW229865   6.865   1.909   6.305
 9656SOL     OW29866   3.175   0.026   2.238
 9656SOL    HW129867   3.159   6.967   2.184
 9656SOL    HW229868   3.190   0.103   2.177
 9657SOL     OW29869   6.176   1.283   5.155
 9657SOL    HW129870   6.211   1.363   5.106
 9657SOL    HW229871   6.233   1.203   5.133
 9658SOL     OW29872   6.261   3.130   2.174
 9658SOL    HW129873   6.275   3.197   2.246
 9658SOL    HW229874   6.207   3.170   2.100
 9659SOL     OW29875   0.746   4.834   0.247
 9659SOL    HW129876   0.659   4.883   0.242
 9659SOL    HW229877   0.733   4.748   0.297
 9660SOL     OW29878   0.966   5.432   0.736
 9660SOL    HW129879   0.907   5.513   0.736
 9660SOL    HW229880   0.995   5.412   0.829
 9661SOL     OW29881   4.629   6.889   0.567
 9661SOL    HW129882   4.715   6.895   0.517
 9661SOL    HW229883   4.616   6.973   0.621
 9662SOL     OW29884   6.039   1.779   3.968
 9662SOL    HW129885   6.095   1.705   3.928
 9662SOL    HW229886   5.957   1.740   4.009
 9663SOL     OW29887   1.628   5.392   2.750
 9663SOL    HW129888   1.604   5.489   2.747
 9663SOL    HW229889   1.728   5.383   2.753
 9664SOL     OW29890   4.547   6.606   2.203
 9664SOL    HW129891   4.453   6.597   2.170
 9664SOL    HW229892   4.557   6.555   2.288
 9665SOL     OW29893   5.617   4.117   5.072
 9665SOL    HW129894   5.638   4.051   5.144
 9665SOL    HW229895   5.570   4.071   4.997
 9666SOL     OW29896   5.343   4.301   2.557
 9666SOL    HW129897   5.319   4.226   2.495
 9666SOL    HW229898   5.322   4.388   2.513
 9667SOL     OW29899   3.862   3.805   4.201
 9667SOL    HW129900   3.804   3.728   4.175
 9667SOL    HW229901   3.956   3.774   4.213
 9668SOL     OW29902   0.269   1.101   5.910
 9668SOL    HW129903   0.280   1.030   5.840
 9668SOL    HW229904   0.357   1.113   5.957
 9669SOL     OW29905   0.420   0.196   0.299
 9669SOL    HW129906   0.377   0.231   0.382
 9669SOL    HW229907   0.415   0.097   0.297
 9670SOL     OW29908   4.895   4.551   6.428
 9670SOL    HW129909   4.816   4.490   6.437
 9670SOL    HW229910   4.864   4.645   6.419
 9671SOL     OW29911   6.940   5.104   5.578
 9671SOL    HW129912   6.976   5.197   5.570
 9671SOL    HW229913   7.003   5.041   5.532
 9672SOL     OW29914   0.432   5.899   4.837
 9672SOL    HW129915   0.489   5.980   4.824
 9672SOL    HW229916   0.337   5.921   4.813
 9673SOL     OW29917   3.592   4.172   6.595
 9673SOL    HW129918   3.684   4.156   6.557
 9673SOL    HW229919   3.542   4.236   6.536
 9674SOL     OW29920   3.182   6.510   1.761
 9674SOL    HW129921   3.130   6.430   1.731
 9674SOL    HW229922   3.198   6.504   1.860
 9675SOL     OW29923   6.639   1.929   2.256
 9675SOL    HW129924   6.602   1.996   2.191
 9675SOL    HW229925   6.612   1.837   2.227
 9676SOL     OW29926   0.982   3.654   5.428
 9676SOL    HW129927   0.885   3.641   5.406
 9676SOL    HW229928   1.026   3.565   5.439
 9677SOL     OW29929   2.215   4.145   6.032
 9677SOL    HW129930   2.287   4.165   5.966
 9677SOL    HW229931   2.160   4.068   5.999
 9678SOL     OW29932   3.889   3.721   3.519
 9678SOL    HW129933   3.878   3.631   3.563
 9678SOL    HW229934   3.831   3.788   3.567
 9679SOL     OW29935   1.553   2.705   2.003
 9679SOL    HW129936   1.551   2.648   1.920
 9679SOL    HW229937   1.514   2.794   1.982
 9680SOL     OW29938   5.983   6.259   3.377
 9680SOL    HW129939   6.076   6.222   3.381
 9680SOL    HW229940   5.930   6.223   3.453
 9681SOL     OW29941   1.942   0.736   2.262
 9681SOL    HW129942   1.869   0.680   2.303
 9681SOL    HW229943   2.030   0.692   2.279
 9682SOL     OW29944   5.642   4.223   3.457
 9682SOL    HW129945   5.572   4.282   3.497
 9682SOL    HW229946   5.638   4.133   3.501
 9683SOL     OW29947   4.017   5.824   0.247
 9683SOL    HW129948   3.961   5.886   0.193
 9683SOL    HW229949   4.098   5.798   0.195
 9684SOL     OW29950   0.254   4.074   5.596
 9684SOL    HW129951   0.272   4.131   5.516
 9684SOL    HW229952   0.286   3.981   5.579
 9685SOL     OW29953   1.641   3.176   1.218
 9685SOL    HW129954   1.607   3.210   1.131
 9685SOL    HW229955   1.715   3.236   1.251
 9686SOL     OW29956   6.606   0.531   1.796
 9686SOL    HW129957   6.567   0.536   1.704
 9686SOL    HW229958   6.652   0.618   1.817
 9687SOL     OW29959   2.422   0.450   3.593
 9687SOL    HW129960   2.515   0.435   3.630
 9687SOL    HW229961   2.380   0.526   3.641
 9688SOL     OW29962   0.087   1.445   3.085
 9688SOL    HW129963   7.015   1.441   3.056
 9688SOL    HW229964   0.100   1.389   3.167
 9689SOL     OW29965   2.737   6.346   6.399
 9689SOL    HW129966   2.720   6.249   6.414
 9689SOL    HW229967   2.832   6.360   6.372
 9690SOL     OW29968   6.299   4.837   0.709
 9690SOL    HW129969   6.356   4.868   0.786
 9690SOL    HW229970   6.342   4.758   0.666
 9691SOL     OW29971   1.934   5.199   1.983
 9691SOL    HW129972   1.875   5.175   2.060
 9691SOL    HW229973   1.993   5.121   1.962
 9692SOL     OW29974   2.954   5.451   1.964
 9692SOL    HW129975   2.922   5.410   1.879
 9692SOL    HW229976   2.875   5.469   2.024
 9693SOL     OW29977   7.021   6.352   2.020
 9693SOL    HW129978   7.009   6.262   1.977
 9693SOL    HW229979   6.997   6.423   1.954
 9694SOL     OW29980   1.609   2.469   0.368
 9694SOL    HW129981   1.597   2.515   0.280
 9694SOL    HW229982   1.568   2.525   0.440
 9695SOL     OW29983   6.543   3.908   1.182
 9695SOL    HW129984   6.467   3.969   1.158
 9695SOL    HW229985   6.593   3.946   1.260
 9696SOL     OW29986   3.912   2.903   1.775
 9696SOL    HW129987   3.881   2.991   1.738
 9696SOL    HW229988   3.914   2.909   1.875
 9697SOL     OW29989   0.500   4.983   0.240
 9697SOL    HW129990   0.450   5.053   0.291
 9697SOL    HW229991   0.506   5.010   0.144
 9698SOL     OW29992   5.742   1.559   5.170
 9698SOL    HW129993   5.674   1.545   5.242
 9698SOL    HW229994   5.827   1.590   5.210
 9699SOL     OW29995   1.411   3.820   6.570
 9699SOL    HW129996   1.423   3.880   6.649
 9699SOL    HW229997   1.415   3.875   6.486
 9700SOL     OW29998   3.414   4.713   5.678
 9700SOL    HW129999   3.365   4.644   5.732
 9700SOL    HW230000   3.401   4.694   5.581
 9701SOL     OW30001   4.480   4.899   4.699
 9701SOL    HW130002   4.541   4.931   4.771
 9701SOL    HW230003   4.447   4.978   4.647
 9702SOL     OW30004   4.905   0.967   0.958
 9702SOL    HW130005   4.817   1.008   0.934
 9702SOL    HW230006   4.912   0.958   1.058
 9703SOL     OW30007   3.216   6.189   4.377
 9703SOL    HW130008   3.212   6.287   4.356
 9703SOL    HW230009   3.286   6.145   4.321
 9704SOL     OW30010   3.817   0.009   2.865
 9704SOL    HW130011   3.737   0.008   2.925
 9704SOL    HW230012   3.797   0.064   2.784
 9705SOL     OW30013   3.386   4.563   0.778
 9705SOL    HW130014   3.297   4.571   0.734
 9705SOL    HW230015   3.446   4.505   0.723
 9706SOL     OW30016   6.336   3.296   2.382
 9706SOL    HW130017   6.325   3.396   2.387
 9706SOL    HW230018   6.346   3.259   2.474
 9707SOL     OW30019   1.453   4.261   2.016
 9707SOL    HW130020   1.377   4.206   1.982
 9707SOL    HW230021   1.522   4.271   1.944
 9708SOL     OW30022   2.131   1.903   3.665
 9708SOL    HW130023   2.128   1.937   3.571
 9708SOL    HW230024   2.225   1.878   3.688
 9709SOL     OW30025   1.482   6.276   3.207
 9709SOL    HW130026   1.503   6.363   3.161
 9709SOL    HW230027   1.509   6.201   3.147
 9710SOL     OW30028   0.301   1.072   3.252
 9710SOL    HW130029   0.370   1.014   3.294
 9710SOL    HW230030   0.329   1.168   3.259
 9711SOL     OW30031   1.332   3.524   6.009
 9711SOL    HW130032   1.264   3.521   5.936
 9711SOL    HW230033   1.419   3.487   5.974
 9712SOL     OW30034   5.773   2.079   4.326
 9712SOL    HW130035   5.673   2.079   4.330
 9712SOL    HW230036   5.806   2.173   4.319
 9713SOL     OW30037   0.173   4.726   3.099
 9713SOL    HW130038   0.083   4.714   3.142
 9713SOL    HW230039   0.162   4.784   3.018
 9714SOL     OW30040   2.138   2.534   1.993
 9714SOL    HW130041   2.182   2.523   2.082
 9714SOL    HW230042   2.116   2.444   1.955
 9715SOL     OW30043   5.067   5.283   4.995
 9715SOL    HW130044   5.053   5.270   5.093
 9715SOL    HW230045   5.016   5.213   4.945
 9716SOL     OW30046   3.987   1.675   6.509
 9716SOL    HW130047   3.898   1.633   6.524
 9716SOL    HW230048   4.000   1.691   6.411
 9717SOL     OW30049   6.069   5.662   3.745
 9717SOL    HW130050   6.013   5.716   3.808
 9717SOL    HW230051   6.111   5.586   3.795
 9718SOL     OW30052   3.694   3.584   0.952
 9718SOL    HW130053   3.672   3.583   1.049
 9718SOL    HW230054   3.773   3.525   0.935
 9719SOL     OW30055   0.472   2.443   0.026
 9719SOL    HW130056   0.554   2.448   6.993
 9719SOL    HW230057   0.467   2.354   0.070
 9720SOL     OW30058   0.789   6.555   2.356
 9720SOL    HW130059   0.758   6.542   2.262
 9720SOL    HW230060   0.889   6.566   2.357
 9721SOL     OW30061   6.968   4.038   2.580
 9721SOL    HW130062   6.920   3.968   2.527
 9721SOL    HW230063   6.916   4.060   2.662
 9722SOL     OW30064   0.325   0.509   3.823
 9722SOL    HW130065   0.266   0.518   3.903
 9722SOL    HW230066   0.309   0.420   3.780
 9723SOL     OW30067   0.204   0.628   3.398
 9723SOL    HW130068   0.222   0.568   3.321
 9723SOL    HW230069   0.153   0.578   3.468
 9724SOL     OW30070   3.066   2.493   1.133
 9724SOL    HW130071   2.982   2.472   1.184
 9724SOL    HW230072   3.144   2.492   1.196
 9725SOL     OW30073   5.278   3.388   5.885
 9725SOL    HW130074   5.285   3.289   5.877
 9725SOL    HW230075   5.275   3.428   5.794
 9726SOL     OW30076   4.933   6.849   4.916
 9726SOL    HW130077   4.973   6.784   4.980
 9726SOL    HW230078   4.959   6.824   4.822
 9727SOL     OW30079   0.753   3.294   5.937
 9727SOL    HW130080   0.785   3.201   5.924
 9727SOL    HW230081   0.706   3.301   6.025
 9728SOL     OW30082   2.267   5.994   6.581
 9728SOL    HW130083   2.293   6.091   6.587
 9728SOL    HW230084   2.290   5.960   6.490
 9729SOL     OW30085   1.290   4.382   3.308
 9729SOL    HW130086   1.313   4.312   3.241
 9729SOL    HW230087   1.196   4.371   3.338
 9730SOL     OW30088   6.794   3.360   2.463
 9730SOL    HW130089   6.730   3.293   2.426
 9730SOL    HW230090   6.764   3.389   2.553
 9731SOL     OW30091   3.380   5.079   0.768
 9731SOL    HW130092   3.401   5.147   0.699
 9731SOL    HW230093   3.281   5.071   0.779
 9732SOL     OW30094   6.944   6.096   2.425
 9732SOL    HW130095   6.948   6.195   2.412
 9732SOL    HW230096   6.852   6.064   2.402
 9733SOL     OW30097   5.196   5.073   4.354
 9733SOL    HW130098   5.167   4.977   4.347
 9733SOL    HW230099   5.285   5.078   4.399
 9734SOL     OW30100   5.227   2.294   3.865
 9734SOL    HW130101   5.273   2.370   3.821
 9734SOL    HW230102   5.276   2.209   3.844
 9735SOL     OW30103   2.497   5.635   1.908
 9735SOL    HW130104   2.467   5.543   1.932
 9735SOL    HW230105   2.454   5.663   1.822
 9736SOL     OW30106   4.692   1.440   6.713
 9736SOL    HW130107   4.767   1.407   6.772
 9736SOL    HW230108   4.680   1.377   6.637
 9737SOL     OW30109   4.110   2.157   5.118
 9737SOL    HW130110   4.137   2.252   5.101
 9737SOL    HW230111   4.092   2.111   5.031
 9738SOL     OW30112   1.961   1.159   3.189
 9738SOL    HW130113   1.983   1.074   3.142
 9738SOL    HW230114   1.883   1.144   3.250
 9739SOL     OW30115   6.343   4.905   1.906
 9739SOL    HW130116   6.279   4.879   1.834
 9739SOL    HW230117   6.385   4.824   1.945
 9740SOL     OW30118   5.967   4.303   2.637
 9740SOL    HW130119   5.895   4.373   2.639
 9740SOL    HW230120   5.939   4.228   2.577
 9741SOL     OW30121   4.562   1.730   1.825
 9741SOL    HW130122   4.526   1.797   1.889
 9741SOL    HW230123   4.559   1.767   1.732
 9742SOL     OW30124   5.547   0.846   3.492
 9742SOL    HW130125   5.619   0.847   3.561
 9742SOL    HW230126   5.541   0.756   3.450
 9743SOL     OW30127   1.838   2.819   5.925
 9743SOL    HW130128   1.911   2.871   5.880
 9743SOL    HW230129   1.758   2.817   5.865
 9744SOL     OW30130   1.922   1.197   2.067
 9744SOL    HW130131   1.834   1.162   2.099
 9744SOL    HW230132   1.995   1.132   2.089
 9745SOL     OW30133   0.721   2.361   5.271
 9745SOL    HW130134   0.646   2.357   5.204
 9745SOL    HW230135   0.699   2.302   5.349
 9746SOL     OW30136   5.775   0.763   4.887
 9746SOL    HW130137   5.853   0.789   4.829
 9746SOL    HW230138   5.806   0.698   4.957
 9747SOL     OW30139   0.730   0.106   6.921
 9747SOL    HW130140   0.767   0.188   6.965
 9747SOL    HW230141   0.735   0.029   6.984
 9748SOL     OW30142   1.319   6.071   4.054
 9748SOL    HW130143   1.338   6.052   4.150
 9748SOL    HW230144   1.350   6.164   4.031
 9749SOL     OW30145   0.572   3.105   4.661
 9749SOL    HW130146   0.604   3.061   4.577
 9749SOL    HW230147   0.502   3.173   4.639
 9750SOL     OW30148   4.668   5.299   3.595
 9750SOL    HW130149   4.724   5.382   3.588
 9750SOL    HW230150   4.614   5.288   3.512
 9751SOL     OW30151   1.712   2.248   0.641
 9751SOL    HW130152   1.772   2.288   0.571
 9751SOL    HW230153   1.690   2.317   0.709
 9752SOL     OW30154   4.277   0.634   5.501
 9752SOL    HW130155   4.268   0.547   5.453
 9752SOL    HW230156   4.328   0.698   5.445
 9753SOL     OW30157   6.560   5.931   5.554
 9753SOL    HW130158   6.615   6.011   5.529
 9753SOL    HW230159   6.477   5.961   5.602
 9754SOL     OW30160   1.571   1.887   7.010
 9754SOL    HW130161   1.637   1.834   0.040
 9754SOL    HW230162   1.523   1.951   0.047
 9755SOL     OW30163   3.992   3.809   4.825
 9755SOL    HW130164   3.997   3.861   4.910
 9755SOL    HW230165   3.933   3.856   4.759
 9756SOL     OW30166   5.970   2.881   6.471
 9756SOL    HW130167   5.903   2.943   6.511
 9756SOL    HW230168   6.037   2.854   6.540
 9757SOL     OW30169   5.578   2.670   4.121
 9757SOL    HW130170   5.671   2.635   4.111
 9757SOL    HW230171   5.546   2.707   4.034
 9758SOL     OW30172   2.999   0.778   6.867
 9758SOL    HW130173   2.951   0.865   6.855
 9758SOL    HW230174   2.962   0.730   6.946
 9759SOL     OW30175   3.183   6.799   0.944
 9759SOL    HW130176   3.268   6.752   0.918
 9759SOL    HW230177   3.148   6.760   1.029
 9760SOL     OW30178   5.790   4.196   5.979
 9760SOL    HW130179   5.812   4.292   5.997
 9760SOL    HW230180   5.736   4.159   6.054
 9761SOL     OW30181   5.377   5.351   1.684
 9761SOL    HW130182   5.445   5.360   1.756
 9761SOL    HW230183   5.302   5.293   1.716
 9762SOL     OW30184   2.714   2.420   5.151
 9762SOL    HW130185   2.693   2.456   5.242
 9762SOL    HW230186   2.641   2.448   5.087
 9763SOL     OW30187   3.160   2.057   1.838
 9763SOL    HW130188   3.173   2.063   1.938
 9763SOL    HW230189   3.115   1.971   1.815
 9764SOL     OW30190   1.233   1.858   3.151
 9764SOL    HW130191   1.227   1.956   3.132
 9764SOL    HW230192   1.224   1.842   3.249
 9765SOL     OW30193   0.437   2.415   5.760
 9765SOL    HW130194   0.472   2.338   5.813
 9765SOL    HW230195   0.495   2.429   5.679
 9766SOL     OW30196   2.629   0.156   3.168
 9766SOL    HW130197   2.582   0.238   3.138
 9766SOL    HW230198   2.726   0.163   3.147
 9767SOL     OW30199   5.120   0.720   5.230
 9767SOL    HW130200   5.035   0.752   5.188
 9767SOL    HW230201   5.183   0.691   5.158
 9768SOL     OW30202   4.628   2.115   2.579
 9768SOL    HW130203   4.671   2.136   2.667
 9768SOL    HW230204   4.634   2.196   2.520
 9769SOL     OW30205   1.317   2.073   0.836
 9769SOL    HW130206   1.410   2.058   0.869
 9769SOL    HW230207   1.304   2.023   0.750
 9770SOL     OW30208   5.612   4.655   5.749
 9770SOL    HW130209   5.705   4.691   5.755
 9770SOL    HW230210   5.567   4.694   5.669
 9771SOL     OW30211   3.825   5.571   5.794
 9771SOL    HW130212   3.754   5.620   5.844
 9771SOL    HW230213   3.857   5.626   5.717
 9772SOL     OW30214   0.014   0.347   2.083
 9772SOL    HW130215   7.012   0.323   2.176
 9772SOL    HW230216   6.961   0.326   2.021
 9773SOL     OW30217   6.201   5.473   3.884
 9773SOL    HW130218   6.216   5.480   3.982
 9773SOL    HW230219   6.279   5.428   3.841
 9774SOL     OW30220   6.391   4.777   3.843
 9774SOL    HW130221   6.410   4.679   3.839
 9774SOL    HW230222   6.427   4.814   3.929
 9775SOL     OW30223   1.739   2.583   4.538
 9775SOL    HW130224   1.660   2.598   4.479
 9775SOL    HW230225   1.764   2.487   4.537
 9776SOL     OW30226   0.023   5.738   4.489
 9776SOL    HW130227   0.048   5.797   4.411
 9776SOL    HW230228   6.962   5.689   4.468
 9777SOL     OW30229   5.411   4.321   6.129
 9777SOL    HW130230   5.322   4.275   6.133
 9777SOL    HW230231   5.483   4.254   6.148
 9778SOL     OW30232   5.375   6.929   2.747
 9778SOL    HW130233   5.467   6.940   2.711
 9778SOL    HW230234   5.330   6.852   2.702
 9779SOL     OW30235   3.032   1.909   5.504
 9779SOL    HW130236   2.982   1.827   5.531
 9779SOL    HW230237   2.979   1.990   5.529
 9780SOL     OW30238   2.521   4.241   0.339
 9780SOL    HW130239   2.518   4.257   0.240
 9780SOL    HW230240   2.601   4.186   0.362
 9781SOL     OW30241   2.586   5.020   4.907
 9781SOL    HW130242   2.583   5.114   4.874
 9781SOL    HW230243   2.661   4.971   4.862
 9782SOL     OW30244   6.319   0.444   1.462
 9782SOL    HW130245   6.266   0.510   1.514
 9782SOL    HW230246   6.414   0.475   1.456
 9783SOL     OW30247   5.536   1.223   1.929
 9783SOL    HW130248   5.502   1.150   1.989
 9783SOL    HW230249   5.594   1.285   1.982
 9784SOL     OW30250   4.711   0.935   3.083
 9784SOL    HW130251   4.642   0.893   3.141
 9784SOL    HW230252   4.797   0.883   3.090
 9785SOL     OW30253   0.817   2.509   2.211
 9785SOL    HW130254   0.787   2.552   2.126
 9785SOL    HW230255   0.855   2.579   2.272
 9786SOL     OW30256   3.096   5.876   5.254
 9786SOL    HW130257   3.172   5.940   5.265
 9786SOL    HW230258   3.033   5.910   5.184
 9787SOL     OW30259   4.923   4.065   1.874
 9787SOL    HW130260   4.997   4.119   1.834
 9787SOL    HW230261   4.844   4.065   1.812
 9788SOL     OW30262   6.320   0.719   5.358
 9788SOL    HW130263   6.236   0.670   5.381
 9788SOL    HW230264   6.307   0.769   5.272
 9789SOL     OW30265   2.528   5.330   5.188
 9789SOL    HW130266   2.574   5.410   5.227
 9789SOL    HW230267   2.505   5.267   5.262
 9790SOL     OW30268   5.816   2.347   4.307
 9790SOL    HW130269   5.824   2.407   4.387
 9790SOL    HW230270   5.732   2.370   4.257
 9791SOL     OW30271   0.870   1.791   1.946
 9791SOL    HW130272   0.799   1.843   1.897
 9791SOL    HW230273   0.958   1.838   1.937
 9792SOL     OW30274   4.468   4.636   1.093
 9792SOL    HW130275   4.372   4.646   1.117
 9792SOL    HW230276   4.525   4.665   1.170
 9793SOL     OW30277   5.630   5.801   2.248
 9793SOL    HW130278   5.685   5.752   2.316
 9793SOL    HW230279   5.688   5.862   2.195
 9794SOL     OW30280   4.731   2.659   6.628
 9794SOL    HW130281   4.689   2.677   6.539
 9794SOL    HW230282   4.761   2.745   6.669
 9795SOL     OW30283   1.747   3.448   3.760
 9795SOL    HW130284   1.704   3.487   3.841
 9795SOL    HW230285   1.718   3.353   3.750
 9796SOL     OW30286   2.921   5.092   0.315
 9796SOL    HW130287   2.899   5.004   0.273
 9796SOL    HW230288   3.011   5.087   0.357
 9797SOL     OW30289   4.552   3.504   5.981
 9797SOL    HW130290   4.595   3.586   5.943
 9797SOL    HW230291   4.608   3.424   5.958
 9798SOL     OW30292   2.610   1.598   0.922
 9798SOL    HW130293   2.602   1.537   1.000
 9798SOL    HW230294   2.520   1.619   0.885
 9799SOL     OW30295   2.959   3.221   2.509
 9799SOL    HW130296   3.014   3.253   2.432
 9799SOL    HW230297   3.002   3.141   2.550
 9800SOL     OW30298   4.452   5.069   6.398
 9800SOL    HW130299   4.547   5.054   6.424
 9800SOL    HW230300   4.443   5.060   6.298
 9801SOL     OW30301   3.911   5.911   6.475
 9801SOL    HW130302   3.896   5.817   6.507
 9801SOL    HW230303   3.995   5.914   6.422
 9802SOL     OW30304   6.819   3.535   0.658
 9802SOL    HW130305   6.755   3.533   0.735
 9802SOL    HW230306   6.894   3.597   0.679
 9803SOL     OW30307   6.071   0.556   6.851
 9803SOL    HW130308   6.121   0.482   6.806
 9803SOL    HW230309   6.131   0.636   6.861
 9804SOL     OW30310   6.269   5.925   4.400
 9804SOL    HW130311   6.322   5.910   4.316
 9804SOL    HW230312   6.180   5.881   4.391
 9805SOL     OW30313   1.766   5.441   0.302
 9805SOL    HW130314   1.766   5.503   0.223
 9805SOL    HW230315   1.853   5.392   0.306
 9806SOL     OW30316   0.162   2.035   2.797
 9806SOL    HW130317   0.079   2.075   2.758
 9806SOL    HW230318   0.241   2.058   2.739
 9807SOL     OW30319   4.092   2.300   0.898
 9807SOL    HW130320   4.134   2.214   0.926
 9807SOL    HW230321   4.013   2.319   0.958
 9808SOL     OW30322   0.551   1.585   4.777
 9808SOL    HW130323   0.530   1.522   4.852
 9808SOL    HW230324   0.533   1.540   4.689
 9809SOL     OW30325   0.601   0.829   4.694
 9809SOL    HW130326   0.529   0.894   4.717
 9809SOL    HW230327   0.617   0.830   4.595
 9810SOL     OW30328   3.554   0.744   3.170
 9810SOL    HW130329   3.601   0.656   3.161
 9810SOL    HW230330   3.582   0.804   3.095
 9811SOL     OW30331   0.447   6.882   2.413
 9811SOL    HW130332   0.529   6.892   2.469
 9811SOL    HW230333   0.473   6.849   2.322
 9812SOL     OW30334   4.901   2.608   6.300
 9812SOL    HW130335   4.831   2.580   6.366
 9812SOL    HW230336   4.990   2.611   6.346
 9813SOL     OW30337   6.621   4.389   0.332
 9813SOL    HW130338   6.687   4.336   0.384
 9813SOL    HW230339   6.665   4.471   0.296
 9814SOL     OW30340   6.812   0.026   5.807
 9814SOL    HW130341   6.830   0.045   5.903
 9814SOL    HW230342   6.828   6.952   5.789
 9815SOL     OW30343   5.624   3.273   2.293
 9815SOL    HW130344   5.712   3.228   2.276
 9815SOL    HW230345   5.584   3.301   2.206
 9816SOL     OW30346   6.873   6.622   6.905
 9816SOL    HW130347   6.934   6.692   6.944
 9816SOL    HW230348   6.918   6.579   6.827
 9817SOL     OW30349   2.739   6.338   0.221
 9817SOL    HW130350   2.836   6.361   0.217
 9817SOL    HW230351   2.709   6.303   0.133
 9818SOL     OW30352   0.971   6.705   3.849
 9818SOL    HW130353   0.920   6.782   3.810
 9818SOL    HW230354   0.976   6.714   3.948
 9819SOL     OW30355   0.141   3.580   4.968
 9819SOL    HW130356   0.127   3.620   4.877
 9819SOL    HW230357   0.168   3.485   4.959
 9820SOL     OW30358   3.712   1.774   5.976
 9820SOL    HW130359   3.800   1.772   5.929
 9820SOL    HW230360   3.676   1.868   5.975
 9821SOL     OW30361   4.544   2.531   1.923
 9821SOL    HW130362   4.514   2.550   1.829
 9821SOL    HW230363   4.641   2.507   1.923
 9822SOL     OW30364   3.437   6.329   5.313
 9822SOL    HW130365   3.505   6.391   5.353
 9822SOL    HW230366   3.354   6.381   5.290
 9823SOL     OW30367   1.831   0.386   3.229
 9823SOL    HW130368   1.799   0.341   3.312
 9823SOL    HW230369   1.904   0.331   3.187
 9824SOL     OW30370   0.796   5.855   5.124
 9824SOL    HW130371   0.875   5.893   5.172
 9824SOL    HW230372   0.808   5.867   5.025
 9825SOL     OW30373   5.268   6.235   5.701
 9825SOL    HW130374   5.311   6.323   5.682
 9825SOL    HW230375   5.296   6.203   5.792
 9826SOL     OW30376   1.939   6.497   5.494
 9826SOL    HW130377   1.980   6.409   5.521
 9826SOL    HW230378   1.934   6.558   5.573
 9827SOL     OW30379   1.327   5.827   1.849
 9827SOL    HW130380   1.366   5.737   1.827
 9827SOL    HW230381   1.356   5.853   1.941
 9828SOL     OW30382   3.975   2.087   4.687
 9828SOL    HW130383   4.045   2.151   4.719
 9828SOL    HW230384   4.015   2.026   4.619
 9829SOL     OW30385   4.713   5.298   5.128
 9829SOL    HW130386   4.741   5.364   5.058
 9829SOL    HW230387   4.620   5.268   5.111
 9830SOL     OW30388   5.798   2.456   2.487
 9830SOL    HW130389   5.750   2.517   2.551
 9830SOL    HW230390   5.838   2.379   2.538
 9831SOL     OW30391   0.432   4.093   2.851
 9831SOL    HW130392   0.519   4.088   2.802
 9831SOL    HW230393   0.449   4.119   2.946
 9832SOL     OW30394   4.399   4.647   4.652
 9832SOL    HW130395   4.388   4.624   4.748
 9832SOL    HW230396   4.418   4.745   4.644
 9833SOL     OW30397   3.072   4.031   3.793
 9833SOL    HW130398   3.003   3.968   3.757
 9833SOL    HW230399   3.062   4.038   3.892
 9834SOL     OW30400   2.465   5.979   5.706
 9834SOL    HW130401   2.388   5.921   5.733
 9834SOL    HW230402   2.454   6.070   5.745
 9835SOL     OW30403   3.440   4.121   3.964
 9835SOL    HW130404   3.530   4.086   3.937
 9835SOL    HW230405   3.386   4.046   4.001
 9836SOL     OW30406   0.191   3.410   5.601
 9836SOL    HW130407   0.223   3.459   5.520
 9836SOL    HW230408   0.244   3.326   5.612
 9837SOL     OW30409   5.313   2.053   3.127
 9837SOL    HW130410   5.337   1.975   3.184
 9837SOL    HW230411   5.314   2.026   3.031
 9838SOL     OW30412   1.305   0.074   1.407
 9838SOL    HW130413   1.256   7.011   1.409
 9838SOL    HW230414   1.404   0.056   1.408
 9839SOL     OW30415   4.551   0.402   3.176
 9839SOL    HW130416   4.601   0.316   3.166
 9839SOL    HW230417   4.465   0.385   3.224
 9840SOL     OW30418   6.129   0.895   6.988
 9840SOL    HW130419   6.042   0.866   0.004
 9840SOL    HW230420   6.186   0.935   0.036
 9841SOL     OW30421   0.478   6.257   3.544
 9841SOL    HW130422   0.538   6.257   3.624
 9841SOL    HW230423   0.498   6.177   3.487
 9842SOL     OW30424   2.663   1.980   6.592
 9842SOL    HW130425   2.657   2.035   6.508
 9842SOL    HW230426   2.624   2.032   6.668
 9843SOL     OW30427   1.044   0.468   1.243
 9843SOL    HW130428   0.947   0.472   1.217
 9843SOL    HW230429   1.054   0.502   1.337
 9844SOL     OW30430   5.077   6.699   4.378
 9844SOL    HW130431   5.123   6.784   4.405
 9844SOL    HW230432   5.117   6.665   4.293
 9845SOL     OW30433   1.877   3.793   1.829
 9845SOL    HW130434   1.878   3.823   1.733
 9845SOL    HW230435   1.803   3.838   1.877
 9846SOL     OW30436   5.623   2.392   0.871
 9846SOL    HW130437   5.690   2.318   0.874
 9846SOL    HW230438   5.539   2.359   0.828
 9847SOL     OW30439   3.933   3.996   6.713
 9847SOL    HW130440   4.006   3.996   6.645
 9847SOL    HW230441   3.949   3.924   6.780
 9848SOL     OW30442   3.486   3.947   5.660
 9848SOL    HW130443   3.440   3.864   5.690
 9848SOL    HW230444   3.521   3.934   5.567
 9849SOL     OW30445   0.690   1.808   4.734
 9849SOL    HW130446   0.635   1.730   4.765
 9849SOL    HW230447   0.656   1.839   4.646
 9850SOL     OW30448   1.031   0.247   4.581
 9850SOL    HW130449   1.116   0.297   4.564
 9850SOL    HW230450   1.044   0.150   4.561
 9851SOL     OW30451   3.798   4.880   4.466
 9851SOL    HW130452   3.889   4.873   4.507
 9851SOL    HW230453   3.806   4.879   4.366
 9852SOL     OW30454   2.361   0.697   0.085
 9852SOL    HW130455   2.448   0.737   0.114
 9852SOL    HW230456   2.357   0.696   7.008
 9853SOL     OW30457   6.688   4.693   3.595
 9853SOL    HW130458   6.771   4.639   3.585
 9853SOL    HW230459   6.608   4.634   3.584
 9854SOL     OW30460   0.835   4.634   5.965
 9854SOL    HW130461   0.778   4.715   5.973
 9854SOL    HW230462   0.877   4.631   5.875
 9855SOL     OW30463   1.107   4.795   1.679
 9855SOL    HW130464   1.082   4.704   1.647
 9855SOL    HW230465   1.150   4.846   1.605
 9856SOL     OW30466   5.779   4.245   3.205
 9856SOL    HW130467   5.866   4.206   3.235
 9856SOL    HW230468   5.712   4.238   3.278
 9857SOL     OW30469   3.550   0.840   5.000
 9857SOL    HW130470   3.639   0.857   4.959
 9857SOL    HW230471   3.478   0.859   4.934
 9858SOL     OW30472   6.082   6.669   2.600
 9858SOL    HW130473   6.150   6.628   2.540
 9858SOL    HW230474   6.048   6.600   2.664
 9859SOL     OW30475   7.010   6.008   3.385
 9859SOL    HW130476   7.004   5.990   3.287
 9859SOL    HW230477   0.068   6.063   3.404
 9860SOL     OW30478   1.360   2.954   4.164
 9860SOL    HW130479   1.420   3.022   4.205
 9860SOL    HW230480   1.305   2.997   4.092
 9861SOL     OW30481   3.404   1.578   3.557
 9861SOL    HW130482   3.378   1.600   3.651
 9861SOL    HW230483   3.399   1.661   3.501
 9862SOL     OW30484   1.262   5.046   0.569
 9862SOL    HW130485   1.248   4.998   0.655
 9862SOL    HW230486   1.210   5.132   0.570
 9863SOL     OW30487   3.490   5.736   0.856
 9863SOL    HW130488   3.422   5.662   0.856
 9863SOL    HW230489   3.446   5.822   0.882
 9864SOL     OW30490   2.989   5.514   5.661
 9864SOL    HW130491   3.084   5.490   5.640
 9864SOL    HW230492   2.932   5.432   5.652
 9865SOL     OW30493   0.213   5.988   5.496
 9865SOL    HW130494   0.136   5.928   5.474
 9865SOL    HW230495   0.191   6.082   5.467
 9866SOL     OW30496   6.108   4.224   5.226
 9866SOL    HW130497   6.047   4.218   5.146
 9866SOL    HW230498   6.203   4.221   5.195
 9867SOL     OW30499   4.388   2.023   1.560
 9867SOL    HW130500   4.405   2.121   1.566
 9867SOL    HW230501   4.309   2.000   1.618
 9868SOL     OW30502   2.081   3.635   3.691
 9868SOL    HW130503   2.100   3.725   3.730
 9868SOL    HW230504   2.007   3.642   3.624
 9869SOL     OW30505   6.246   3.147   0.996
 9869SOL    HW130506   6.203   3.057   0.990
 9869SOL    HW230507   6.333   3.140   1.045
 9870SOL     OW30508   2.813   1.087   2.770
 9870SOL    HW130509   2.908   1.062   2.752
 9870SOL    HW230510   2.768   1.014   2.822
 9871SOL     OW30511   6.631   4.553   4.643
 9871SOL    HW130512   6.663   4.586   4.732
 9871SOL    HW230513   6.540   4.589   4.626
 9872SOL     OW30514   1.121   4.851   6.134
 9872SOL    HW130515   1.170   4.818   6.053
 9872SOL    HW230516   1.037   4.897   6.104
 9873SOL     OW30517   0.985   1.774   6.262
 9873SOL    HW130518   1.010   1.843   6.330
 9873SOL    HW230519   1.001   1.811   6.170
 9874SOL     OW30520   0.460   2.434   4.642
 9874SOL    HW130521   0.518   2.420   4.722
 9874SOL    HW230522   0.482   2.521   4.600
 9875SOL     OW30523   6.505   5.393   0.784
 9875SOL    HW130524   6.459   5.335   0.851
 9875SOL    HW230525   6.466   5.485   0.786
 9876SOL     OW30526   1.759   6.445   4.031
 9876SOL    HW130527   1.749   6.529   4.084
 9876SOL    HW230528   1.762   6.467   3.933
 9877SOL     OW30529   0.653   4.839   4.990
 9877SOL    HW130530   0.730   4.852   5.053
 9877SOL    HW230531   0.632   4.926   4.945
 9878SOL     OW30532   2.176   2.723   0.022
 9878SOL    HW130533   2.179   2.795   6.976
 9878SOL    HW230534   2.120   2.753   0.099
 9879SOL     OW30535   0.028   5.254   6.249
 9879SOL    HW130536   6.981   5.184   6.255
 9879SOL    HW230537   0.031   5.291   6.157
 9880SOL     OW30538   3.080   1.476   6.873
 9880SOL    HW130539   3.022   1.443   6.948
 9880SOL    HW230540   3.092   1.575   6.881
 9881SOL     OW30541   5.845   0.684   4.006
 9881SOL    HW130542   5.809   0.740   4.081
 9881SOL    HW230543   5.937   0.653   4.029
 9882SOL     OW30544   3.393   2.882   4.863
 9882SOL    HW130545   3.347   2.793   4.868
 9882SOL    HW230546   3.324   2.954   4.851
 9883SOL     OW30547   2.101   0.007   1.624
 9883SOL    HW130548   2.128   0.006   1.720
 9883SOL    HW230549   2.164   6.974   1.571
 9884SOL     OW30550   2.523   3.632   5.674
 9884SOL    HW130551   2.491   3.598   5.586
 9884SOL    HW230552   2.540   3.731   5.668
 9885SOL     OW30553   5.491   2.912   4.969
 9885SOL    HW130554   5.516   2.877   5.059
 9885SOL    HW230555   5.412   2.860   4.934
 9886SOL     OW30556   4.314   5.586   1.309
 9886SOL    HW130557   4.409   5.616   1.315
 9886SOL    HW230558   4.288   5.579   1.213
 9887SOL     OW30559   3.193   7.019   6.593
 9887SOL    HW130560   3.214   6.922   6.587
 9887SOL    HW230561   3.274   0.049   6.569
 9888SOL     OW30562   6.532   6.611   3.159
 9888SOL    HW130563   6.620   6.580   3.123
 9888SOL    HW230564   6.492   6.539   3.216
 9889SOL     OW30565   6.839   5.541   3.617
 9889SOL    HW130566   6.931   5.560   3.583
 9889SOL    HW230567   6.829   5.582   3.708
 9890SOL     OW30568   0.547   3.856   2.083
 9890SOL    HW130569   0.617   3.919   2.117
 9890SOL    HW230570   0.474   3.908   2.039
 9891SOL     OW30571   5.576   5.418   0.597
 9891SOL    HW130572   5.553   5.467   0.682
 9891SOL    HW230573   5.624   5.481   0.535
 9892SOL     OW30574   1.911   4.623   4.018
 9892SOL    HW130575   1.966   4.651   4.096
 9892SOL    HW230576   1.971   4.600   3.941
 9893SOL     OW30577   5.401   5.501   3.812
 9893SOL    HW130578   5.458   5.419   3.814
 9893SOL    HW230579   5.431   5.561   3.739
 9894SOL     OW30580   4.044   3.284   5.811
 9894SOL    HW130581   4.008   3.197   5.845
 9894SOL    HW230582   4.143   3.286   5.824
 9895SOL     OW30583   5.351   2.036   6.941
 9895SOL    HW130584   5.428   2.100   6.945
 9895SOL    HW230585   5.363   1.973   6.865
 9896SOL     OW30586   4.039   4.323   0.543
 9896SOL    HW130587   4.060   4.235   0.500
 9896SOL    HW230588   3.939   4.336   0.544
 9897SOL     OW30589   6.978   1.943   3.702
 9897SOL    HW130590   6.890   1.990   3.714
 9897SOL    HW230591   0.025   1.991   3.753
 9898SOL     OW30592   1.279   5.332   5.068
 9898SOL    HW130593   1.341   5.401   5.031
 9898SOL    HW230594   1.224   5.373   5.141
 9899SOL     OW30595   5.825   4.964   1.717
 9899SOL    HW130596   5.925   4.966   1.714
 9899SOL    HW230597   5.788   5.029   1.651
 9900SOL     OW30598   0.962   3.662   3.526
 9900SOL    HW130599   0.938   3.743   3.471
 9900SOL    HW230600   1.019   3.690   3.603
 9901SOL     OW30601   3.085   1.803   5.199
 9901SOL    HW130602   3.049   1.868   5.132
 9901SOL    HW230603   3.095   1.849   5.288
 9902SOL     OW30604   4.425   4.061   6.757
 9902SOL    HW130605   4.410   4.025   6.849
 9902SOL    HW230606   4.344   4.114   6.728
 9903SOL     OW30607   4.040   1.505   1.446
 9903SOL    HW130608   4.018   1.548   1.534
 9903SOL    HW230609   4.118   1.444   1.457
 9904SOL     OW30610   6.382   0.612   2.086
 9904SOL    HW130611   6.390   0.520   2.048
 9904SOL    HW230612   6.285   0.637   2.093
 9905SOL     OW30613   1.249   6.515   5.206
 9905SOL    HW130614   1.197   6.475   5.281
 9905SOL    HW230615   1.272   6.610   5.228
 9906SOL     OW30616   2.959   3.059   6.176
 9906SOL    HW130617   3.040   3.056   6.118
 9906SOL    HW230618   2.958   2.980   6.237
 9907SOL     OW30619   2.219   6.682   2.931
 9907SOL    HW130620   2.210   6.740   3.013
 9907SOL    HW230621   2.231   6.587   2.959
 9908SOL     OW30622   1.008   3.402   5.496
 9908SOL    HW130623   0.942   3.330   5.513
 9908SOL    HW230624   1.097   3.376   5.535
 9909SOL     OW30625   4.258   6.702   2.441
 9909SOL    HW130626   4.320   6.774   2.472
 9909SOL    HW230627   4.164   6.725   2.467
 9910SOL     OW30628   0.198   3.959   1.322
 9910SOL    HW130629   0.102   3.939   1.342
 9910SOL    HW230630   0.225   4.043   1.370
 9911SOL     OW30631   2.669   4.717   3.487
 9911SOL    HW130632   2.619   4.710   3.573
 9911SOL    HW230633   2.707   4.809   3.477
 9912SOL     OW30634   4.829   0.146   1.383
 9912SOL    HW130635   4.779   0.190   1.458
 9912SOL    HW230636   4.786   0.168   1.296
 9913SOL     OW30637   4.695   1.892   2.448
 9913SOL    HW130638   4.685   1.969   2.511
 9913SOL    HW230639   4.757   1.917   2.373
 9914SOL     OW30640   1.570   6.701   5.347
 9914SOL    HW130641   1.554   6.800   5.349
 9914SOL    HW230642   1.488   6.655   5.312
 9915SOL     OW30643   5.329   3.875   4.676
 9915SOL    HW130644   5.299   3.783   4.703
 9915SOL    HW230645   5.283   3.901   4.591
 9916SOL     OW30646   2.339   3.035   1.462
 9916SOL    HW130647   2.282   2.969   1.511
 9916SOL    HW230648   2.321   3.127   1.497
 9917SOL     OW30649   2.003   3.328   5.713
 9917SOL    HW130650   1.974   3.285   5.797
 9917SOL    HW230651   2.023   3.425   5.730
 9918SOL     OW30652   1.404   1.290   5.018
 9918SOL    HW130653   1.467   1.231   5.068
 9918SOL    HW230654   1.363   1.357   5.080
 9919SOL     OW30655   0.481   5.131   2.917
 9919SOL    HW130656   0.492   5.036   2.945
 9919SOL    HW230657   0.557   5.157   2.857
 9920SOL     OW30658   4.673   6.840   1.478
 9920SOL    HW130659   4.745   6.807   1.538
 9920SOL    HW230660   4.613   6.902   1.529
 9921SOL     OW30661   5.409   0.197   2.709
 9921SOL    HW130662   5.385   0.102   2.727
 9921SOL    HW230663   5.435   0.207   2.613
 9922SOL     OW30664   4.509   3.044   1.212
 9922SOL    HW130665   4.540   3.003   1.298
 9922SOL    HW230666   4.561   3.005   1.136
 9923SOL     OW30667   6.715   1.842   6.675
 9923SOL    HW130668   6.733   1.927   6.626
 9923SOL    HW230669   6.758   1.846   6.765
 9924SOL     OW30670   6.269   0.808   3.192
 9924SOL    HW130671   6.181   0.785   3.234
 9924SOL    HW230672   6.278   0.907   3.185
 9925SOL     OW30673   2.244   2.814   4.861
 9925SOL    HW130674   2.284   2.888   4.915
 9925SOL    HW230675   2.315   2.747   4.840
 9926SOL     OW30676   1.469   1.288   0.181
 9926SOL    HW130677   1.541   1.301   0.249
 9926SOL    HW230678   1.508   1.248   0.098
 9927SOL     OW30679   0.923   2.435   2.588
 9927SOL    HW130680   0.925   2.412   2.491
 9927SOL    HW230681   1.004   2.397   2.633
 9928SOL     OW30682   0.139   3.214   2.853
 9928SOL    HW130683   0.160   3.129   2.901
 9928SOL    HW230684   0.125   3.287   2.920
 9929SOL     OW30685   2.074   4.307   6.581
 9929SOL    HW130686   2.075   4.386   6.520
 9929SOL    HW230687   2.008   4.323   6.655
 9930SOL     OW30688   0.114   6.093   0.044
 9930SOL    HW130689   0.015   6.103   0.042
 9930SOL    HW230690   0.151   6.108   6.976
 9931SOL     OW30691   2.624   5.853   6.352
 9931SOL    HW130692   2.550   5.887   6.294
 9931SOL    HW230693   2.593   5.850   6.447
 9932SOL     OW30694   1.856   2.394   0.383
 9932SOL    HW130695   1.883   2.401   0.287
 9932SOL    HW230696   1.757   2.405   0.391
 9933SOL     OW30697   1.161   2.044   3.576
 9933SOL    HW130698   1.119   2.024   3.665
 9933SOL    HW230699   1.223   2.121   3.585
 9934SOL     OW30700   3.526   1.113   5.970
 9934SOL    HW130701   3.550   1.205   6.000
 9934SOL    HW230702   3.503   1.115   5.873
 9935SOL     OW30703   2.555   1.986   0.854
 9935SOL    HW130704   2.616   2.052   0.897
 9935SOL    HW230705   2.469   1.983   0.905
 9936SOL     OW30706   5.989   6.531   5.693
 9936SOL    HW130707   6.006   6.499   5.786
 9936SOL    HW230708   5.927   6.469   5.647
 9937SOL     OW30709   0.329   0.266   3.683
 9937SOL    HW130710   0.367   0.173   3.686
 9937SOL    HW230711   0.240   0.264   3.638
 9938SOL     OW30712   6.904   1.698   3.777
 9938SOL    HW130713   6.877   1.722   3.870
 9938SOL    HW230714   6.922   1.781   3.725
 9939SOL     OW30715   3.122   4.606   1.459
 9939SOL    HW130716   3.184   4.567   1.527
 9939SOL    HW230717   3.066   4.532   1.420
 9940SOL     OW30718   0.204   0.864   3.599
 9940SOL    HW130719   0.257   0.795   3.551
 9940SOL    HW230720   0.133   0.820   3.654
 9941SOL     OW30721   5.141   4.815   6.858
 9941SOL    HW130722   5.109   4.724   6.882
 9941SOL    HW230723   5.158   4.868   6.942
 9942SOL     OW30724   4.851   4.997   2.856
 9942SOL    HW130725   4.760   4.962   2.875
 9942SOL    HW230726   4.888   4.951   2.775
 9943SOL     OW30727   2.355   4.080   6.372
 9943SOL    HW130728   2.316   4.103   6.461
 9943SOL    HW230729   2.350   3.981   6.358
 9944SOL     OW30730   0.422   4.832   6.355
 9944SOL    HW130731   0.353   4.882   6.407
 9944SOL    HW230732   0.513   4.854   6.389
 9945SOL     OW30733   6.230   3.250   6.111
 9945SOL    HW130734   6.165   3.285   6.179
 9945SOL    HW230735   6.267   3.163   6.143
 9946SOL     OW30736   5.502   1.671   1.559
 9946SOL    HW130737   5.475   1.737   1.490
 9946SOL    HW230738   5.544   1.718   1.637
 9947SOL     OW30739   1.319   1.917   3.883
 9947SOL    HW130740   1.227   1.927   3.845
 9947SOL    HW230741   1.369   1.848   3.831
 9948SOL     OW30742   6.129   0.176   4.265
 9948SOL    HW130743   6.070   0.096   4.277
 9948SOL    HW230744   6.073   0.256   4.241
 9949SOL     OW30745   6.272   4.957   4.204
 9949SOL    HW130746   6.217   5.039   4.216
 9949SOL    HW230747   6.214   4.881   4.177
 9950SOL     OW30748   5.678   3.968   5.291
 9950SOL    HW130749   5.716   3.876   5.296
 9950SOL    HW230750   5.747   4.034   5.321
 9951SOL     OW30751   0.379   2.149   3.519
 9951SOL    HW130752   0.305   2.171   3.583
 9951SOL    HW230753   0.377   2.051   3.498
 9952SOL     OW30754   0.563   5.106   2.025
 9952SOL    HW130755   0.598   5.103   2.119
 9952SOL    HW230756   0.637   5.133   1.963
 9953SOL     OW30757   6.073   2.484   3.640
 9953SOL    HW130758   6.119   2.396   3.636
 9953SOL    HW230759   6.048   2.513   3.548
 9954SOL     OW30760   3.628   1.370   6.037
 9954SOL    HW130761   3.585   1.443   5.985
 9954SOL    HW230762   3.624   1.391   6.134
 9955SOL     OW30763   5.626   4.266   1.034
 9955SOL    HW130764   5.694   4.310   1.093
 9955SOL    HW230765   5.661   4.179   1.001
 9956SOL     OW30766   2.230   3.104   3.105
 9956SOL    HW130767   2.255   3.018   3.060
 9956SOL    HW230768   2.199   3.085   3.198
 9957SOL     OW30769   5.007   0.093   0.946
 9957SOL    HW130770   4.908   0.093   0.962
 9957SOL    HW230771   5.046   0.006   0.978
 9958SOL     OW30772   5.306   5.973   0.215
 9958SOL    HW130773   5.322   5.880   0.246
 9958SOL    HW230774   5.226   5.975   0.154
 9959SOL     OW30775   5.018   4.349   0.675
 9959SOL    HW130776   5.059   4.429   0.632
 9959SOL    HW230777   5.050   4.266   0.630
 9960SOL     OW30778   0.214   0.458   6.861
 9960SOL    HW130779   0.265   0.397   6.922
 9960SOL    HW230780   0.127   0.415   6.837
 9961SOL     OW30781   2.864   5.204   1.470
 9961SOL    HW130782   2.921   5.216   1.389
 9961SOL    HW230783   2.845   5.107   1.485
 9962SOL     OW30784   3.246   0.326   1.519
 9962SOL    HW130785   3.194   0.268   1.456
 9962SOL    HW230786   3.343   0.320   1.498
 9963SOL     OW30787   0.658   1.080   6.421
 9963SOL    HW130788   0.615   0.998   6.385
 9963SOL    HW230789   0.733   1.108   6.361
 9964SOL     OW30790   4.516   4.240   5.897
 9964SOL    HW130791   4.442   4.229   5.831
 9964SOL    HW230792   4.477   4.259   5.988
 9965SOL     OW30793   2.604   5.587   4.257
 9965SOL    HW130794   2.677   5.543   4.204
 9965SOL    HW230795   2.555   5.517   4.309
 9966SOL     OW30796   3.954   4.820   2.363
 9966SOL    HW130797   3.902   4.804   2.447
 9966SOL    HW230798   3.891   4.835   2.288
 9967SOL     OW30799   0.051   0.441   2.716
 9967SOL    HW130800   7.018   0.504   2.768
 9967SOL    HW230801   0.034   0.347   2.747
 9968SOL     OW30802   3.362   6.671   0.105
 9968SOL    HW130803   3.458   6.690   0.122
 9968SOL    HW230804   3.338   6.581   0.143
 9969SOL     OW30805   1.894   5.681   3.406
 9969SOL    HW130806   1.943   5.704   3.491
 9969SOL    HW230807   1.803   5.648   3.429
 9970SOL     OW30808   6.401   3.405   1.381
 9970SOL    HW130809   6.434   3.314   1.355
 9970SOL    HW230810   6.379   3.457   1.300
 9971SOL     OW30811   0.720   5.081   3.184
 9971SOL    HW130812   0.646   5.081   3.251
 9971SOL    HW230813   0.728   4.991   3.143
 9972SOL     OW30814   3.013   3.552   6.571
 9972SOL    HW130815   3.099   3.512   6.539
 9972SOL    HW230816   3.005   3.646   6.537
 9973SOL     OW30817   2.801   1.900   3.631
 9973SOL    HW130818   2.736   1.976   3.634
 9973SOL    HW230819   2.762   1.825   3.579
 9974SOL     OW30820   1.482   3.111   2.665
 9974SOL    HW130821   1.446   3.118   2.572
 9974SOL    HW230822   1.454   3.024   2.705
 9975SOL     OW30823   1.889   5.244   6.985
 9975SOL    HW130824   1.916   5.340   6.977
 9975SOL    HW230825   1.953   5.197   0.021
 9976SOL     OW30826   3.122   4.257   6.525
 9976SOL    HW130827   3.179   4.251   6.607
 9976SOL    HW230828   3.051   4.187   6.529
 9977SOL     OW30829   4.988   6.655   5.536
 9977SOL    HW130830   5.055   6.676   5.608
 9977SOL    HW230831   5.029   6.673   5.447
 9978SOL     OW30832   1.019   3.400   6.597
 9978SOL    HW130833   1.019   3.336   6.520
 9978SOL    HW230834   1.001   3.492   6.563
 9979SOL     OW30835   3.965   3.211   5.118
 9979SOL    HW130836   4.054   3.237   5.156
 9979SOL    HW230837   3.956   3.248   5.026
 9980SOL     OW30838   2.027   1.662   0.916
 9980SOL    HW130839   2.003   1.757   0.895
 9980SOL    HW230840   2.009   1.644   1.013
 9981SOL     OW30841   6.813   2.921   1.540
 9981SOL    HW130842   6.790   3.013   1.509
 9981SOL    HW230843   6.852   2.869   1.463
 9982SOL     OW30844   1.960   1.994   4.752
 9982SOL    HW130845   1.954   2.080   4.802
 9982SOL    HW230846   1.960   1.918   4.817
 9983SOL     OW30847   1.084   2.413   2.195
 9983SOL    HW130848   1.051   2.370   2.279
 9983SOL    HW230849   1.009   2.465   2.153
 9984SOL     OW30850   6.995   6.083   1.282
 9984SOL    HW130851   6.937   6.111   1.359
 9984SOL    HW230852   7.007   6.160   1.219
 9985SOL     OW30853   3.930   4.874   0.424
 9985SOL    HW130854   3.901   4.824   0.343
 9985SOL    HW230855   3.869   4.953   0.438
 9986SOL     OW30856   5.430   5.052   6.882
 9986SOL    HW130857   5.477   5.125   6.933
 9986SOL    HW230858   5.353   5.092   6.832
 9987SOL     OW30859   5.110   2.771   1.274
 9987SOL    HW130860   5.117   2.723   1.187
 9987SOL    HW230861   5.056   2.717   1.338
 9988SOL     OW30862   5.282   6.278   4.493
 9988SOL    HW130863   5.374   6.302   4.462
 9988SOL    HW230864   5.236   6.359   4.530
 9989SOL     OW30865   6.398   5.199   2.486
 9989SOL    HW130866   6.402   5.298   2.479
 9989SOL    HW230867   6.327   5.164   2.424
 9990SOL     OW30868   0.662   6.865   4.063
 9990SOL    HW130869   0.757   6.887   4.083
 9990SOL    HW230870   0.657   6.816   3.975
 9991SOL     OW30871   1.652   4.841   3.369
 9991SOL    HW130872   1.583   4.771   3.349
 9991SOL    HW230873   1.712   4.852   3.289
 9992SOL     OW30874   3.530   4.970   0.999
 9992SOL    HW130875   3.509   5.003   0.906
 9992SOL    HW230876   3.629   4.962   1.010
 9993SOL     OW30877   3.752   6.616   4.272
 9993SOL    HW130878   3.785   6.686   4.209
 9993SOL    HW230879   3.656   6.634   4.293
 9994SOL     OW30880   6.381   4.627   4.569
 9994SOL    HW130881   6.349   4.716   4.538
 9994SOL    HW230882   6.322   4.555   4.531
 9995SOL     OW30883   3.103   0.488   4.749
 9995SOL    HW130884   3.043   0.450   4.678
 9995SOL    HW230885   3.198   0.488   4.717
 9996SOL     OW30886   2.561   3.304   1.219
 9996SOL    HW130887   2.570   3.357   1.134
 9996SOL    HW230888   2.467   3.308   1.251
 9997SOL     OW30889   6.153   3.008   3.543
 9997SOL    HW130890   6.242   2.970   3.519
 9997SOL    HW230891   6.147   3.017   3.643
 9998SOL     OW30892   5.178   4.402   2.810
 9998SOL    HW130893   5.126   4.362   2.886
 9998SOL    HW230894   5.200   4.330   2.744
 9999SOL     OW30895   1.305   6.119   3.724
 9999SOL    HW130896   1.269   6.083   3.638
 9999SOL    HW230897   1.233   6.169   3.772
10000SOL     OW30898   5.570   2.093   1.510
10000SOL    HW130899   5.576   2.153   1.430
10000SOL    HW230900   5.540   2.145   1.589
10001SOL     OW30901   4.160   6.180   1.955
10001SOL    HW130902   4.223   6.252   1.926
10001SOL    HW230903   4.104   6.214   2.031
10002SOL     OW30904   2.866   0.907   2.028
10002SOL    HW130905   2.903   0.953   1.947
10002SOL    HW230906   2.912   0.820   2.042
10003SOL     OW30907   1.581   0.741   3.793
10003SOL    HW130908   1.583   0.782   3.884
10003SOL    HW230909   1.495   0.765   3.747
10004SOL     OW30910   6.249   4.109   4.833
10004SOL    HW130911   6.161   4.093   4.788
10004SOL    HW230912   6.266   4.037   4.899
10005SOL     OW30913   1.982   5.447   3.287
10005SOL    HW130914   2.045   5.457   3.209
10005SOL    HW230915   1.971   5.535   3.332
10006SOL     OW30916   5.522   0.471   5.226
10006SOL    HW130917   5.424   0.475   5.244
10006SOL    HW230918   5.565   0.409   5.291
10007SOL     OW30919   1.874   4.982   4.191
10007SOL    HW130920   1.774   4.969   4.194
10007SOL    HW230921   1.919   4.893   4.199
10008SOL     OW30922   4.345   1.362   6.370
10008SOL    HW130923   4.305   1.453   6.364
10008SOL    HW230924   4.278   1.299   6.410
10009SOL     OW30925   1.055   3.145   1.959
10009SOL    HW130926   1.119   3.218   1.981
10009SOL    HW230927   1.065   3.071   2.026
10010SOL     OW30928   2.055   4.195   0.220
10010SOL    HW130929   2.141   4.146   0.205
10010SOL    HW230930   2.023   4.233   0.133
10011SOL     OW30931   1.112   3.527   0.370
10011SOL    HW130932   1.090   3.505   0.275
10011SOL    HW230933   1.207   3.503   0.388
10012SOL     OW30934   4.892   1.532   2.574
10012SOL    HW130935   4.921   1.557   2.482
10012SOL    HW230936   4.888   1.613   2.632
10013SOL     OW30937   0.617   6.090   4.541
10013SOL    HW130938   0.680   6.016   4.518
10013SOL    HW230939   0.553   6.058   4.612
10014SOL     OW30940   0.601   6.971   3.101
10014SOL    HW130941   0.582   6.873   3.108
10014SOL    HW230942   0.551   7.020   3.172
10015SOL     OW30943   4.325   4.581   5.810
10015SOL    HW130944   4.251   4.531   5.853
10015SOL    HW230945   4.376   4.520   5.749
10016SOL     OW30946   2.662   0.114   2.858
10016SOL    HW130947   2.711   0.061   2.927
10016SOL    HW230948   2.677   0.212   2.874
10017SOL     OW30949   2.689   1.594   2.993
10017SOL    HW130950   2.626   1.594   3.070
10017SOL    HW230951   2.707   1.500   2.965
10018SOL     OW30952   6.327   2.506   6.480
10018SOL    HW130953   6.291   2.454   6.557
10018SOL    HW230954   6.425   2.521   6.494
10019SOL     OW30955   0.653   1.638   2.676
10019SOL    HW130956   0.626   1.543   2.689
10019SOL    HW230957   0.746   1.651   2.709
10020SOL     OW30958   6.666   0.543   2.206
10020SOL    HW130959   6.572   0.516   2.186
10020SOL    HW230960   6.695   0.611   2.138
10021SOL     OW30961   1.257   4.084   2.057
10021SOL    HW130962   1.331   4.050   1.999
10021SOL    HW230963   1.182   4.116   1.998
10022SOL     OW30964   2.668   5.953   0.515
10022SOL    HW130965   2.678   5.907   0.427
10022SOL    HW230966   2.656   6.051   0.500
10023SOL     OW30967   1.729   6.809   5.770
10023SOL    HW130968   1.818   6.767   5.785
10023SOL    HW230969   1.741   6.907   5.750
10024SOL     OW30970   1.562   4.670   3.114
10024SOL    HW130971   1.521   4.594   3.163
10024SOL    HW230972   1.661   4.655   3.107
10025SOL     OW30973   1.306   4.346   1.707
10025SOL    HW130974   1.242   4.375   1.778
10025SOL    HW230975   1.320   4.248   1.713
10026SOL     OW30976   5.215   1.660   4.127
10026SOL    HW130977   5.187   1.684   4.220
10026SOL    HW230978   5.169   1.721   4.062
10027SOL     OW30979   2.004   1.872   5.872
10027SOL    HW130980   1.938   1.945   5.882
10027SOL    HW230981   1.987   1.822   5.787
10028SOL     OW30982   4.467   0.465   1.418
10028SOL    HW130983   4.445   0.510   1.504
10028SOL    HW230984   4.389   0.469   1.356
10029SOL     OW30985   0.230   3.348   4.851
10029SOL    HW130986   0.202   3.280   4.919
10029SOL    HW230987   0.301   3.309   4.792
10030SOL     OW30988   3.035   0.147   4.609
10030SOL    HW130989   2.974   0.076   4.645
10030SOL    HW230990   3.125   0.138   4.652
10031SOL     OW30991   3.060   5.101   4.204
10031SOL    HW130992   3.082   5.167   4.133
10031SOL    HW230993   3.141   5.086   4.261
10032SOL     OW30994   2.934   6.211   4.712
10032SOL    HW130995   2.865   6.197   4.641
10032SOL    HW230996   3.021   6.171   4.682
10033SOL     OW30997   4.078   1.832   2.736
10033SOL    HW130998   3.995   1.841   2.790
10033SOL    HW230999   4.057   1.844   2.639
10034SOL     OW31000   2.713   0.511   3.564
10034SOL    HW131001   2.722   0.598   3.612
10034SOL    HW231002   2.776   0.511   3.485
10035SOL     OW31003   6.207   2.992   1.821
10035SOL    HW131004   6.124   3.046   1.809
10035SOL    HW231005   6.271   3.042   1.880
10036SOL     OW31006   6.260   0.560   6.538
10036SOL    HW131007   6.197   0.487   6.512
10036SOL    HW231008   6.277   0.556   6.636
10037SOL     OW31009   6.339   6.868   6.855
10037SOL    HW131010   6.344   6.857   6.954
10037SOL    HW231011   6.416   6.924   6.824
10038SOL     OW31012   4.303   0.235   0.024
10038SOL    HW131013   4.331   0.159   0.083
10038SOL    HW231014   4.361   0.238   6.966
10039SOL     OW31015   5.908   5.368   3.813
10039SOL    HW131016   5.936   5.462   3.789
10039SOL    HW231017   5.921   5.309   3.734
10040SOL     OW31018   3.651   0.478   0.273
10040SOL    HW131019   3.558   0.511   0.292
10040SOL    HW231020   3.666   0.476   0.174
10041SOL     OW31021   6.803   4.633   5.086
10041SOL    HW131022   6.816   4.654   4.989
10041SOL    HW231023   6.884   4.663   5.138
10042SOL     OW31024   0.253   0.384   5.087
10042SOL    HW131025   0.283   0.453   5.152
10042SOL    HW231026   0.153   0.381   5.085
10043SOL     OW31027   1.422   1.226   2.853
10043SOL    HW131028   1.479   1.213   2.935
10043SOL    HW231029   1.343   1.282   2.876
10044SOL     OW31030   2.521   1.433   5.684
10044SOL    HW131031   2.499   1.504   5.750
10044SOL    HW231032   2.528   1.474   5.593
10045SOL     OW31033   4.359   6.393   4.750
10045SOL    HW131034   4.336   6.326   4.679
10045SOL    HW231035   4.427   6.457   4.716
10046SOL     OW31036   0.172   2.198   1.899
10046SOL    HW131037   0.082   2.163   1.923
10046SOL    HW231038   0.242   2.135   1.932
10047SOL     OW31039   6.426   1.737   5.120
10047SOL    HW131040   6.504   1.734   5.058
10047SOL    HW231041   6.373   1.820   5.104
10048SOL     OW31042   3.365   1.701   1.618
10048SOL    HW131043   3.332   1.628   1.559
10048SOL    HW231044   3.459   1.725   1.591
10049SOL     OW31045   1.993   0.586   6.374
10049SOL    HW131046   1.929   0.510   6.380
10049SOL    HW231047   1.954   0.666   6.419
10050SOL     OW31048   4.868   2.574   4.685
10050SOL    HW131049   4.949   2.626   4.658
10050SOL    HW231050   4.897   2.490   4.731
10051SOL     OW31051   6.050   2.610   4.701
10051SOL    HW131052   6.136   2.636   4.657
10051SOL    HW231053   5.973   2.637   4.643
10052SOL     OW31054   1.297   3.428   1.626
10052SOL    HW131055   1.344   3.493   1.686
10052SOL    HW231056   1.365   3.380   1.570
10053SOL     OW31057   3.314   5.000   3.867
10053SOL    HW131058   3.381   5.039   3.930
10053SOL    HW231059   3.361   4.951   3.794
10054SOL     OW31060   3.809   5.611   5.302
10054SOL    HW131061   3.783   5.707   5.291
10054SOL    HW231062   3.762   5.556   5.234
10055SOL     OW31063   6.616   2.230   4.947
10055SOL    HW131064   6.556   2.163   4.991
10055SOL    HW231065   6.708   2.223   4.986
10056SOL     OW31066   6.716   4.761   1.773
10056SOL    HW131067   6.707   4.855   1.739
10056SOL    HW231068   6.810   4.745   1.803
10057SOL     OW31069   4.072   1.904   4.288
10057SOL    HW131070   4.086   1.966   4.366
10057SOL    HW231071   4.152   1.845   4.278
10058SOL     OW31072   0.202   5.223   4.175
10058SOL    HW131073   0.184   5.305   4.121
10058SOL    HW231074   0.166   5.142   4.128
10059SOL     OW31075   5.192   0.852   1.172
10059SOL    HW131076   5.278   0.818   1.210
10059SOL    HW231077   5.131   0.775   1.154
10060SOL     OW31078   2.988   2.224   1.714
10060SOL    HW131079   2.984   2.302   1.776
10060SOL    HW231080   3.052   2.156   1.750
10061SOL     OW31081   5.897   1.349   4.178
10061SOL    HW131082   5.929   1.355   4.273
10061SOL    HW231083   5.827   1.418   4.163
10062SOL     OW31084   6.207   5.861   3.451
10062SOL    HW131085   6.227   5.816   3.538
10062SOL    HW231086   6.134   5.929   3.464
10063SOL     OW31087   1.128   3.745   3.732
10063SOL    HW131088   1.222   3.712   3.719
10063SOL    HW231089   1.125   3.844   3.719
10064SOL     OW31090   5.006   5.691   4.434
10064SOL    HW131091   5.053   5.634   4.368
10064SOL    HW231092   4.921   5.646   4.463
10065SOL     OW31093   1.010   6.501   2.783
10065SOL    HW131094   1.063   6.417   2.788
10065SOL    HW231095   0.933   6.497   2.847
10066SOL     OW31096   0.748   0.151   4.373
10066SOL    HW131097   0.805   0.212   4.319
10066SOL    HW231098   0.656   0.190   4.383
10067SOL     OW31099   4.795   4.614   4.118
10067SOL    HW131100   4.864   4.544   4.099
10067SOL    HW231101   4.804   4.688   4.052
10068SOL     OW31102   5.484   3.006   4.475
10068SOL    HW131103   5.506   2.911   4.455
10068SOL    HW231104   5.564   3.063   4.456
10069SOL     OW31105   3.115   0.885   3.611
10069SOL    HW131106   3.102   0.919   3.518
10069SOL    HW231107   3.090   0.957   3.676
10070SOL     OW31108   0.910   6.028   4.895
10070SOL    HW131109   0.888   6.089   4.819
10070SOL    HW231110   0.975   5.959   4.864
10071SOL     OW31111   5.083   5.556   4.196
10071SOL    HW131112   5.171   5.562   4.149
10071SOL    HW231113   5.064   5.461   4.219
10072SOL     OW31114   0.352   6.480   3.479
10072SOL    HW131115   0.326   6.478   3.382
10072SOL    HW231116   0.402   6.396   3.501
10073SOL     OW31117   6.543   4.766   5.348
10073SOL    HW131118   6.455   4.788   5.305
10073SOL    HW231119   6.529   4.747   5.446
10074SOL     OW31120   1.244   0.517   6.274
10074SOL    HW131121   1.247   0.494   6.371
10074SOL    HW231122   1.310   0.590   6.255
10075SOL     OW31123   1.387   2.484   3.474
10075SOL    HW131124   1.399   2.456   3.378
10075SOL    HW231125   1.446   2.428   3.532
10076SOL     OW31126   4.905   6.974   4.564
10076SOL    HW131127   4.835   6.910   4.535
10076SOL    HW231128   4.976   6.925   4.615
10077SOL     OW31129   4.015   2.680   6.338
10077SOL    HW131130   4.058   2.591   6.331
10077SOL    HW231131   4.052   2.741   6.268
10078SOL     OW31132   5.863   6.633   5.084
10078SOL    HW131133   5.889   6.547   5.038
10078SOL    HW231134   5.765   6.649   5.071
10079SOL     OW31135   1.232   3.012   1.371
10079SOL    HW131136   1.151   2.981   1.322
10079SOL    HW231137   1.206   3.044   1.462
10080SOL     OW31138   2.037   2.619   0.487
10080SOL    HW131139   2.135   2.629   0.469
10080SOL    HW231140   2.011   2.523   0.478
10081SOL     OW31141   0.424   0.513   6.692
10081SOL    HW131142   0.352   0.482   6.755
10081SOL    HW231143   0.399   0.488   6.599
10082SOL     OW31144   6.004   1.983   1.709
10082SOL    HW131145   6.077   1.947   1.766
10082SOL    HW231146   6.030   1.974   1.612
10083SOL     OW31147   4.054   7.006   3.856
10083SOL    HW131148   4.151   7.003   3.882
10083SOL    HW231149   4.013   0.067   3.890
10084SOL     OW31150   2.513   1.174   5.602
10084SOL    HW131151   2.421   1.136   5.612
10084SOL    HW231152   2.517   1.262   5.649
10085SOL     OW31153   0.916   5.203   2.859
10085SOL    HW131154   0.861   5.121   2.874
10085SOL    HW231155   0.891   5.273   2.926
10086SOL     OW31156   6.513   4.671   1.924
10086SOL    HW131157   6.451   4.606   1.879
10086SOL    HW231158   6.599   4.677   1.871
10087SOL     OW31159   1.329   0.908   4.382
10087SOL    HW131160   1.244   0.869   4.417
10087SOL    HW231161   1.364   0.850   4.308
10088SOL     OW31162   0.867   6.201   4.692
10088SOL    HW131163   0.932   6.265   4.651
10088SOL    HW231164   0.807   6.164   4.622
10089SOL     OW31165   2.695   1.593   2.680
10089SOL    HW131166   2.733   1.632   2.763
10089SOL    HW231167   2.606   1.635   2.661
10090SOL     OW31168   0.789   4.318   0.676
10090SOL    HW131169   0.751   4.410   0.682
10090SOL    HW231170   0.720   4.256   0.639
10091SOL     OW31171   0.814   3.596   4.471
10091SOL    HW131172   0.899   3.568   4.515
10091SOL    HW231173   0.766   3.515   4.436
10092SOL     OW31174   1.684   3.192   5.245
10092SOL    HW131175   1.755   3.253   5.281
10092SOL    HW231176   1.702   3.098   5.277
10093SOL     OW31177   0.094   5.422   5.289
10093SOL    HW131178   0.137   5.489   5.350
10093SOL    HW231179   0.116   5.329   5.320
10094SOL     OW31180   2.654   0.853   2.299
10094SOL    HW131181   2.615   0.945   2.289
10094SOL    HW231182   2.669   0.834   2.396
10095SOL     OW31183   6.978   1.548   6.143
10095SOL    HW131184   0.010   1.532   6.224
10095SOL    HW231185   6.881   1.533   6.165
10096SOL     OW31186   0.219   4.954   2.573
10096SOL    HW131187   0.148   4.983   2.508
10096SOL    HW231188   0.309   4.981   2.538
10097SOL     OW31189   0.928   1.303   0.851
10097SOL    HW131190   0.883   1.342   0.931
10097SOL    HW231191   0.986   1.227   0.879
10098SOL     OW31192   2.047   6.105   5.827
10098SOL    HW131193   2.106   6.183   5.850
10098SOL    HW231194   2.016   6.060   5.911
10099SOL     OW31195   0.173   3.541   5.305
10099SOL    HW131196   0.227   3.571   5.226
10099SOL    HW231197   0.115   3.616   5.337
10100SOL     OW31198   4.725   1.059   5.008
10100SOL    HW131199   4.691   1.000   4.935
10100SOL    HW231200   4.777   1.135   4.968
10101SOL     OW31201   6.825   4.624   2.396
10101SOL    HW131202   6.803   4.719   2.376
10101SOL    HW231203   6.807   4.568   2.314
10102SOL     OW31204   3.384   1.210   2.243
10102SOL    HW131205   3.461   1.166   2.290
10102SOL    HW231206   3.383   1.308   2.266
10103SOL     OW31207   2.798   1.058   5.099
10103SOL    HW131208   2.884   1.007   5.100
10103SOL    HW231209   2.772   1.078   5.004
10104SOL     OW31210   0.995   4.530   5.413
10104SOL    HW131211   1.002   4.622   5.374
10104SOL    HW231212   1.005   4.462   5.340
10105SOL     OW31213   1.798   1.014   6.547
10105SOL    HW131214   1.863   1.047   6.615
10105SOL    HW231215   1.731   1.085   6.527
10106SOL     OW31216   5.293   5.335   0.584
10106SOL    HW131217   5.391   5.356   0.582
10106SOL    HW231218   5.273   5.267   0.512
10107SOL     OW31219   6.018   1.395   6.125
10107SOL    HW131220   6.027   1.322   6.192
10107SOL    HW231221   5.926   1.393   6.085
10108SOL     OW31222   6.177   6.417   0.240
10108SOL    HW131223   6.165   6.495   0.178
10108SOL    HW231224   6.270   6.420   0.279
10109SOL     OW31225   4.989   5.857   3.452
10109SOL    HW131226   4.920   5.792   3.422
10109SOL    HW231227   5.057   5.869   3.379
10110SOL     OW31228   3.735   6.795   5.926
10110SOL    HW131229   3.827   6.826   5.904
10110SOL    HW231230   3.711   6.716   5.868
10111SOL     OW31231   6.748   3.361   3.368
10111SOL    HW131232   6.728   3.272   3.408
10111SOL    HW231233   6.844   3.364   3.341
10112SOL     OW31234   5.341   4.050   5.181
10112SOL    HW131235   5.420   4.091   5.135
10112SOL    HW231236   5.275   4.020   5.112
10113SOL     OW31237   4.097   0.934   6.946
10113SOL    HW131238   4.076   0.887   0.008
10113SOL    HW231239   4.054   0.886   6.870
10114SOL     OW31240   5.118   1.466   6.904
10114SOL    HW131241   5.134   1.450   7.001
10114SOL    HW231242   5.189   1.528   6.869
10115SOL     OW31243   1.972   2.530   3.872
10115SOL    HW131244   1.958   2.478   3.788
10115SOL    HW231245   1.918   2.614   3.869
10116SOL     OW31246   0.640   7.011   0.876
10116SOL    HW131247   0.623   0.059   0.945
10116SOL    HW231248   0.594   6.927   0.905
10117SOL     OW31249   6.430   0.366   5.281
10117SOL    HW131250   6.495   0.399   5.348
10117SOL    HW231251   6.340   0.406   5.299
10118SOL     OW31252   0.099   5.232   2.852
10118SOL    HW131253   0.104   5.235   2.752
10118SOL    HW231254   0.033   5.299   2.884
10119SOL     OW31255   2.374   0.447   4.991
10119SOL    HW131256   2.453   0.447   5.053
10119SOL    HW231257   2.324   0.533   5.002
10120SOL     OW31258   0.880   3.369   3.846
10120SOL    HW131259   0.850   3.275   3.865
10120SOL    HW231260   0.960   3.367   3.787
10121SOL     OW31261   6.487   4.829   4.965
10121SOL    HW131262   6.473   4.733   4.942
10121SOL    HW231263   6.520   4.837   5.059
10122SOL     OW31264   5.096   2.806   7.023
10122SOL    HW131265   5.135   2.886   6.978
10122SOL    HW231266   4.998   2.802   7.005
10123SOL     OW31267   0.576   5.968   0.882
10123SOL    HW131268   0.617   5.913   0.954
10123SOL    HW231269   0.532   5.908   0.815
10124SOL     OW31270   2.865   4.314   0.114
10124SOL    HW131271   2.821   4.229   0.082
10124SOL    HW231272   2.808   4.392   0.088
10125SOL     OW31273   1.988   0.902   3.085
10125SOL    HW131274   2.071   0.882   3.032
10125SOL    HW231275   1.942   0.816   3.107
10126SOL     OW31276   6.376   5.618   6.964
10126SOL    HW131277   6.421   5.610   0.029
10126SOL    HW231278   6.358   5.714   6.944
10127SOL     OW31279   3.228   5.474   5.559
10127SOL    HW131280   3.206   5.546   5.492
10127SOL    HW231281   3.183   5.389   5.532
10128SOL     OW31282   6.967   1.354   0.905
10128SOL    HW131283   7.019   1.323   0.825
10128SOL    HW231284   7.006   1.313   0.988
10129SOL     OW31285   5.165   2.708   4.005
10129SOL    HW131286   5.130   2.630   3.952
10129SOL    HW231287   5.144   2.694   4.102
10130SOL     OW31288   1.036   5.605   3.010
10130SOL    HW131289   1.062   5.579   3.103
10130SOL    HW231290   1.106   5.664   2.972
10131SOL     OW31291   0.846   1.833   2.341
10131SOL    HW131292   0.820   1.774   2.265
10131SOL    HW231293   0.768   1.844   2.403
10132SOL     OW31294   3.658   6.701   3.009
10132SOL    HW131295   3.597   6.684   3.086
10132SOL    HW231296   3.651   6.797   2.981
10133SOL     OW31297   4.245   6.218   3.351
10133SOL    HW131298   4.207   6.298   3.304
10133SOL    HW231299   4.315   6.248   3.416
10134SOL     OW31300   6.152   1.162   3.373
10134SOL    HW131301   6.115   1.248   3.409
10134SOL    HW231302   6.210   1.119   3.442
10135SOL     OW31303   4.899   3.831   2.750
10135SOL    HW131304   4.870   3.876   2.666
10135SOL    HW231305   4.852   3.743   2.759
10136SOL     OW31306   5.955   6.955   3.448
10136SOL    HW131307   5.929   6.991   3.537
10136SOL    HW231308   6.052   6.929   3.450
10137SOL     OW31309   6.566   5.537   4.569
10137SOL    HW131310   6.626   5.470   4.524
10137SOL    HW231311   6.612   5.625   4.575
10138SOL     OW31312   5.642   2.362   0.530
10138SOL    HW131313   5.585   2.364   0.448
10138SOL    HW231314   5.621   2.440   0.588
10139SOL     OW31315   3.955   3.083   2.894
10139SOL    HW131316   3.926   3.076   2.798
10139SOL    HW231317   3.892   3.031   2.951
10140SOL     OW31318   6.099   5.853   6.772
10140SOL    HW131319   6.179   5.872   6.828
10140SOL    HW231320   6.127   5.812   6.686
10141SOL     OW31321   2.545   2.093   4.689
10141SOL    HW131322   2.507   2.183   4.709
10141SOL    HW231323   2.645   2.098   4.689
10142SOL     OW31324   4.622   6.624   5.168
10142SOL    HW131325   4.551   6.694   5.178
10142SOL    HW231326   4.696   6.642   5.234
10143SOL     OW31327   4.475   0.169   1.286
10143SOL    HW131328   4.399   0.222   1.325
10143SOL    HW231329   4.489   0.086   1.339
10144SOL     OW31330   3.608   5.690   5.631
10144SOL    HW131331   3.577   5.604   5.671
10144SOL    HW231332   3.533   5.731   5.578
10145SOL     OW31333   2.744   6.299   6.088
10145SOL    HW131334   2.774   6.284   5.994
10145SOL    HW231335   2.771   6.220   6.144
10146SOL     OW31336   3.532   5.309   4.705
10146SOL    HW131337   3.459   5.241   4.701
10146SOL    HW231338   3.594   5.285   4.780
10147SOL     OW31339   4.740   4.406   4.311
10147SOL    HW131340   4.720   4.455   4.226
10147SOL    HW231341   4.689   4.447   4.386
10148SOL     OW31342   5.976   5.869   0.532
10148SOL    HW131343   6.063   5.895   0.489
10148SOL    HW231344   5.926   5.807   0.471
10149SOL     OW31345   4.669   1.575   0.497
10149SOL    HW131346   4.677   1.476   0.504
10149SOL    HW231347   4.759   1.617   0.504
10150SOL     OW31348   4.637   3.977   0.841
10150SOL    HW131349   4.706   3.996   0.911
10150SOL    HW231350   4.664   3.897   0.787
10151SOL     OW31351   1.289   6.942   6.783
10151SOL    HW131352   1.263   6.968   6.690
10151SOL    HW231353   1.387   6.923   6.786
10152SOL     OW31354   1.560   4.979   4.247
10152SOL    HW131355   1.541   4.962   4.151
10152SOL    HW231356   1.480   5.020   4.291
10153SOL     OW31357   4.515   5.937   3.608
10153SOL    HW131358   4.611   5.962   3.597
10153SOL    HW231359   4.463   6.018   3.637
10154SOL     OW31360   6.447   6.320   6.010
10154SOL    HW131361   6.517   6.382   6.046
10154SOL    HW231362   6.491   6.244   5.962
10155SOL     OW31363   3.991   0.948   6.053
10155SOL    HW131364   4.030   0.859   6.029
10155SOL    HW231365   3.898   0.955   6.016
10156SOL     OW31366   5.685   0.032   2.430
10156SOL    HW131367   5.706   7.015   2.341
10156SOL    HW231368   5.756   0.099   2.453
10157SOL     OW31369   5.757   1.896   5.719
10157SOL    HW131370   5.852   1.924   5.708
10157SOL    HW231371   5.713   1.891   5.629
10158SOL     OW31372   4.951   3.958   6.849
10158SOL    HW131373   5.012   3.976   6.926
10158SOL    HW231374   4.996   3.896   6.784
10159SOL     OW31375   2.718   3.036   6.058
10159SOL    HW131376   2.808   3.043   6.100
10159SOL    HW231377   2.727   2.996   5.967
10160SOL     OW31378   0.855   4.380   2.788
10160SOL    HW131379   0.885   4.399   2.694
10160SOL    HW231380   0.763   4.415   2.802
10161SOL     OW31381   3.448   4.833   0.645
10161SOL    HW131382   3.461   4.777   0.726
10161SOL    HW231383   3.428   4.927   0.673
10162SOL     OW31384   2.504   3.716   0.072
10162SOL    HW131385   2.438   3.647   0.042
10162SOL    HW231386   2.597   3.683   0.053
10163SOL     OW31387   5.941   4.304   6.418
10163SOL    HW131388   6.036   4.276   6.429
10163SOL    HW231389   5.882   4.224   6.426
10164SOL     OW31390   6.507   3.077   4.958
10164SOL    HW131391   6.513   3.060   5.057
10164SOL    HW231392   6.447   3.156   4.942
10165SOL     OW31393   1.142   1.985   4.590
10165SOL    HW131394   1.156   2.075   4.631
10165SOL    HW231395   1.141   1.993   4.490
10166SOL     OW31396   3.560   0.903   1.961
10166SOL    HW131397   3.557   0.874   1.866
10166SOL    HW231398   3.498   0.845   2.015
10167SOL     OW31399   5.550   0.936   6.428
10167SOL    HW131400   5.475   0.906   6.487
10167SOL    HW231401   5.520   1.014   6.373
10168SOL     OW31402   6.480   3.747   5.140
10168SOL    HW131403   6.527   3.750   5.228
10168SOL    HW231404   6.548   3.739   5.067
10169SOL     OW31405   6.770   4.379   3.151
10169SOL    HW131406   6.850   4.396   3.092
10169SOL    HW231407   6.688   4.413   3.105
10170SOL     OW31408   0.864   4.323   5.771
10170SOL    HW131409   0.918   4.399   5.733
10170SOL    HW231410   0.926   4.250   5.799
10171SOL     OW31411   6.646   3.783   6.266
10171SOL    HW131412   6.728   3.753   6.217
10171SOL    HW231413   6.626   3.720   6.341
10172SOL     OW31414   5.990   0.520   2.886
10172SOL    HW131415   6.068   0.495   2.943
10172SOL    HW231416   6.006   0.488   2.792
10173SOL     OW31417   1.650   2.614   1.109
10173SOL    HW131418   1.743   2.580   1.118
10173SOL    HW231419   1.651   2.714   1.104
10174SOL     OW31420   5.584   4.676   2.951
10174SOL    HW131421   5.571   4.593   2.898
10174SOL    HW231422   5.633   4.743   2.896
10175SOL     OW31423   6.504   2.710   4.275
10175SOL    HW131424   6.464   2.777   4.338
10175SOL    HW231425   6.431   2.664   4.224
10176SOL     OW31426   1.298   3.207   5.805
10176SOL    HW131427   1.238   3.228   5.882
10176SOL    HW231428   1.252   3.144   5.743
10177SOL     OW31429   2.911   0.251   0.319
10177SOL    HW131430   2.992   0.264   0.376
10177SOL    HW231431   2.855   0.177   0.356
10178SOL     OW31432   6.345   3.060   4.544
10178SOL    HW131433   6.304   3.089   4.458
10178SOL    HW231434   6.273   3.049   4.613
10179SOL     OW31435   0.744   2.170   6.105
10179SOL    HW131436   0.812   2.217   6.162
10179SOL    HW231437   0.674   2.130   6.164
10180SOL     OW31438   2.929   5.124   6.093
10180SOL    HW131439   2.854   5.065   6.122
10180SOL    HW231440   2.948   5.107   5.996
10181SOL     OW31441   5.284   3.538   2.246
10181SOL    HW131442   5.233   3.605   2.192
10181SOL    HW231443   5.382   3.552   2.233
10182SOL     OW31444   5.607   1.431   1.523
10182SOL    HW131445   5.681   1.411   1.586
10182SOL    HW231446   5.572   1.523   1.539
10183SOL     OW31447   1.450   2.241   6.803
10183SOL    HW131448   1.483   2.225   6.710
10183SOL    HW231449   1.353   2.216   6.808
10184SOL     OW31450   4.530   1.918   6.072
10184SOL    HW131451   4.520   1.818   6.068
10184SOL    HW231452   4.575   1.943   6.157
10185SOL     OW31453   4.786   6.495   0.910
10185SOL    HW131454   4.746   6.424   0.852
10185SOL    HW231455   4.733   6.579   0.902
10186SOL     OW31456   5.941   3.250   3.596
10186SOL    HW131457   5.987   3.292   3.518
10186SOL    HW231458   5.843   3.245   3.578
10187SOL     OW31459   0.749   1.658   2.128
10187SOL    HW131460   0.737   1.564   2.097
10187SOL    HW231461   0.795   1.711   2.056
10188SOL     OW31462   3.904   6.329   0.063
10188SOL    HW131463   3.914   6.422   0.028
10188SOL    HW231464   3.873   6.268   7.014
10189SOL     OW31465   2.556   0.292   5.724
10189SOL    HW131466   2.589   0.218   5.783
10189SOL    HW231467   2.604   0.288   5.637
10190SOL     OW31468   4.810   2.238   1.338
10190SOL    HW131469   4.895   2.264   1.385
10190SOL    HW231470   4.815   2.267   1.242
10191SOL     OW31471   5.025   4.584   6.956
10191SOL    HW131472   4.963   4.593   6.878
10191SOL    HW231473   5.034   4.487   6.980
10192SOL     OW31474   4.165   0.644   4.932
10192SOL    HW131475   4.164   0.556   4.981
10192SOL    HW231476   4.200   0.630   4.840
10193SOL     OW31477   4.216   3.910   1.611
10193SOL    HW131478   4.168   3.839   1.663
10193SOL    HW231479   4.221   3.882   1.515
10194SOL     OW31480   6.025   4.472   4.815
10194SOL    HW131481   5.965   4.494   4.892
10194SOL    HW231482   6.025   4.548   4.751
10195SOL     OW31483   5.818   4.375   1.197
10195SOL    HW131484   5.874   4.457   1.192
10195SOL    HW231485   5.789   4.360   1.292
10196SOL     OW31486   5.953   1.707   4.358
10196SOL    HW131487   5.874   1.662   4.316
10196SOL    HW231488   5.967   1.796   4.316
10197SOL     OW31489   0.061   1.509   4.824
10197SOL    HW131490   0.068   1.530   4.727
10197SOL    HW231491   6.998   1.463   4.842
10198SOL     OW31492   4.059   0.757   2.399
10198SOL    HW131493   4.058   0.741   2.300
10198SOL    HW231494   3.977   0.716   2.440
10199SOL     OW31495   1.376   2.304   6.110
10199SOL    HW131496   1.314   2.247   6.056
10199SOL    HW231497   1.341   2.397   6.113
10200SOL     OW31498   4.929   2.481   1.079
10200SOL    HW131499   4.987   2.553   1.042
10200SOL    HW231500   4.874   2.519   1.154
10201SOL     OW31501   1.009   4.408   0.526
10201SOL    HW131502   1.078   4.459   0.577
10201SOL    HW231503   0.920   4.418   0.571
10202SOL     OW31504   4.212   1.919   5.766
10202SOL    HW131505   4.138   1.985   5.751
10202SOL    HW231506   4.299   1.968   5.775
10203SOL     OW31507   5.116   2.713   4.647
10203SOL    HW131508   5.182   2.665   4.705
10203SOL    HW231509   5.159   2.735   4.560
10204SOL     OW31510   5.044   6.508   6.972
10204SOL    HW131511   4.959   6.455   6.961
10204SOL    HW231512   5.119   6.460   6.927
10205SOL     OW31513   0.388   1.600   0.223
10205SOL    HW131514   0.449   1.672   0.257
10205SOL    HW231515   0.374   1.533   0.295
10206SOL     OW31516   0.886   1.327   5.884
10206SOL    HW131517   0.881   1.245   5.827
10206SOL    HW231518   0.921   1.403   5.830
10207SOL     OW31519   1.420   1.538   6.262
10207SOL    HW131520   1.397   1.542   6.360
10207SOL    HW231521   1.351   1.588   6.210
10208SOL     OW31522   5.349   5.526   4.685
10208SOL    HW131523   5.294   5.475   4.618
10208SOL    HW231524   5.363   5.469   4.766
10209SOL     OW31525   6.847   0.413   6.024
10209SOL    HW131526   6.926   0.459   6.064
10209SOL    HW231527   6.871   0.317   6.005
10210SOL     OW31528   4.641   6.316   1.558
10210SOL    HW131529   4.601   6.408   1.553
10210SOL    HW231530   4.584   6.252   1.507
10211SOL     OW31531   3.692   6.464   5.113
10211SOL    HW131532   3.678   6.379   5.062
10211SOL    HW231533   3.699   6.540   5.048
10212SOL     OW31534   0.809   0.255   5.483
10212SOL    HW131535   0.880   0.249   5.553
10212SOL    HW231536   0.821   0.181   5.418
10213SOL     OW31537   5.144   2.650   0.524
10213SOL    HW131538   5.179   2.595   0.448
10213SOL    HW231539   5.045   2.637   0.532
10214SOL     OW31540   1.247   2.372   1.495
10214SOL    HW131541   1.291   2.355   1.407
10214SOL    HW231542   1.233   2.470   1.508
10215SOL     OW31543   4.007   3.876   2.421
10215SOL    HW131544   3.929   3.890   2.482
10215SOL    HW231545   4.069   3.955   2.427
10216SOL     OW31546   6.155   0.486   1.924
10216SOL    HW131547   6.069   0.438   1.936
10216SOL    HW231548   6.231   0.424   1.946
10217SOL     OW31549   3.095   0.628   3.751
10217SOL    HW131550   3.005   0.605   3.789
10217SOL    HW231551   3.091   0.718   3.707
10218SOL     OW31552   1.197   2.697   2.421
10218SOL    HW131553   1.196   2.651   2.333
10218SOL    HW231554   1.234   2.636   2.491
10219SOL     OW31555   0.537   1.239   1.946
10219SOL    HW131556   0.537   1.184   2.029
10219SOL    HW231557   0.535   1.336   1.970
10220SOL     OW31558   3.577   2.820   1.112
10220SOL    HW131559   3.621   2.764   1.041
10220SOL    HW231560   3.603   2.785   1.202
10221SOL     OW31561   0.487   6.079   3.035
10221SOL    HW131562   0.580   6.114   3.036
10221SOL    HW231563   0.429   6.138   3.092
10222SOL     OW31564   2.888   3.791   4.632
10222SOL    HW131565   2.876   3.691   4.631
10222SOL    HW231566   2.912   3.820   4.724
10223SOL     OW31567   0.739   5.702   1.020
10223SOL    HW131568   0.671   5.638   1.057
10223SOL    HW231569   0.747   5.688   0.921
10224SOL     OW31570   6.230   3.765   3.481
10224SOL    HW131571   6.190   3.706   3.552
10224SOL    HW231572   6.304   3.716   3.435
10225SOL     OW31573   1.425   3.595   5.729
10225SOL    HW131574   1.380   3.512   5.697
10225SOL    HW231575   1.358   3.669   5.734
10226SOL     OW31576   3.772   2.257   6.804
10226SOL    HW131577   3.693   2.286   6.751
10226SOL    HW231578   3.798   2.330   6.867
10227SOL     OW31579   5.402   3.859   0.865
10227SOL    HW131580   5.360   3.947   0.843
10227SOL    HW231581   5.331   3.789   0.874
10228SOL     OW31582   5.626   1.212   0.600
10228SOL    HW131583   5.568   1.131   0.586
10228SOL    HW231584   5.568   1.294   0.606
10229SOL     OW31585   0.430   3.282   5.151
10229SOL    HW131586   0.338   3.281   5.190
10229SOL    HW231587   0.469   3.190   5.155
10230SOL     OW31588   6.440   5.451   2.468
10230SOL    HW131589   6.451   5.465   2.566
10230SOL    HW231590   6.509   5.504   2.419
10231SOL     OW31591   1.808   6.694   3.261
10231SOL    HW131592   1.866   6.640   3.201
10231SOL    HW231593   1.808   6.654   3.353
10232SOL     OW31594   4.192   0.039   2.656
10232SOL    HW131595   4.159   0.036   2.751
10232SOL    HW231596   4.251   6.983   2.640
10233SOL     OW31597   3.859   4.383   6.222
10233SOL    HW131598   3.799   4.303   6.210
10233SOL    HW231599   3.812   4.465   6.189
10234SOL     OW31600   6.978   0.466   1.556
10234SOL    HW131601   0.042   0.503   1.526
10234SOL    HW231602   6.929   0.428   1.477
10235SOL     OW31603   0.849   1.279   3.229
10235SOL    HW131604   0.871   1.371   3.262
10235SOL    HW231605   0.931   1.237   3.191
10236SOL     OW31606   2.215   0.143   0.746
10236SOL    HW131607   2.164   0.139   0.832
10236SOL    HW231608   2.309   0.173   0.764
10237SOL     OW31609   0.319   3.481   6.900
10237SOL    HW131610   0.247   3.487   6.831
10237SOL    HW231611   0.403   3.521   6.864
10238SOL     OW31612   3.645   5.246   0.664
10238SOL    HW131613   3.607   5.290   0.582
10238SOL    HW231614   3.704   5.310   0.712
10239SOL     OW31615   1.371   2.886   4.746
10239SOL    HW131616   1.445   2.953   4.738
10239SOL    HW231617   1.285   2.934   4.765
10240SOL     OW31618   2.338   0.429   1.472
10240SOL    HW131619   2.252   0.460   1.514
10240SOL    HW231620   2.319   0.352   1.411
10241SOL     OW31621   4.421   2.298   1.561
10241SOL    HW131622   4.350   2.364   1.587
10241SOL    HW231623   4.503   2.315   1.617
10242SOL     OW31624   0.145   2.302   0.728
10242SOL    HW131625   0.172   2.322   0.634
10242SOL    HW231626   0.046   2.307   0.736
10243SOL     OW31627   2.566   4.623   0.518
10243SOL    HW131628   2.479   4.574   0.516
10243SOL    HW231629   2.642   4.557   0.517
10244SOL     OW31630   2.123   4.303   1.503
10244SOL    HW131631   2.177   4.226   1.538
10244SOL    HW231632   2.130   4.307   1.404
10245SOL     OW31633   3.660   4.109   0.605
10245SOL    HW131634   3.720   4.054   0.663
10245SOL    HW231635   3.617   4.181   0.659
10246SOL     OW31636   3.443   2.956   4.324
10246SOL    HW131637   3.383   2.934   4.402
10246SOL    HW231638   3.509   3.025   4.352
10247SOL     OW31639   0.859   4.050   4.556
10247SOL    HW131640   0.897   3.994   4.630
10247SOL    HW231641   0.922   4.050   4.478
10248SOL     OW31642   1.443   0.280   3.600
10248SOL    HW131643   1.479   0.372   3.616
10248SOL    HW231644   1.426   0.235   3.688
10249SOL     OW31645   1.961   4.767   6.952
10249SOL    HW131646   1.879   4.823   6.966
10249SOL    HW231647   2.028   4.820   6.899
10250SOL     OW31648   5.294   2.956   6.783
10250SOL    HW131649   5.303   3.004   6.696
10250SOL    HW231650   5.293   2.857   6.766
10251SOL     OW31651   1.468   0.475   4.264
10251SOL    HW131652   1.555   0.428   4.254
10251SOL    HW231653   1.397   0.409   4.289
10252SOL     OW31654   4.856   4.137   5.670
10252SOL    HW131655   4.934   4.192   5.697
10252SOL    HW231656   4.791   4.130   5.746
10253SOL     OW31657   4.089   6.749   0.031
10253SOL    HW131658   4.102   6.847   0.048
10253SOL    HW231659   4.179   6.704   0.027
10254SOL     OW31660   5.744   1.761   4.731
10254SOL    HW131661   5.706   1.694   4.667
10254SOL    HW231662   5.802   1.825   4.681
10255SOL     OW31663   3.366   5.551   1.555
10255SOL    HW131664   3.455   5.506   1.548
10255SOL    HW231665   3.296   5.494   1.515
10256SOL     OW31666   4.988   0.996   2.135
10256SOL    HW131667   5.041   1.080   2.130
10256SOL    HW231668   4.907   1.011   2.191
10257SOL     OW31669   2.549   4.944   2.710
10257SOL    HW131670   2.644   4.954   2.680
10257SOL    HW231671   2.518   4.851   2.691
10258SOL     OW31672   2.498   2.147   2.446
10258SOL    HW131673   2.449   2.184   2.368
10258SOL    HW231674   2.433   2.127   2.520
10259SOL     OW31675   0.644   4.323   4.114
10259SOL    HW131676   0.717   4.344   4.179
10259SOL    HW231677   0.635   4.224   4.104
10260SOL     OW31678   1.171   1.140   3.380
10260SOL    HW131679   1.199   1.124   3.474
10260SOL    HW231680   1.119   1.226   3.374
10261SOL     OW31681   7.004   3.990   0.699
10261SOL    HW131682   6.921   3.942   0.670
10261SOL    HW231683   0.038   4.007   0.619
10262SOL     OW31684   3.788   1.330   6.703
10262SOL    HW131685   3.832   1.294   6.785
10262SOL    HW231686   3.702   1.283   6.688
10263SOL     OW31687   6.064   1.041   1.601
10263SOL    HW131688   6.080   1.023   1.504
10263SOL    HW231689   5.970   1.016   1.624
10264SOL     OW31690   6.028   5.086   6.751
10264SOL    HW131691   5.960   5.088   6.677
10264SOL    HW231692   6.026   5.173   6.800
10265SOL     OW31693   2.170   2.384   7.005
10265SOL    HW131694   2.205   2.421   0.067
10265SOL    HW231695   2.245   2.342   6.953
10266SOL     OW31696   3.123   3.078   2.905
10266SOL    HW131697   3.079   3.150   2.960
10266SOL    HW231698   3.204   3.045   2.953
10267SOL     OW31699   5.813   0.758   0.567
10267SOL    HW131700   5.840   0.830   0.631
10267SOL    HW231701   5.735   0.708   0.605
10268SOL     OW31702   5.131   6.863   1.042
10268SOL    HW131703   5.109   6.868   1.140
10268SOL    HW231704   5.200   6.793   1.028
10269SOL     OW31705   2.016   2.297   6.421
10269SOL    HW131706   2.013   2.394   6.399
10269SOL    HW231707   2.050   2.285   6.514
10270SOL     OW31708   3.432   6.238   2.165
10270SOL    HW131709   3.366   6.220   2.091
10270SOL    HW231710   3.395   6.306   2.227
10271SOL     OW31711   2.462   2.124   0.598
10271SOL    HW131712   2.466   2.095   0.502
10271SOL    HW231713   2.464   2.043   0.657
10272SOL     OW31714   6.618   0.745   4.306
10272SOL    HW131715   6.559   0.784   4.376
10272SOL    HW231716   6.713   0.750   4.335
10273SOL     OW31717   2.708   5.042   4.032
10273SOL    HW131718   2.715   4.967   4.098
10273SOL    HW231719   2.736   5.008   3.942
10274SOL     OW31720   0.117   4.942   5.490
10274SOL    HW131721   0.112   4.846   5.518
10274SOL    HW231722   0.190   4.988   5.541
10275SOL     OW31723   0.629   0.532   2.982
10275SOL    HW131724   0.593   0.439   2.987
10275SOL    HW231725   0.619   0.568   2.889
10276SOL     OW31726   4.842   5.774   5.537
10276SOL    HW131727   4.909   5.759   5.465
10276SOL    HW231728   4.754   5.799   5.496
10277SOL     OW31729   1.159   6.592   4.207
10277SOL    HW131730   1.206   6.543   4.281
10277SOL    HW231731   1.227   6.630   4.144
10278SOL     OW31732   0.525   0.565   5.333
10278SOL    HW131733   0.553   0.518   5.417
10278SOL    HW231734   0.606   0.600   5.286
10279SOL     OW31735   2.329   5.308   4.231
10279SOL    HW131736   2.368   5.322   4.323
10279SOL    HW231737   2.298   5.214   4.222
10280SOL     OW31738   5.201   3.678   0.796
10280SOL    HW131739   5.142   3.758   0.783
10280SOL    HW231740   5.149   3.605   0.839
10281SOL     OW31741   6.335   2.009   3.287
10281SOL    HW131742   6.284   1.933   3.327
10281SOL    HW231743   6.280   2.054   3.217
10282SOL     OW31744   5.014   3.302   2.686
10282SOL    HW131745   4.941   3.370   2.692
10282SOL    HW231746   5.004   3.249   2.602
10283SOL     OW31747   0.537   4.113   1.118
10283SOL    HW131748   0.555   4.156   1.030
10283SOL    HW231749   0.470   4.039   1.106
10284SOL     OW31750   0.135   2.433   3.894
10284SOL    HW131751   0.071   2.357   3.910
10284SOL    HW231752   0.228   2.400   3.907
10285SOL     OW31753   4.462   6.313   3.504
10285SOL    HW131754   4.557   6.283   3.514
10285SOL    HW231755   4.460   6.412   3.490
10286SOL     OW31756   3.562   1.378   4.121
10286SOL    HW131757   3.539   1.472   4.146
10286SOL    HW231758   3.499   1.315   4.166
10287SOL     OW31759   1.949   5.971   2.037
10287SOL    HW131760   1.997   6.007   2.117
10287SOL    HW231761   1.926   5.875   2.052
10288SOL     OW31762   3.666   0.181   5.098
10288SOL    HW131763   3.654   0.271   5.139
10288SOL    HW231764   3.650   0.110   5.167
10289SOL     OW31765   3.044   6.613   0.725
10289SOL    HW131766   3.077   6.663   0.805
10289SOL    HW231767   3.122   6.582   0.671
10290SOL     OW31768   3.083   3.008   2.625
10290SOL    HW131769   3.094   3.030   2.722
10290SOL    HW231770   3.106   2.912   2.610
10291SOL     OW31771   3.352   0.775   2.569
10291SOL    HW131772   3.382   0.861   2.528
10291SOL    HW231773   3.252   0.771   2.568
10292SOL     OW31774   6.665   0.688   6.362
10292SOL    HW131775   6.575   0.731   6.349
10292SOL    HW231776   6.667   0.600   6.315
10293SOL     OW31777   0.737   3.916   3.721
10293SOL    HW131778   0.824   3.894   3.677
10293SOL    HW231779   0.737   3.881   3.814
10294SOL     OW31780   3.171   1.835   2.761
10294SOL    HW131781   3.089   1.859   2.709
10294SOL    HW231782   3.178   1.735   2.769
10295SOL     OW31783   1.183   2.599   6.786
10295SOL    HW131784   1.215   2.526   6.848
10295SOL    HW231785   1.213   2.579   6.693
10296SOL     OW31786   5.833   0.380   5.876
10296SOL    HW131787   5.794   0.466   5.910
10296SOL    HW231788   5.774   0.342   5.806
10297SOL     OW31789   2.970   2.091   6.429
10297SOL    HW131790   2.999   2.050   6.343
10297SOL    HW231791   3.021   2.050   6.505
10298SOL     OW31792   1.073   3.438   2.422
10298SOL    HW131793   1.018   3.502   2.475
10298SOL    HW231794   1.016   3.394   2.353
10299SOL     OW31795   4.957   6.493   2.546
10299SOL    HW131796   4.877   6.540   2.583
10299SOL    HW231797   4.931   6.400   2.521
10300SOL     OW31798   0.906   3.896   2.167
10300SOL    HW131799   0.986   3.836   2.160
10300SOL    HW231800   0.894   3.944   2.080
10301SOL     OW31801   4.198   1.244   5.968
10301SOL    HW131802   4.287   1.243   6.013
10301SOL    HW231803   4.128   1.272   6.034
10302SOL     OW31804   2.748   6.096   4.170
10302SOL    HW131805   2.720   6.191   4.185
10302SOL    HW231806   2.815   6.069   4.239
10303SOL     OW31807   1.065   6.264   3.814
10303SOL    HW131808   1.022   6.334   3.756
10303SOL    HW231809   0.998   6.193   3.835
10304SOL     OW31810   6.674   6.980   0.106
10304SOL    HW131811   6.632   6.904   0.057
10304SOL    HW231812   6.620   0.040   0.091
10305SOL     OW31813   2.660   3.744   6.033
10305SOL    HW131814   2.601   3.825   6.038
10305SOL    HW231815   2.607   3.665   6.004
10306SOL     OW31816   5.705   0.312   0.787
10306SOL    HW131817   5.621   0.366   0.786
10306SOL    HW231818   5.729   0.290   0.882
10307SOL     OW31819   2.710   1.036   4.590
10307SOL    HW131820   2.671   1.067   4.676
10307SOL    HW231821   2.728   0.938   4.594
10308SOL     OW31822   2.386   4.290   2.791
10308SOL    HW131823   2.423   4.265   2.701
10308SOL    HW231824   2.309   4.229   2.813
10309SOL     OW31825   6.172   0.476   5.396
10309SOL    HW131826   6.157   0.377   5.395
10309SOL    HW231827   6.161   0.511   5.489
10310SOL     OW31828   2.450   3.393   0.100
10310SOL    HW131829   2.482   3.420   0.190
10310SOL    HW231830   2.516   3.330   0.058
10311SOL     OW31831   5.630   5.748   6.770
10311SOL    HW131832   5.568   5.798   6.831
10311SOL    HW231833   5.577   5.688   6.710
10312SOL     OW31834   4.577   0.392   2.122
10312SOL    HW131835   4.618   0.309   2.159
10312SOL    HW231836   4.523   0.437   2.193
10313SOL     OW31837   4.424   5.612   2.833
10313SOL    HW131838   4.336   5.659   2.845
10313SOL    HW231839   4.439   5.550   2.910
10314SOL     OW31840   0.476   0.266   6.787
10314SOL    HW131841   0.492   0.346   6.729
10314SOL    HW231842   0.563   0.228   6.817
10315SOL     OW31843   5.041   6.530   3.920
10315SOL    HW131844   5.079   6.438   3.910
10315SOL    HW231845   5.113   6.598   3.909
10316SOL     OW31846   6.231   1.779   6.361
10316SOL    HW131847   6.171   1.808   6.286
10316SOL    HW231848   6.243   1.855   6.425
10317SOL     OW31849   3.782   6.026   6.245
10317SOL    HW131850   3.834   5.989   6.323
10317SOL    HW231851   3.712   5.961   6.218
10318SOL     OW31852   5.551   6.997   6.966
10318SOL    HW131853   5.570   0.009   0.034
10318SOL    HW231854   5.466   0.014   6.932
10319SOL     OW31855   0.239   4.948   4.886
10319SOL    HW131856   0.194   5.022   4.837
10319SOL    HW231857   0.302   4.986   4.953
10320SOL     OW31858   0.069   0.459   3.562
10320SOL    HW131859   0.034   0.535   3.617
10320SOL    HW231860   0.046   0.372   3.606
10321SOL     OW31861   5.688   2.045   2.028
10321SOL    HW131862   5.770   2.015   2.078
10321SOL    HW231863   5.630   1.967   2.009
10322SOL     OW31864   4.601   4.518   4.513
10322SOL    HW131865   4.516   4.540   4.562
10322SOL    HW231866   4.659   4.599   4.509
10323SOL     OW31867   5.830   4.179   5.374
10323SOL    HW131868   5.837   4.245   5.449
10323SOL    HW231869   5.874   4.216   5.292
10324SOL     OW31870   2.897   3.557   2.245
10324SOL    HW131871   2.970   3.494   2.221
10324SOL    HW231872   2.833   3.565   2.168
10325SOL     OW31873   0.454   5.709   2.272
10325SOL    HW131874   0.356   5.714   2.252
10325SOL    HW231875   0.468   5.705   2.371
10326SOL     OW31876   5.233   3.585   6.624
10326SOL    HW131877   5.240   3.581   6.525
10326SOL    HW231878   5.310   3.536   6.665
10327SOL     OW31879   2.515   3.708   1.012
10327SOL    HW131880   2.532   3.617   0.975
10327SOL    HW231881   2.603   3.752   1.033
10328SOL     OW31882   6.595   3.224   2.301
10328SOL    HW131883   6.587   3.282   2.221
10328SOL    HW231884   6.511   3.230   2.355
10329SOL     OW31885   2.953   0.816   3.015
10329SOL    HW131886   3.025   0.768   2.966
10329SOL    HW231887   2.954   0.788   3.112
10330SOL     OW31888   4.756   0.583   0.635
10330SOL    HW131889   4.714   0.554   0.721
10330SOL    HW231890   4.760   0.506   0.572
10331SOL     OW31891   6.190   6.641   6.753
10331SOL    HW131892   6.238   6.702   6.815
10331SOL    HW231893   6.121   6.693   6.702
10332SOL     OW31894   0.794   1.032   0.024
10332SOL    HW131895   0.802   1.090   0.105
10332SOL    HW231896   0.778   1.090   6.967
10333SOL     OW31897   0.652   5.674   4.319
10333SOL    HW131898   0.594   5.632   4.389
10333SOL    HW231899   0.595   5.713   4.247
10334SOL     OW31900   3.354   6.884   4.071
10334SOL    HW131901   3.267   6.933   4.072
10334SOL    HW231902   3.340   6.791   4.105
10335SOL     OW31903   0.278   4.600   6.530
10335SOL    HW131904   0.252   4.676   6.590
10335SOL    HW231905   0.359   4.625   6.476
10336SOL     OW31906   6.078   7.007   2.272
10336SOL    HW131907   6.132   6.925   2.288
10336SOL    HW231908   5.990   6.998   2.320
10337SOL     OW31909   6.163   5.307   6.941
10337SOL    HW131910   6.106   5.388   6.955
10337SOL    HW231911   6.259   5.335   6.930
10338SOL     OW31912   2.004   6.493   1.981
10338SOL    HW131913   1.998   6.519   1.885
10338SOL    HW231914   2.015   6.394   1.989
10339SOL     OW31915   6.440   3.442   6.103
10339SOL    HW131916   6.372   3.370   6.090
10339SOL    HW231917   6.418   3.520   6.044
10340SOL     OW31918   1.740   3.252   6.350
10340SOL    HW131919   1.782   3.180   6.295
10340SOL    HW231920   1.712   3.215   6.439
10341SOL     OW31921   2.113   3.218   2.455
10341SOL    HW131922   2.015   3.217   2.433
10341SOL    HW231923   2.149   3.310   2.440
10342SOL     OW31924   1.629   0.961   3.513
10342SOL    HW131925   1.568   0.910   3.453
10342SOL    HW231926   1.574   1.018   3.575
10343SOL     OW31927   2.390   5.513   0.810
10343SOL    HW131928   2.301   5.502   0.767
10343SOL    HW231929   2.379   5.518   0.909
10344SOL     OW31930   3.568   3.947   6.408
10344SOL    HW131931   3.482   3.979   6.370
10344SOL    HW231932   3.577   3.979   6.502
10345SOL     OW31933   1.153   2.701   5.399
10345SOL    HW131934   1.230   2.677   5.340
10345SOL    HW231935   1.068   2.672   5.356
10346SOL     OW31936   0.215   5.706   1.372
10346SOL    HW131937   0.248   5.630   1.427
10346SOL    HW231938   0.122   5.688   1.342
10347SOL     OW31939   4.450   1.220   3.597
10347SOL    HW131940   4.480   1.137   3.549
10347SOL    HW231941   4.504   1.298   3.566
10348SOL     OW31942   6.253   3.140   0.545
10348SOL    HW131943   6.199   3.062   0.575
10348SOL    HW231944   6.258   3.207   0.619
10349SOL     OW31945   0.763   0.118   6.654
10349SOL    HW131946   0.765   0.119   6.754
10349SOL    HW231947   0.718   0.035   6.623
10350SOL     OW31948   2.725   6.272   4.917
10350SOL    HW131949   2.748   6.370   4.910
10350SOL    HW231950   2.792   6.219   4.865
10351SOL     OW31951   4.682   5.612   5.705
10351SOL    HW131952   4.607   5.596   5.640
10351SOL    HW231953   4.739   5.687   5.672
10352SOL     OW31954   3.478   1.102   6.250
10352SOL    HW131955   3.448   1.093   6.156
10352SOL    HW231956   3.577   1.115   6.252
10353SOL     OW31957   6.795   3.160   4.550
10353SOL    HW131958   6.850   3.223   4.605
10353SOL    HW231959   6.748   3.211   4.478
10354SOL     OW31960   5.297   0.875   1.476
10354SOL    HW131961   5.339   0.852   1.564
10354SOL    HW231962   5.280   0.974   1.473
10355SOL     OW31963   2.864   6.266   2.623
10355SOL    HW131964   2.928   6.245   2.550
10355SOL    HW231965   2.913   6.307   2.700
10356SOL     OW31966   6.705   3.932   5.289
10356SOL    HW131967   6.623   3.944   5.345
10356SOL    HW231968   6.784   3.971   5.337
10357SOL     OW31969   2.218   2.652   6.686
10357SOL    HW131970   2.240   2.659   6.588
10357SOL    HW231971   2.189   2.558   6.706
10358SOL     OW31972   0.475   2.728   2.614
10358SOL    HW131973   0.384   2.687   2.625
10358SOL    HW231974   0.498   2.732   2.517
10359SOL     OW31975   0.204   1.403   1.507
10359SOL    HW131976   0.235   1.330   1.446
10359SOL    HW231977   0.239   1.491   1.474
10360SOL     OW31978   5.292   5.965   3.337
10360SOL    HW131979   5.367   5.938   3.277
10360SOL    HW231980   5.273   5.892   3.402
10361SOL     OW31981   3.245   5.836   2.499
10361SOL    HW131982   3.169   5.899   2.482
10361SOL    HW231983   3.273   5.792   2.414
10362SOL     OW31984   2.460   4.827   4.687
10362SOL    HW131985   2.451   4.912   4.634
10362SOL    HW231986   2.369   4.790   4.705
10363SOL     OW31987   5.231   0.637   2.726
10363SOL    HW131988   5.152   0.587   2.690
10363SOL    HW231989   5.249   0.609   2.820
10364SOL     OW31990   2.249   4.206   1.252
10364SOL    HW131991   2.184   4.134   1.226
10364SOL    HW231992   2.321   4.211   1.182
10365SOL     OW31993   4.620   5.309   0.218
10365SOL    HW131994   4.677   5.230   0.199
10365SOL    HW231995   4.630   5.375   0.144
10366SOL     OW31996   2.642   6.980   3.710
10366SOL    HW131997   2.583   6.992   3.630
10366SOL    HW231998   2.727   0.008   3.696
10367SOL     OW31999   6.100   2.678   3.140
10367SOL    HW132000   6.073   2.626   3.059
10367SOL    HW232001   6.193   2.654   3.165
10368SOL     OW32002   2.255   1.140   2.234
10368SOL    HW132003   2.334   1.130   2.174
10368SOL    HW232004   2.251   1.234   2.268
10369SOL     OW32005   3.838   2.029   0.684
10369SOL    HW132006   3.801   1.974   0.758
10369SOL    HW232007   3.826   2.126   0.705
10370SOL     OW32008   4.364   0.816   5.322
10370SOL    HW132009   4.463   0.818   5.338
10370SOL    HW232010   4.341   0.880   5.248
10371SOL     OW32011   4.712   5.779   5.229
10371SOL    HW132012   4.635   5.803   5.289
10371SOL    HW232013   4.753   5.863   5.193
10372SOL     OW32014   2.574   1.160   4.161
10372SOL    HW132015   2.674   1.156   4.173
10372SOL    HW232016   2.543   1.254   4.173
10373SOL     OW32017   0.949   6.242   4.311
10373SOL    HW132018   0.894   6.291   4.244
10373SOL    HW232019   0.949   6.145   4.290
10374SOL     OW32020   3.073   1.674   3.323
10374SOL    HW132021   3.127   1.679   3.407
10374SOL    HW232022   3.109   1.602   3.264
10375SOL     OW32023   5.493   2.063   1.070
10375SOL    HW132024   5.577   2.084   1.021
10375SOL    HW232025   5.494   2.109   1.159
10376SOL     OW32026   0.114   1.115   3.516
10376SOL    HW132027   0.141   1.019   3.522
10376SOL    HW232028   0.190   1.173   3.546
10377SOL     OW32029   0.089   0.703   4.073
10377SOL    HW132030   0.092   0.606   4.094
10377SOL    HW232031   0.152   0.752   4.134
10378SOL     OW32032   6.681   0.434   6.258
10378SOL    HW132033   6.657   0.347   6.301
10378SOL    HW232034   6.732   0.416   6.174
10379SOL     OW32035   5.332   0.437   4.755
10379SOL    HW132036   5.305   0.499   4.681
10379SOL    HW232037   5.420   0.467   4.792
10380SOL     OW32038   5.203   0.336   2.431
10380SOL    HW132039   5.280   0.280   2.461
10380SOL    HW232040   5.232   0.396   2.356
10381SOL     OW32041   4.547   5.055   5.631
10381SOL    HW132042   4.608   5.109   5.690
10381SOL    HW232043   4.535   5.103   5.544
10382SOL     OW32044   2.204   5.133   6.667
10382SOL    HW132045   2.191   5.100   6.573
10382SOL    HW232046   2.287   5.189   6.672
10383SOL     OW32047   0.630   2.265   1.468
10383SOL    HW132048   0.598   2.308   1.383
10383SOL    HW232049   0.716   2.306   1.496
10384SOL     OW32050   6.521   6.478   0.661
10384SOL    HW132051   6.496   6.383   0.675
10384SOL    HW232052   6.611   6.496   0.701
10385SOL     OW32053   6.429   1.184   6.627
10385SOL    HW132054   6.437   1.240   6.710
10385SOL    HW232055   6.484   1.102   6.637
10386SOL     OW32056   6.202   2.940   5.383
10386SOL    HW132057   6.207   2.937   5.284
10386SOL    HW232058   6.206   2.848   5.420
10387SOL     OW32059   2.041   2.783   3.002
10387SOL    HW132060   2.009   2.867   3.046
10387SOL    HW232061   1.963   2.734   2.963
10388SOL     OW32062   1.466   5.214   2.874
10388SOL    HW132063   1.528   5.272   2.822
10388SOL    HW232064   1.434   5.263   2.955
10389SOL     OW32065   0.834   4.890   3.688
10389SOL    HW132066   0.880   4.831   3.756
10389SOL    HW232067   0.840   4.848   3.598
10390SOL     OW32068   0.979   2.973   3.347
10390SOL    HW132069   0.934   3.061   3.336
10390SOL    HW232070   0.969   2.920   3.263
10391SOL     OW32071   2.298   6.386   6.437
10391SOL    HW132072   2.207   6.426   6.436
10391SOL    HW232073   2.305   6.315   6.366
10392SOL     OW32074   6.592   4.899   0.596
10392SOL    HW132075   6.517   4.933   0.653
10392SOL    HW232076   6.663   4.970   0.590
10393SOL     OW32077   1.085   1.424   4.211
10393SOL    HW132078   1.184   1.422   4.193
10393SOL    HW232079   1.056   1.334   4.243
10394SOL     OW32080   2.256   6.221   0.157
10394SOL    HW132081   2.186   6.181   0.217
10394SOL    HW232082   2.244   6.320   0.153
10395SOL     OW32083   0.280   0.815   5.019
10395SOL    HW132084   0.300   0.762   5.101
10395SOL    HW232085   0.296   0.758   4.938
10396SOL     OW32086   1.241   0.027   4.956
10396SOL    HW132087   1.295   0.035   4.872
10396SOL    HW232088   1.261   6.963   5.001
10397SOL     OW32089   3.272   1.504   3.265
10397SOL    HW132090   3.355   1.558   3.276
10397SOL    HW232091   3.256   1.451   3.348
10398SOL     OW32092   6.082   2.947   2.276
10398SOL    HW132093   6.164   2.982   2.231
10398SOL    HW232094   6.062   2.855   2.242
10399SOL     OW32095   5.407   2.611   5.271
10399SOL    HW132096   5.318   2.650   5.296
10399SOL    HW232097   5.426   2.531   5.329
10400SOL     OW32098   2.785   5.740   2.570
10400SOL    HW132099   2.881   5.729   2.594
10400SOL    HW232100   2.771   5.828   2.526
10401SOL     OW32101   0.974   5.784   1.927
10401SOL    HW132102   0.965   5.884   1.919
10401SOL    HW232103   1.026   5.762   2.010
10402SOL     OW32104   0.492   3.451   4.251
10402SOL    HW132105   0.560   3.380   4.231
10402SOL    HW232106   0.460   3.441   4.346
10403SOL     OW32107   5.452   1.020   2.105
10403SOL    HW132108   5.440   1.084   2.180
10403SOL    HW232109   5.547   0.988   2.103
10404SOL     OW32110   0.698   6.470   3.899
10404SOL    HW132111   0.775   6.461   3.963
10404SOL    HW232112   0.694   6.563   3.864
10405SOL     OW32113   1.796   6.310   5.907
10405SOL    HW132114   1.827   6.219   5.934
10405SOL    HW232115   1.713   6.302   5.852
10406SOL     OW32116   2.171   4.488   5.857
10406SOL    HW132117   2.236   4.475   5.932
10406SOL    HW232118   2.221   4.514   5.774
10407SOL     OW32119   0.614   2.197   6.769
10407SOL    HW132120   0.615   2.190   6.869
10407SOL    HW232121   0.696   2.154   6.732
10408SOL     OW32122   4.722   5.569   2.946
10408SOL    HW132123   4.800   5.528   2.898
10408SOL    HW232124   4.714   5.666   2.921
10409SOL     OW32125   6.759   4.859   2.767
10409SOL    HW132126   6.848   4.903   2.782
10409SOL    HW232127   6.693   4.927   2.737
10410SOL     OW32128   4.582   0.528   0.923
10410SOL    HW132129   4.621   0.529   1.016
10410SOL    HW232130   4.538   0.440   0.907
10411SOL     OW32131   1.972   4.599   2.701
10411SOL    HW132132   2.038   4.538   2.743
10411SOL    HW232133   2.017   4.654   2.631
10412SOL     OW32134   0.683   1.927   0.699
10412SOL    HW132135   0.741   1.946   0.620
10412SOL    HW232136   0.724   1.966   0.781
10413SOL     OW32137   6.725   2.159   6.956
10413SOL    HW132138   6.707   2.149   6.858
10413SOL    HW232139   6.754   2.253   6.976
10414SOL     OW32140   5.734   6.249   5.720
10414SOL    HW132141   5.652   6.297   5.689
10414SOL    HW232142   5.719   6.150   5.715
10415SOL     OW32143   0.471   5.958   3.421
10415SOL    HW132144   0.409   5.929   3.493
10415SOL    HW232145   0.561   5.916   3.434
10416SOL     OW32146   5.884   1.083   5.428
10416SOL    HW132147   5.922   1.175   5.416
10416SOL    HW232148   5.955   1.022   5.463
10417SOL     OW32149   3.888   4.892   4.203
10417SOL    HW132150   3.962   4.832   4.171
10417SOL    HW232151   3.814   4.891   4.135
10418SOL     OW32152   6.214   3.650   6.770
10418SOL    HW132153   6.257   3.561   6.787
10418SOL    HW232154   6.279   3.708   6.719
10419SOL     OW32155   2.856   1.186   4.436
10419SOL    HW132156   2.787   1.132   4.484
10419SOL    HW232157   2.835   1.284   4.446
10420SOL     OW32158   6.678   3.639   3.176
10420SOL    HW132159   6.686   3.735   3.150
10420SOL    HW232160   6.714   3.581   3.103
10421SOL     OW32161   1.147   4.427   4.674
10421SOL    HW132162   1.093   4.355   4.717
10421SOL    HW232163   1.091   4.508   4.660
10422SOL     OW32164   6.622   3.618   4.856
10422SOL    HW132165   6.541   3.559   4.857
10422SOL    HW232166   6.677   3.598   4.775
10423SOL     OW32167   3.064   4.963   3.920
10423SOL    HW132168   3.158   4.992   3.904
10423SOL    HW232169   3.052   4.941   4.017
10424SOL     OW32170   3.789   1.197   0.406
10424SOL    HW132171   3.768   1.198   0.503
10424SOL    HW232172   3.885   1.175   0.392
10425SOL     OW32173   1.620   1.757   0.841
10425SOL    HW132174   1.652   1.698   0.915
10425SOL    HW232175   1.520   1.753   0.837
10426SOL     OW32176   6.334   2.350   6.069
10426SOL    HW132177   6.422   2.325   6.028
10426SOL    HW232178   6.335   2.324   6.166
10427SOL     OW32179   5.663   6.696   4.227
10427SOL    HW132180   5.724   6.699   4.306
10427SOL    HW232181   5.716   6.714   4.144
10428SOL     OW32182   2.315   0.455   4.236
10428SOL    HW132183   2.352   0.440   4.145
10428SOL    HW232184   2.256   0.378   4.262
10429SOL     OW32185   1.231   2.832   2.060
10429SOL    HW132186   1.288   2.751   2.074
10429SOL    HW232187   1.275   2.892   1.993
10430SOL     OW32188   3.230   0.193   3.486
10430SOL    HW132189   3.284   0.143   3.554
10430SOL    HW232190   3.234   0.291   3.506
10431SOL     OW32191   3.532   0.303   2.964
10431SOL    HW132192   3.612   0.294   2.905
10431SOL    HW232193   3.479   0.218   2.962
10432SOL     OW32194   1.309   5.414   5.766
10432SOL    HW132195   1.334   5.328   5.811
10432SOL    HW232196   1.298   5.398   5.668
10433SOL     OW32197   2.831   0.098   2.597
10433SOL    HW132198   2.823   0.031   2.524
10433SOL    HW232199   2.766   0.077   2.670
10434SOL     OW32200   4.719   6.858   5.634
10434SOL    HW132201   4.677   6.914   5.563
10434SOL    HW232202   4.660   6.781   5.656
10435SOL     OW32203   2.264   2.124   6.634
10435SOL    HW132204   2.327   2.180   6.582
10435SOL    HW232205   2.254   2.035   6.590
10436SOL     OW32206   6.508   3.371   5.185
10436SOL    HW132207   6.567   3.389   5.263
10436SOL    HW232208   6.412   3.375   5.214
10437SOL     OW32209   5.242   6.469   4.848
10437SOL    HW132210   5.196   6.382   4.868
10437SOL    HW232211   5.235   6.488   4.750
10438SOL     OW32212   6.758   6.144   6.680
10438SOL    HW132213   6.857   6.156   6.681
10438SOL    HW232214   6.713   6.229   6.707
10439SOL     OW32215   6.889   6.583   5.564
10439SOL    HW132216   6.795   6.576   5.531
10439SOL    HW232217   6.948   6.615   5.489
10440SOL     OW32218   0.073   2.883   0.692
10440SOL    HW132219   0.111   2.793   0.673
10440SOL    HW232220   0.015   2.878   0.773
10441SOL     OW32221   4.201   1.891   0.439
10441SOL    HW132222   4.295   1.925   0.439
10441SOL    HW232223   4.141   1.960   0.397
10442SOL     OW32224   2.288   1.537   6.139
10442SOL    HW132225   2.224   1.610   6.115
10442SOL    HW232226   2.382   1.571   6.134
10443SOL     OW32227   0.458   1.453   3.213
10443SOL    HW132228   0.502   1.364   3.216
10443SOL    HW232229   0.528   1.525   3.218
10444SOL     OW32230   4.014   5.736   4.317
10444SOL    HW132231   4.042   5.719   4.222
10444SOL    HW232232   3.919   5.708   4.329
10445SOL     OW32233   1.134   3.433   2.760
10445SOL    HW132234   1.082   3.360   2.804
10445SOL    HW232235   1.073   3.489   2.704
10446SOL     OW32236   1.632   4.263   5.518
10446SOL    HW132237   1.634   4.248   5.617
10446SOL    HW232238   1.693   4.197   5.473
10447SOL     OW32239   0.300   1.993   3.044
10447SOL    HW132240   0.255   2.005   2.955
10447SOL    HW232241   0.243   1.935   3.102
10448SOL     OW32242   2.506   6.353   2.797
10448SOL    HW132243   2.469   6.425   2.738
10448SOL    HW232244   2.574   6.393   2.859
10449SOL     OW32245   3.903   5.156   4.747
10449SOL    HW132246   3.965   5.080   4.763
10449SOL    HW232247   3.936   5.209   4.669
10450SOL     OW32248   6.863   0.817   6.224
10450SOL    HW132249   6.860   0.909   6.262
10450SOL    HW232250   6.795   0.760   6.270
10451SOL     OW32251   3.093   0.667   3.215
10451SOL    HW132252   3.054   0.609   3.288
10451SOL    HW232253   3.131   0.608   3.143
10452SOL     OW32254   6.987   3.581   4.170
10452SOL    HW132255   0.045   3.550   4.218
10452SOL    HW232256   6.988   3.681   4.162
10453SOL     OW32257   3.854   5.804   3.539
10453SOL    HW132258   3.897   5.888   3.573
10453SOL    HW232259   3.866   5.731   3.606
10454SOL     OW32260   6.481   0.899   6.367
10454SOL    HW132261   6.530   0.974   6.323
10454SOL    HW232262   6.394   0.885   6.321
10455SOL     OW32263   6.423   5.725   3.671
10455SOL    HW132264   6.464   5.759   3.586
10455SOL    HW232265   6.472   5.644   3.701
10456SOL     OW32266   1.044   5.161   6.899
10456SOL    HW132267   0.967   5.176   6.836
10456SOL    HW232268   1.026   5.081   6.955
10457SOL     OW32269   3.420   2.572   6.571
10457SOL    HW132270   3.453   2.478   6.580
10457SOL    HW232271   3.494   2.635   6.595
10458SOL     OW32272   0.287   5.849   6.438
10458SOL    HW132273   0.233   5.774   6.399
10458SOL    HW232274   0.295   5.836   6.537
10459SOL     OW32275   0.018   5.201   0.435
10459SOL    HW132276   0.042   5.105   0.443
10459SOL    HW232277   0.089   5.257   0.477
10460SOL     OW32278   0.413   1.893   0.535
10460SOL    HW132279   0.322   1.877   0.573
10460SOL    HW232280   0.474   1.924   0.607
10461SOL     OW32281   6.675   5.142   5.890
10461SOL    HW132282   6.729   5.094   5.821
10461SOL    HW232283   6.604   5.197   5.844
10462SOL     OW32284   4.444   2.443   0.755
10462SOL    HW132285   4.357   2.466   0.798
10462SOL    HW232286   4.473   2.352   0.785
10463SOL     OW32287   4.651   2.940   6.184
10463SOL    HW132288   4.635   2.866   6.249
10463SOL    HW232289   4.576   2.943   6.118
10464SOL     OW32290   6.507   4.755   2.176
10464SOL    HW132291   6.414   4.764   2.211
10464SOL    HW232292   6.505   4.719   2.083
10465SOL     OW32293   5.211   4.570   1.310
10465SOL    HW132294   5.176   4.504   1.377
10465SOL    HW232295   5.279   4.525   1.252
10466SOL     OW32296   6.288   5.024   6.861
10466SOL    HW132297   6.197   5.049   6.827
10466SOL    HW232298   6.313   4.934   6.827
10467SOL     OW32299   0.962   2.888   0.143
10467SOL    HW132300   0.908   2.874   0.226
10467SOL    HW232301   0.999   2.981   0.143
10468SOL     OW32302   2.545   4.745   3.727
10468SOL    HW132303   2.534   4.650   3.755
10468SOL    HW232304   2.455   4.783   3.705
10469SOL     OW32305   6.849   1.429   4.306
10469SOL    HW132306   6.791   1.454   4.229
10469SOL    HW232307   6.937   1.475   4.298
10470SOL     OW32308   2.211   2.578   3.509
10470SOL    HW132309   2.281   2.570   3.438
10470SOL    HW232310   2.248   2.548   3.597
10471SOL     OW32311   3.246   6.722   6.855
10471SOL    HW132312   3.155   6.690   6.878
10471SOL    HW232313   3.311   6.691   6.925
10472SOL     OW32314   3.349   4.713   6.400
10472SOL    HW132315   3.310   4.775   6.333
10472SOL    HW232316   3.297   4.718   6.485
10473SOL     OW32317   5.031   5.394   0.305
10473SOL    HW132318   4.944   5.346   0.313
10473SOL    HW232319   5.017   5.492   0.317
10474SOL     OW32320   5.188   1.000   4.350
10474SOL    HW132321   5.132   0.998   4.268
10474SOL    HW232322   5.130   1.018   4.430
10475SOL     OW32323   1.527   6.621   1.086
10475SOL    HW132324   1.543   6.674   1.169
10475SOL    HW232325   1.590   6.651   1.015
10476SOL     OW32326   3.717   5.483   6.654
10476SOL    HW132327   3.748   5.460   6.746
10476SOL    HW232328   3.767   5.564   6.621
10477SOL     OW32329   6.861   5.262   3.991
10477SOL    HW132330   6.782   5.309   4.031
10477SOL    HW232331   6.857   5.269   3.892
10478SOL     OW32332   5.849   0.738   6.980
10478SOL    HW132333   5.862   0.657   6.923
10478SOL    HW232334   5.773   0.723   0.019
10479SOL     OW32335   0.844   2.185   1.846
10479SOL    HW132336   0.900   2.111   1.809
10479SOL    HW232337   0.894   2.231   1.919
10480SOL     OW32338   2.069   0.278   2.564
10480SOL    HW132339   2.075   0.276   2.464
10480SOL    HW232340   2.041   0.369   2.594
10481SOL     OW32341   0.005   1.561   2.180
10481SOL    HW132342   0.055   1.592   2.261
10481SOL    HW232343   7.021   1.461   2.182
10482SOL     OW32344   5.196   3.942   4.457
10482SOL    HW132345   5.115   3.891   4.428
10482SOL    HW232346   5.241   3.981   4.377
10483SOL     OW32347   6.061   6.151   0.210
10483SOL    HW132348   6.121   6.088   0.258
10483SOL    HW232349   6.079   6.245   0.242
10484SOL     OW32350   6.127   0.891   2.031
10484SOL    HW132351   6.074   0.962   2.077
10484SOL    HW232352   6.201   0.860   2.091
10485SOL     OW32353   5.784   3.716   5.267
10485SOL    HW132354   5.791   3.643   5.334
10485SOL    HW232355   5.804   3.679   5.176
10486SOL     OW32356   5.497   3.026   1.706
10486SOL    HW132357   5.433   2.963   1.749
10486SOL    HW232358   5.446   3.104   1.668
10487SOL     OW32359   5.762   6.736   1.786
10487SOL    HW132360   5.754   6.692   1.876
10487SOL    HW232361   5.761   6.835   1.797
10488SOL     OW32362   2.491   2.487   6.300
10488SOL    HW132363   2.497   2.414   6.369
10488SOL    HW232364   2.578   2.495   6.252
10489SOL     OW32365   0.875   6.027   6.288
10489SOL    HW132366   0.843   6.012   6.382
10489SOL    HW232367   0.834   5.958   6.228
10490SOL     OW32368   6.919   1.153   3.628
10490SOL    HW132369   7.014   1.140   3.602
10490SOL    HW232370   6.866   1.184   3.549
10491SOL     OW32371   1.448   4.286   6.123
10491SOL    HW132372   1.526   4.226   6.107
10491SOL    HW232373   1.378   4.236   6.174
10492SOL     OW32374   5.166   3.392   4.955
10492SOL    HW132375   5.101   3.455   4.913
10492SOL    HW232376   5.171   3.410   5.053
10493SOL     OW32377   3.053   1.262   1.618
10493SOL    HW132378   3.143   1.264   1.574
10493SOL    HW232379   3.064   1.265   1.717
10494SOL     OW32380   6.216   2.049   4.343
10494SOL    HW132381   6.309   2.012   4.338
10494SOL    HW232382   6.152   1.984   4.302
10495SOL     OW32383   1.423   6.538   0.427
10495SOL    HW132384   1.516   6.535   0.463
10495SOL    HW232385   1.421   6.495   0.336
10496SOL     OW32386   0.195   6.833   5.628
10496SOL    HW132387   0.249   6.827   5.543
10496SOL    HW232388   0.146   6.747   5.642
10497SOL     OW32389   1.209   1.259   0.975
10497SOL    HW132390   1.289   1.292   0.925
10497SOL    HW232391   1.215   1.160   0.987
10498SOL     OW32392   2.447   6.103   6.005
10498SOL    HW132393   2.517   6.167   5.973
10498SOL    HW232394   2.458   6.016   5.958
10499SOL     OW32395   3.412   5.746   3.170
10499SOL    HW132396   3.331   5.770   3.224
10499SOL    HW232397   3.480   5.703   3.230
10500SOL     OW32398   1.629   1.716   6.261
10500SOL    HW132399   1.606   1.785   6.193
10500SOL    HW232400   1.567   1.638   6.252
10501SOL     OW32401   1.532   3.537   2.593
10501SOL    HW132402   1.484   3.619   2.624
10501SOL    HW232403   1.488   3.500   2.512
10502SOL     OW32404   3.210   6.077   6.436
10502SOL    HW132405   3.114   6.083   6.464
10502SOL    HW232406   3.264   6.039   6.511
10503SOL     OW32407   2.874   2.803   0.203
10503SOL    HW132408   2.866   2.879   0.268
10503SOL    HW232409   2.910   2.723   0.251
10504SOL     OW32410   2.905   3.535   0.959
10504SOL    HW132411   2.949   3.476   1.027
10504SOL    HW232412   2.942   3.514   0.868
10505SOL     OW32413   6.824   5.943   1.702
10505SOL    HW132414   6.887   5.983   1.635
10505SOL    HW232415   6.741   5.914   1.655
10506SOL     OW32416   0.586   4.089   5.839
10506SOL    HW132417   0.598   4.134   5.751
10506SOL    HW232418   0.637   4.140   5.909
10507SOL     OW32419   0.899   0.251   6.288
10507SOL    HW132420   0.936   0.235   6.379
10507SOL    HW232421   0.972   0.275   6.225
10508SOL     OW32422   5.699   4.205   2.948
10508SOL    HW132423   5.711   4.211   3.047
10508SOL    HW232424   5.787   4.215   2.903
10509SOL     OW32425   1.552   6.943   6.734
10509SOL    HW132426   1.525   6.868   6.674
10509SOL    HW232427   1.652   6.946   6.741
10510SOL     OW32428   6.226   5.699   0.199
10510SOL    HW132429   6.136   5.722   0.161
10510SOL    HW232430   6.251   5.606   0.172
10511SOL     OW32431   4.395   3.131   0.370
10511SOL    HW132432   4.369   3.208   0.312
10511SOL    HW232433   4.342   3.050   0.343
10512SOL     OW32434   4.217   6.980   5.714
10512SOL    HW132435   4.278   6.926   5.656
10512SOL    HW232436   4.143   6.922   5.748
10513SOL     OW32437   0.546   2.625   6.805
10513SOL    HW132438   0.604   2.691   6.757
10513SOL    HW232439   0.470   2.673   6.849
10514SOL     OW32440   0.444   4.583   0.595
10514SOL    HW132441   0.422   4.679   0.613
10514SOL    HW232442   0.509   4.551   0.664
10515SOL     OW32443   6.601   2.150   3.158
10515SOL    HW132444   6.633   2.231   3.109
10515SOL    HW232445   6.602   2.071   3.096
10516SOL     OW32446   4.077   0.727   5.956
10516SOL    HW132447   4.094   0.712   5.859
10516SOL    HW232448   4.161   0.715   6.008
10517SOL     OW32449   6.695   1.988   2.544
10517SOL    HW132450   6.770   1.925   2.565
10517SOL    HW232451   6.655   1.962   2.456
10518SOL     OW32452   0.955   6.248   1.067
10518SOL    HW132453   0.899   6.329   1.082
10518SOL    HW232454   0.899   6.166   1.078
10519SOL     OW32455   3.365   3.477   5.582
10519SOL    HW132456   3.272   3.512   5.571
10519SOL    HW232457   3.410   3.526   5.656
10520SOL     OW32458   3.719   2.302   0.184
10520SOL    HW132459   3.802   2.247   0.199
10520SOL    HW232460   3.744   2.388   0.140
10521SOL     OW32461   6.515   5.483   1.095
10521SOL    HW132462   6.474   5.407   1.146
10521SOL    HW232463   6.612   5.465   1.081
10522SOL     OW32464   6.767   0.618   1.351
10522SOL    HW132465   6.762   0.625   1.450
10522SOL    HW232466   6.690   0.563   1.317
10523SOL     OW32467   0.240   5.554   6.165
10523SOL    HW132468   0.269   5.539   6.260
10523SOL    HW232469   0.309   5.515   6.103
10524SOL     OW32470   2.859   0.330   3.997
10524SOL    HW132471   2.904   0.260   3.942
10524SOL    HW232472   2.850   0.298   4.091
10525SOL     OW32473   2.225   5.958   5.115
10525SOL    HW132474   2.130   5.948   5.145
10525SOL    HW232475   2.245   6.055   5.098
10526SOL     OW32476   7.003   0.793   2.438
10526SOL    HW132477   0.004   0.696   2.433
10526SOL    HW232478   6.903   0.801   2.448
10527SOL     OW32479   0.807   2.798   4.440
10527SOL    HW132480   0.794   2.700   4.420
10527SOL    HW232481   0.854   2.808   4.528
10528SOL     OW32482   6.971   4.761   5.274
10528SOL    HW132483   6.964   4.728   5.368
10528SOL    HW232484   0.041   4.746   5.240
10529SOL     OW32485   6.758   0.112   3.671
10529SOL    HW132486   6.742   0.048   3.746
10529SOL    HW232487   6.673   0.163   3.653
10530SOL     OW32488   2.640   2.091   6.103
10530SOL    HW132489   2.688   2.018   6.055
10530SOL    HW232490   2.621   2.166   6.040
10531SOL     OW32491   1.634   3.044   4.797
10531SOL    HW132492   1.706   3.094   4.748
10531SOL    HW232493   1.646   2.946   4.783
10532SOL     OW32494   3.786   2.686   5.588
10532SOL    HW132495   3.840   2.752   5.537
10532SOL    HW232496   3.728   2.633   5.525
10533SOL     OW32497   2.797   1.367   5.845
10533SOL    HW132498   2.727   1.394   5.779
10533SOL    HW232499   2.754   1.354   5.935
10534SOL     OW32500   0.180   5.413   0.521
10534SOL    HW132501   0.217   5.504   0.502
10534SOL    HW232502   0.127   5.416   0.606
10535SOL     OW32503   0.392   1.300   2.373
10535SOL    HW132504   0.343   1.324   2.289
10535SOL    HW232505   0.470   1.361   2.385
10536SOL     OW32506   4.645   0.576   2.493
10536SOL    HW132507   4.644   0.491   2.547
10536SOL    HW232508   4.656   0.654   2.554
10537SOL     OW32509   1.664   4.968   1.907
10537SOL    HW132510   1.590   4.974   1.840
10537SOL    HW232511   1.736   4.908   1.871
10538SOL     OW32512   4.500   4.183   7.010
10538SOL    HW132513   4.480   4.208   6.916
10538SOL    HW232514   4.579   4.122   7.013
10539SOL     OW32515   0.521   3.479   6.717
10539SOL    HW132516   0.490   3.425   6.639
10539SOL    HW232517   0.606   3.442   6.753
10540SOL     OW32518   1.767   0.128   6.571
10540SOL    HW132519   1.775   0.164   6.664
10540SOL    HW232520   1.671   0.117   6.548
10541SOL     OW32521   3.683   3.454   0.037
10541SOL    HW132522   3.745   3.468   6.984
10541SOL    HW232523   3.665   3.357   0.049
10542SOL     OW32524   0.122   2.282   0.231
10542SOL    HW132525   0.107   2.348   0.157
10542SOL    HW232526   0.057   2.206   0.221
10543SOL     OW32527   0.870   1.098   5.714
10543SOL    HW132528   0.776   1.108   5.681
10543SOL    HW232529   0.929   1.069   5.638
10544SOL     OW32530   2.150   1.868   2.089
10544SOL    HW132531   2.187   1.794   2.034
10544SOL    HW232532   2.154   1.843   2.186
10545SOL     OW32533   6.473   0.829   2.615
10545SOL    HW132534   6.382   0.787   2.619
10545SOL    HW232535   6.497   0.864   2.706
10546SOL     OW32536   2.439   0.467   4.480
10546SOL    HW132537   2.369   0.445   4.412
10546SOL    HW232538   2.407   0.441   4.571
10547SOL     OW32539   4.344   1.563   1.231
10547SOL    HW132540   4.341   1.527   1.138
10547SOL    HW232541   4.278   1.637   1.241
10548SOL     OW32542   5.180   4.127   4.756
10548SOL    HW132543   5.139   4.150   4.668
10548SOL    HW232544   5.247   4.054   4.743
10549SOL     OW32545   0.965   0.973   1.934
10549SOL    HW132546   1.020   0.983   2.017
10549SOL    HW232547   0.902   1.051   1.926
10550SOL     OW32548   5.673   0.097   4.308
10550SOL    HW132549   5.586   0.142   4.287
10550SOL    HW232550   5.730   0.097   4.226
10551SOL     OW32551   0.942   2.320   6.194
10551SOL    HW132552   1.010   2.250   6.174
10551SOL    HW232553   0.968   2.368   6.279
10552SOL     OW32554   3.270   2.239   5.399
10552SOL    HW132555   3.370   2.248   5.397
10552SOL    HW232556   3.229   2.309   5.341
10553SOL     OW32557   1.395   5.650   0.181
10553SOL    HW132558   1.426   5.564   0.222
10553SOL    HW232559   1.325   5.692   0.239
10554SOL     OW32560   6.610   4.818   6.812
10554SOL    HW132561   6.514   4.798   6.829
10554SOL    HW232562   6.623   4.917   6.806
10555SOL     OW32563   3.706   1.199   1.527
10555SOL    HW132564   3.697   1.162   1.620
10555SOL    HW232565   3.719   1.298   1.532
10556SOL     OW32566   1.893   3.302   4.978
10556SOL    HW132567   1.876   3.370   4.906
10556SOL    HW232568   1.947   3.344   5.051
10557SOL     OW32569   6.773   2.648   3.109
10557SOL    HW132570   6.831   2.577   3.069
10557SOL    HW232571   6.796   2.659   3.206
10558SOL     OW32572   4.695   6.089   5.294
10558SOL    HW132573   4.631   6.156   5.258
10558SOL    HW232574   4.647   6.026   5.355
10559SOL     OW32575   4.415   2.171   0.539
10559SOL    HW132576   4.320   2.195   0.561
10559SOL    HW232577   4.464   2.254   0.511
10560SOL     OW32578   1.044   3.476   4.549
10560SOL    HW132579   1.010   3.387   4.578
10560SOL    HW232580   1.109   3.464   4.473
10561SOL     OW32581   2.093   4.471   0.013
10561SOL    HW132582   2.052   4.530   6.967
10561SOL    HW232583   2.080   4.512   0.104
10562SOL     OW32584   4.060   1.362   0.470
10562SOL    HW132585   4.116   1.435   0.430
10562SOL    HW232586   4.063   1.369   0.570
10563SOL     OW32587   1.649   2.248   5.706
10563SOL    HW132588   1.723   2.206   5.758
10563SOL    HW232589   1.589   2.297   5.768
10564SOL     OW32590   5.974   1.703   2.103
10564SOL    HW132591   5.906   1.692   2.030
10564SOL    HW232592   6.055   1.648   2.082
10565SOL     OW32593   6.290   1.523   5.048
10565SOL    HW132594   6.265   1.545   4.954
10565SOL    HW232595   6.360   1.587   5.080
10566SOL     OW32596   3.694   3.778   5.950
10566SOL    HW132597   3.769   3.731   5.904
10566SOL    HW232598   3.637   3.712   5.998
10567SOL     OW32599   1.776   3.480   4.155
10567SOL    HW132600   1.868   3.446   4.136
10567SOL    HW232601   1.733   3.422   4.225
10568SOL     OW32602   5.078   1.170   2.796
10568SOL    HW132603   5.050   1.084   2.839
10568SOL    HW232604   5.132   1.223   2.862
10569SOL     OW32605   5.820   2.709   4.616
10569SOL    HW132606   5.737   2.654   4.610
10569SOL    HW232607   5.798   2.805   4.598
10570SOL     OW32608   2.193   4.794   2.528
10570SOL    HW132609   2.232   4.887   2.527
10570SOL    HW232610   2.246   4.737   2.591
10571SOL     OW32611   6.381   6.370   2.912
10571SOL    HW132612   6.425   6.296   2.962
10571SOL    HW232613   6.285   6.376   2.939
10572SOL     OW32614   5.514   3.352   2.054
10572SOL    HW132615   5.441   3.354   1.986
10572SOL    HW232616   5.532   3.444   2.088
10573SOL     OW32617   6.057   5.369   5.024
10573SOL    HW132618   6.074   5.367   4.925
10573SOL    HW232619   6.121   5.432   5.067
10574SOL     OW32620   0.299   1.496   3.486
10574SOL    HW132621   0.348   1.529   3.405
10574SOL    HW232622   0.323   1.552   3.565
10575SOL     OW32623   1.059   0.379   5.182
10575SOL    HW132624   1.086   0.283   5.175
10575SOL    HW232625   1.066   0.422   5.091
10576SOL     OW32626   1.961   5.860   4.407
10576SOL    HW132627   2.056   5.843   4.383
10576SOL    HW232628   1.924   5.780   4.455
10577SOL     OW32629   1.754   3.026   6.196
10577SOL    HW132630   1.733   2.941   6.245
10577SOL    HW232631   1.793   3.004   6.107
10578SOL     OW32632   6.096   0.221   5.515
10578SOL    HW132633   6.065   0.144   5.458
10578SOL    HW232634   6.083   0.197   5.611
10579SOL     OW32635   4.489   1.941   0.398
10579SOL    HW132636   4.478   2.027   0.448
10579SOL    HW232637   4.530   1.960   0.308
10580SOL     OW32638   6.718   6.137   0.081
10580SOL    HW132639   6.633   6.184   0.108
10580SOL    HW232640   6.712   6.041   0.105
10581SOL     OW32641   5.865   0.525   3.315
10581SOL    HW132642   5.861   0.473   3.229
10581SOL    HW232643   5.904   0.468   3.387
10582SOL     OW32644   3.795   5.281   6.488
10582SOL    HW132645   3.752   5.340   6.556
10582SOL    HW232646   3.728   5.254   6.419
10583SOL     OW32647   3.996   1.201   6.911
10583SOL    HW132648   4.037   1.264   6.977
10583SOL    HW232649   4.041   1.112   6.917
10584SOL     OW32650   5.706   0.167   1.075
10584SOL    HW132651   5.608   0.169   1.057
10584SOL    HW232652   5.724   0.199   1.169
10585SOL     OW32653   0.640   3.104   6.222
10585SOL    HW132654   0.713   3.078   6.285
10585SOL    HW232655   0.552   3.102   6.270
10586SOL     OW32656   2.929   5.900   5.455
10586SOL    HW132657   2.996   5.888   5.381
10586SOL    HW232658   2.967   5.864   5.540
10587SOL     OW32659   5.903   3.329   0.961
10587SOL    HW132660   5.903   3.230   0.951
10587SOL    HW232661   5.952   3.370   0.885
10588SOL     OW32662   0.786   4.979   2.879
10588SOL    HW132663   0.690   4.966   2.853
10588SOL    HW232664   0.845   4.924   2.821
10589SOL     OW32665   5.577   2.095   3.948
10589SOL    HW132666   5.653   2.101   3.883
10589SOL    HW232667   5.582   2.008   3.998
10590SOL     OW32668   1.169   0.306   3.462
10590SOL    HW132669   1.170   0.339   3.367
10590SOL    HW232670   1.258   0.322   3.504
10591SOL     OW32671   0.991   1.927   6.802
10591SOL    HW132672   0.948   1.836   6.797
10591SOL    HW232673   1.002   1.953   6.898
10592SOL     OW32674   6.127   1.338   0.502
10592SOL    HW132675   6.144   1.300   0.411
10592SOL    HW232676   6.030   1.331   0.524
10593SOL     OW32677   1.705   5.862   1.850
10593SOL    HW132678   1.773   5.788   1.862
10593SOL    HW232679   1.668   5.858   1.757
10594SOL     OW32680   6.699   1.975   3.772
10594SOL    HW132681   6.695   1.909   3.697
10594SOL    HW232682   6.736   2.062   3.738
10595SOL     OW32683   3.997   6.744   6.364
10595SOL    HW132684   3.941   6.764   6.284
10595SOL    HW232685   4.055   6.823   6.384
10596SOL     OW32686   3.878   7.013   2.392
10596SOL    HW132687   3.915   7.017   2.299
10596SOL    HW232688   3.781   6.986   2.388
10597SOL     OW32689   1.852   0.962   4.852
10597SOL    HW132690   1.893   1.012   4.776
10597SOL    HW232691   1.766   1.006   4.878
10598SOL     OW32692   2.094   2.406   6.749
10598SOL    HW132693   2.121   2.418   6.844
10598SOL    HW232694   2.019   2.340   6.743
10599SOL     OW32695   5.770   1.441   6.968
10599SOL    HW132696   5.703   1.368   6.952
10599SOL    HW232697   5.861   1.409   6.940
10600SOL     OW32698   2.457   2.848   5.881
10600SOL    HW132699   2.418   2.819   5.794
10600SOL    HW232700   2.506   2.771   5.923
10601SOL     OW32701   2.978   6.467   6.355
10601SOL    HW132702   3.003   6.555   6.394
10601SOL    HW232703   2.962   6.477   6.257
10602SOL     OW32704   4.478   1.774   1.524
10602SOL    HW132705   4.414   1.699   1.538
10602SOL    HW232706   4.433   1.860   1.548
10603SOL     OW32707   1.855   5.405   4.366
10603SOL    HW132708   1.880   5.308   4.376
10603SOL    HW232709   1.757   5.411   4.344
10604SOL     OW32710   6.651   4.175   4.132
10604SOL    HW132711   6.732   4.129   4.170
10604SOL    HW232712   6.639   4.149   4.037
10605SOL     OW32713   1.314   5.340   6.489
10605SOL    HW132714   1.402   5.387   6.496
10605SOL    HW232715   1.325   5.260   6.429
10606SOL     OW32716   0.508   0.279   1.857
10606SOL    HW132717   0.418   0.320   1.854
10606SOL    HW232718   0.520   0.227   1.942
10607SOL     OW32719   5.292   4.494   0.087
10607SOL    HW132720   5.227   4.418   0.081
10607SOL    HW232721   5.354   4.491   0.009
10608SOL     OW32722   6.089   1.338   3.932
10608SOL    HW132723   6.104   1.430   3.897
10608SOL    HW232724   6.041   1.342   4.020
10609SOL     OW32725   4.137   6.540   0.973
10609SOL    HW132726   4.167   6.616   0.915
10609SOL    HW232727   4.038   6.532   0.968
10610SOL     OW32728   1.142   2.992   5.654
10610SOL    HW132729   1.223   3.017   5.600
10610SOL    HW232730   1.146   2.895   5.677
10611SOL     OW32731   5.625   2.620   6.058
10611SOL    HW132732   5.667   2.676   6.130
10611SOL    HW232733   5.676   2.535   6.048
10612SOL     OW32734   2.076   0.624   6.746
10612SOL    HW132735   2.004   0.631   6.676
10612SOL    HW232736   2.035   0.635   6.836
10613SOL     OW32737   0.586   6.156   5.462
10613SOL    HW132738   0.604   6.132   5.367
10613SOL    HW232739   0.511   6.100   5.497
10614SOL     OW32740   6.644   1.154   4.266
10614SOL    HW132741   6.549   1.125   4.271
10614SOL    HW232742   6.658   1.232   4.327
10615SOL     OW32743   5.356   5.342   5.303
10615SOL    HW132744   5.424   5.282   5.261
10615SOL    HW232745   5.313   5.295   5.379
10616SOL     OW32746   3.372   5.883   6.856
10616SOL    HW132747   3.400   5.972   6.894
10616SOL    HW232748   3.440   5.814   6.882
10617SOL     OW32749   2.133   2.247   0.275
10617SOL    HW132750   2.195   2.316   0.236
10617SOL    HW232751   2.117   2.268   0.371
10618SOL     OW32752   5.954   3.042   0.313
10618SOL    HW132753   5.923   3.078   0.225
10618SOL    HW232754   6.053   3.054   0.320
10619SOL     OW32755   1.248   4.236   4.475
10619SOL    HW132756   1.204   4.316   4.517
10619SOL    HW232757   1.345   4.255   4.462
10620SOL     OW32758   1.394   5.845   4.961
10620SOL    HW132759   1.363   5.920   4.903
10620SOL    HW232760   1.470   5.876   5.018
10621SOL     OW32761   2.077   6.418   0.046
10621SOL    HW132762   2.004   6.349   0.050
10621SOL    HW232763   2.037   6.508   0.030
10622SOL     OW32764   3.803   0.372   1.325
10622SOL    HW132765   3.808   0.382   1.425
10622SOL    HW232766   3.776   0.460   1.285
10623SOL     OW32767   5.815   2.529   3.799
10623SOL    HW132768   5.897   2.546   3.744
10623SOL    HW232769   5.734   2.558   3.747
10624SOL     OW32770   1.553   0.591   4.619
10624SOL    HW132771   1.547   0.597   4.519
10624SOL    HW232772   1.464   0.613   4.659
10625SOL     OW32773   0.560   3.400   0.410
10625SOL    HW132774   0.590   3.308   0.438
10625SOL    HW232775   0.585   3.466   0.480
10626SOL     OW32776   0.656   1.913   1.848
10626SOL    HW132777   0.562   1.891   1.821
10626SOL    HW232778   0.658   2.002   1.894
10627SOL     OW32779   6.435   6.555   3.737
10627SOL    HW132780   6.529   6.547   3.769
10627SOL    HW232781   6.373   6.519   3.807
10628SOL     OW32782   6.277   5.670   6.167
10628SOL    HW132783   6.194   5.703   6.123
10628SOL    HW232784   6.337   5.628   6.098
10629SOL     OW32785   2.494   5.605   5.910
10629SOL    HW132786   2.427   5.551   5.858
10629SOL    HW232787   2.572   5.626   5.852
10630SOL     OW32788   6.071   1.807   3.275
10630SOL    HW132789   6.085   1.855   3.188
10630SOL    HW232790   6.098   1.711   3.264
10631SOL     OW32791   0.925   6.904   4.135
10631SOL    HW132792   1.013   6.951   4.137
10631SOL    HW232793   0.924   6.831   4.203
10632SOL     OW32794   6.996   1.756   5.024
10632SOL    HW132795   7.006   1.856   5.029
10632SOL    HW232796   0.006   1.724   4.936
10633SOL     OW32797   1.828   5.264   1.727
10633SOL    HW132798   1.875   5.212   1.656
10633SOL    HW232799   1.861   5.236   1.817
10634SOL     OW32800   3.891   6.491   0.924
10634SOL    HW132801   3.828   6.513   0.850
10634SOL    HW232802   3.903   6.392   0.930
10635SOL     OW32803   2.314   1.031   1.255
10635SOL    HW132804   2.318   1.103   1.186
10635SOL    HW232805   2.387   1.045   1.322
10636SOL     OW32806   0.955   1.938   1.157
10636SOL    HW132807   1.016   2.016   1.142
10636SOL    HW232808   0.946   1.921   1.255
10637SOL     OW32809   3.516   4.174   4.522
10637SOL    HW132810   3.454   4.252   4.511
10637SOL    HW232811   3.575   4.168   4.442
10638SOL     OW32812   0.234   6.485   5.059
10638SOL    HW132813   0.150   6.538   5.071
10638SOL    HW232814   0.280   6.475   5.148
10639SOL     OW32815   2.042   0.899   5.037
10639SOL    HW132816   1.998   0.895   4.947
10639SOL    HW232817   1.996   0.837   5.099
10640SOL     OW32818   4.683   0.996   0.271
10640SOL    HW132819   4.609   0.953   0.322
10640SOL    HW232820   4.753   1.028   0.335
10641SOL     OW32821   5.803   1.628   0.115
10641SOL    HW132822   5.800   1.581   0.204
10641SOL    HW232823   5.784   1.562   0.042
10642SOL     OW32824   0.232   2.879   1.616
10642SOL    HW132825   0.159   2.943   1.636
10642SOL    HW232826   0.196   2.785   1.620
10643SOL     OW32827   2.363   3.555   5.429
10643SOL    HW132828   2.319   3.478   5.384
10643SOL    HW232829   2.349   3.638   5.375
10644SOL     OW32830   4.587   1.471   3.655
10644SOL    HW132831   4.594   1.435   3.748
10644SOL    HW232832   4.525   1.549   3.653
10645SOL     OW32833   2.609   0.061   4.900
10645SOL    HW132834   2.512   0.075   4.919
10645SOL    HW232835   2.618   7.023   4.822
10646SOL     OW32836   1.218   3.454   6.297
10646SOL    HW132837   1.296   3.400   6.329
10646SOL    HW232838   1.214   3.540   6.347
10647SOL     OW32839   6.953   5.044   0.737
10647SOL    HW132840   6.872   5.063   0.681
10647SOL    HW232841   6.994   4.958   0.707
10648SOL     OW32842   4.604   2.649   6.909
10648SOL    HW132843   4.541   2.725   6.888
10648SOL    HW232844   4.577   2.568   6.858
10649SOL     OW32845   6.977   4.661   5.854
10649SOL    HW132846   6.943   4.700   5.940
10649SOL    HW232847   0.007   4.580   5.874
10650SOL     OW32848   3.030   6.144   3.561
10650SOL    HW132849   2.979   6.152   3.646
10650SOL    HW232850   3.026   6.050   3.528
10651SOL     OW32851   4.526   6.273   6.315
10651SOL    HW132852   4.611   6.284   6.264
10651SOL    HW232853   4.539   6.306   6.409
10652SOL     OW32854   3.389   0.388   6.161
10652SOL    HW132855   3.397   0.288   6.159
10652SOL    HW232856   3.320   0.414   6.228
10653SOL     OW32857   5.198   3.671   3.987
10653SOL    HW132858   5.252   3.699   4.067
10653SOL    HW232859   5.104   3.651   4.015
10654SOL     OW32860   4.095   1.114   0.329
10654SOL    HW132861   4.179   1.094   0.280
10654SOL    HW232862   4.102   1.204   0.372
10655SOL     OW32863   2.878   6.261   1.236
10655SOL    HW132864   2.974   6.244   1.214
10655SOL    HW232865   2.821   6.192   1.191
10656SOL     OW32866   6.627   2.659   6.741
10656SOL    HW132867   6.534   2.648   6.777
10656SOL    HW232868   6.656   2.754   6.752
10657SOL     OW32869   6.336   1.068   0.923
10657SOL    HW132870   6.278   1.101   0.849
10657SOL    HW232871   6.279   1.035   0.998
10658SOL     OW32872   0.259   5.610   4.618
10658SOL    HW132873   0.228   5.569   4.704
10658SOL    HW232874   0.179   5.631   4.561
10659SOL     OW32875   6.169   0.427   0.048
10659SOL    HW132876   6.110   0.454   6.995
10659SOL    HW232877   6.264   0.450   0.027
10660SOL     OW32878   4.687   5.290   5.783
10660SOL    HW132879   4.739   5.325   5.705
10660SOL    HW232880   4.636   5.364   5.824
10661SOL     OW32881   0.323   6.655   2.505
10661SOL    HW132882   0.392   6.583   2.495
10661SOL    HW232883   0.361   6.743   2.477
10662SOL     OW32884   5.851   1.462   0.826
10662SOL    HW132885   5.892   1.545   0.864
10662SOL    HW232886   5.780   1.429   0.889
10663SOL     OW32887   6.802   0.270   0.209
10663SOL    HW132888   6.822   0.250   0.112
10663SOL    HW232889   6.887   0.263   0.261
10664SOL     OW32890   2.127   5.574   0.139
10664SOL    HW132891   2.096   5.647   0.200
10664SOL    HW232892   2.094   5.486   0.173
10665SOL     OW32893   6.344   1.907   1.092
10665SOL    HW132894   6.331   1.863   1.003
10665SOL    HW232895   6.441   1.928   1.105
10666SOL     OW32896   1.862   6.916   0.110
10666SOL    HW132897   1.826   6.979   0.041
10666SOL    HW232898   1.940   6.957   0.156
10667SOL     OW32899   3.308   1.949   5.421
10667SOL    HW132900   3.285   2.046   5.419
10667SOL    HW232901   3.250   1.902   5.487
10668SOL     OW32902   1.278   1.102   5.774
10668SOL    HW132903   1.233   1.184   5.737
10668SOL    HW232904   1.208   1.037   5.802
10669SOL     OW32905   1.064   0.040   0.197
10669SOL    HW132906   1.080   0.031   0.295
10669SOL    HW232907   0.992   0.108   0.181
10670SOL     OW32908   6.244   4.624   5.537
10670SOL    HW132909   6.201   4.679   5.465
10670SOL    HW232910   6.233   4.527   5.516
10671SOL     OW32911   2.088   1.073   3.474
10671SOL    HW132912   2.145   1.141   3.429
10671SOL    HW232913   2.085   0.990   3.419
10672SOL     OW32914   0.191   2.878   1.310
10672SOL    HW132915   0.220   2.899   1.216
10672SOL    HW232916   0.264   2.827   1.356
10673SOL     OW32917   2.613   2.939   5.408
10673SOL    HW132918   2.545   2.986   5.351
10673SOL    HW232919   2.702   2.983   5.396
10674SOL     OW32920   3.668   2.714   1.357
10674SOL    HW132921   3.757   2.733   1.399
10674SOL    HW232922   3.639   2.621   1.381
10675SOL     OW32923   0.426   0.339   5.727
10675SOL    HW132924   0.341   0.377   5.763
10675SOL    HW232925   0.455   0.262   5.784
10676SOL     OW32926   6.641   0.162   6.340
10676SOL    HW132927   6.649   0.150   6.241
10676SOL    HW232928   6.579   0.092   6.376
10677SOL     OW32929   0.254   0.390   0.754
10677SOL    HW132930   0.186   0.452   0.793
10677SOL    HW232931   0.249   0.302   0.801
10678SOL     OW32932   2.855   6.246   2.957
10678SOL    HW132933   2.857   6.290   3.047
10678SOL    HW232934   2.800   6.163   2.962
10679SOL     OW32935   5.401   4.885   4.478
10679SOL    HW132936   5.411   4.926   4.568
10679SOL    HW232937   5.466   4.810   4.467
10680SOL     OW32938   1.068   2.380   3.279
10680SOL    HW132939   1.163   2.411   3.273
10680SOL    HW232940   1.012   2.452   3.321
10681SOL     OW32941   0.234   1.706   6.146
10681SOL    HW132942   0.238   1.789   6.202
10681SOL    HW232943   0.284   1.633   6.192
10682SOL     OW32944   6.874   1.934   2.905
10682SOL    HW132945   6.805   1.947   2.834
10682SOL    HW232946   6.963   1.916   2.863
10683SOL     OW32947   1.686   1.221   4.820
10683SOL    HW132948   1.613   1.234   4.752
10683SOL    HW232949   1.645   1.195   4.907
10684SOL     OW32950   5.943   5.168   0.305
10684SOL    HW132951   6.000   5.093   0.340
10684SOL    HW232952   5.935   5.159   0.206
10685SOL     OW32953   0.133   2.894   2.642
10685SOL    HW132954   0.141   2.985   2.600
10685SOL    HW232955   0.036   2.869   2.647
10686SOL     OW32956   3.278   5.201   0.321
10686SOL    HW132957   3.312   5.293   0.338
10686SOL    HW232958   3.227   5.199   0.235
10687SOL     OW32959   0.001   4.425   3.033
10687SOL    HW132960   7.004   4.516   3.069
10687SOL    HW232961   0.100   4.414   3.023
10688SOL     OW32962   6.043   5.210   2.100
10688SOL    HW132963   6.092   5.203   2.014
10688SOL    HW232964   6.058   5.300   2.140
10689SOL     OW32965   0.469   0.903   2.672
10689SOL    HW132966   0.514   0.954   2.599
10689SOL    HW232967   0.534   0.889   2.748
10690SOL     OW32968   4.829   5.142   1.856
10690SOL    HW132969   4.818   5.046   1.833
10690SOL    HW232970   4.888   5.150   1.937
10691SOL     OW32971   6.770   1.368   1.914
10691SOL    HW132972   6.775   1.304   1.837
10691SOL    HW232973   6.705   1.333   1.982
10692SOL     OW32974   3.568   6.005   3.686
10692SOL    HW132975   3.578   5.965   3.777
10692SOL    HW232976   3.624   5.954   3.621
10693SOL     OW32977   6.550   2.029   1.974
10693SOL    HW132978   6.498   1.949   2.003
10693SOL    HW232979   6.595   2.010   1.887
10694SOL     OW32980   3.747   6.515   0.696
10694SOL    HW132981   3.699   6.603   0.704
10694SOL    HW232982   3.701   6.457   0.630
10695SOL     OW32983   6.770   2.905   3.848
10695SOL    HW132984   6.765   3.004   3.837
10695SOL    HW232985   6.774   2.882   3.945
10696SOL     OW32986   6.697   6.236   1.656
10696SOL    HW132987   6.687   6.299   1.734
10696SOL    HW232988   6.651   6.274   1.576
10697SOL     OW32989   2.600   5.492   3.640
10697SOL    HW132990   2.638   5.584   3.625
10697SOL    HW232991   2.566   5.485   3.734
10698SOL     OW32992   3.232   6.843   3.631
10698SOL    HW132993   3.307   6.872   3.572
10698SOL    HW232994   3.186   6.924   3.669
10699SOL     OW32995   2.404   2.236   3.163
10699SOL    HW132996   2.408   2.234   3.262
10699SOL    HW232997   2.445   2.321   3.129
10700SOL     OW32998   6.790   0.026   1.522
10700SOL    HW132999   6.700   0.065   1.540
10700SOL    HW233000   6.825   7.009   1.606
10701SOL     OW33001   3.374   6.261   0.420
10701SOL    HW133002   3.427   6.205   0.484
10701SOL    HW233003   3.340   6.342   0.467
10702SOL     OW33004   6.969   3.171   1.154
10702SOL    HW133005   6.954   3.217   1.242
10702SOL    HW233006   6.982   3.239   1.082
10703SOL     OW33007   4.067   3.803   3.839
10703SOL    HW133008   4.062   3.805   3.739
10703SOL    HW233009   4.100   3.713   3.869
10704SOL     OW33010   5.171   6.710   1.567
10704SOL    HW133011   5.203   6.672   1.654
10704SOL    HW233012   5.196   6.647   1.493
10705SOL     OW33013   0.285   2.513   6.756
10705SOL    HW133014   0.299   2.607   6.788
10705SOL    HW233015   0.371   2.476   6.722
10706SOL     OW33016   3.422   1.234   1.956
10706SOL    HW133017   3.414   1.238   2.056
10706SOL    HW233018   3.401   1.142   1.925
10707SOL     OW33019   6.125   0.092   6.205
10707SOL    HW133020   6.087   0.017   6.150
10707SOL    HW233021   6.220   0.107   6.180
10708SOL     OW33022   4.660   1.009   1.389
10708SOL    HW133023   4.583   0.993   1.450
10708SOL    HW233024   4.626   1.031   1.297
10709SOL     OW33025   0.363   5.614   5.639
10709SOL    HW133026   0.457   5.638   5.662
10709SOL    HW233027   0.304   5.628   5.718
10710SOL     OW33028   6.393   5.688   3.240
10710SOL    HW133029   6.452   5.754   3.193
10710SOL    HW233030   6.358   5.729   3.324
10711SOL     OW33031   1.623   5.960   4.534
10711SOL    HW133032   1.695   6.023   4.506
10711SOL    HW233033   1.598   5.901   4.457
10712SOL     OW33034   3.912   1.392   4.774
10712SOL    HW133035   3.851   1.464   4.742
10712SOL    HW233036   3.859   1.316   4.811
10713SOL     OW33037   0.992   5.715   1.421
10713SOL    HW133038   1.076   5.765   1.401
10713SOL    HW233039   0.981   5.707   1.520
10714SOL     OW33040   6.705   4.535   5.604
10714SOL    HW133041   6.756   4.550   5.519
10714SOL    HW233042   6.634   4.605   5.613
10715SOL     OW33043   5.747   1.623   4.217
10715SOL    HW133044   5.672   1.566   4.184
10715SOL    HW233045   5.779   1.682   4.142
10716SOL     OW33046   6.230   0.272   3.185
10716SOL    HW133047   6.249   0.323   3.269
10716SOL    HW233048   6.174   0.327   3.124
10717SOL     OW33049   6.945   6.509   1.800
10717SOL    HW133050   0.012   6.507   1.759
10717SOL    HW233051   6.929   6.599   1.842
10718SOL     OW33052   6.903   4.477   6.972
10718SOL    HW133053   6.888   4.390   7.018
10718SOL    HW233054   6.947   4.461   6.884
10719SOL     OW33055   4.581   0.826   2.157
10719SOL    HW133056   4.509   0.865   2.100
10719SOL    HW233057   4.542   0.757   2.218
10720SOL     OW33058   0.503   3.712   6.949
10720SOL    HW133059   0.507   3.808   6.976
10720SOL    HW233060   0.471   3.657   0.003
10721SOL     OW33061   4.655   2.633   4.037
10721SOL    HW133062   4.624   2.673   4.122
10721SOL    HW233063   4.598   2.554   4.014
10722SOL     OW33064   0.268   4.138   0.124
10722SOL    HW133065   0.189   4.123   0.065
10722SOL    HW233066   0.247   4.106   0.216
10723SOL     OW33067   6.273   4.083   0.323
10723SOL    HW133068   6.341   4.134   0.269
10723SOL    HW233069   6.182   4.121   0.306
10724SOL     OW33070   3.463   6.441   5.730
10724SOL    HW133071   3.506   6.359   5.691
10724SOL    HW233072   3.403   6.414   5.805
10725SOL     OW33073   6.999   6.576   5.067
10725SOL    HW133074   7.014   6.671   5.039
10725SOL    HW233075   6.901   6.559   5.075
10726SOL     OW33076   5.250   0.554   4.463
10726SOL    HW133077   5.215   0.572   4.371
10726SOL    HW233078   5.247   0.638   4.517
10727SOL     OW33079   2.211   5.959   0.038
10727SOL    HW133080   2.206   5.933   6.965
10727SOL    HW233081   2.182   6.054   0.049
10728SOL     OW33082   5.527   5.633   3.608
10728SOL    HW133083   5.598   5.631   3.679
10728SOL    HW233084   5.566   5.671   3.524
10729SOL     OW33085   5.919   3.081   3.823
10729SOL    HW133086   6.004   3.029   3.822
10729SOL    HW233087   5.922   3.152   3.754
10730SOL     OW33088   1.911   5.819   3.007
10730SOL    HW133089   1.903   5.912   2.971
10730SOL    HW233090   2.008   5.797   3.022
10731SOL     OW33091   4.857   6.653   6.816
10731SOL    HW133092   4.789   6.707   6.865
10731SOL    HW233093   4.932   6.630   6.878
10732SOL     OW33094   6.246   5.895   2.986
10732SOL    HW133095   6.164   5.862   3.033
10732SOL    HW233096   6.308   5.818   2.970
10733SOL     OW33097   0.559   0.855   6.321
10733SOL    HW133098   0.597   0.793   6.390
10733SOL    HW233099   0.461   0.836   6.310
10734SOL     OW33100   1.076   1.209   4.558
10734SOL    HW133101   1.155   1.229   4.616
10734SOL    HW233102   1.029   1.294   4.534
10735SOL     OW33103   0.605   5.901   2.090
10735SOL    HW133104   0.548   5.820   2.109
10735SOL    HW233105   0.627   5.903   1.993
10736SOL     OW33106   5.779   6.361   4.131
10736SOL    HW133107   5.688   6.402   4.137
10736SOL    HW233108   5.832   6.383   4.213
10737SOL     OW33109   6.555   0.838   2.199
10737SOL    HW133110   6.653   0.823   2.212
10737SOL    HW233111   6.512   0.752   2.171
10738SOL     OW33112   3.896   1.412   1.210
10738SOL    HW133113   3.946   1.444   1.290
10738SOL    HW233114   3.873   1.315   1.221
10739SOL     OW33115   5.888   2.977   3.481
10739SOL    HW133116   5.968   3.016   3.527
10739SOL    HW233117   5.808   3.035   3.497
10740SOL     OW33118   2.227   0.289   5.843
10740SOL    HW133119   2.282   0.306   5.924
10740SOL    HW233120   2.249   0.358   5.773
10741SOL     OW33121   2.500   2.209   3.418
10741SOL    HW133122   2.434   2.211   3.494
10741SOL    HW233123   2.516   2.114   3.391
10742SOL     OW33124   6.279   6.107   2.462
10742SOL    HW133125   6.233   6.152   2.539
10742SOL    HW233126   6.377   6.125   2.467
10743SOL     OW33127   3.073   1.129   5.725
10743SOL    HW133128   3.024   1.148   5.640
10743SOL    HW233129   3.128   1.208   5.750
10744SOL     OW33130   2.235   1.104   0.583
10744SOL    HW133131   2.299   1.073   0.513
10744SOL    HW233132   2.267   1.075   0.673
10745SOL     OW33133   1.273   4.603   2.445
10745SOL    HW133134   1.330   4.529   2.409
10745SOL    HW233135   1.295   4.688   2.397
10746SOL     OW33136   1.954   6.457   6.736
10746SOL    HW133137   1.931   6.507   6.820
10746SOL    HW233138   1.984   6.522   6.666
10747SOL     OW33139   6.319   1.274   4.585
10747SOL    HW133140   6.371   1.269   4.670
10747SOL    HW233141   6.280   1.366   4.576
10748SOL     OW33142   3.683   6.265   1.205
10748SOL    HW133143   3.699   6.250   1.303
10748SOL    HW233144   3.733   6.346   1.175
10749SOL     OW33145   5.746   4.731   1.549
10749SOL    HW133146   5.717   4.642   1.585
10749SOL    HW233147   5.729   4.802   1.618
10750SOL     OW33148   4.343   2.075   4.178
10750SOL    HW133149   4.303   2.166   4.191
10750SOL    HW233150   4.285   2.021   4.117
10751SOL     OW33151   0.442   4.846   5.190
10751SOL    HW133152   0.507   4.860   5.115
10751SOL    HW233153   0.358   4.807   5.154
10752SOL     OW33154   6.423   6.233   0.567
10752SOL    HW133155   6.427   6.290   0.484
10752SOL    HW233156   6.328   6.211   0.588
10753SOL     OW33157   5.257   6.874   4.455
10753SOL    HW133158   5.248   6.971   4.432
10753SOL    HW233159   5.347   6.841   4.424
10754SOL     OW33160   0.837   3.735   2.455
10754SOL    HW133161   0.771   3.720   2.381
10754SOL    HW233162   0.909   3.796   2.424
10755SOL     OW33163   6.854   2.725   1.111
10755SOL    HW133164   6.818   2.810   1.073
10755SOL    HW233165   6.847   2.727   1.210
10756SOL     OW33166   0.818   1.139   0.325
10756SOL    HW133167   0.867   1.216   0.365
10756SOL    HW233168   0.721   1.160   0.321
10757SOL     OW33169   0.136   4.212   2.148
10757SOL    HW133170   0.149   4.308   2.171
10757SOL    HW233171   0.138   4.157   2.231
10758SOL     OW33172   0.590   0.737   6.615
10758SOL    HW133173   0.566   0.645   6.645
10758SOL    HW233174   0.508   0.794   6.610
10759SOL     OW33175   2.933   1.987   5.945
10759SOL    HW133176   2.942   1.916   5.875
10759SOL    HW233177   2.951   2.077   5.904
10760SOL     OW33178   1.048   5.184   0.208
10760SOL    HW133179   1.048   5.212   0.304
10760SOL    HW233180   1.135   5.138   0.186
10761SOL     OW33181   0.527   1.314   6.090
10761SOL    HW133182   0.609   1.325   6.146
10761SOL    HW233183   0.513   1.396   6.035
10762SOL     OW33184   2.952   6.103   6.610
10762SOL    HW133185   2.994   6.040   6.675
10762SOL    HW233186   2.909   6.178   6.659
10763SOL     OW33187   5.298   0.099   3.674
10763SOL    HW133188   5.296   0.117   3.576
10763SOL    HW233189   5.232   0.027   3.696
10764SOL     OW33190   4.592   0.302   4.378
10764SOL    HW133191   4.542   0.360   4.313
10764SOL    HW233192   4.687   0.294   4.349
10765SOL     OW33193   0.287   1.998   2.091
10765SOL    HW133194   0.337   1.964   2.170
10765SOL    HW233195   0.211   1.936   2.071
10766SOL     OW33196   1.620   5.272   6.967
10766SOL    HW133197   1.571   5.213   6.903
10766SOL    HW233198   1.718   5.249   6.964
10767SOL     OW33199   1.455   5.179   0.764
10767SOL    HW133200   1.373   5.230   0.791
10767SOL    HW233201   1.439   5.082   0.778
10768SOL     OW33202   5.386   5.484   0.322
10768SOL    HW133203   5.454   5.412   0.313
10768SOL    HW233204   5.305   5.449   0.370
10769SOL     OW33205   3.237   2.966   4.515
10769SOL    HW133206   3.164   3.004   4.457
10769SOL    HW233207   3.202   2.886   4.564
10770SOL     OW33208   5.730   0.084   3.337
10770SOL    HW133209   5.638   0.046   3.321
10770SOL    HW233210   5.790   0.012   3.371
10771SOL     OW33211   4.810   6.045   5.768
10771SOL    HW133212   4.772   6.137   5.782
10771SOL    HW233213   4.859   6.042   5.681
10772SOL     OW33214   5.350   6.040   2.335
10772SOL    HW133215   5.356   5.952   2.286
10772SOL    HW233216   5.434   6.055   2.385
10773SOL     OW33217   0.123   3.510   1.472
10773SOL    HW133218   0.052   3.451   1.433
10773SOL    HW233219   0.213   3.476   1.443
10774SOL     OW33220   0.794   2.549   0.670
10774SOL    HW133221   0.854   2.476   0.704
10774SOL    HW233222   0.840   2.637   0.681
10775SOL     OW33223   1.204   3.861   0.431
10775SOL    HW133224   1.272   3.934   0.435
10775SOL    HW233225   1.180   3.843   0.336
10776SOL     OW33226   0.984   2.677   3.726
10776SOL    HW133227   1.080   2.681   3.698
10776SOL    HW233228   0.932   2.622   3.660
10777SOL     OW33229   3.159   1.302   1.882
10777SOL    HW133230   3.140   1.391   1.923
10777SOL    HW233231   3.247   1.268   1.914
10778SOL     OW33232   6.320   0.389   3.407
10778SOL    HW133233   6.377   0.459   3.363
10778SOL    HW233234   6.324   0.400   3.506
10779SOL     OW33235   5.471   3.925   4.893
10779SOL    HW133236   5.405   3.898   4.963
10779SOL    HW233237   5.437   3.896   4.803
10780SOL     OW33238   1.993   5.660   5.043
10780SOL    HW133239   2.040   5.717   4.975
10780SOL    HW233240   1.909   5.705   5.072
10781SOL     OW33241   6.093   2.216   5.215
10781SOL    HW133242   6.135   2.161   5.286
10781SOL    HW233243   5.995   2.227   5.235
10782SOL     OW33244   1.367   2.136   5.345
10782SOL    HW133245   1.392   2.114   5.251
10782SOL    HW233246   1.270   2.120   5.358
10783SOL     OW33247   1.228   2.679   3.614
10783SOL    HW133248   1.272   2.616   3.549
10783SOL    HW233249   1.295   2.711   3.681
10784SOL     OW33250   3.379   5.502   2.441
10784SOL    HW133251   3.432   5.585   2.459
10784SOL    HW233252   3.378   5.484   2.342
10785SOL     OW33253   1.574   5.449   2.329
10785SOL    HW133254   1.659   5.440   2.382
10785SOL    HW233255   1.534   5.358   2.316
10786SOL     OW33256   4.302   1.251   2.026
10786SOL    HW133257   4.377   1.317   2.030
10786SOL    HW233258   4.228   1.287   1.970
10787SOL     OW33259   4.562   0.673   3.223
10787SOL    HW133260   4.479   0.708   3.266
10787SOL    HW233261   4.559   0.573   3.221
10788SOL     OW33262   1.453   4.260   0.045
10788SOL    HW133263   1.432   4.164   0.064
10788SOL    HW233264   1.389   4.296   7.002
10789SOL     OW33265   6.346   1.481   1.748
10789SOL    HW133266   6.299   1.397   1.777
10789SOL    HW233267   6.395   1.464   1.663
10790SOL     OW33268   0.710   1.747   5.346
10790SOL    HW133269   0.611   1.759   5.345
10790SOL    HW233270   0.740   1.706   5.259
10791SOL     OW33271   1.357   1.747   4.368
10791SOL    HW133272   1.366   1.835   4.415
10791SOL    HW233273   1.335   1.763   4.271
10792SOL     OW33274   3.950   1.757   2.168
10792SOL    HW133275   3.872   1.702   2.198
10792SOL    HW233276   3.923   1.853   2.161
10793SOL     OW33277   4.429   2.118   4.682
10793SOL    HW133278   4.437   2.099   4.585
10793SOL    HW233279   4.520   2.125   4.723
10794SOL     OW33280   5.201   2.312   0.569
10794SOL    HW133281   5.210   2.365   0.484
10794SOL    HW233282   5.111   2.269   0.571
10795SOL     OW33283   0.376   3.830   3.413
10795SOL    HW133284   0.392   3.881   3.328
10795SOL    HW233285   0.401   3.734   3.399
10796SOL     OW33286   0.455   6.775   6.081
10796SOL    HW133287   0.460   6.676   6.083
10796SOL    HW233288   0.361   6.804   6.059
10797SOL     OW33289   4.232   4.469   6.580
10797SOL    HW133290   4.211   4.540   6.512
10797SOL    HW233291   4.212   4.379   6.541
10798SOL     OW33292   1.466   0.161   6.844
10798SOL    HW133293   1.481   0.081   6.785
10798SOL    HW233294   1.377   0.153   6.888
10799SOL     OW33295   3.360   1.111   2.855
10799SOL    HW133296   3.357   1.081   2.950
10799SOL    HW233297   3.455   1.121   2.826
10800SOL     OW33298   2.052   0.101   5.754
10800SOL    HW133299   2.065   0.036   5.829
10800SOL    HW233300   2.116   0.177   5.764
10801SOL     OW33301   2.217   6.347   5.850
10801SOL    HW133302   2.200   6.420   5.917
10801SOL    HW233303   2.292   6.375   5.790
10802SOL     OW33304   0.640   4.702   4.651
10802SOL    HW133305   0.560   4.757   4.627
10802SOL    HW233306   0.677   4.660   4.569
10803SOL     OW33307   0.445   3.916   4.841
10803SOL    HW133308   0.536   3.957   4.841
10803SOL    HW233309   0.389   3.958   4.912
10804SOL     OW33310   5.176   4.834   1.182
10804SOL    HW133311   5.080   4.846   1.207
10804SOL    HW233312   5.207   4.743   1.211
10805SOL     OW33313   3.729   6.383   0.419
10805SOL    HW133314   3.767   6.406   0.330
10805SOL    HW233315   3.775   6.302   0.456
10806SOL     OW33316   5.622   4.026   6.829
10806SOL    HW133317   5.567   3.976   6.896
10806SOL    HW233318   5.631   3.972   6.745
10807SOL     OW33319   4.896   0.122   3.644
10807SOL    HW133320   4.801   0.092   3.646
10807SOL    HW233321   4.900   0.222   3.648
10808SOL     OW33322   0.334   2.765   6.877
10808SOL    HW133323   0.333   2.825   6.957
10808SOL    HW233324   0.262   2.794   6.813
10809SOL     OW33325   3.337   0.638   3.049
10809SOL    HW133326   3.411   0.692   3.090
10809SOL    HW233327   3.284   0.696   2.987
10810SOL     OW33328   0.670   2.193   6.458
10810SOL    HW133329   0.624   2.282   6.462
10810SOL    HW233330   0.638   2.143   6.377
10811SOL     OW33331   4.956   4.701   5.595
10811SOL    HW133332   5.031   4.696   5.661
10811SOL    HW233333   4.937   4.610   5.559
10812SOL     OW33334   6.380   2.475   2.764
10812SOL    HW133335   6.453   2.513   2.820
10812SOL    HW233336   6.419   2.432   2.682
10813SOL     OW33337   2.595   5.599   2.462
10813SOL    HW133338   2.515   5.631   2.512
10813SOL    HW233339   2.678   5.630   2.510
10814SOL     OW33340   1.758   6.539   5.299
10814SOL    HW133341   1.820   6.521   5.376
10814SOL    HW233342   1.681   6.594   5.331
10815SOL     OW33343   4.537   2.567   3.089
10815SOL    HW133344   4.563   2.548   3.183
10815SOL    HW233345   4.444   2.533   3.073
10816SOL     OW33346   2.264   1.883   2.373
10816SOL    HW133347   2.220   1.967   2.405
10816SOL    HW233348   2.337   1.906   2.309
10817SOL     OW33349   4.951   6.560   2.091
10817SOL    HW133350   4.903   6.551   2.003
10817SOL    HW233351   4.927   6.648   2.132
10818SOL     OW33352   4.624   3.046   6.887
10818SOL    HW133353   4.647   3.066   6.792
10818SOL    HW233354   4.651   3.122   6.946
10819SOL     OW33355   0.642   3.858   6.221
10819SOL    HW133356   0.704   3.858   6.142
10819SOL    HW233357   0.557   3.813   6.196
10820SOL     OW33358   0.196   0.149   4.400
10820SOL    HW133359   0.115   0.193   4.360
10820SOL    HW233360   0.279   0.196   4.368
10821SOL     OW33361   7.002   6.923   0.259
10821SOL    HW133362   6.920   6.945   0.311
10821SOL    HW233363   0.026   7.008   0.234
10822SOL     OW33364   1.383   4.933   0.833
10822SOL    HW133365   1.448   4.934   0.909
10822SOL    HW233366   1.290   4.928   0.868
10823SOL     OW33367   1.296   1.648   1.839
10823SOL    HW133368   1.303   1.566   1.782
10823SOL    HW233369   1.384   1.666   1.882
10824SOL     OW33370   5.603   0.613   2.917
10824SOL    HW133371   5.594   0.514   2.919
10824SOL    HW233372   5.673   0.639   2.850
10825SOL     OW33373   3.658   1.947   0.887
10825SOL    HW133374   3.672   1.858   0.845
10825SOL    HW233375   3.615   2.009   0.822
10826SOL     OW33376   6.742   3.207   1.524
10826SOL    HW133377   6.736   3.166   1.615
10826SOL    HW233378   6.656   3.192   1.475
10827SOL     OW33379   0.945   2.412   4.271
10827SOL    HW133380   0.879   2.462   4.215
10827SOL    HW233381   1.035   2.454   4.262
10828SOL     OW33382   1.321   6.069   0.087
10828SOL    HW133383   1.354   5.979   0.056
10828SOL    HW233384   1.367   6.140   0.035
10829SOL     OW33385   2.578   3.714   1.580
10829SOL    HW133386   2.563   3.767   1.496
10829SOL    HW233387   2.495   3.716   1.636
10830SOL     OW33388   4.639   1.797   3.622
10830SOL    HW133389   4.540   1.799   3.633
10830SOL    HW233390   4.681   1.753   3.701
10831SOL     OW33391   5.296   2.650   3.604
10831SOL    HW133392   5.204   2.672   3.571
10831SOL    HW233393   5.316   2.706   3.685
10832SOL     OW33394   6.896   2.685   1.673
10832SOL    HW133395   6.885   2.773   1.626
10832SOL    HW233396   6.991   2.655   1.668
10833SOL     OW33397   2.894   6.766   4.227
10833SOL    HW133398   2.903   6.861   4.257
10833SOL    HW233399   2.944   6.753   4.141
10834SOL     OW33400   0.069   1.078   5.624
10834SOL    HW133401   0.040   1.124   5.707
10834SOL    HW233402   0.144   1.015   5.644
10835SOL     OW33403   6.942   1.937   2.119
10835SOL    HW133404   6.857   1.886   2.131
10835SOL    HW233405   6.927   2.012   2.054
10836SOL     OW33406   1.259   2.490   0.009
10836SOL    HW133407   1.177   2.541   7.005
10836SOL    HW233408   1.312   2.545   0.073
10837SOL     OW33409   0.649   6.128   1.376
10837SOL    HW133410   0.671   6.040   1.417
10837SOL    HW233411   0.587   6.178   1.436
10838SOL     OW33412   6.390   6.724   1.280
10838SOL    HW133413   6.446   6.759   1.355
10838SOL    HW233414   6.417   6.630   1.260
10839SOL     OW33415   2.256   1.657   0.535
10839SOL    HW133416   2.172   1.698   0.572
10839SOL    HW233417   2.248   1.558   0.537
10840SOL     OW33418   3.846   4.858   2.606
10840SOL    HW133419   3.888   4.809   2.682
10840SOL    HW233420   3.885   4.950   2.600
10841SOL     OW33421   5.225   4.058   5.829
10841SOL    HW133422   5.168   3.976   5.834
10841SOL    HW233423   5.199   4.122   5.902
10842SOL     OW33424   6.922   2.988   0.967
10842SOL    HW133425   6.825   3.003   0.949
10842SOL    HW233426   6.949   3.041   1.048
10843SOL     OW33427   0.460   0.993   1.789
10843SOL    HW133428   0.382   1.048   1.759
10843SOL    HW233429   0.512   1.043   1.858
10844SOL     OW33430   3.551   6.683   3.491
10844SOL    HW133431   3.645   6.681   3.525
10844SOL    HW233432   3.490   6.640   3.558
10845SOL     OW33433   1.326   2.791   1.003
10845SOL    HW133434   1.275   2.877   1.010
10845SOL    HW233435   1.364   2.768   1.093
10846SOL     OW33436   3.642   1.995   1.853
10846SOL    HW133437   3.638   2.066   1.923
10846SOL    HW233438   3.552   1.985   1.811
10847SOL     OW33439   3.807   2.723   5.848
10847SOL    HW133440   3.871   2.794   5.877
10847SOL    HW233441   3.821   2.703   5.751
10848SOL     OW33442   1.656   1.357   0.693
10848SOL    HW133443   1.647   1.340   0.595
10848SOL    HW233444   1.679   1.271   0.740
10849SOL     OW33445   2.609   5.026   4.531
10849SOL    HW133446   2.693   4.990   4.491
10849SOL    HW233447   2.616   5.024   4.631
10850SOL     OW33448   5.689   0.853   1.771
10850SOL    HW133449   5.739   0.939   1.766
10850SOL    HW233450   5.742   0.780   1.727
10851SOL     OW33451   4.207   2.459   6.344
10851SOL    HW133452   4.169   2.375   6.306
10851SOL    HW233453   4.276   2.496   6.281
10852SOL     OW33454   0.540   6.625   6.363
10852SOL    HW133455   0.519   6.600   6.269
10852SOL    HW233456   0.509   6.719   6.380
10853SOL     OW33457   1.933   1.331   4.874
10853SOL    HW133458   1.986   1.363   4.795
10853SOL    HW233459   1.851   1.284   4.842
10854SOL     OW33460   0.374   6.395   0.133
10854SOL    HW133461   0.309   6.468   0.110
10854SOL    HW233462   0.461   6.436   0.162
10855SOL     OW33463   1.306   6.185   2.041
10855SOL    HW133464   1.302   6.244   1.960
10855SOL    HW233465   1.383   6.122   2.033
10856SOL     OW33466   6.059   0.392   6.464
10856SOL    HW133467   6.052   0.403   6.365
10856SOL    HW233468   5.989   0.326   6.495
10857SOL     OW33469   6.123   0.293   4.849
10857SOL    HW133470   6.067   0.270   4.770
10857SOL    HW233471   6.209   0.334   4.818
10858SOL     OW33472   2.366   2.248   6.877
10858SOL    HW133473   2.459   2.269   6.848
10858SOL    HW233474   2.328   2.177   6.818
10859SOL     OW33475   0.809   5.345   2.240
10859SOL    HW133476   0.799   5.399   2.156
10859SOL    HW233477   0.801   5.404   2.319
10860SOL     OW33478   5.729   2.944   0.724
10860SOL    HW133479   5.735   2.915   0.629
10860SOL    HW233480   5.675   2.878   0.776
10861SOL     OW33481   3.460   2.809   2.040
10861SOL    HW133482   3.559   2.818   2.038
10861SOL    HW233483   3.429   2.762   1.957
10862SOL     OW33484   3.547   3.072   5.833
10862SOL    HW133485   3.572   3.134   5.758
10862SOL    HW233486   3.453   3.092   5.862
10863SOL     OW33487   2.760   0.832   2.834
10863SOL    HW133488   2.679   0.786   2.870
10863SOL    HW233489   2.833   0.829   2.903
10864SOL     OW33490   3.119   4.652   1.804
10864SOL    HW133491   3.066   4.568   1.808
10864SOL    HW233492   3.071   4.725   1.853
10865SOL     OW33493   3.667   1.267   2.369
10865SOL    HW133494   3.707   1.179   2.395
10865SOL    HW233495   3.670   1.278   2.270
10866SOL     OW33496   6.857   3.576   2.950
10866SOL    HW133497   6.889   3.638   2.878
10866SOL    HW233498   6.933   3.521   2.983
10867SOL     OW33499   4.327   3.505   0.473
10867SOL    HW133500   4.327   3.605   0.480
10867SOL    HW233501   4.398   3.467   0.531
10868SOL     OW33502   1.600   0.711   5.214
10868SOL    HW133503   1.581   0.614   5.198
10868SOL    HW233504   1.514   0.762   5.211
10869NA      NA33505   0.086   1.692   5.972
10870NA      NA33506   4.579   4.592   5.072
10871NA      NA33507   1.371   4.978   2.882
10872NA      NA33508   5.989   3.881   3.419
10873NA      NA33509   3.751   2.267   5.375
10874NA      NA33510   2.392   5.060   0.350
10875NA      NA33511   1.180   5.370   6.920
10876NA      NA33512   3.822   4.438   0.912
10877NA      NA33513   4.132   4.921   0.521
10878NA      NA33514   3.342   0.969   6.420
10879NA      NA33515   5.655   0.032   1.427
10880NA      NA33516   2.276   6.528   5.276
10881NA      NA33517   4.091   5.396   1.821
10882NA      NA33518   3.606   3.293   6.446
   7.02359   7.02359   7.02359
