Generated by trjconv : CNT in water t= 517.00000
33518
    1C        C    1   2.838   2.766   4.748
    1C        C    2   2.897   2.717   4.867
    1C        C    3   2.842   2.766   4.986
    1C        C    4   2.842   2.769   4.261
    1C        C    5   2.899   2.726   4.383
    1C        C    6   2.847   2.775   4.505
    1C        C    7   3.008   2.638   4.625
    1C        C    8   2.892   2.719   4.626
    1C        C    9   3.071   2.596   4.744
    1C        C   10   3.008   2.630   4.866
    1C        C   11   3.182   2.497   4.976
    1C        C   12   3.063   2.570   4.980
    1C        C   13   2.845   2.762   3.773
    1C        C   14   2.896   2.716   3.896
    1C        C   15   2.843   2.767   4.017
    1C        C   16   3.013   2.641   4.139
    1C        C   17   2.897   2.722   4.139
    1C        C   18   3.076   2.606   4.261
    1C        C   19   3.016   2.647   4.382
    1C        C   20   3.207   2.558   4.505
    1C        C   21   3.074   2.606   4.504
    1C        C   22   3.278   2.537   4.625
    1C        C   23   3.205   2.549   4.745
    1C        C   24   3.411   2.482   4.862
    1C        C   25   3.268   2.498   4.862
    1C        C   26   3.491   2.468   4.976
    1C        C   27   2.845   2.766   3.285
    1C        C   28   2.898   2.717   3.407
    1C        C   29   2.847   2.765   3.529
    1C        C   30   3.017   2.637   3.650
    1C        C   31   2.901   2.718   3.651
    1C        C   32   3.076   2.603   3.773
    1C        C   33   3.015   2.639   3.895
    1C        C   34   3.204   2.546   4.018
    1C        C   35   3.075   2.604   4.018
    1C        C   36   3.274   2.526   4.139
    1C        C   37   3.207   2.554   4.260
    1C        C   38   3.414   2.512   4.379
    1C        C   39   3.274   2.532   4.383
    1C        C   40   3.486   2.509   4.500
    1C        C   41   3.415   2.504   4.622
    1C        C   42   3.630   2.494   4.743
    1C        C   43   3.488   2.491   4.743
    1C        C   44   3.706   2.491   4.862
    1C        C   45   3.628   2.490   4.979
    1C        C   46   2.835   2.753   2.795
    1C        C   47   2.893   2.712   2.917
    1C        C   48   2.844   2.761   3.040
    1C        C   49   3.015   2.639   3.164
    1C        C   50   2.899   2.719   3.163
    1C        C   51   3.079   2.603   3.285
    1C        C   52   3.013   2.635   3.406
    1C        C   53   3.207   2.545   3.530
    1C        C   54   3.077   2.600   3.527
    1C        C   55   3.273   2.519   3.652
    1C        C   56   3.205   2.544   3.774
    1C        C   57   3.414   2.510   3.894
    1C        C   58   3.274   2.527   3.896
    1C        C   59   3.485   2.505   4.016
    1C        C   60   3.413   2.505   4.137
    1C        C   61   3.627   2.506   4.257
    1C        C   62   3.486   2.504   4.258
    1C        C   63   3.698   2.516   4.379
    1C        C   64   3.628   2.510   4.501
    1C        C   65   3.836   2.550   4.620
    1C        C   66   3.701   2.510   4.622
    1C        C   67   3.907   2.568   4.740
    1C        C   68   3.842   2.528   4.859
    1C        C   69   4.053   2.585   4.976
    1C        C   70   3.923   2.532   4.973
    1C        C   71   2.824   2.733   2.310
    1C        C   72   2.877   2.686   2.432
    1C        C   73   2.828   2.741   2.552
    1C        C   74   3.003   2.621   2.675
    1C        C   75   2.887   2.703   2.674
    1C        C   76   3.067   2.590   2.797
    1C        C   77   3.011   2.633   2.919
    1C        C   78   3.206   2.551   3.039
    1C        C   79   3.074   2.603   3.041
    1C        C   80   3.274   2.527   3.160
    1C        C   81   3.208   2.547   3.284
    1C        C   82   3.414   2.504   3.405
    1C        C   83   3.274   2.527   3.407
    1C        C   84   3.484   2.500   3.528
    1C        C   85   3.413   2.503   3.650
    1C        C   86   3.625   2.504   3.769
    1C        C   87   3.484   2.498   3.772
    1C        C   88   3.695   2.519   3.891
    1C        C   89   3.626   2.511   4.014
    1C        C   90   3.835   2.553   4.136
    1C        C   91   3.699   2.516   4.136
    1C        C   92   3.904   2.570   4.258
    1C        C   93   3.835   2.550   4.379
    1C        C   94   4.033   2.635   4.496
    1C        C   95   3.905   2.574   4.499
    1C        C   96   4.095   2.674   4.617
    1C        C   97   4.033   2.634   4.738
    1C        C   98   4.195   2.763   4.863
    1C        C   99   4.102   2.654   4.860
    1C        C  100   4.208   2.843   4.977
    1C        C  101   2.822   2.729   2.069
    1C        C  102   2.993   2.597   2.191
    1C        C  103   2.877   2.681   2.189
    1C        C  104   3.064   2.576   2.312
    1C        C  105   2.999   2.613   2.432
    1C        C  106   3.198   2.536   2.550
    1C        C  107   3.065   2.586   2.553
    1C        C  108   3.266   2.518   2.672
    1C        C  109   3.200   2.542   2.794
    1C        C  110   3.410   2.503   2.916
    1C        C  111   3.271   2.526   2.915
    1C        C  112   3.482   2.495   3.037
    1C        C  113   3.413   2.501   3.160
    1C        C  114   3.624   2.508   3.280
    1C        C  115   3.483   2.500   3.282
    1C        C  116   3.693   2.517   3.403
    1C        C  117   3.625   2.506   3.527
    1C        C  118   3.835   2.545   3.647
    1C        C  119   3.698   2.513   3.648
    1C        C  120   3.901   2.572   3.769
    1C        C  121   3.832   2.552   3.891
    1C        C  122   4.025   2.642   4.013
    1C        C  123   3.899   2.578   4.013
    1C        C  124   4.091   2.672   4.134
    1C        C  125   4.031   2.633   4.255
    1C        C  126   4.205   2.761   4.375
    1C        C  127   4.094   2.673   4.375
    1C        C  128   4.252   2.815   4.496
    1C        C  129   4.205   2.763   4.618
    1C        C  130   4.332   2.930   4.740
    1C        C  131   4.249   2.815   4.742
    1C        C  132   4.358   3.000   4.860
    1C        C  133   4.285   2.959   4.972
    1C        C  134   3.169   2.470   2.083
    1C        C  135   3.034   2.508   2.087
    1C        C  136   3.260   2.481   2.189
    1C        C  137   3.197   2.525   2.307
    1C        C  138   3.405   2.483   2.430
    1C        C  139   3.267   2.513   2.429
    1C        C  140   3.478   2.481   2.551
    1C        C  141   3.405   2.492   2.672
    1C        C  142   3.620   2.502   2.790
    1C        C  143   3.479   2.496   2.793
    1C        C  144   3.692   2.510   2.911
    1C        C  145   3.623   2.504   3.035
    1C        C  146   3.831   2.543   3.158
    1C        C  147   3.693   2.511   3.157
    1C        C  148   3.899   2.567   3.280
    1C        C  149   3.830   2.551   3.402
    1C        C  150   4.030   2.626   3.523
    1C        C  151   3.899   2.573   3.524
    1C        C  152   4.091   2.667   3.644
    1C        C  153   4.026   2.638   3.766
    1C        C  154   4.195   2.763   3.888
    1C        C  155   4.081   2.679   3.889
    1C        C  156   4.250   2.811   4.009
    1C        C  157   4.201   2.761   4.132
    1C        C  158   4.342   2.922   4.252
    1C        C  159   4.256   2.811   4.253
    1C        C  160   4.379   2.984   4.373
    1C        C  161   4.336   2.929   4.496
    1C        C  162   4.441   3.113   4.617
    1C        C  163   4.370   2.991   4.618
    1C        C  164   4.468   3.184   4.736
    1C        C  165   4.432   3.121   4.857
    1C        C  166   4.516   3.321   4.973
    1C        C  167   4.475   3.189   4.972
    1C        C  168   3.478   2.434   2.077
    1C        C  169   3.400   2.463   2.190
    1C        C  170   3.619   2.470   2.307
    1C        C  171   3.476   2.468   2.309
    1C        C  172   3.692   2.490   2.426
    1C        C  173   3.619   2.486   2.547
    1C        C  174   3.825   2.547   2.667
    1C        C  175   3.689   2.508   2.667
    1C        C  176   3.893   2.567   2.789
    1C        C  177   3.830   2.544   2.913
    1C        C  178   4.025   2.627   3.033
    1C        C  179   3.897   2.567   3.035
    1C        C  180   4.088   2.661   3.154
    1C        C  181   4.027   2.626   3.277
    1C        C  182   4.200   2.747   3.398
    1C        C  183   4.089   2.659   3.399
    1C        C  184   4.253   2.797   3.519
    1C        C  185   4.204   2.751   3.644
    1C        C  186   4.345   2.909   3.765
    1C        C  187   4.254   2.802   3.766
    1C        C  188   4.384   2.974   3.884
    1C        C  189   4.338   2.921   4.007
    1C        C  190   4.450   3.103   4.128
    1C        C  191   4.380   2.980   4.129
    1C        C  192   4.473   3.171   4.250
    1C        C  193   4.446   3.109   4.374
    1C        C  194   4.500   3.315   4.491
    1C        C  195   4.469   3.178   4.495
    1C        C  196   4.524   3.386   4.611
    1C        C  197   4.509   3.320   4.735
    1C        C  198   4.550   3.536   4.849
    1C        C  199   4.532   3.394   4.854
    1C        C  200   4.580   3.619   4.962
    1C        C  201   3.617   2.418   2.072
    1C        C  202   3.827   2.512   2.183
    1C        C  203   3.692   2.463   2.185
    1C        C  204   3.901   2.539   2.301
    1C        C  205   3.829   2.522   2.422
    1C        C  206   4.020   2.619   2.543
    1C        C  207   3.892   2.558   2.543
    1C        C  208   4.081   2.659   2.664
    1C        C  209   4.019   2.630   2.787
    1C        C  210   4.195   2.749   2.908
    1C        C  211   4.083   2.663   2.909
    1C        C  212   4.254   2.792   3.029
    1C        C  213   4.202   2.745   3.151
    1C        C  214   4.341   2.903   3.274
    1C        C  215   4.250   2.795   3.274
    1C        C  216   4.381   2.963   3.395
    1C        C  217   4.342   2.906   3.518
    1C        C  218   4.439   3.095   3.638
    1C        C  219   4.378   2.968   3.640
    1C        C  220   4.470   3.163   3.758
    1C        C  221   4.444   3.102   3.883
    1C        C  222   4.504   3.305   4.002
    1C        C  223   4.474   3.167   4.004
    1C        C  224   4.515   3.377   4.124
    1C        C  225   4.505   3.308   4.247
    1C        C  226   4.520   3.523   4.367
    1C        C  227   4.514   3.382   4.367
    1C        C  228   4.522   3.597   4.488
    1C        C  229   4.531   3.527   4.610
    1C        C  230   4.502   3.745   4.726
    1C        C  231   4.535   3.606   4.727
    1C        C  232   4.498   3.821   4.844
    1C        C  233   4.546   3.755   4.958
    1C        C  234   4.022   2.605   2.062
    1C        C  235   3.897   2.544   2.066
    1C        C  236   4.088   2.646   2.179
    1C        C  237   4.022   2.612   2.299
    1C        C  238   4.202   2.729   2.421
    1C        C  239   4.085   2.648   2.421
    1C        C  240   4.255   2.782   2.541
    1C        C  241   4.194   2.744   2.663
    1C        C  242   4.339   2.900   2.783
    1C        C  243   4.248   2.792   2.784
    1C        C  244   4.383   2.959   2.904
    1C        C  245   4.344   2.902   3.027
    1C        C  246   4.442   3.088   3.149
    1C        C  247   4.380   2.960   3.151
    1C        C  248   4.463   3.156   3.270
    1C        C  249   4.440   3.092   3.394
    1C        C  250   4.496   3.299   3.513
    1C        C  251   4.462   3.161   3.515
    1C        C  252   4.506   3.370   3.634
    1C        C  253   4.498   3.301   3.758
    1C        C  254   4.517   3.514   3.879
    1C        C  255   4.513   3.373   3.879
    1C        C  256   4.510   3.587   3.999
    1C        C  257   4.516   3.518   4.122
    1C        C  258   4.486   3.729   4.241
    1C        C  259   4.513   3.591   4.243
    1C        C  260   4.467   3.801   4.361
    1C        C  261   4.486   3.734   4.484
    1C        C  262   4.421   3.940   4.605
    1C        C  263   4.472   3.808   4.603
    1C        C  264   4.401   4.014   4.723
    1C        C  265   4.436   3.948   4.843
    1C        C  266   4.316   4.129   4.960
    1C        C  267   4.396   4.015   4.959
    1C        C  268   4.263   2.775   2.064
    1C        C  269   4.204   2.726   2.181
    1C        C  270   4.354   2.882   2.298
    1C        C  271   4.259   2.776   2.301
    1C        C  272   4.389   2.947   2.418
    1C        C  273   4.346   2.889   2.540
    1C        C  274   4.451   3.077   2.660
    1C        C  275   4.387   2.952   2.661
    1C        C  276   4.476   3.148   2.780
    1C        C  277   4.449   3.083   2.903
    1C        C  278   4.503   3.288   3.025
    1C        C  279   4.467   3.151   3.025
    1C        C  280   4.510   3.361   3.145
    1C        C  281   4.496   3.293   3.268
    1C        C  282   4.509   3.507   3.388
    1C        C  283   4.508   3.366   3.389
    1C        C  284   4.510   3.579   3.509
    1C        C  285   4.512   3.511   3.633
    1C        C  286   4.483   3.721   3.751
    1C        C  287   4.509   3.582   3.755
    1C        C  288   4.468   3.790   3.873
    1C        C  289   4.481   3.726   3.998
    1C        C  290   4.426   3.932   4.114
    1C        C  291   4.466   3.797   4.119
    1C        C  292   4.398   3.998   4.236
    1C        C  293   4.424   3.935   4.360
    1C        C  294   4.326   4.126   4.478
    1C        C  295   4.393   4.002   4.481
    1C        C  296   4.285   4.189   4.598
    1C        C  297   4.323   4.134   4.722
    1C        C  298   4.202   4.316   4.836
    1C        C  299   4.278   4.194   4.842
    1C        C  300   4.172   4.406   4.943
    1C        C  301   4.354   2.880   2.059
    1C        C  302   4.465   3.067   2.174
    1C        C  303   4.403   2.938   2.177
    1C        C  304   4.482   3.138   2.295
    1C        C  305   4.453   3.073   2.417
    1C        C  306   4.510   3.280   2.537
    1C        C  307   4.480   3.142   2.537
    1C        C  308   4.511   3.353   2.657
    1C        C  309   4.504   3.286   2.782
    1C        C  310   4.514   3.499   2.897
    1C        C  311   4.516   3.358   2.903
    1C        C  312   4.508   3.570   3.019
    1C        C  313   4.511   3.503   3.143
    1C        C  314   4.482   3.714   3.261
    1C        C  315   4.503   3.574   3.264
    1C        C  316   4.467   3.785   3.382
    1C        C  317   4.483   3.718   3.506
    1C        C  318   4.421   3.922   3.625
    1C        C  319   4.464   3.787   3.627
    1C        C  320   4.394   3.989   3.747
    1C        C  321   4.424   3.924   3.869
    1C        C  322   4.315   4.108   3.990
    1C        C  323   4.394   3.990   3.990
    1C        C  324   4.280   4.172   4.111
    1C        C  325   4.328   4.121   4.234
    1C        C  326   4.186   4.281   4.354
    1C        C  327   4.283   4.179   4.354
    1C        C  328   4.137   4.339   4.473
    1C        C  329   4.191   4.294   4.595
    1C        C  330   4.029   4.441   4.712
    1C        C  331   4.143   4.356   4.713
    1C        C  332   3.972   4.497   4.828
    1C        C  333   4.057   4.485   4.939
    1C        C  334   4.553   3.266   2.063
    1C        C  335   4.539   3.127   2.067
    1C        C  336   4.530   3.348   2.175
    1C        C  337   4.505   3.279   2.295
    1C        C  338   4.519   3.493   2.412
    1C        C  339   4.518   3.352   2.415
    1C        C  340   4.510   3.567   2.532
    1C        C  341   4.513   3.494   2.653
    1C        C  342   4.480   3.706   2.774
    1C        C  343   4.507   3.567   2.774
    1C        C  344   4.462   3.776   2.895
    1C        C  345   4.481   3.709   3.017
    1C        C  346   4.420   3.915   3.136
    1C        C  347   4.463   3.780   3.138
    1C        C  348   4.389   3.980   3.257
    1C        C  349   4.416   3.917   3.380
    1C        C  350   4.318   4.105   3.502
    1C        C  351   4.391   3.984   3.502
    1C        C  352   4.279   4.166   3.623
    1C        C  353   4.319   4.109   3.746
    1C        C  354   4.174   4.265   3.865
    1C        C  355   4.273   4.164   3.867
    1C        C  356   4.125   4.318   3.987
    1C        C  357   4.183   4.273   4.108
    1C        C  358   4.015   4.403   4.230
    1C        C  359   4.131   4.322   4.230
    1C        C  360   3.954   4.447   4.350
    1C        C  361   4.017   4.413   4.472
    1C        C  362   3.832   4.521   4.589
    1C        C  363   3.961   4.464   4.591
    1C        C  364   3.766   4.554   4.709
    1C        C  365   3.839   4.546   4.830
    1C        C  366   3.627   4.588   4.947
    1C        C  367   3.765   4.568   4.947
    1C        C  368   4.507   3.563   2.053
    1C        C  369   4.517   3.488   2.171
    1C        C  370   4.495   3.705   2.286
    1C        C  371   4.513   3.565   2.290
    1C        C  372   4.480   3.775   2.407
    1C        C  373   4.494   3.707   2.530
    1C        C  374   4.421   3.908   2.647
    1C        C  375   4.469   3.776   2.651
    1C        C  376   4.389   3.972   2.769
    1C        C  377   4.419   3.911   2.893
    1C        C  378   4.312   4.097   3.013
    1C        C  379   4.387   3.977   3.014
    1C        C  380   4.272   4.156   3.135
    1C        C  381   4.312   4.099   3.257
    1C        C  382   4.173   4.259   3.377
    1C        C  383   4.270   4.157   3.379
    1C        C  384   4.119   4.307   3.498
    1C        C  385   4.179   4.267   3.619
    1C        C  386   4.007   4.391   3.739
    1C        C  387   4.123   4.310   3.741
    1C        C  388   3.946   4.426   3.862
    1C        C  389   4.008   4.397   3.986
    1C        C  390   3.821   4.492   4.108
    1C        C  391   3.952   4.437   4.109
    1C        C  392   3.752   4.517   4.228
    1C        C  393   3.823   4.501   4.349
    1C        C  394   3.618   4.556   4.474
    1C        C  395   3.757   4.534   4.469
    1C        C  396   3.548   4.564   4.596
    1C        C  397   3.626   4.571   4.713
    1C        C  398   3.410   4.550   4.838
    1C        C  399   3.549   4.574   4.832
    1C        C  400   3.344   4.512   4.956
    1C        C  401   4.506   3.702   2.052
    1C        C  402   4.450   3.916   2.163
    1C        C  403   4.489   3.781   2.167
    1C        C  404   4.406   3.974   2.284
    1C        C  405   4.429   3.907   2.406
    1C        C  406   4.324   4.096   2.524
    1C        C  407   4.397   3.975   2.525
    1C        C  408   4.273   4.147   2.645
    1C        C  409   4.313   4.091   2.769
    1C        C  410   4.176   4.256   2.886
    1C        C  411   4.273   4.153   2.889
    1C        C  412   4.122   4.300   3.009
    1C        C  413   4.175   4.259   3.133
    1C        C  414   4.002   4.384   3.251
    1C        C  415   4.120   4.307   3.255
    1C        C  416   3.945   4.426   3.374
    1C        C  417   4.004   4.390   3.497
    1C        C  418   3.813   4.483   3.620
    1C        C  419   3.942   4.425   3.619
    1C        C  420   3.749   4.506   3.744
    1C        C  421   3.817   4.484   3.865
    1C        C  422   3.611   4.535   3.985
    1C        C  423   3.750   4.506   3.987
    1C        C  424   3.543   4.547   4.108
    1C        C  425   3.613   4.544   4.230
    1C        C  426   3.403   4.544   4.357
    1C        C  427   3.544   4.553   4.353
    1C        C  428   3.333   4.545   4.479
    1C        C  429   3.407   4.553   4.599
    1C        C  430   3.194   4.512   4.722
    1C        C  431   3.333   4.542   4.720
    1C        C  432   3.126   4.490   4.844
    1C        C  433   3.207   4.491   4.958
    1C        C  434   4.385   4.126   2.051
    1C        C  435   4.445   4.000   2.051
    1C        C  436   4.307   4.167   2.163
    1C        C  437   4.335   4.098   2.284
    1C        C  438   4.183   4.254   2.400
    1C        C  439   4.284   4.155   2.402
    1C        C  440   4.129   4.303   2.521
    1C        C  441   4.181   4.254   2.643
    1C        C  442   4.005   4.380   2.764
    1C        C  443   4.121   4.300   2.763
    1C        C  444   3.945   4.416   2.887
    1C        C  445   4.005   4.379   3.009
    1C        C  446   3.812   4.475   3.131
    1C        C  447   3.940   4.415   3.129
    1C        C  448   3.748   4.501   3.254
    1C        C  449   3.815   4.482   3.377
    1C        C  450   3.607   4.527   3.496
    1C        C  451   3.747   4.507   3.498
    1C        C  452   3.539   4.537   3.619
    1C        C  453   3.610   4.532   3.742
    1C        C  454   3.398   4.543   3.862
    1C        C  455   3.540   4.546   3.863
    1C        C  456   3.333   4.527   3.986
    1C        C  457   3.403   4.530   4.109
    1C        C  458   3.199   4.495   4.237
    1C        C  459   3.336   4.529   4.234
    1C        C  460   3.130   4.478   4.359
    1C        C  461   3.197   4.506   4.480
    1C        C  462   2.996   4.432   4.602
    1C        C  463   3.126   4.488   4.601
    1C        C  464   2.930   4.396   4.721
    1C        C  465   2.990   4.442   4.842
    1C        C  466   2.803   4.336   4.959
    1C        C  467   2.904   4.433   4.955
    1C        C  468   4.127   4.289   2.041
    1C        C  469   4.190   4.249   2.160
    1C        C  470   4.006   4.372   2.278
    1C        C  471   4.125   4.295   2.278
    1C        C  472   3.946   4.410   2.400
    1C        C  473   4.010   4.380   2.522
    1C        C  474   3.811   4.465   2.640
    1C        C  475   3.942   4.412   2.642
    1C        C  476   3.745   4.489   2.763
    1C        C  477   3.814   4.470   2.885
    1C        C  478   3.608   4.521   3.009
    1C        C  479   3.746   4.492   3.007
    1C        C  480   3.535   4.528   3.130
    1C        C  481   3.609   4.524   3.251
    1C        C  482   3.396   4.532   3.376
    1C        C  483   3.538   4.531   3.373
    1C        C  484   3.327   4.527   3.498
    1C        C  485   3.398   4.537   3.620
    1C        C  486   3.189   4.499   3.745
    1C        C  487   3.326   4.532   3.742
    1C        C  488   3.128   4.469   3.869
    1C        C  489   3.197   4.488   3.991
    1C        C  490   3.002   4.415   4.115
    1C        C  491   3.131   4.474   4.115
    1C        C  492   2.942   4.379   4.238
    1C        C  493   3.000   4.423   4.359
    1C        C  494   2.827   4.300   4.483
    1C        C  495   2.937   4.389   4.481
    1C        C  496   2.769   4.256   4.604
    1C        C  497   2.817   4.311   4.724
    1C        C  498   2.666   4.161   4.844
    1C        C  499   2.753   4.272   4.844
    1C        C  500   2.599   4.114   4.958
    1C        C  501   4.007   4.360   2.038
    1C        C  502   3.815   4.462   2.156
    1C        C  503   3.943   4.402   2.155
    1C        C  504   3.744   4.484   2.276
    1C        C  505   3.813   4.456   2.396
    1C        C  506   3.606   4.511   2.519
    1C        C  507   3.743   4.480   2.517
    1C        C  508   3.535   4.519   2.641
    1C        C  509   3.606   4.513   2.763
    1C        C  510   3.397   4.527   2.885
    1C        C  511   3.538   4.527   2.886
    1C        C  512   3.325   4.517   3.006
    1C        C  513   3.394   4.527   3.128
    1C        C  514   3.190   4.492   3.257
    1C        C  515   3.327   4.524   3.253
    1C        C  516   3.121   4.469   3.378
    1C        C  517   3.189   4.496   3.499
    1C        C  518   3.000   4.407   3.622
    1C        C  519   3.122   4.478   3.622
    1C        C  520   2.943   4.367   3.745
    1C        C  521   3.003   4.405   3.868
    1C        C  522   2.839   4.279   3.997
    1C        C  523   2.946   4.373   3.993
    1C        C  524   2.787   4.234   4.120
    1C        C  525   2.836   4.286   4.241
    1C        C  526   2.691   4.133   4.362
    1C        C  527   2.781   4.242   4.363
    1C        C  528   2.645   4.080   4.485
    1C        C  529   2.685   4.142   4.605
    1C        C  530   2.582   3.958   4.727
    1C        C  531   2.637   4.089   4.727
    1C        C  532   2.547   3.898   4.852
    1C        C  533   2.529   3.992   4.958
    1C        C  534   3.619   4.554   2.038
    1C        C  535   3.754   4.517   2.042
    1C        C  536   3.535   4.531   2.152
    1C        C  537   3.603   4.503   2.274
    1C        C  538   3.394   4.518   2.398
    1C        C  539   3.535   4.515   2.397
    1C        C  540   3.323   4.505   2.519
    1C        C  541   3.394   4.513   2.641
    1C        C  542   3.186   4.486   2.765
    1C        C  543   3.324   4.514   2.764
    1C        C  544   3.119   4.465   2.888
    1C        C  545   3.187   4.486   3.010
    1C        C  546   3.000   4.395   3.135
    1C        C  547   3.125   4.461   3.135
    1C        C  548   2.939   4.362   3.257
    1C        C  549   2.996   4.404   3.380
    1C        C  550   2.830   4.275   3.505
    1C        C  551   2.936   4.368   3.502
    1C        C  552   2.780   4.228   3.628
    1C        C  553   2.830   4.282   3.749
    1C        C  554   2.700   4.122   3.876
    1C        C  555   2.787   4.233   3.874
    1C        C  556   2.660   4.063   3.999
    1C        C  557   2.697   4.124   4.121
    1C        C  558   2.595   3.939   4.245
    1C        C  559   2.656   4.066   4.242
    1C        C  560   2.567   3.878   4.369
    1C        C  561   2.586   3.951   4.489
    1C        C  562   2.525   3.746   4.617
    1C        C  563   2.560   3.883   4.610
    1C        C  564   2.513   3.680   4.741
    1C        C  565   2.519   3.758   4.860
    1C        C  566   2.526   3.544   4.980
    1C        C  567   2.518   3.682   4.978
    1C        C  568   3.326   4.476   2.038
    1C        C  569   3.394   4.513   2.154
    1C        C  570   3.183   4.482   2.278
    1C        C  571   3.322   4.511   2.276
    1C        C  572   3.115   4.461   2.401
    1C        C  573   3.184   4.482   2.522
    1C        C  574   2.990   4.400   2.645
    1C        C  575   3.116   4.464   2.645
    1C        C  576   2.933   4.360   2.768
    1C        C  577   2.996   4.396   2.889
    1C        C  578   2.827   4.273   3.015
    1C        C  579   2.937   4.361   3.013
    1C        C  580   2.778   4.222   3.138
    1C        C  581   2.829   4.274   3.259
    1C        C  582   2.692   4.115   3.384
    1C        C  583   2.780   4.225   3.383
    1C        C  584   2.658   4.057   3.508
    1C        C  585   2.693   4.117   3.631
    1C        C  586   2.594   3.934   3.757
    1C        C  587   2.658   4.061   3.756
    1C        C  588   2.565   3.872   3.880
    1C        C  589   2.594   3.938   4.001
    1C        C  590   2.528   3.737   4.126
    1C        C  591   2.567   3.873   4.123
    1C        C  592   2.518   3.671   4.251
    1C        C  593   2.533   3.741   4.373
    1C        C  594   2.510   3.532   4.497
    1C        C  595   2.519   3.673   4.496
    1C        C  596   2.512   3.463   4.621
    1C        C  597   2.512   3.538   4.741
    1C        C  598   2.538   3.327   4.860
    1C        C  599   2.523   3.467   4.863
    1C        C  600   2.530   3.252   4.978
    1C        C  601   3.192   4.443   2.043
    1C        C  602   2.978   4.401   2.160
    1C        C  603   3.113   4.448   2.159
    1C        C  604   2.923   4.362   2.284
    1C        C  605   2.989   4.397   2.404
    1C        C  606   2.816   4.272   2.527
    1C        C  607   2.927   4.360   2.525
    1C        C  608   2.769   4.221   2.650
    1C        C  609   2.822   4.273   2.770
    1C        C  610   2.687   4.113   2.895
    1C        C  611   2.773   4.225   2.893
    1C        C  612   2.650   4.053   3.018
    1C        C  613   2.686   4.115   3.140
    1C        C  614   2.586   3.930   3.267
    1C        C  615   2.646   4.058   3.263
    1C        C  616   2.566   3.864   3.390
    1C        C  617   2.595   3.931   3.511
    1C        C  618   2.530   3.732   3.638
    1C        C  619   2.569   3.868   3.635
    1C        C  620   2.512   3.664   3.760
    1C        C  621   2.527   3.735   3.881
    1C        C  622   2.509   3.526   4.010
    1C        C  623   2.517   3.667   4.004
    1C        C  624   2.514   3.457   4.133
    1C        C  625   2.510   3.530   4.254
    1C        C  626   2.541   3.321   4.379
    1C        C  627   2.515   3.460   4.376
    1C        C  628   2.557   3.251   4.501
    1C        C  629   2.539   3.325   4.621
    1C        C  630   2.603   3.119   4.746
    1C        C  631   2.560   3.254   4.741
    1C        C  632   2.619   3.049   4.869
    1C        C  633   2.558   3.115   4.981
    1C        C  634   2.780   4.305   2.056
    1C        C  635   2.887   4.395   2.049
    1C        C  636   2.743   4.233   2.170
    1C        C  637   2.809   4.276   2.287
    1C        C  638   2.675   4.108   2.407
    1C        C  639   2.761   4.220   2.408
    1C        C  640   2.643   4.048   2.531
    1C        C  641   2.689   4.104   2.652
    1C        C  642   2.592   3.919   2.777
    1C        C  643   2.649   4.048   2.776
    1C        C  644   2.561   3.857   2.900
    1C        C  645   2.588   3.926   3.021
    1C        C  646   2.532   3.725   3.147
    1C        C  647   2.564   3.863   3.145
    1C        C  648   2.516   3.657   3.269
    1C        C  649   2.531   3.727   3.391
    1C        C  650   2.505   3.522   3.521
    1C        C  651   2.515   3.662   3.516
    1C        C  652   2.507   3.451   3.643
    1C        C  653   2.508   3.523   3.765
    1C        C  654   2.534   3.315   3.889
    1C        C  655   2.511   3.454   3.888
    1C        C  656   2.553   3.247   4.011
    1C        C  657   2.538   3.318   4.133
    1C        C  658   2.610   3.121   4.258
    1C        C  659   2.558   3.253   4.256
    1C        C  660   2.634   3.055   4.381
    1C        C  661   2.604   3.118   4.503
    1C        C  662   2.710   2.935   4.626
    1C        C  663   2.629   3.051   4.625
    1C        C  664   2.745   2.873   4.748
    1C        C  665   2.697   2.929   4.869
    1C        C  666   2.741   2.862   4.984
    1C        C  667   2.682   4.023   2.053
    1C        C  668   2.683   4.106   2.166
    1C        C  669   2.590   3.911   2.291
    1C        C  670   2.646   4.042   2.286
    1C        C  671   2.554   3.849   2.413
    1C        C  672   2.582   3.921   2.531
    1C        C  673   2.522   3.720   2.658
    1C        C  674   2.562   3.855   2.654
    1C        C  675   2.513   3.649   2.780
    1C        C  676   2.528   3.720   2.901
    1C        C  677   2.511   3.512   3.029
    1C        C  678   2.521   3.653   3.026
    1C        C  679   2.509   3.444   3.152
    1C        C  680   2.505   3.516   3.274
    1C        C  681   2.534   3.311   3.402
    1C        C  682   2.510   3.450   3.399
    1C        C  683   2.554   3.242   3.524
    1C        C  684   2.532   3.312   3.644
    1C        C  685   2.604   3.114   3.769
    1C        C  686   2.549   3.244   3.767
    1C        C  687   2.640   3.051   3.891
    1C        C  688   2.606   3.116   4.011
    1C        C  689   2.711   2.936   4.138
    1C        C  690   2.637   3.056   4.136
    1C        C  691   2.752   2.877   4.260
    1C        C  692   2.704   2.932   4.381
    1C        C  693   2.750   2.878   4.503
    1C        C  694   2.624   3.896   2.053
    1C        C  695   2.527   3.705   2.176
    1C        C  696   2.578   3.837   2.172
    1C        C  697   2.512   3.636   2.298
    1C        C  698   2.522   3.712   2.417
    1C        C  699   2.493   3.503   2.543
    1C        C  700   2.507   3.644   2.540
    1C        C  701   2.504   3.432   2.665
    1C        C  702   2.502   3.508   2.784
    1C        C  703   2.527   3.300   2.910
    1C        C  704   2.504   3.440   2.908
    1C        C  705   2.548   3.235   3.034
    1C        C  706   2.536   3.305   3.156
    1C        C  707   2.600   3.108   3.280
    1C        C  708   2.552   3.241   3.281
    1C        C  709   2.635   3.045   3.401
    1C        C  710   2.609   3.112   3.523
    1C        C  711   2.710   2.929   3.651
    1C        C  712   2.637   3.050   3.648
    1C        C  713   2.756   2.872   3.771
    1C        C  714   2.714   2.931   3.893
    1C        C  715   2.755   2.877   4.017
    1C        C  716   2.453   3.499   2.062
    1C        C  717   2.489   3.634   2.062
    1C        C  718   2.464   3.421   2.182
    1C        C  719   2.483   3.497   2.301
    1C        C  720   2.513   3.289   2.422
    1C        C  721   2.488   3.428   2.424
    1C        C  722   2.539   3.223   2.544
    1C        C  723   2.524   3.293   2.666
    1C        C  724   2.591   3.095   2.792
    1C        C  725   2.541   3.227   2.790
    1C        C  726   2.623   3.035   2.915
    1C        C  727   2.598   3.103   3.037
    1C        C  728   2.708   2.923   3.159
    1C        C  729   2.632   3.042   3.159
    1C        C  730   2.748   2.868   3.283
    1C        C  731   2.716   2.929   3.406
    1C        C  732   2.757   2.873   3.530
    1C        C  733   2.486   3.196   2.072
    1C        C  734   2.487   3.280   2.184
    1C        C  735   2.586   3.084   2.304
    1C        C  736   2.529   3.215   2.303
    1C        C  737   2.619   3.022   2.426
    1C        C  738   2.593   3.092   2.546
    1C        C  739   2.693   2.909   2.670
    1C        C  740   2.623   3.032   2.670
    1C        C  741   2.739   2.856   2.793
    1C        C  742   2.699   2.916   2.914
    1C        C  743   2.744   2.861   3.037
    1C        C  744   2.543   3.069   2.071
    1C        C  745   2.682   2.895   2.185
    1C        C  746   2.603   3.012   2.184
    1C        C  747   2.727   2.838   2.306
    1C        C  748   2.689   2.899   2.427
    1C        C  749   2.730   2.844   2.550
    1C        C  750   2.731   2.834   2.068
    1C        C  751   3.669   2.340   1.957
    1C        O  752   3.750   2.245   1.973
    1C        O  753   3.708   2.411   1.844
    1C        C  754   4.637   3.040   1.997
    1C        O  755   4.609   2.993   1.884
    1C        O  756   4.774   3.036   2.025
    1C        C  757   4.449   4.230   1.967
    1C        O  758   4.523   4.317   2.020
    1C        O  759   4.481   4.212   1.832
    1C        C  760   3.577   4.660   1.943
    1C        O  761   3.645   4.765   1.924
    1C        O  762   3.537   4.632   1.812
    1C        C  763   2.870   4.515   1.964
    1C        O  764   2.870   4.502   1.839
    1C        O  765   2.839   4.642   2.015
    1C        C  766   2.348   3.461   1.964
    1C        O  767   2.377   3.467   1.842
    1C        O  768   2.210   3.457   1.987
    1C        C  769   4.701   3.586   5.041
    1C        O  770   4.687   3.535   5.155
    1C        O  771   4.834   3.582   4.998
    1C        C  772   4.256   4.424   5.064
    1C        O  773   4.218   4.416   5.183
    1C        O  774   4.377   4.494   5.056
    1C        C  775   4.144   2.534   5.080
    1C        O  776   4.226   2.441   5.056
    1C        O  777   4.139   2.574   5.214
    1C        C  778   2.874   4.556   5.032
    1C        O  779   2.819   4.657   4.980
    1C        O  780   2.938   4.575   5.155
    1C        C  781   2.527   3.055   5.113
    1C        O  782   2.424   2.985   5.129
    1C        O  783   2.576   3.124   5.223
    1C        C  784   2.400   4.005   5.030
    1C        O  785   2.286   3.990   4.979
    1C        O  786   2.390   4.006   5.169
    1C        C  787   2.938   2.408   2.035
    1C        O  788   2.872   2.440   1.932
    1C        O  789   2.899   2.296   2.107
    1C        C  790   3.164   2.372   5.054
    1C        O  791   3.165   2.265   4.988
    1C        O  792   3.187   2.363   5.192
    1C        H  793   4.290   3.015   5.063
    1C        H  794   4.125   2.845   5.044
    1C        H  795   4.514   3.131   5.053
    1C        H  796   4.586   3.339   5.053
    1C        H  797   4.575   3.819   5.039
    1C        H  798   4.433   3.981   5.054
    1C        H  799   4.263   4.151   5.050
    1C        H  800   4.036   4.543   5.027
    1C        H  801   3.812   4.547   5.040
    1C        H  802   3.583   4.635   5.032
    1C        H  803   3.381   4.548   5.049
    1C        H  804   3.156   4.509   5.051
    1C        H  805   3.875   2.532   5.069
    1C        H  806   3.674   2.531   5.067
    1C        H  807   2.994   2.545   5.058
    1C        H  808   3.452   2.404   5.052
    1C        H  809   2.894   2.749   5.079
    1C        H  810   2.678   2.865   5.070
    1C        H  811   2.453   3.287   5.044
    1C        H  812   2.604   3.516   5.048
    1C        H  813   2.544   3.726   5.072
    1C        H  814   2.572   4.190   5.028
    1C        H  815   2.790   4.283   5.051
    1C        H  816   2.709   2.884   1.976
    1C        H  817   2.871   2.705   1.977
    1C        H  818   3.196   2.409   2.000
    1C        H  819   3.426   2.418   1.984
    1C        H  820   3.841   2.560   1.977
    1C        H  821   4.032   2.672   1.979
    1C        H  822   4.274   2.707   1.982
    1C        H  823   4.407   2.892   1.967
    1C        H  824   4.598   3.304   1.974
    1C        H  825   4.447   3.519   1.976
    1C        H  826   4.547   3.751   1.967
    1C        H  827   3.818   4.575   1.980
    1C        H  828   3.962   4.377   1.942
    1C        H  829   4.167   4.254   1.948
    1C        H  830   4.530   3.990   1.987
    1C        H  831   2.624   3.843   1.960
    1C        H  832   2.772   4.028   1.995
    1C        H  833   2.723   4.295   1.966
    1C        H  834   3.349   4.532   1.949
    1C        H  835   3.152   4.415   1.947
    1C        H  836   2.521   3.011   1.984
    1C        H  837   2.428   3.222   1.986
    1C        H  838   2.451   3.688   1.978
    2V3OU   H29  839   2.818   3.551   5.736
    2V3OU   C27  840   2.785   3.504   5.832
    2V3OU   H27  841   2.722   3.571   5.897
    2V3OU   H28  842   2.723   3.412   5.816
    2V3OU   O11  843   2.905   3.477   5.906
    2V3OU   C15  844   2.917   3.395   6.015
    2V3OU   C13  845   3.049   3.376   6.060
    2V3OU   C14  846   3.073   3.272   6.150
    2V3OU   C16  847   2.970   3.193   6.201
    2V3OU    H6  848   2.996   3.105   6.262
    2V3OU   C12  849   3.215   3.235   6.172
    2V3OU    O2  850   3.238   3.134   6.241
    2V3OU   C10  851   3.328   3.308   6.114
    2V3OU    C8  852   3.461   3.272   6.131
    2V3OU   O10  853   3.492   3.158   6.198
    2V3OU   H26  854   3.408   3.112   6.215
    2V3OU    C6  855   3.568   3.350   6.077
    2V3OU    C5  856   3.540   3.463   6.001
    2V3OU    C4  857   3.705   3.291   6.069
    2V3OU    H4  858   3.723   3.227   6.160
    2V3OU    H5  859   3.713   3.222   5.979
    2V3OU    C2  860   3.815   3.397   6.062
    2V3OU    O6  861   3.800   3.474   6.181
    2V3OU   H21  862   3.767   3.560   6.151
    2V3OU    C3  863   3.783   3.500   5.953
    2V3OU    H2  864   3.864   3.576   5.945
    2V3OU    H3  865   3.781   3.443   5.856
    2V3OU   C25  866   3.951   3.328   6.057
    2V3OU    O7  867   4.007   3.292   5.953
    2V3OU   C26  868   4.031   3.288   6.180
    2V3OU   H22  869   4.073   3.377   6.233
    2V3OU   H23  870   4.115   3.221   6.150
    2V3OU    O8  871   3.961   3.207   6.271
    2V3OU   H24  872   3.928   3.268   6.340
    2V3OU    C1  873   3.647   3.565   5.974
    2V3OU    H1  874   3.627   3.623   5.879
    2V3OU    O3  875   3.661   3.657   6.082
    2V3OU   C19  876   3.618   3.792   6.062
    2V3OU    H9  877   3.521   3.793   6.004
    2V3OU    O4  878   3.715   3.844   5.974
    2V3OU   C20  879   3.843   3.877   6.028
    2V3OU   H10  880   3.890   3.774   6.040
    2V3OU   C24  881   3.610   3.856   6.201
    2V3OU   H16  882   3.540   3.799   6.267
    2V3OU   H17  883   3.561   3.956   6.186
    2V3OU   C23  884   3.749   3.875   6.260
    2V3OU   H15  885   3.796   3.772   6.268
    2V3OU    N1  886   3.738   3.954   6.381
    2V3OU   H19  887   3.806   3.921   6.446
    2V3OU   H20  888   3.652   3.921   6.418
    2V3OU   C21  889   3.847   3.949   6.163
    2V3OU   H11  890   3.948   3.934   6.210
    2V3OU    O5  891   3.829   4.090   6.155
    2V3OU   H18  892   3.772   4.105   6.232
    2V3OU   C22  893   3.910   3.953   5.915
    2V3OU   H12  894   3.866   4.055   5.907
    2V3OU   H13  895   3.907   3.893   5.820
    2V3OU   H14  896   4.020   3.958   5.936
    2V3OU   C11  897   3.159   3.465   6.019
    2V3OU    O1  898   3.132   3.581   5.981
    2V3OU    C9  899   3.300   3.425   6.038
    2V3OU    C7  900   3.403   3.501   5.982
    2V3OU    O9  901   3.381   3.619   5.915
    2V3OU   H25  902   3.288   3.629   5.890
    2V3OU   C17  903   2.814   3.314   6.070
    2V3OU    H7  904   2.714   3.343   6.039
    2V3OU   C18  905   2.839   3.212   6.160
    2V3OU    H8  906   2.760   3.145   6.198
    3SOL     OW  907   3.537   3.195   4.144
    3SOL    HW1  908   3.529   3.149   4.233
    3SOL    HW2  909   3.597   3.142   4.085
    4SOL     OW  910   6.767   5.934   0.791
    4SOL    HW1  911   6.837   6.004   0.773
    4SOL    HW2  912   6.809   5.858   0.840
    5SOL     OW  913   4.631   2.375   0.468
    5SOL    HW1  914   4.688   2.358   0.548
    5SOL    HW2  915   4.538   2.343   0.485
    6SOL     OW  916   4.495   1.493   1.956
    6SOL    HW1  917   4.502   1.501   2.055
    6SOL    HW2  918   4.542   1.409   1.926
    7SOL     OW  919   2.072   3.435   4.398
    7SOL    HW1  920   2.091   3.400   4.490
    7SOL    HW2  921   2.067   3.358   4.334
    8SOL     OW  922   0.953   1.913   5.093
    8SOL    HW1  923   1.004   1.903   5.179
    8SOL    HW2  924   0.922   2.008   5.084
    9SOL     OW  925   0.302   1.655   5.767
    9SOL    HW1  926   0.364   1.604   5.708
    9SOL    HW2  927   0.300   1.612   5.858
   10SOL     OW  928   5.267   4.863   1.900
   10SOL    HW1  929   5.246   4.939   1.840
   10SOL    HW2  930   5.326   4.895   1.975
   11SOL     OW  931   2.559   2.590   1.126
   11SOL    HW1  932   2.464   2.602   1.154
   11SOL    HW2  933   2.586   2.494   1.139
   12SOL     OW  934   4.582   5.302   2.152
   12SOL    HW1  935   4.619   5.358   2.226
   12SOL    HW2  936   4.498   5.258   2.184
   13SOL     OW  937   5.527   5.909   1.488
   13SOL    HW1  938   5.622   5.896   1.518
   13SOL    HW2  939   5.489   5.989   1.534
   14SOL     OW  940   4.473   6.868   6.656
   14SOL    HW1  941   4.426   6.916   6.730
   14SOL    HW2  942   4.561   6.912   6.639
   15SOL     OW  943   1.014   5.778   6.423
   15SOL    HW1  944   0.919   5.787   6.452
   15SOL    HW2  945   1.022   5.708   6.352
   16SOL     OW  946   1.898   5.269   5.035
   16SOL    HW1  947   1.855   5.359   5.035
   16SOL    HW2  948   1.970   5.267   4.965
   17SOL     OW  949   6.823   0.897   4.904
   17SOL    HW1  950   6.921   0.888   4.919
   17SOL    HW2  951   6.800   0.992   4.884
   18SOL     OW  952   2.787   0.898   5.926
   18SOL    HW1  953   2.811   0.991   5.897
   18SOL    HW2  954   2.751   0.847   5.848
   19SOL     OW  955   3.182   6.519   2.141
   19SOL    HW1  956   3.258   6.583   2.130
   19SOL    HW2  957   3.208   6.446   2.203
   20SOL     OW  958   6.745   1.748   5.553
   20SOL    HW1  959   6.777   1.816   5.486
   20SOL    HW2  960   6.816   1.678   5.564
   21SOL     OW  961   2.178   3.893   2.487
   21SOL    HW1  962   2.176   3.797   2.514
   21SOL    HW2  963   2.123   3.905   2.404
   22SOL     OW  964   0.814   1.146   0.080
   22SOL    HW1  965   0.910   1.133   0.103
   22SOL    HW2  966   0.790   1.088   0.002
   23SOL     OW  967   6.168   4.905   0.377
   23SOL    HW1  968   6.109   4.833   0.415
   23SOL    HW2  969   6.258   4.867   0.356
   24SOL     OW  970   5.289   1.591   0.166
   24SOL    HW1  971   5.255   1.500   0.144
   24SOL    HW2  972   5.226   1.636   0.228
   25SOL     OW  973   1.250   0.847   4.500
   25SOL    HW1  974   1.303   0.931   4.497
   25SOL    HW2  975   1.308   0.770   4.474
   26SOL     OW  976   1.685   1.687   6.066
   26SOL    HW1  977   1.750   1.642   6.127
   26SOL    HW2  978   1.725   1.694   5.974
   27SOL     OW  979   0.556   0.024   2.719
   27SOL    HW1  980   0.489   0.074   2.774
   27SOL    HW2  981   0.570   0.072   2.633
   28SOL     OW  982   1.977   0.304   5.967
   28SOL    HW1  983   2.077   0.309   5.973
   28SOL    HW2  984   1.936   0.374   6.024
   29SOL     OW  985   5.968   0.359   1.358
   29SOL    HW1  986   5.900   0.377   1.430
   29SOL    HW2  987   5.933   0.394   1.271
   30SOL     OW  988   4.853   0.256   5.127
   30SOL    HW1  989   4.899   0.251   5.216
   30SOL    HW2  990   4.873   0.174   5.074
   31SOL     OW  991   6.989   4.675   4.529
   31SOL    HW1  992   6.921   4.603   4.543
   31SOL    HW2  993   7.003   4.688   4.431
   32SOL     OW  994   2.947   0.623   0.618
   32SOL    HW1  995   3.017   0.692   0.602
   32SOL    HW2  996   2.877   0.659   0.679
   33SOL     OW  997   2.128   5.361   5.532
   33SOL    HW1  998   2.112   5.334   5.627
   33SOL    HW2  999   2.054   5.326   5.474
   34SOL     OW 1000   2.429   6.051   5.549
   34SOL    HW1 1001   2.337   6.079   5.575
   34SOL    HW2 1002   2.477   6.128   5.507
   35SOL     OW 1003   1.129   3.089   5.760
   35SOL    HW1 1004   1.098   2.994   5.768
   35SOL    HW2 1005   1.229   3.091   5.769
   36SOL     OW 1006   5.922   0.941   3.645
   36SOL    HW1 1007   5.862   0.965   3.721
   36SOL    HW2 1008   5.869   0.933   3.561
   37SOL     OW 1009   2.243   6.088   4.089
   37SOL    HW1 1010   2.281   6.167   4.137
   37SOL    HW2 1011   2.252   6.102   3.990
   38SOL     OW 1012   1.697   4.464   2.260
   38SOL    HW1 1013   1.752   4.411   2.194
   38SOL    HW2 1014   1.621   4.507   2.212
   39SOL     OW 1015   6.814   4.912   1.209
   39SOL    HW1 1016   6.804   4.928   1.111
   39SOL    HW2 1017   6.911   4.915   1.234
   40SOL     OW 1018   4.377   1.534   0.429
   40SOL    HW1 1019   4.323   1.527   0.513
   40SOL    HW2 1020   4.318   1.566   0.355
   41SOL     OW 1021   4.937   3.656   1.704
   41SOL    HW1 1022   4.926   3.725   1.775
   41SOL    HW2 1023   4.971   3.571   1.744
   42SOL     OW 1024   2.274   4.747   6.365
   42SOL    HW1 1025   2.274   4.759   6.265
   42SOL    HW2 1026   2.299   4.653   6.388
   43SOL     OW 1027   5.252   6.939   4.794
   43SOL    HW1 1028   5.258   6.968   4.699
   43SOL    HW2 1029   5.284   7.012   4.854
   44SOL     OW 1030   0.475   0.967   6.471
   44SOL    HW1 1031   0.443   0.942   6.563
   44SOL    HW2 1032   0.399   1.008   6.421
   45SOL     OW 1033   1.968   4.952   6.124
   45SOL    HW1 1034   2.068   4.952   6.123
   45SOL    HW2 1035   1.936   4.980   6.215
   46SOL     OW 1036   1.574   4.337   4.883
   46SOL    HW1 1037   1.526   4.289   4.810
   46SOL    HW2 1038   1.542   4.305   4.972
   47SOL     OW 1039   6.167   3.754   0.313
   47SOL    HW1 1040   6.125   3.697   0.242
   47SOL    HW2 1041   6.106   3.830   0.334
   48SOL     OW 1042   6.604   4.047   0.786
   48SOL    HW1 1043   6.623   3.950   0.799
   48SOL    HW2 1044   6.508   4.059   0.758
   49SOL     OW 1045   3.263   2.996   6.477
   49SOL    HW1 1046   3.308   3.062   6.537
   49SOL    HW2 1047   3.252   3.036   6.386
   50SOL     OW 1048   5.113   2.055   6.783
   50SOL    HW1 1049   5.034   2.076   6.724
   50SOL    HW2 1050   5.153   1.968   6.755
   51SOL     OW 1051   0.783   5.921   1.858
   51SOL    HW1 1052   0.750   5.994   1.798
   51SOL    HW2 1053   0.883   5.918   1.855
   52SOL     OW 1054   5.605   2.477   2.373
   52SOL    HW1 1055   5.532   2.413   2.351
   52SOL    HW2 1056   5.594   2.560   2.319
   53SOL     OW 1057   3.702   0.775   0.899
   53SOL    HW1 1058   3.627   0.736   0.953
   53SOL    HW2 1059   3.755   0.838   0.957
   54SOL     OW 1060   6.353   0.235   6.364
   54SOL    HW1 1061   6.428   0.175   6.335
   54SOL    HW2 1062   6.370   0.328   6.331
   55SOL     OW 1063   1.534   3.796   5.896
   55SOL    HW1 1064   1.510   3.886   5.862
   55SOL    HW2 1065   1.557   3.802   5.993
   56SOL     OW 1066   1.201   2.596   6.674
   56SOL    HW1 1067   1.214   2.676   6.615
   56SOL    HW2 1068   1.200   2.513   6.619
   57SOL     OW 1069   4.160   6.308   0.259
   57SOL    HW1 1070   4.215   6.348   0.333
   57SOL    HW2 1071   4.219   6.285   0.182
   58SOL     OW 1072   1.464   0.900   6.778
   58SOL    HW1 1073   1.396   0.900   6.705
   58SOL    HW2 1074   1.486   0.806   6.804
   59SOL     OW 1075   4.180   2.762   5.979
   59SOL    HW1 1076   4.104   2.698   5.968
   59SOL    HW2 1077   4.245   2.724   6.045
   60SOL     OW 1078   6.475   2.676   2.664
   60SOL    HW1 1079   6.567   2.697   2.697
   60SOL    HW2 1080   6.451   2.582   2.691
   61SOL     OW 1081   1.090   5.734   3.251
   61SOL    HW1 1082   1.089   5.718   3.153
   61SOL    HW2 1083   1.004   5.703   3.291
   62SOL     OW 1084   6.000   2.472   3.182
   62SOL    HW1 1085   5.967   2.383   3.150
   62SOL    HW2 1086   6.052   2.459   3.267
   63SOL     OW 1087   3.614   6.859   5.726
   63SOL    HW1 1088   3.543   6.790   5.741
   63SOL    HW2 1089   3.693   6.839   5.785
   64SOL     OW 1090   1.254   1.859   5.914
   64SOL    HW1 1091   1.212   1.801   5.845
   64SOL    HW2 1092   1.323   1.806   5.964
   65SOL     OW 1093   0.774   5.347   4.735
   65SOL    HW1 1094   0.848   5.308   4.790
   65SOL    HW2 1095   0.690   5.294   4.750
   66SOL     OW 1096   4.361   1.568   1.516
   66SOL    HW1 1097   4.262   1.572   1.533
   66SOL    HW2 1098   4.384   1.631   1.442
   67SOL     OW 1099   7.001   3.637   1.365
   67SOL    HW1 1100   6.935   3.689   1.311
   67SOL    HW2 1101   0.035   3.580   1.305
   68SOL     OW 1102   0.515   1.261   0.067
   68SOL    HW1 1103   0.542   1.172   0.031
   68SOL    HW2 1104   0.582   1.330   0.037
   69SOL     OW 1105   1.377   5.305   6.708
   69SOL    HW1 1106   1.381   5.305   6.808
   69SOL    HW2 1107   1.334   5.390   6.677
   70SOL     OW 1108   4.428   4.746   3.863
   70SOL    HW1 1109   4.497   4.775   3.796
   70SOL    HW2 1110   4.435   4.647   3.876
   71SOL     OW 1111   5.055   1.452   5.281
   71SOL    HW1 1112   5.019   1.371   5.234
   71SOL    HW2 1113   5.151   1.464   5.256
   72SOL     OW 1114   0.005   0.272   3.145
   72SOL    HW1 1115   7.008   0.324   3.062
   72SOL    HW2 1116   0.099   0.239   3.142
   73SOL     OW 1117   2.767   0.653   1.598
   73SOL    HW1 1118   2.845   0.701   1.637
   73SOL    HW2 1119   2.770   0.659   1.498
   74SOL     OW 1120   3.048   2.017   0.209
   74SOL    HW1 1121   3.101   1.937   0.235
   74SOL    HW2 1122   2.956   1.988   0.181
   75SOL     OW 1123   2.448   3.343   0.325
   75SOL    HW1 1124   2.544   3.340   0.296
   75SOL    HW2 1125   2.393   3.285   0.264
   76SOL     OW 1126   3.867   4.895   5.800
   76SOL    HW1 1127   3.816   4.897   5.714
   76SOL    HW2 1128   3.806   4.867   5.875
   77SOL     OW 1129   0.733   5.618   4.736
   77SOL    HW1 1130   0.820   5.652   4.773
   77SOL    HW2 1131   0.731   5.518   4.743
   78SOL     OW 1132   4.850   2.112   1.142
   78SOL    HW1 1133   4.844   2.178   1.217
   78SOL    HW2 1134   4.944   2.080   1.134
   79SOL     OW 1135   1.647   4.371   3.950
   79SOL    HW1 1136   1.731   4.367   3.897
   79SOL    HW2 1137   1.657   4.315   4.032
   80SOL     OW 1138   3.522   1.897   5.023
   80SOL    HW1 1139   3.504   1.854   4.935
   80SOL    HW2 1140   3.576   1.980   5.009
   81SOL     OW 1141   3.397   5.242   2.248
   81SOL    HW1 1142   3.410   5.331   2.205
   81SOL    HW2 1143   3.351   5.253   2.336
   82SOL     OW 1144   3.051   6.952   2.060
   82SOL    HW1 1145   3.117   6.970   1.987
   82SOL    HW2 1146   3.034   0.014   2.112
   83SOL     OW 1147   5.345   1.313   3.971
   83SOL    HW1 1148   5.369   1.362   3.887
   83SOL    HW2 1149   5.265   1.355   4.013
   84SOL     OW 1150   5.939   2.947   3.065
   84SOL    HW1 1151   5.996   3.006   3.008
   84SOL    HW2 1152   5.977   2.854   3.065
   85SOL     OW 1153   2.529   6.246   3.000
   85SOL    HW1 1154   2.463   6.291   2.940
   85SOL    HW2 1155   2.612   6.225   2.948
   86SOL     OW 1156   5.332   0.285   1.046
   86SOL    HW1 1157   5.335   0.383   1.026
   86SOL    HW2 1158   5.250   0.265   1.100
   87SOL     OW 1159   2.940   3.512   6.449
   87SOL    HW1 1160   2.855   3.538   6.402
   87SOL    HW2 1161   2.935   3.542   6.544
   88SOL     OW 1162   2.401   3.017   1.343
   88SOL    HW1 1163   2.467   2.956   1.388
   88SOL    HW2 1164   2.317   2.966   1.323
   89SOL     OW 1165   3.439   3.286   4.697
   89SOL    HW1 1166   3.407   3.303   4.604
   89SOL    HW2 1167   3.538   3.288   4.699
   90SOL     OW 1168   5.950   3.833   2.431
   90SOL    HW1 1169   5.884   3.835   2.506
   90SOL    HW2 1170   5.967   3.925   2.398
   91SOL     OW 1171   4.680   6.215   0.310
   91SOL    HW1 1172   4.771   6.176   0.320
   91SOL    HW2 1173   4.667   6.287   0.378
   92SOL     OW 1174   6.065   4.867   6.869
   92SOL    HW1 1175   6.161   4.878   6.845
   92SOL    HW2 1176   6.041   4.932   6.942
   93SOL     OW 1177   2.868   3.791   1.768
   93SOL    HW1 1178   2.778   3.748   1.771
   93SOL    HW2 1179   2.866   3.867   1.704
   94SOL     OW 1180   3.632   1.723   4.295
   94SOL    HW1 1181   3.626   1.778   4.212
   94SOL    HW2 1182   3.558   1.747   4.358
   95SOL     OW 1183   0.736   0.095   4.361
   95SOL    HW1 1184   0.779   0.011   4.397
   95SOL    HW2 1185   0.793   0.132   4.288
   96SOL     OW 1186   0.278   5.465   6.723
   96SOL    HW1 1187   0.231   5.538   6.773
   96SOL    HW2 1188   0.368   5.451   6.763
   97SOL     OW 1189   3.000   4.408   5.598
   97SOL    HW1 1190   2.914   4.360   5.613
   97SOL    HW2 1191   2.981   4.500   5.564
   98SOL     OW 1192   0.000   1.693   4.598
   98SOL    HW1 1193   0.051   1.609   4.615
   98SOL    HW2 1194   7.006   1.740   4.685
   99SOL     OW 1195   3.988   4.519   5.289
   99SOL    HW1 1196   4.063   4.487   5.231
   99SOL    HW2 1197   3.909   4.459   5.276
  100SOL     OW 1198   0.985   0.785   5.227
  100SOL    HW1 1199   1.059   0.742   5.174
  100SOL    HW2 1200   0.909   0.720   5.236
  101SOL     OW 1201   5.211   3.564   2.745
  101SOL    HW1 1202   5.277   3.613   2.801
  101SOL    HW2 1203   5.197   3.472   2.783
  102SOL     OW 1204   3.791   0.471   0.095
  102SOL    HW1 1205   3.855   0.540   0.062
  102SOL    HW2 1206   3.700   0.490   0.059
  103SOL     OW 1207   1.036   1.721   2.185
  103SOL    HW1 1208   1.025   1.743   2.088
  103SOL    HW2 1209   1.021   1.623   2.199
  104SOL     OW 1210   6.347   4.461   2.252
  104SOL    HW1 1211   6.295   4.401   2.192
  104SOL    HW2 1212   6.283   4.512   2.310
  105SOL     OW 1213   0.447   0.263   4.960
  105SOL    HW1 1214   0.460   0.320   4.879
  105SOL    HW2 1215   0.361   0.288   5.004
  106SOL     OW 1216   4.493   3.079   1.654
  106SOL    HW1 1217   4.566   3.083   1.586
  106SOL    HW2 1218   4.530   3.048   1.742
  107SOL     OW 1219   5.810   6.837   1.405
  107SOL    HW1 1220   5.870   6.912   1.434
  107SOL    HW2 1221   5.736   6.874   1.350
  108SOL     OW 1222   3.610   1.592   4.635
  108SOL    HW1 1223   3.694   1.611   4.687
  108SOL    HW2 1224   3.624   1.511   4.578
  109SOL     OW 1225   2.135   0.890   5.409
  109SOL    HW1 1226   2.115   0.902   5.311
  109SOL    HW2 1227   2.092   0.805   5.441
  110SOL     OW 1228   3.883   4.177   5.704
  110SOL    HW1 1229   3.791   4.151   5.734
  110SOL    HW2 1230   3.939   4.197   5.785
  111SOL     OW 1231   5.612   3.269   1.162
  111SOL    HW1 1232   5.709   3.288   1.177
  111SOL    HW2 1233   5.564   3.355   1.144
  112SOL     OW 1234   5.115   6.711   5.526
  112SOL    HW1 1235   5.201   6.731   5.478
  112SOL    HW2 1236   5.105   6.612   5.535
  113SOL     OW 1237   0.209   4.646   2.538
  113SOL    HW1 1238   0.186   4.579   2.468
  113SOL    HW2 1239   0.226   4.600   2.625
  114SOL     OW 1240   7.022   2.180   1.893
  114SOL    HW1 1241   0.071   2.233   1.849
  114SOL    HW2 1242   0.037   2.136   1.975
  115SOL     OW 1243   4.256   0.066   2.492
  115SOL    HW1 1244   4.325   0.006   2.450
  115SOL    HW2 1245   4.269   0.066   2.591
  116SOL     OW 1246   7.002   5.296   0.959
  116SOL    HW1 1247   0.043   5.363   0.921
  116SOL    HW2 1248   0.007   5.204   0.932
  117SOL     OW 1249   3.313   2.282   0.154
  117SOL    HW1 1250   3.302   2.207   0.219
  117SOL    HW2 1251   3.286   2.368   0.196
  118SOL     OW 1252   0.056   1.711   2.575
  118SOL    HW1 1253   0.112   1.777   2.625
  118SOL    HW2 1254   7.011   1.760   2.520
  119SOL     OW 1255   6.255   6.900   5.349
  119SOL    HW1 1256   6.166   6.856   5.363
  119SOL    HW2 1257   6.242   6.989   5.306
  120SOL     OW 1258   4.682   0.991   4.791
  120SOL    HW1 1259   4.773   1.028   4.770
  120SOL    HW2 1260   4.613   1.051   4.752
  121SOL     OW 1261   0.348   5.702   6.489
  121SOL    HW1 1262   0.398   5.718   6.574
  121SOL    HW2 1263   0.250   5.707   6.507
  122SOL     OW 1264   6.906   4.773   5.929
  122SOL    HW1 1265   6.851   4.754   6.011
  122SOL    HW2 1266   6.846   4.782   5.850
  123SOL     OW 1267   0.394   2.654   1.829
  123SOL    HW1 1268   0.364   2.721   1.761
  123SOL    HW2 1269   0.313   2.609   1.869
  124SOL     OW 1270   1.508   3.744   0.575
  124SOL    HW1 1271   1.567   3.707   0.503
  124SOL    HW2 1272   1.558   3.747   0.661
  125SOL     OW 1273   4.321   2.653   0.722
  125SOL    HW1 1274   4.285   2.654   0.629
  125SOL    HW2 1275   4.418   2.632   0.720
  126SOL     OW 1276   3.674   2.990   3.976
  126SOL    HW1 1277   3.670   2.964   3.880
  126SOL    HW2 1278   3.762   3.033   3.996
  127SOL     OW 1279   0.269   4.575   5.430
  127SOL    HW1 1280   0.231   4.607   5.517
  127SOL    HW2 1281   0.358   4.618   5.414
  128SOL     OW 1282   4.484   3.820   5.866
  128SOL    HW1 1283   4.492   3.918   5.850
  128SOL    HW2 1284   4.415   3.804   5.937
  129SOL     OW 1285   0.559   5.394   2.552
  129SOL    HW1 1286   0.569   5.453   2.632
  129SOL    HW2 1287   0.554   5.298   2.581
  130SOL     OW 1288   6.181   3.513   4.408
  130SOL    HW1 1289   6.196   3.415   4.400
  130SOL    HW2 1290   6.259   3.562   4.369
  131SOL     OW 1291   0.689   3.451   3.298
  131SOL    HW1 1292   0.733   3.531   3.258
  131SOL    HW2 1293   0.751   3.408   3.364
  132SOL     OW 1294   4.635   2.530   1.250
  132SOL    HW1 1295   4.727   2.544   1.213
  132SOL    HW2 1296   4.567   2.567   1.187
  133SOL     OW 1297   4.490   4.950   6.425
  133SOL    HW1 1298   4.539   4.949   6.338
  133SOL    HW2 1299   4.407   5.005   6.415
  134SOL     OW 1300   5.488   2.261   0.953
  134SOL    HW1 1301   5.450   2.168   0.950
  134SOL    HW2 1302   5.550   2.268   1.032
  135SOL     OW 1303   4.802   4.449   3.978
  135SOL    HW1 1304   4.815   4.486   3.887
  135SOL    HW2 1305   4.819   4.520   4.046
  136SOL     OW 1306   3.788   0.314   6.454
  136SOL    HW1 1307   3.853   0.375   6.499
  136SOL    HW2 1308   3.814   0.219   6.470
  137SOL     OW 1309   2.362   4.037   5.959
  137SOL    HW1 1310   2.292   3.967   5.943
  137SOL    HW2 1311   2.332   4.097   6.034
  138SOL     OW 1312   0.893   5.479   6.599
  138SOL    HW1 1313   0.856   5.511   6.512
  138SOL    HW2 1314   0.942   5.393   6.586
  139SOL     OW 1315   0.554   0.179   1.531
  139SOL    HW1 1316   0.466   0.196   1.576
  139SOL    HW2 1317   0.541   0.113   1.457
  140SOL     OW 1318   4.052   0.905   1.302
  140SOL    HW1 1319   4.101   0.851   1.233
  140SOL    HW2 1320   3.991   0.845   1.354
  141SOL     OW 1321   0.395   2.033   0.083
  141SOL    HW1 1322   0.298   2.055   0.093
  141SOL    HW2 1323   0.431   2.075   0.000
  142SOL     OW 1324   2.070   4.020   0.420
  142SOL    HW1 1325   2.057   3.925   0.449
  142SOL    HW2 1326   1.985   4.056   0.383
  143SOL     OW 1327   4.778   6.238   1.857
  143SOL    HW1 1328   4.694   6.186   1.877
  143SOL    HW2 1329   4.788   6.249   1.759
  144SOL     OW 1330   3.367   5.102   2.941
  144SOL    HW1 1331   3.435   5.175   2.935
  144SOL    HW2 1332   3.292   5.130   3.000
  145SOL     OW 1333   6.820   5.532   4.239
  145SOL    HW1 1334   6.733   5.491   4.268
  145SOL    HW2 1335   6.896   5.474   4.268
  146SOL     OW 1336   6.369   0.549   6.389
  146SOL    HW1 1337   6.348   0.628   6.333
  146SOL    HW2 1338   6.467   0.529   6.385
  147SOL     OW 1339   6.104   1.487   5.507
  147SOL    HW1 1340   6.087   1.584   5.522
  147SOL    HW2 1341   6.018   1.441   5.486
  148SOL     OW 1342   2.264   6.562   1.677
  148SOL    HW1 1343   2.294   6.480   1.628
  148SOL    HW2 1344   2.239   6.633   1.611
  149SOL     OW 1345   1.506   3.130   4.432
  149SOL    HW1 1346   1.464   3.039   4.434
  149SOL    HW2 1347   1.532   3.156   4.525
  150SOL     OW 1348   4.022   1.864   5.289
  150SOL    HW1 1349   4.025   1.792   5.358
  150SOL    HW2 1350   3.980   1.946   5.327
  151SOL     OW 1351   6.240   3.172   0.913
  151SOL    HW1 1352   6.234   3.137   1.006
  151SOL    HW2 1353   6.155   3.219   0.889
  152SOL     OW 1354   0.484   2.455   1.130
  152SOL    HW1 1355   0.445   2.526   1.189
  152SOL    HW2 1356   0.410   2.394   1.099
  153SOL     OW 1357   2.081   1.763   3.633
  153SOL    HW1 1358   2.039   1.753   3.542
  153SOL    HW2 1359   2.173   1.724   3.631
  154SOL     OW 1360   6.804   1.528   3.221
  154SOL    HW1 1361   6.848   1.439   3.225
  154SOL    HW2 1362   6.823   1.578   3.306
  155SOL     OW 1363   6.358   4.798   3.787
  155SOL    HW1 1364   6.429   4.817   3.855
  155SOL    HW2 1365   6.293   4.873   3.784
  156SOL     OW 1366   5.085   1.426   0.852
  156SOL    HW1 1367   5.185   1.430   0.849
  156SOL    HW2 1368   5.056   1.331   0.859
  157SOL     OW 1369   5.108   6.947   1.338
  157SOL    HW1 1370   5.193   6.932   1.287
  157SOL    HW2 1371   5.036   6.974   1.275
  158SOL     OW 1372   0.316   2.883   4.606
  158SOL    HW1 1373   0.298   2.802   4.551
  158SOL    HW2 1374   0.379   2.860   4.680
  159SOL     OW 1375   5.927   5.267   0.164
  159SOL    HW1 1376   5.932   5.353   0.113
  159SOL    HW2 1377   5.979   5.275   0.249
  160SOL     OW 1378   5.231   0.843   0.938
  160SOL    HW1 1379   5.197   0.845   0.844
  160SOL    HW2 1380   5.227   0.935   0.976
  161SOL     OW 1381   6.725   6.357   0.650
  161SOL    HW1 1382   6.754   6.327   0.559
  161SOL    HW2 1383   6.806   6.376   0.706
  162SOL     OW 1384   4.520   7.019   5.924
  162SOL    HW1 1385   4.578   6.966   5.861
  162SOL    HW2 1386   4.427   6.983   5.921
  163SOL     OW 1387   0.605   3.065   2.973
  163SOL    HW1 1388   0.562   2.990   3.022
  163SOL    HW2 1389   0.576   3.152   3.013
  164SOL     OW 1390   1.993   2.152   3.113
  164SOL    HW1 1391   2.043   2.154   3.199
  164SOL    HW2 1392   1.907   2.203   3.122
  165SOL     OW 1393   0.181   6.786   3.702
  165SOL    HW1 1394   0.110   6.736   3.653
  165SOL    HW2 1395   0.175   6.767   3.800
  166SOL     OW 1396   6.999   4.658   4.219
  166SOL    HW1 1397   0.063   4.676   4.171
  166SOL    HW2 1398   6.965   4.568   4.192
  167SOL     OW 1399   1.655   1.070   4.949
  167SOL    HW1 1400   1.747   1.090   4.983
  167SOL    HW2 1401   1.619   1.149   4.900
  168SOL     OW 1402   3.544   3.837   2.418
  168SOL    HW1 1403   3.607   3.910   2.393
  168SOL    HW2 1404   3.513   3.791   2.335
  169SOL     OW 1405   5.400   2.579   0.481
  169SOL    HW1 1406   5.337   2.548   0.409
  169SOL    HW2 1407   5.450   2.659   0.448
  170SOL     OW 1408   6.111   5.425   1.596
  170SOL    HW1 1409   6.147   5.515   1.571
  170SOL    HW2 1410   6.137   5.403   1.690
  171SOL     OW 1411   3.229   3.215   1.572
  171SOL    HW1 1412   3.220   3.146   1.500
  171SOL    HW2 1413   3.325   3.242   1.581
  172SOL     OW 1414   1.609   0.612   6.518
  172SOL    HW1 1415   1.557   0.686   6.476
  172SOL    HW2 1416   1.707   0.628   6.504
  173SOL     OW 1417   5.483   1.366   4.469
  173SOL    HW1 1418   5.505   1.290   4.530
  173SOL    HW2 1419   5.408   1.420   4.507
  174SOL     OW 1420   5.484   4.171   4.492
  174SOL    HW1 1421   5.545   4.135   4.421
  174SOL    HW2 1422   5.449   4.260   4.464
  175SOL     OW 1423   0.715   6.613   2.772
  175SOL    HW1 1424   0.805   6.592   2.733
  175SOL    HW2 1425   0.648   6.545   2.741
  176SOL     OW 1426   6.548   3.937   1.734
  176SOL    HW1 1427   6.537   4.008   1.664
  176SOL    HW2 1428   6.479   3.950   1.805
  177SOL     OW 1429   6.336   1.877   3.575
  177SOL    HW1 1430   6.366   1.858   3.669
  177SOL    HW2 1431   6.412   1.861   3.512
  178SOL     OW 1432   2.269   5.417   4.194
  178SOL    HW1 1433   2.300   5.390   4.103
  178SOL    HW2 1434   2.222   5.340   4.237
  179SOL     OW 1435   3.245   4.384   1.318
  179SOL    HW1 1436   3.257   4.409   1.414
  179SOL    HW2 1437   3.179   4.310   1.310
  180SOL     OW 1438   5.019   1.346   6.569
  180SOL    HW1 1439   5.047   1.388   6.483
  180SOL    HW2 1440   4.979   1.256   6.551
  181SOL     OW 1441   3.112   1.290   6.065
  181SOL    HW1 1442   3.017   1.306   6.088
  181SOL    HW2 1443   3.127   1.193   6.047
  182SOL     OW 1444   2.946   3.201   5.465
  182SOL    HW1 1445   2.967   3.279   5.406
  182SOL    HW2 1446   2.907   3.127   5.409
  183SOL     OW 1447   2.975   0.588   3.095
  183SOL    HW1 1448   3.054   0.527   3.091
  183SOL    HW2 1449   2.891   0.534   3.099
  184SOL     OW 1450   5.465   5.642   3.489
  184SOL    HW1 1451   5.515   5.726   3.510
  184SOL    HW2 1452   5.432   5.646   3.394
  185SOL     OW 1453   0.643   6.783   5.225
  185SOL    HW1 1454   0.597   6.866   5.192
  185SOL    HW2 1455   0.677   6.799   5.318
  186SOL     OW 1456   2.892   6.262   4.931
  186SOL    HW1 1457   2.970   6.215   4.972
  186SOL    HW2 1458   2.886   6.240   4.834
  187SOL     OW 1459   4.282   5.633   1.232
  187SOL    HW1 1460   4.235   5.608   1.317
  187SOL    HW2 1461   4.221   5.688   1.176
  188SOL     OW 1462   1.323   3.539   3.198
  188SOL    HW1 1463   1.224   3.544   3.183
  188SOL    HW2 1464   1.349   3.600   3.273
  189SOL     OW 1465   5.576   4.888   5.286
  189SOL    HW1 1466   5.648   4.920   5.224
  189SOL    HW2 1467   5.541   4.800   5.255
  190SOL     OW 1468   6.501   6.613   0.488
  190SOL    HW1 1469   6.462   6.648   0.573
  190SOL    HW2 1470   6.454   6.528   0.463
  191SOL     OW 1471   2.146   1.710   4.993
  191SOL    HW1 1472   2.136   1.794   4.939
  191SOL    HW2 1473   2.088   1.716   5.074
  192SOL     OW 1474   0.055   5.878   1.363
  192SOL    HW1 1475   0.103   5.797   1.395
  192SOL    HW2 1476   0.018   5.928   1.441
  193SOL     OW 1477   2.330   0.367   1.619
  193SOL    HW1 1478   2.407   0.411   1.666
  193SOL    HW2 1479   2.349   0.269   1.608
  194SOL     OW 1480   3.778   6.204   3.078
  194SOL    HW1 1481   3.724   6.284   3.107
  194SOL    HW2 1482   3.787   6.204   2.979
  195SOL     OW 1483   3.618   7.005   0.945
  195SOL    HW1 1484   3.595   0.019   0.855
  195SOL    HW2 1485   3.708   0.015   0.973
  196SOL     OW 1486   3.979   2.742   0.838
  196SOL    HW1 1487   4.044   2.818   0.828
  196SOL    HW2 1488   3.936   2.746   0.928
  197SOL     OW 1489   2.113   5.928   6.735
  197SOL    HW1 1490   2.037   5.954   6.794
  197SOL    HW2 1491   2.096   5.838   6.696
  198SOL     OW 1492   4.159   6.977   6.492
  198SOL    HW1 1493   4.179   0.039   6.542
  198SOL    HW2 1494   4.228   6.963   6.421
  199SOL     OW 1495   1.072   0.861   3.308
  199SOL    HW1 1496   1.105   0.806   3.231
  199SOL    HW2 1497   1.001   0.923   3.275
  200SOL     OW 1498   1.071   3.902   3.638
  200SOL    HW1 1499   1.128   3.900   3.556
  200SOL    HW2 1500   1.019   3.988   3.640
  201SOL     OW 1501   4.500   1.542   6.378
  201SOL    HW1 1502   4.452   1.480   6.439
  201SOL    HW2 1503   4.540   1.490   6.302
  202SOL     OW 1504   3.537   1.019   2.715
  202SOL    HW1 1505   3.574   1.108   2.689
  202SOL    HW2 1506   3.504   0.972   2.633
  203SOL     OW 1507   6.065   3.023   0.142
  203SOL    HW1 1508   6.145   3.050   0.088
  203SOL    HW2 1509   6.072   3.063   0.233
  204SOL     OW 1510   2.136   0.040   1.212
  204SOL    HW1 1511   2.228   0.076   1.206
  204SOL    HW2 1512   2.071   0.108   1.179
  205SOL     OW 1513   6.229   0.474   1.376
  205SOL    HW1 1514   6.221   0.529   1.459
  205SOL    HW2 1515   6.144   0.423   1.362
  206SOL     OW 1516   6.969   5.884   1.679
  206SOL    HW1 1517   6.943   5.974   1.642
  206SOL    HW2 1518   0.028   5.894   1.737
  207SOL     OW 1519   5.147   1.716   5.584
  207SOL    HW1 1520   5.204   1.762   5.516
  207SOL    HW2 1521   5.061   1.688   5.541
  208SOL     OW 1522   3.837   4.316   6.516
  208SOL    HW1 1523   3.739   4.294   6.516
  208SOL    HW2 1524   3.854   4.387   6.585
  209SOL     OW 1525   6.830   5.707   4.738
  209SOL    HW1 1526   6.908   5.745   4.788
  209SOL    HW2 1527   6.833   5.739   4.643
  210SOL     OW 1528   4.210   2.104   0.771
  210SOL    HW1 1529   4.289   2.044   0.778
  210SOL    HW2 1530   4.137   2.058   0.720
  211SOL     OW 1531   0.728   2.794   1.851
  211SOL    HW1 1532   0.762   2.888   1.858
  211SOL    HW2 1533   0.804   2.733   1.829
  212SOL     OW 1534   6.916   5.622   4.511
  212SOL    HW1 1535   6.951   5.663   4.427
  212SOL    HW2 1536   6.911   5.523   4.500
  213SOL     OW 1537   3.782   2.263   6.276
  213SOL    HW1 1538   3.870   2.220   6.256
  213SOL    HW2 1539   3.728   2.204   6.335
  214SOL     OW 1540   1.718   6.811   3.391
  214SOL    HW1 1541   1.818   6.804   3.399
  214SOL    HW2 1542   1.682   6.859   3.472
  215SOL     OW 1543   3.884   3.945   2.696
  215SOL    HW1 1544   3.853   4.026   2.746
  215SOL    HW2 1545   3.940   3.888   2.756
  216SOL     OW 1546   1.850   6.921   5.721
  216SOL    HW1 1547   1.942   6.918   5.680
  216SOL    HW2 1548   1.847   6.994   5.790
  217SOL     OW 1549   6.784   2.573   4.579
  217SOL    HW1 1550   6.744   2.602   4.666
  217SOL    HW2 1551   6.741   2.624   4.505
  218SOL     OW 1552   2.058   3.905   5.427
  218SOL    HW1 1553   2.037   3.951   5.513
  218SOL    HW2 1554   2.064   3.972   5.354
  219SOL     OW 1555   3.372   5.116   0.333
  219SOL    HW1 1556   3.299   5.160   0.385
  219SOL    HW2 1557   3.345   5.023   0.308
  220SOL     OW 1558   1.393   4.564   0.824
  220SOL    HW1 1559   1.432   4.498   0.889
  220SOL    HW2 1560   1.466   4.621   0.786
  221SOL     OW 1561   6.251   2.898   4.178
  221SOL    HW1 1562   6.195   2.817   4.194
  221SOL    HW2 1563   6.193   2.979   4.173
  222SOL     OW 1564   1.311   6.142   4.422
  222SOL    HW1 1565   1.286   6.098   4.335
  222SOL    HW2 1566   1.400   6.187   4.411
  223SOL     OW 1567   6.333   4.549   2.677
  223SOL    HW1 1568   6.376   4.462   2.653
  223SOL    HW2 1569   6.368   4.580   2.766
  224SOL     OW 1570   3.870   2.127   2.270
  224SOL    HW1 1571   3.832   2.216   2.246
  224SOL    HW2 1572   3.823   2.056   2.218
  225SOL     OW 1573   6.369   6.921   1.483
  225SOL    HW1 1574   6.372   7.019   1.461
  225SOL    HW2 1575   6.454   6.878   1.453
  226SOL     OW 1576   6.833   5.418   2.001
  226SOL    HW1 1577   6.758   5.444   1.941
  226SOL    HW2 1578   6.885   5.344   1.959
  227SOL     OW 1579   0.968   3.143   3.065
  227SOL    HW1 1580   0.930   3.151   2.972
  227SOL    HW2 1581   0.893   3.140   3.131
  228SOL     OW 1582   3.791   6.193   2.815
  228SOL    HW1 1583   3.813   6.117   2.754
  228SOL    HW2 1584   3.784   6.278   2.762
  229SOL     OW 1585   6.305   5.317   3.684
  229SOL    HW1 1586   6.306   5.385   3.757
  229SOL    HW2 1587   6.324   5.227   3.722
  230SOL     OW 1588   1.182   3.834   6.110
  230SOL    HW1 1589   1.202   3.877   6.022
  230SOL    HW2 1590   1.166   3.904   6.179
  231SOL     OW 1591   0.836   2.170   6.572
  231SOL    HW1 1592   0.857   2.228   6.650
  231SOL    HW2 1593   0.853   2.219   6.487
  232SOL     OW 1594   1.547   4.163   6.806
  232SOL    HW1 1595   1.605   4.091   6.770
  232SOL    HW2 1596   1.477   4.187   6.739
  233SOL     OW 1597   3.213   0.243   6.363
  233SOL    HW1 1598   3.213   0.322   6.424
  233SOL    HW2 1599   3.275   0.259   6.286
  234SOL     OW 1600   2.635   5.678   5.774
  234SOL    HW1 1601   2.608   5.774   5.767
  234SOL    HW2 1602   2.603   5.628   5.694
  235SOL     OW 1603   3.360   3.264   5.346
  235SOL    HW1 1604   3.312   3.187   5.388
  235SOL    HW2 1605   3.328   3.277   5.253
  236SOL     OW 1606   0.278   2.683   6.206
  236SOL    HW1 1607   0.288   2.591   6.244
  236SOL    HW2 1608   0.219   2.680   6.126
  237SOL     OW 1609   6.547   6.404   1.620
  237SOL    HW1 1610   6.583   6.489   1.658
  237SOL    HW2 1611   6.479   6.425   1.550
  238SOL     OW 1612   6.731   1.646   2.116
  238SOL    HW1 1613   6.760   1.598   2.199
  238SOL    HW2 1614   6.805   1.706   2.085
  239SOL     OW 1615   0.218   5.369   1.141
  239SOL    HW1 1616   0.281   5.297   1.172
  239SOL    HW2 1617   0.124   5.344   1.167
  240SOL     OW 1618   6.823   2.794   5.401
  240SOL    HW1 1619   6.766   2.861   5.354
  240SOL    HW2 1620   6.912   2.835   5.422
  241SOL     OW 1621   6.005   1.705   4.141
  241SOL    HW1 1622   5.936   1.661   4.199
  241SOL    HW2 1623   5.993   1.672   4.047
  242SOL     OW 1624   2.690   2.283   3.866
  242SOL    HW1 1625   2.620   2.214   3.881
  242SOL    HW2 1626   2.686   2.352   3.939
  243SOL     OW 1627   4.421   1.362   6.579
  243SOL    HW1 1628   4.435   1.289   6.646
  243SOL    HW2 1629   4.359   1.431   6.617
  244SOL     OW 1630   0.086   0.641   5.666
  244SOL    HW1 1631   0.059   0.733   5.641
  244SOL    HW2 1632   0.007   0.592   5.704
  245SOL     OW 1633   4.885   2.565   3.966
  245SOL    HW1 1634   4.890   2.493   4.036
  245SOL    HW2 1635   4.789   2.580   3.941
  246SOL     OW 1636   5.011   3.009   3.538
  246SOL    HW1 1637   5.076   2.986   3.610
  246SOL    HW2 1638   5.033   2.959   3.454
  247SOL     OW 1639   2.781   0.839   3.050
  247SOL    HW1 1640   2.825   0.921   3.087
  247SOL    HW2 1641   2.845   0.790   2.991
  248SOL     OW 1642   6.699   1.079   1.790
  248SOL    HW1 1643   6.627   1.068   1.859
  248SOL    HW2 1644   6.704   0.996   1.734
  249SOL     OW 1645   1.987   6.223   5.198
  249SOL    HW1 1646   2.052   6.150   5.221
  249SOL    HW2 1647   1.983   6.233   5.098
  250SOL     OW 1648   4.871   2.788   6.820
  250SOL    HW1 1649   4.883   2.766   6.917
  250SOL    HW2 1650   4.862   2.703   6.768
  251SOL     OW 1651   2.086   2.115   0.251
  251SOL    HW1 1652   2.095   2.037   0.313
  251SOL    HW2 1653   2.142   2.191   0.285
  252SOL     OW 1654   0.438   1.723   0.227
  252SOL    HW1 1655   0.459   1.734   0.130
  252SOL    HW2 1656   0.491   1.647   0.264
  253SOL     OW 1657   2.000   4.203   5.975
  253SOL    HW1 1658   1.921   4.187   5.916
  253SOL    HW2 1659   1.972   4.193   6.071
  254SOL     OW 1660   4.739   3.694   6.445
  254SOL    HW1 1661   4.666   3.642   6.487
  254SOL    HW2 1662   4.815   3.704   6.510
  255SOL     OW 1663   3.639   1.895   2.533
  255SOL    HW1 1664   3.586   1.938   2.460
  255SOL    HW2 1665   3.634   1.951   2.615
  256SOL     OW 1666   6.228   5.640   2.159
  256SOL    HW1 1667   6.283   5.724   2.160
  256SOL    HW2 1668   6.131   5.664   2.159
  257SOL     OW 1669   2.459   5.850   6.703
  257SOL    HW1 1670   2.427   5.871   6.795
  257SOL    HW2 1671   2.556   5.825   6.706
  258SOL     OW 1672   4.818   4.609   4.550
  258SOL    HW1 1673   4.745   4.658   4.502
  258SOL    HW2 1674   4.858   4.540   4.489
  259SOL     OW 1675   1.046   2.441   2.758
  259SOL    HW1 1676   1.093   2.384   2.691
  259SOL    HW2 1677   1.101   2.523   2.775
  260SOL     OW 1678   7.004   6.619   5.624
  260SOL    HW1 1679   7.007   6.687   5.551
  260SOL    HW2 1680   6.974   6.531   5.588
  261SOL     OW 1681   0.664   1.268   3.532
  261SOL    HW1 1682   0.669   1.302   3.626
  261SOL    HW2 1683   0.755   1.271   3.490
  262SOL     OW 1684   1.556   5.064   2.816
  262SOL    HW1 1685   1.578   5.112   2.901
  262SOL    HW2 1686   1.504   5.124   2.756
  263SOL     OW 1687   0.451   3.253   4.839
  263SOL    HW1 1688   0.430   3.260   4.741
  263SOL    HW2 1689   0.412   3.332   4.887
  264SOL     OW 1690   3.282   4.329   6.719
  264SOL    HW1 1691   3.382   4.330   6.719
  264SOL    HW2 1692   3.250   4.267   6.647
  265SOL     OW 1693   4.812   5.571   4.388
  265SOL    HW1 1694   4.774   5.487   4.350
  265SOL    HW2 1695   4.911   5.561   4.398
  266SOL     OW 1696   3.941   2.679   6.622
  266SOL    HW1 1697   3.926   2.777   6.607
  266SOL    HW2 1698   4.039   2.660   6.615
  267SOL     OW 1699   2.628   1.828   5.697
  267SOL    HW1 1700   2.577   1.900   5.650
  267SOL    HW2 1701   2.635   1.850   5.795
  268SOL     OW 1702   2.762   4.692   3.862
  268SOL    HW1 1703   2.683   4.631   3.855
  268SOL    HW2 1704   2.768   4.748   3.779
  269SOL     OW 1705   1.793   1.389   5.057
  269SOL    HW1 1706   1.837   1.441   4.984
  269SOL    HW2 1707   1.848   1.307   5.077
  270SOL     OW 1708   4.937   6.495   4.930
  270SOL    HW1 1709   5.000   6.446   4.870
  270SOL    HW2 1710   4.843   6.469   4.908
  271SOL     OW 1711   1.832   1.905   0.224
  271SOL    HW1 1712   1.904   1.843   0.193
  271SOL    HW2 1713   1.870   1.972   0.287
  272SOL     OW 1714   4.664   6.349   1.016
  272SOL    HW1 1715   4.716   6.300   1.086
  272SOL    HW2 1716   4.586   6.395   1.060
  273SOL     OW 1717   2.044   6.668   4.270
  273SOL    HW1 1718   2.121   6.611   4.243
  273SOL    HW2 1719   1.972   6.662   4.201
  274SOL     OW 1720   5.337   1.998   1.054
  274SOL    HW1 1721   5.303   1.904   1.061
  274SOL    HW2 1722   5.303   2.051   1.131
  275SOL     OW 1723   5.768   5.610   6.022
  275SOL    HW1 1724   5.706   5.631   6.097
  275SOL    HW2 1725   5.742   5.523   5.981
  276SOL     OW 1726   0.131   6.759   4.576
  276SOL    HW1 1727   0.206   6.824   4.562
  276SOL    HW2 1728   0.118   6.705   4.493
  277SOL     OW 1729   4.509   2.844   5.798
  277SOL    HW1 1730   4.516   2.808   5.892
  277SOL    HW2 1731   4.450   2.784   5.744
  278SOL     OW 1732   5.667   3.901   3.040
  278SOL    HW1 1733   5.764   3.880   3.052
  278SOL    HW2 1734   5.630   3.842   2.968
  279SOL     OW 1735   6.664   3.633   3.657
  279SOL    HW1 1736   6.735   3.638   3.586
  279SOL    HW2 1737   6.707   3.616   3.746
  280SOL     OW 1738   4.392   1.357   3.519
  280SOL    HW1 1739   4.307   1.410   3.517
  280SOL    HW2 1740   4.410   1.322   3.427
  281SOL     OW 1741   5.175   6.278   5.330
  281SOL    HW1 1742   5.160   6.366   5.285
  281SOL    HW2 1743   5.222   6.216   5.267
  282SOL     OW 1744   1.168   2.996   0.416
  282SOL    HW1 1745   1.257   3.040   0.403
  282SOL    HW2 1746   1.180   2.898   0.427
  283SOL     OW 1747   6.169   3.985   4.153
  283SOL    HW1 1748   6.252   4.040   4.151
  283SOL    HW2 1749   6.095   4.036   4.109
  284SOL     OW 1750   4.900   6.217   2.562
  284SOL    HW1 1751   4.870   6.221   2.467
  284SOL    HW2 1752   4.944   6.304   2.586
  285SOL     OW 1753   4.021   6.623   5.525
  285SOL    HW1 1754   3.983   6.702   5.573
  285SOL    HW2 1755   3.969   6.541   5.550
  286SOL     OW 1756   2.679   4.811   5.266
  286SOL    HW1 1757   2.670   4.711   5.273
  286SOL    HW2 1758   2.684   4.837   5.170
  287SOL     OW 1759   3.905   6.116   6.718
  287SOL    HW1 1760   3.809   6.126   6.745
  287SOL    HW2 1761   3.960   6.094   6.798
  288SOL     OW 1762   4.860   1.670   0.230
  288SOL    HW1 1763   4.783   1.725   0.261
  288SOL    HW2 1764   4.855   1.579   0.272
  289SOL     OW 1765   5.764   4.460   4.568
  289SOL    HW1 1766   5.714   4.396   4.510
  289SOL    HW2 1767   5.818   4.408   4.635
  290SOL     OW 1768   3.417   0.483   5.643
  290SOL    HW1 1769   3.393   0.540   5.564
  290SOL    HW2 1770   3.393   0.388   5.625
  291SOL     OW 1771   4.159   0.728   5.375
  291SOL    HW1 1772   4.214   0.807   5.349
  291SOL    HW2 1773   4.218   0.660   5.420
  292SOL     OW 1774   3.302   0.116   3.625
  292SOL    HW1 1775   3.386   0.062   3.630
  292SOL    HW2 1776   3.224   0.055   3.610
  293SOL     OW 1777   5.148   6.684   2.683
  293SOL    HW1 1778   5.112   6.774   2.657
  293SOL    HW2 1779   5.106   6.655   2.769
  294SOL     OW 1780   6.683   1.382   6.973
  294SOL    HW1 1781   6.748   1.417   6.906
  294SOL    HW2 1782   6.683   1.441   0.031
  295SOL     OW 1783   0.907   1.093   5.009
  295SOL    HW1 1784   0.885   1.006   4.966
  295SOL    HW2 1785   0.915   1.165   4.940
  296SOL     OW 1786   0.892   2.243   1.916
  296SOL    HW1 1787   0.875   2.304   1.839
  296SOL    HW2 1788   0.825   2.260   1.988
  297SOL     OW 1789   5.519   3.121   3.246
  297SOL    HW1 1790   5.604   3.112   3.194
  297SOL    HW2 1791   5.445   3.073   3.198
  298SOL     OW 1792   4.237   0.979   5.684
  298SOL    HW1 1793   4.204   0.911   5.749
  298SOL    HW2 1794   4.197   1.068   5.705
  299SOL     OW 1795   0.508   1.381   6.586
  299SOL    HW1 1796   0.520   1.330   6.501
  299SOL    HW2 1797   0.575   1.456   6.589
  300SOL     OW 1798   5.023   6.799   3.508
  300SOL    HW1 1799   5.011   6.880   3.451
  300SOL    HW2 1800   5.112   6.803   3.553
  301SOL     OW 1801   6.938   5.123   6.138
  301SOL    HW1 1802   6.889   5.062   6.201
  301SOL    HW2 1803   0.005   5.145   6.176
  302SOL     OW 1804   0.346   6.812   2.920
  302SOL    HW1 1805   0.381   6.872   2.848
  302SOL    HW2 1806   0.421   6.786   2.981
  303SOL     OW 1807   5.651   6.117   3.037
  303SOL    HW1 1808   5.634   6.023   3.005
  303SOL    HW2 1809   5.568   6.154   3.078
  304SOL     OW 1810   2.188   6.603   4.610
  304SOL    HW1 1811   2.269   6.600   4.551
  304SOL    HW2 1812   2.124   6.531   4.582
  305SOL     OW 1813   0.490   2.338   1.644
  305SOL    HW1 1814   0.526   2.431   1.650
  305SOL    HW2 1815   0.413   2.336   1.580
  306SOL     OW 1816   0.598   6.667   3.043
  306SOL    HW1 1817   0.526   6.603   3.067
  306SOL    HW2 1818   0.634   6.644   2.952
  307SOL     OW 1819   3.657   3.799   3.437
  307SOL    HW1 1820   3.711   3.873   3.397
  307SOL    HW2 1821   3.672   3.797   3.536
  308SOL     OW 1822   6.461   1.626   2.131
  308SOL    HW1 1823   6.448   1.556   2.201
  308SOL    HW2 1824   6.556   1.627   2.101
  309SOL     OW 1825   1.832   5.344   0.006
  309SOL    HW1 1826   1.829   5.404   0.086
  309SOL    HW2 1827   1.892   5.383   6.959
  310SOL     OW 1828   5.482   6.550   4.832
  310SOL    HW1 1829   5.539   6.539   4.751
  310SOL    HW2 1830   5.514   6.628   4.885
  311SOL     OW 1831   1.613   5.763   1.516
  311SOL    HW1 1832   1.641   5.667   1.521
  311SOL    HW2 1833   1.677   5.813   1.456
  312SOL     OW 1834   3.072   0.379   4.020
  312SOL    HW1 1835   3.111   0.470   4.034
  312SOL    HW2 1836   3.082   0.352   3.924
  313SOL     OW 1837   3.098   3.046   2.764
  313SOL    HW1 1838   3.117   2.994   2.681
  313SOL    HW2 1839   3.177   3.040   2.825
  314SOL     OW 1840   2.437   5.403   6.141
  314SOL    HW1 1841   2.388   5.461   6.076
  314SOL    HW2 1842   2.531   5.391   6.110
  315SOL     OW 1843   5.394   0.581   4.821
  315SOL    HW1 1844   5.405   0.660   4.881
  315SOL    HW2 1845   5.409   0.608   4.726
  316SOL     OW 1846   3.788   0.985   6.524
  316SOL    HW1 1847   3.811   0.945   6.436
  316SOL    HW2 1848   3.756   1.079   6.511
  317SOL     OW 1849   0.272   2.322   1.459
  317SOL    HW1 1850   0.293   2.268   1.378
  317SOL    HW2 1851   0.180   2.298   1.492
  318SOL     OW 1852   1.212   0.392   4.739
  318SOL    HW1 1853   1.201   0.492   4.743
  318SOL    HW2 1854   1.122   0.350   4.727
  319SOL     OW 1855   0.283   0.557   3.719
  319SOL    HW1 1856   0.184   0.543   3.718
  319SOL    HW2 1857   0.305   0.645   3.678
  320SOL     OW 1858   5.420   1.977   6.942
  320SOL    HW1 1859   5.342   2.020   6.896
  320SOL    HW2 1860   5.503   2.028   6.922
  321SOL     OW 1861   4.356   3.111   0.945
  321SOL    HW1 1862   4.409   3.120   0.860
  321SOL    HW2 1863   4.353   3.016   0.973
  322SOL     OW 1864   3.328   2.732   6.522
  322SOL    HW1 1865   3.308   2.667   6.596
  322SOL    HW2 1866   3.269   2.813   6.532
  323SOL     OW 1867   1.476   3.678   2.295
  323SOL    HW1 1868   1.504   3.724   2.379
  323SOL    HW2 1869   1.555   3.632   2.254
  324SOL     OW 1870   0.873   0.274   3.287
  324SOL    HW1 1871   0.946   0.341   3.302
  324SOL    HW2 1872   0.913   0.187   3.260
  325SOL     OW 1873   6.931   3.823   0.528
  325SOL    HW1 1874   6.913   3.769   0.611
  325SOL    HW2 1875   6.845   3.838   0.479
  326SOL     OW 1876   0.785   6.073   0.564
  326SOL    HW1 1877   0.815   6.051   0.472
  326SOL    HW2 1878   0.819   6.164   0.589
  327SOL     OW 1879   4.052   6.021   5.804
  327SOL    HW1 1880   4.068   5.939   5.749
  327SOL    HW2 1881   4.116   6.023   5.881
  328SOL     OW 1882   1.488   4.856   3.152
  328SOL    HW1 1883   1.445   4.943   3.173
  328SOL    HW2 1884   1.468   4.790   3.226
  329SOL     OW 1885   3.314   3.613   1.667
  329SOL    HW1 1886   3.287   3.534   1.721
  329SOL    HW2 1887   3.402   3.648   1.700
  330SOL     OW 1888   3.115   3.644   0.253
  330SOL    HW1 1889   3.207   3.626   0.287
  330SOL    HW2 1890   3.117   3.655   0.154
  331SOL     OW 1891   5.639   5.773   4.963
  331SOL    HW1 1892   5.562   5.757   5.025
  331SOL    HW2 1893   5.689   5.688   4.948
  332SOL     OW 1894   5.469   1.988   2.780
  332SOL    HW1 1895   5.466   1.951   2.688
  332SOL    HW2 1896   5.514   2.077   2.780
  333SOL     OW 1897   3.109   6.996   4.308
  333SOL    HW1 1898   3.162   0.036   4.365
  333SOL    HW2 1899   3.104   0.009   4.214
  334SOL     OW 1900   3.433   3.921   3.225
  334SOL    HW1 1901   3.417   3.895   3.320
  334SOL    HW2 1902   3.355   3.974   3.191
  335SOL     OW 1903   3.916   1.673   1.066
  335SOL    HW1 1904   3.818   1.693   1.067
  335SOL    HW2 1905   3.948   1.655   1.159
  336SOL     OW 1906   4.112   1.610   4.441
  336SOL    HW1 1907   4.098   1.515   4.416
  336SOL    HW2 1908   4.023   1.656   4.449
  337SOL     OW 1909   0.133   1.145   4.992
  337SOL    HW1 1910   0.221   1.118   5.030
  337SOL    HW2 1911   0.061   1.090   5.034
  338SOL     OW 1912   4.082   1.543   1.650
  338SOL    HW1 1913   4.126   1.532   1.739
  338SOL    HW2 1914   4.057   1.453   1.614
  339SOL     OW 1915   4.397   5.115   5.670
  339SOL    HW1 1916   4.321   5.140   5.609
  339SOL    HW2 1917   4.360   5.072   5.752
  340SOL     OW 1918   6.323   2.579   4.360
  340SOL    HW1 1919   6.248   2.615   4.305
  340SOL    HW2 1920   6.351   2.490   4.325
  341SOL     OW 1921   0.250   6.844   3.284
  341SOL    HW1 1922   0.162   6.805   3.257
  341SOL    HW2 1923   0.236   6.937   3.319
  342SOL     OW 1924   5.186   1.788   2.531
  342SOL    HW1 1925   5.173   1.887   2.523
  342SOL    HW2 1926   5.097   1.743   2.522
  343SOL     OW 1927   6.296   6.772   1.754
  343SOL    HW1 1928   6.272   6.811   1.843
  343SOL    HW2 1929   6.377   6.818   1.717
  344SOL     OW 1930   0.096   2.499   0.946
  344SOL    HW1 1931   0.050   2.554   0.877
  344SOL    HW2 1932   0.052   2.512   1.035
  345SOL     OW 1933   6.497   2.312   4.569
  345SOL    HW1 1934   6.456   2.242   4.511
  345SOL    HW2 1935   6.441   2.395   4.568
  346SOL     OW 1936   2.556   6.246   3.275
  346SOL    HW1 1937   2.498   6.318   3.313
  346SOL    HW2 1938   2.525   6.224   3.183
  347SOL     OW 1939   2.362   4.372   0.660
  347SOL    HW1 1940   2.415   4.440   0.711
  347SOL    HW2 1941   2.344   4.406   0.568
  348SOL     OW 1942   3.819   5.565   1.991
  348SOL    HW1 1943   3.846   5.515   1.909
  348SOL    HW2 1944   3.796   5.500   2.063
  349SOL     OW 1945   5.435   4.092   0.455
  349SOL    HW1 1946   5.355   4.151   0.448
  349SOL    HW2 1947   5.463   4.063   0.364
  350SOL     OW 1948   3.118   2.007   6.834
  350SOL    HW1 1949   3.020   2.008   6.813
  350SOL    HW2 1950   3.148   2.101   6.853
  351SOL     OW 1951   3.412   4.291   0.800
  351SOL    HW1 1952   3.332   4.286   0.741
  351SOL    HW2 1953   3.432   4.201   0.838
  352SOL     OW 1954   4.167   0.326   2.412
  352SOL    HW1 1955   4.179   0.229   2.434
  352SOL    HW2 1956   4.100   0.366   2.476
  353SOL     OW 1957   1.612   0.547   0.915
  353SOL    HW1 1958   1.687   0.535   0.850
  353SOL    HW2 1959   1.535   0.592   0.870
  354SOL     OW 1960   0.991   2.711   0.299
  354SOL    HW1 1961   1.032   2.685   0.212
  354SOL    HW2 1962   1.048   2.676   0.374
  355SOL     OW 1963   1.171   2.709   2.690
  355SOL    HW1 1964   1.260   2.735   2.727
  355SOL    HW2 1965   1.111   2.789   2.687
  356SOL     OW 1966   2.692   0.305   5.144
  356SOL    HW1 1967   2.735   0.259   5.066
  356SOL    HW2 1968   2.747   0.288   5.226
  357SOL     OW 1969   6.054   0.135   4.697
  357SOL    HW1 1970   6.152   0.122   4.713
  357SOL    HW2 1971   6.040   0.173   4.605
  358SOL     OW 1972   3.308   6.237   6.201
  358SOL    HW1 1973   3.241   6.196   6.139
  358SOL    HW2 1974   3.398   6.199   6.182
  359SOL     OW 1975   1.279   1.798   2.349
  359SOL    HW1 1976   1.213   1.811   2.276
  359SOL    HW2 1977   1.358   1.747   2.314
  360SOL     OW 1978   2.018   4.479   4.084
  360SOL    HW1 1979   2.046   4.471   3.988
  360SOL    HW2 1980   1.985   4.390   4.116
  361SOL     OW 1981   6.763   1.322   2.174
  361SOL    HW1 1982   6.796   1.380   2.100
  361SOL    HW2 1983   6.795   1.359   2.262
  362SOL     OW 1984   3.422   3.492   1.424
  362SOL    HW1 1985   3.365   3.544   1.487
  362SOL    HW2 1986   3.509   3.469   1.468
  363SOL     OW 1987   4.874   5.811   2.086
  363SOL    HW1 1988   4.964   5.834   2.123
  363SOL    HW2 1989   4.871   5.713   2.064
  364SOL     OW 1990   0.971   6.925   0.102
  364SOL    HW1 1991   1.017   6.983   0.035
  364SOL    HW2 1992   1.039   6.869   0.149
  365SOL     OW 1993   5.404   1.520   3.798
  365SOL    HW1 1994   5.383   1.583   3.872
  365SOL    HW2 1995   5.349   1.542   3.718
  366SOL     OW 1996   5.512   1.770   6.652
  366SOL    HW1 1997   5.457   1.820   6.719
  366SOL    HW2 1998   5.513   1.673   6.675
  367SOL     OW 1999   6.027   1.370   6.735
  367SOL    HW1 2000   6.079   1.303   6.682
  367SOL    HW2 2001   5.950   1.404   6.680
  368SOL     OW 2002   0.761   1.645   5.813
  368SOL    HW1 2003   0.815   1.624   5.732
  368SOL    HW2 2004   0.741   1.743   5.816
  369SOL     OW 2005   6.153   4.014   1.058
  369SOL    HW1 2006   6.192   3.944   0.997
  369SOL    HW2 2007   6.216   4.091   1.064
  370SOL     OW 2008   1.967   2.428   3.554
  370SOL    HW1 2009   2.019   2.490   3.496
  370SOL    HW2 2010   1.874   2.419   3.519
  371SOL     OW 2011   0.863   5.020   6.961
  371SOL    HW1 2012   0.924   4.956   7.006
  371SOL    HW2 2013   0.773   5.016   7.004
  372SOL     OW 2014   2.689   6.280   5.838
  372SOL    HW1 2015   2.689   6.290   5.738
  372SOL    HW2 2016   2.638   6.197   5.863
  373SOL     OW 2017   6.697   4.770   3.308
  373SOL    HW1 2018   6.786   4.816   3.315
  373SOL    HW2 2019   6.648   4.778   3.394
  374SOL     OW 2020   2.803   1.317   2.751
  374SOL    HW1 2021   2.757   1.263   2.681
  374SOL    HW2 2022   2.898   1.334   2.723
  375SOL     OW 2023   1.011   5.749   4.382
  375SOL    HW1 2024   0.950   5.823   4.410
  375SOL    HW2 2025   0.958   5.664   4.376
  376SOL     OW 2026   3.822   0.875   3.436
  376SOL    HW1 2027   3.876   0.907   3.358
  376SOL    HW2 2028   3.865   0.906   3.521
  377SOL     OW 2029   2.058   2.030   7.006
  377SOL    HW1 2030   2.042   2.051   0.080
  377SOL    HW2 2031   2.078   2.114   6.957
  378SOL     OW 2032   4.374   1.577   3.114
  378SOL    HW1 2033   4.384   1.478   3.122
  378SOL    HW2 2034   4.352   1.615   3.203
  379SOL     OW 2035   4.567   1.874   6.102
  379SOL    HW1 2036   4.580   1.900   6.197
  379SOL    HW2 2037   4.656   1.870   6.056
  380SOL     OW 2038   4.113   2.655   0.096
  380SOL    HW1 2039   4.187   2.626   0.036
  380SOL    HW2 2040   4.143   2.732   0.151
  381SOL     OW 2041   2.156   3.663   2.859
  381SOL    HW1 2042   2.187   3.597   2.791
  381SOL    HW2 2043   2.057   3.667   2.860
  382SOL     OW 2044   5.824   0.493   6.411
  382SOL    HW1 2045   5.799   0.586   6.384
  382SOL    HW2 2046   5.900   0.461   6.355
  383SOL     OW 2047   4.934   2.588   0.399
  383SOL    HW1 2048   4.910   2.517   0.465
  383SOL    HW2 2049   4.977   2.547   0.319
  384SOL     OW 2050   6.560   3.642   4.854
  384SOL    HW1 2051   6.652   3.640   4.814
  384SOL    HW2 2052   6.538   3.551   4.890
  385SOL     OW 2053   4.627   3.379   0.371
  385SOL    HW1 2054   4.664   3.340   0.456
  385SOL    HW2 2055   4.669   3.468   0.354
  386SOL     OW 2056   4.026   6.391   4.245
  386SOL    HW1 2057   4.118   6.372   4.280
  386SOL    HW2 2058   3.999   6.317   4.183
  387SOL     OW 2059   2.541   5.943   4.169
  387SOL    HW1 2060   2.576   5.970   4.259
  387SOL    HW2 2061   2.500   6.022   4.124
  388SOL     OW 2062   1.039   4.448   6.739
  388SOL    HW1 2063   1.128   4.422   6.776
  388SOL    HW2 2064   0.980   4.477   6.814
  389SOL     OW 2065   2.881   3.244   2.181
  389SOL    HW1 2066   2.975   3.211   2.187
  389SOL    HW2 2067   2.832   3.194   2.110
  390SOL     OW 2068   2.562   1.027   4.397
  390SOL    HW1 2069   2.555   1.094   4.470
  390SOL    HW2 2070   2.492   1.045   4.328
  391SOL     OW 2071   1.441   2.555   6.379
  391SOL    HW1 2072   1.373   2.524   6.312
  391SOL    HW2 2073   1.456   2.482   6.447
  392SOL     OW 2074   3.118   5.402   3.758
  392SOL    HW1 2075   3.037   5.417   3.701
  392SOL    HW2 2076   3.090   5.376   3.850
  393SOL     OW 2077   6.327   3.800   4.797
  393SOL    HW1 2078   6.305   3.862   4.872
  393SOL    HW2 2079   6.398   3.737   4.825
  394SOL     OW 2080   2.348   1.421   6.614
  394SOL    HW1 2081   2.255   1.395   6.587
  394SOL    HW2 2082   2.359   1.404   6.712
  395SOL     OW 2083   6.223   3.695   1.191
  395SOL    HW1 2084   6.284   3.633   1.239
  395SOL    HW2 2085   6.142   3.714   1.247
  396SOL     OW 2086   3.753   2.936   4.727
  396SOL    HW1 2087   3.741   3.035   4.721
  396SOL    HW2 2088   3.756   2.908   4.823
  397SOL     OW 2089   4.107   1.990   6.745
  397SOL    HW1 2090   4.139   2.021   6.834
  397SOL    HW2 2091   4.092   2.069   6.685
  398SOL     OW 2092   1.041   4.768   2.942
  398SOL    HW1 2093   1.134   4.802   2.929
  398SOL    HW2 2094   0.997   4.816   3.018
  399SOL     OW 2095   5.203   4.945   2.870
  399SOL    HW1 2096   5.271   5.000   2.919
  399SOL    HW2 2097   5.187   4.860   2.920
  400SOL     OW 2098   1.552   4.878   4.291
  400SOL    HW1 2099   1.617   4.824   4.345
  400SOL    HW2 2100   1.591   4.968   4.271
  401SOL     OW 2101   5.667   1.252   6.761
  401SOL    HW1 2102   5.733   1.183   6.790
  401SOL    HW2 2103   5.619   1.220   6.679
  402SOL     OW 2104   6.261   4.733   1.433
  402SOL    HW1 2105   6.225   4.800   1.369
  402SOL    HW2 2106   6.295   4.780   1.514
  403SOL     OW 2107   5.070   3.779   6.978
  403SOL    HW1 2108   5.125   3.842   0.010
  403SOL    HW2 2109   5.013   3.723   0.016
  404SOL     OW 2110   0.484   6.850   4.797
  404SOL    HW1 2111   0.456   6.787   4.870
  404SOL    HW2 2112   0.547   6.803   4.735
  405SOL     OW 2113   1.277   2.513   0.676
  405SOL    HW1 2114   1.347   2.565   0.725
  405SOL    HW2 2115   1.315   2.427   0.643
  406SOL     OW 2116   1.359   3.236   2.823
  406SOL    HW1 2117   1.374   3.146   2.783
  406SOL    HW2 2118   1.408   3.242   2.911
  407SOL     OW 2119   2.978   1.438   3.513
  407SOL    HW1 2120   2.971   1.400   3.605
  407SOL    HW2 2121   2.942   1.531   3.512
  408SOL     OW 2122   1.990   0.765   3.260
  408SOL    HW1 2123   2.009   0.784   3.164
  408SOL    HW2 2124   1.907   0.710   3.268
  409SOL     OW 2125   6.080   3.096   4.115
  409SOL    HW1 2126   6.139   3.167   4.077
  409SOL    HW2 2127   6.004   3.079   4.052
  410SOL     OW 2128   3.344   0.902   6.150
  410SOL    HW1 2129   3.425   0.961   6.160
  410SOL    HW2 2130   3.268   0.956   6.115
  411SOL     OW 2131   6.951   3.828   5.393
  411SOL    HW1 2132   6.921   3.732   5.387
  411SOL    HW2 2133   7.013   3.839   5.471
  412SOL     OW 2134   4.122   0.430   2.157
  412SOL    HW1 2135   4.126   0.394   2.250
  412SOL    HW2 2136   4.182   0.377   2.098
  413SOL     OW 2137   2.917   0.497   1.817
  413SOL    HW1 2138   2.930   0.551   1.900
  413SOL    HW2 2139   2.921   0.556   1.737
  414SOL     OW 2140   4.459   3.842   0.075
  414SOL    HW1 2141   4.472   3.851   0.174
  414SOL    HW2 2142   4.422   3.751   0.055
  415SOL     OW 2143   3.293   6.749   1.825
  415SOL    HW1 2144   3.358   6.736   1.750
  415SOL    HW2 2145   3.323   6.696   1.905
  416SOL     OW 2146   3.582   5.886   5.818
  416SOL    HW1 2147   3.679   5.906   5.828
  416SOL    HW2 2148   3.570   5.798   5.772
  417SOL     OW 2149   4.545   5.709   1.271
  417SOL    HW1 2150   4.448   5.691   1.252
  417SOL    HW2 2151   4.600   5.680   1.192
  418SOL     OW 2152   5.458   4.545   0.526
  418SOL    HW1 2153   5.510   4.510   0.448
  418SOL    HW2 2154   5.411   4.629   0.500
  419SOL     OW 2155   6.467   6.630   1.228
  419SOL    HW1 2156   6.378   6.671   1.250
  419SOL    HW2 2157   6.486   6.643   1.131
  420SOL     OW 2158   4.483   4.230   0.054
  420SOL    HW1 2159   4.504   4.252   0.149
  420SOL    HW2 2160   4.409   4.162   0.052
  421SOL     OW 2161   1.481   5.657   6.640
  421SOL    HW1 2162   1.393   5.632   6.599
  421SOL    HW2 2163   1.465   5.719   6.717
  422SOL     OW 2164   5.802   3.050   6.516
  422SOL    HW1 2165   5.705   3.058   6.541
  422SOL    HW2 2166   5.830   3.130   6.463
  423SOL     OW 2167   0.796   2.918   5.786
  423SOL    HW1 2168   0.847   2.947   5.705
  423SOL    HW2 2169   0.731   2.847   5.762
  424SOL     OW 2170   2.392   3.940   6.836
  424SOL    HW1 2171   2.304   3.931   6.789
  424SOL    HW2 2172   2.394   3.879   6.916
  425SOL     OW 2173   2.895   0.666   1.020
  425SOL    HW1 2174   2.890   0.764   1.037
  425SOL    HW2 2175   2.821   0.640   0.958
  426SOL     OW 2176   5.810   4.053   5.245
  426SOL    HW1 2177   5.812   4.034   5.343
  426SOL    HW2 2178   5.819   4.151   5.230
  427SOL     OW 2179   4.461   3.614   1.177
  427SOL    HW1 2180   4.558   3.609   1.201
  427SOL    HW2 2181   4.406   3.608   1.261
  428SOL     OW 2182   3.725   1.187   5.230
  428SOL    HW1 2183   3.697   1.259   5.294
  428SOL    HW2 2184   3.647   1.128   5.210
  429SOL     OW 2185   2.421   5.317   0.012
  429SOL    HW1 2186   2.330   5.284   7.008
  429SOL    HW2 2187   2.430   5.413   7.011
  430SOL     OW 2188   1.740   6.688   4.901
  430SOL    HW1 2189   1.832   6.709   4.867
  430SOL    HW2 2190   1.729   6.589   4.909
  431SOL     OW 2191   3.411   1.671   6.734
  431SOL    HW1 2192   3.438   1.597   6.796
  431SOL    HW2 2193   3.396   1.633   6.643
  432SOL     OW 2194   0.217   1.845   1.009
  432SOL    HW1 2195   0.311   1.880   1.012
  432SOL    HW2 2196   0.163   1.903   0.948
  433SOL     OW 2197   2.796   5.840   4.823
  433SOL    HW1 2198   2.749   5.892   4.752
  433SOL    HW2 2199   2.774   5.743   4.815
  434SOL     OW 2200   6.761   3.741   1.237
  434SOL    HW1 2201   6.694   3.796   1.286
  434SOL    HW2 2202   6.718   3.657   1.205
  435SOL     OW 2203   3.700   4.150   0.734
  435SOL    HW1 2204   3.754   4.069   0.757
  435SOL    HW2 2205   3.715   4.174   0.638
  436SOL     OW 2206   2.762   1.121   0.286
  436SOL    HW1 2207   2.708   1.051   0.239
  436SOL    HW2 2208   2.778   1.198   0.225
  437SOL     OW 2209   6.733   6.626   6.230
  437SOL    HW1 2210   6.728   6.705   6.291
  437SOL    HW2 2211   6.654   6.627   6.168
  438SOL     OW 2212   1.875   2.824   1.934
  438SOL    HW1 2213   1.787   2.775   1.935
  438SOL    HW2 2214   1.935   2.785   2.003
  439SOL     OW 2215   6.127   4.859   2.996
  439SOL    HW1 2216   6.167   4.834   3.084
  439SOL    HW2 2217   6.121   4.777   2.938
  440SOL     OW 2218   0.781   3.091   3.746
  440SOL    HW1 2219   0.850   3.044   3.691
  440SOL    HW2 2220   0.714   3.025   3.779
  441SOL     OW 2221   1.088   0.817   3.914
  441SOL    HW1 2222   1.140   0.895   3.949
  441SOL    HW2 2223   0.993   0.824   3.942
  442SOL     OW 2224   0.054   4.281   0.292
  442SOL    HW1 2225   0.109   4.364   0.293
  442SOL    HW2 2226   0.095   4.215   0.228
  443SOL     OW 2227   0.778   4.340   6.052
  443SOL    HW1 2228   0.730   4.339   6.139
  443SOL    HW2 2229   0.872   4.310   6.065
  444SOL     OW 2230   4.616   3.260   6.002
  444SOL    HW1 2231   4.685   3.188   6.014
  444SOL    HW2 2232   4.595   3.271   5.905
  445SOL     OW 2233   1.721   4.481   3.231
  445SOL    HW1 2234   1.809   4.501   3.189
  445SOL    HW2 2235   1.712   4.382   3.245
  446SOL     OW 2236   4.340   4.887   4.070
  446SOL    HW1 2237   4.365   4.835   3.989
  446SOL    HW2 2238   4.360   4.833   4.152
  447SOL     OW 2239   6.749   5.915   0.502
  447SOL    HW1 2240   6.738   6.012   0.481
  447SOL    HW2 2241   6.750   5.901   0.601
  448SOL     OW 2242   4.929   0.605   5.480
  448SOL    HW1 2243   4.896   0.566   5.394
  448SOL    HW2 2244   4.912   0.541   5.555
  449SOL     OW 2245   6.173   0.537   4.915
  449SOL    HW1 2246   6.205   0.446   4.888
  449SOL    HW2 2247   6.088   0.558   4.867
  450SOL     OW 2248   6.850   6.525   3.793
  450SOL    HW1 2249   6.867   6.441   3.742
  450SOL    HW2 2250   6.784   6.508   3.866
  451SOL     OW 2251   0.141   2.328   3.176
  451SOL    HW1 2252   0.089   2.384   3.112
  451SOL    HW2 2253   0.080   2.289   3.245
  452SOL     OW 2254   0.178   4.629   6.603
  452SOL    HW1 2255   0.151   4.653   6.511
  452SOL    HW2 2256   0.114   4.668   6.669
  453SOL     OW 2257   2.675   0.769   5.699
  453SOL    HW1 2258   2.658   0.681   5.655
  453SOL    HW2 2259   2.735   0.824   5.641
  454SOL     OW 2260   0.944   6.237   0.293
  454SOL    HW1 2261   0.877   6.163   0.300
  454SOL    HW2 2262   0.916   6.299   0.219
  455SOL     OW 2263   5.261   1.290   5.790
  455SOL    HW1 2264   5.286   1.340   5.707
  455SOL    HW2 2265   5.257   1.192   5.770
  456SOL     OW 2266   4.602   5.789   6.508
  456SOL    HW1 2267   4.504   5.786   6.492
  456SOL    HW2 2268   4.637   5.695   6.517
  457SOL     OW 2269   1.483   5.053   2.439
  457SOL    HW1 2270   1.557   5.096   2.386
  457SOL    HW2 2271   1.519   4.972   2.485
  458SOL     OW 2272   6.435   6.038   6.639
  458SOL    HW1 2273   6.503   6.010   6.571
  458SOL    HW2 2274   6.396   6.126   6.613
  459SOL     OW 2275   2.165   0.628   2.828
  459SOL    HW1 2276   2.109   0.614   2.746
  459SOL    HW2 2277   2.136   0.563   2.899
  460SOL     OW 2278   6.569   1.652   3.155
  460SOL    HW1 2279   6.572   1.654   3.055
  460SOL    HW2 2280   6.654   1.611   3.190
  461SOL     OW 2281   4.768   6.230   5.667
  461SOL    HW1 2282   4.710   6.239   5.748
  461SOL    HW2 2283   4.861   6.261   5.688
  462SOL     OW 2284   2.951   3.373   6.877
  462SOL    HW1 2285   2.936   3.420   6.790
  462SOL    HW2 2286   2.951   3.274   6.862
  463SOL     OW 2287   6.441   5.623   1.499
  463SOL    HW1 2288   6.371   5.658   1.437
  463SOL    HW2 2289   6.451   5.686   1.576
  464SOL     OW 2290   1.958   0.878   5.895
  464SOL    HW1 2291   2.015   0.957   5.921
  464SOL    HW2 2292   1.924   0.832   5.977
  465SOL     OW 2293   6.575   2.695   4.397
  465SOL    HW1 2294   6.477   2.677   4.394
  465SOL    HW2 2295   6.590   2.793   4.415
  466SOL     OW 2296   1.859   0.386   3.470
  466SOL    HW1 2297   1.881   0.339   3.555
  466SOL    HW2 2298   1.847   0.319   3.397
  467SOL     OW 2299   2.159   0.650   5.130
  467SOL    HW1 2300   2.232   0.678   5.067
  467SOL    HW2 2301   2.198   0.593   5.202
  468SOL     OW 2302   3.143   4.359   0.689
  468SOL    HW1 2303   3.087   4.295   0.636
  468SOL    HW2 2304   3.116   4.355   0.786
  469SOL     OW 2305   2.149   5.079   0.316
  469SOL    HW1 2306   2.174   5.107   0.223
  469SOL    HW2 2307   2.195   4.992   0.337
  470SOL     OW 2308   3.607   1.264   2.571
  470SOL    HW1 2309   3.582   1.250   2.475
  470SOL    HW2 2310   3.703   1.291   2.577
  471SOL     OW 2311   2.728   2.133   4.880
  471SOL    HW1 2312   2.820   2.093   4.883
  471SOL    HW2 2313   2.668   2.074   4.826
  472SOL     OW 2314   3.489   3.918   5.732
  472SOL    HW1 2315   3.514   4.013   5.715
  472SOL    HW2 2316   3.571   3.863   5.748
  473SOL     OW 2317   1.154   4.153   2.683
  473SOL    HW1 2318   1.126   4.158   2.779
  473SOL    HW2 2319   1.254   4.161   2.678
  474SOL     OW 2320   4.062   5.015   4.761
  474SOL    HW1 2321   4.154   5.053   4.757
  474SOL    HW2 2322   4.021   5.035   4.850
  475SOL     OW 2323   0.473   6.600   6.173
  475SOL    HW1 2324   0.426   6.648   6.099
  475SOL    HW2 2325   0.450   6.643   6.260
  476SOL     OW 2326   6.868   4.536   2.445
  476SOL    HW1 2327   6.829   4.589   2.370
  476SOL    HW2 2328   6.943   4.480   2.411
  477SOL     OW 2329   1.322   5.203   4.290
  477SOL    HW1 2330   1.328   5.134   4.362
  477SOL    HW2 2331   1.246   5.181   4.229
  478SOL     OW 2332   1.910   5.003   3.368
  478SOL    HW1 2333   1.868   4.917   3.339
  478SOL    HW2 2334   1.886   5.022   3.463
  479SOL     OW 2335   3.628   2.334   0.945
  479SOL    HW1 2336   3.623   2.418   0.891
  479SOL    HW2 2337   3.700   2.275   0.909
  480SOL     OW 2338   1.077   0.329   2.807
  480SOL    HW1 2339   1.042   0.347   2.715
  480SOL    HW2 2340   1.070   0.232   2.828
  481SOL     OW 2341   3.657   6.810   1.364
  481SOL    HW1 2342   3.581   6.852   1.414
  481SOL    HW2 2343   3.723   6.774   1.430
  482SOL     OW 2344   5.464   4.320   1.947
  482SOL    HW1 2345   5.529   4.317   1.871
  482SOL    HW2 2346   5.508   4.363   2.026
  483SOL     OW 2347   5.457   1.730   1.224
  483SOL    HW1 2348   5.458   1.823   1.259
  483SOL    HW2 2349   5.535   1.716   1.163
  484SOL     OW 2350   6.698   2.439   4.969
  484SOL    HW1 2351   6.700   2.510   5.040
  484SOL    HW2 2352   6.759   2.364   4.995
  485SOL     OW 2353   3.724   5.406   2.238
  485SOL    HW1 2354   3.625   5.412   2.221
  485SOL    HW2 2355   3.753   5.311   2.231
  486SOL     OW 2356   0.817   0.505   0.668
  486SOL    HW1 2357   0.816   0.410   0.700
  486SOL    HW2 2358   0.906   0.546   0.687
  487SOL     OW 2359   6.331   2.872   6.518
  487SOL    HW1 2360   6.262   2.921   6.464
  487SOL    HW2 2361   6.357   2.928   6.597
  488SOL     OW 2362   0.308   2.260   2.421
  488SOL    HW1 2363   0.286   2.352   2.387
  488SOL    HW2 2364   0.233   2.198   2.401
  489SOL     OW 2365   3.399   6.070   6.599
  489SOL    HW1 2366   3.453   6.025   6.528
  489SOL    HW2 2367   3.398   6.013   6.681
  490SOL     OW 2368   5.418   6.371   4.279
  490SOL    HW1 2369   5.496   6.369   4.340
  490SOL    HW2 2370   5.365   6.286   4.289
  491SOL     OW 2371   6.886   2.565   3.151
  491SOL    HW1 2372   6.896   2.602   3.243
  491SOL    HW2 2373   6.852   2.471   3.156
  492SOL     OW 2374   2.277   0.478   5.305
  492SOL    HW1 2375   2.305   0.512   5.394
  492SOL    HW2 2376   2.334   0.399   5.280
  493SOL     OW 2377   6.692   4.064   4.349
  493SOL    HW1 2378   6.640   4.004   4.410
  493SOL    HW2 2379   6.672   4.160   4.371
  494SOL     OW 2380   6.533   0.790   0.936
  494SOL    HW1 2381   6.561   0.852   0.862
  494SOL    HW2 2382   6.508   0.701   0.897
  495SOL     OW 2383   4.561   4.765   1.634
  495SOL    HW1 2384   4.488   4.731   1.694
  495SOL    HW2 2385   4.635   4.698   1.631
  496SOL     OW 2386   5.942   3.055   3.647
  496SOL    HW1 2387   5.883   3.133   3.626
  496SOL    HW2 2388   6.038   3.081   3.633
  497SOL     OW 2389   4.447   0.578   4.468
  497SOL    HW1 2390   4.483   0.657   4.519
  497SOL    HW2 2391   4.389   0.611   4.393
  498SOL     OW 2392   1.687   3.270   2.470
  498SOL    HW1 2393   1.657   3.235   2.381
  498SOL    HW2 2394   1.763   3.333   2.456
  499SOL     OW 2395   3.512   1.575   4.929
  499SOL    HW1 2396   3.509   1.627   4.843
  499SOL    HW2 2397   3.429   1.593   4.982
  500SOL     OW 2398   0.909   4.240   2.248
  500SOL    HW1 2399   0.828   4.252   2.306
  500SOL    HW2 2400   0.977   4.186   2.296
  501SOL     OW 2401   0.525   4.518   5.974
  501SOL    HW1 2402   0.536   4.486   6.069
  501SOL    HW2 2403   0.608   4.496   5.922
  502SOL     OW 2404   3.080   5.105   6.982
  502SOL    HW1 2405   3.106   5.024   0.013
  502SOL    HW2 2406   3.150   5.175   6.992
  503SOL     OW 2407   5.423   5.433   5.166
  503SOL    HW1 2408   5.456   5.342   5.194
  503SOL    HW2 2409   5.462   5.457   5.078
  504SOL     OW 2410   1.894   6.251   4.238
  504SOL    HW1 2411   1.814   6.229   4.182
  504SOL    HW2 2412   1.948   6.169   4.252
  505SOL     OW 2413   4.044   6.880   5.709
  505SOL    HW1 2414   4.123   6.899   5.766
  505SOL    HW2 2415   4.056   6.924   5.620
  506SOL     OW 2416   2.121   4.132   6.468
  506SOL    HW1 2417   2.117   4.123   6.368
  506SOL    HW2 2418   2.033   4.168   6.502
  507SOL     OW 2419   3.439   1.606   4.063
  507SOL    HW1 2420   3.492   1.672   4.115
  507SOL    HW2 2421   3.483   1.516   4.069
  508SOL     OW 2422   6.430   3.905   3.886
  508SOL    HW1 2423   6.420   3.990   3.834
  508SOL    HW2 2424   6.449   3.927   3.982
  509SOL     OW 2425   4.670   2.153   1.772
  509SOL    HW1 2426   4.712   2.200   1.850
  509SOL    HW2 2427   4.742   2.123   1.709
  510SOL     OW 2428   0.487   3.594   3.961
  510SOL    HW1 2429   0.540   3.577   3.878
  510SOL    HW2 2430   0.542   3.570   4.041
  511SOL     OW 2431   0.176   6.800   0.995
  511SOL    HW1 2432   0.205   6.872   0.933
  511SOL    HW2 2433   0.255   6.764   1.045
  512SOL     OW 2434   0.422   3.555   6.716
  512SOL    HW1 2435   0.459   3.463   6.701
  512SOL    HW2 2436   0.457   3.592   6.802
  513SOL     OW 2437   6.606   5.934   4.417
  513SOL    HW1 2438   6.526   5.979   4.458
  513SOL    HW2 2439   6.676   6.002   4.397
  514SOL     OW 2440   5.690   2.190   3.575
  514SOL    HW1 2441   5.756   2.251   3.619
  514SOL    HW2 2442   5.735   2.139   3.502
  515SOL     OW 2443   1.923   6.008   6.942
  515SOL    HW1 2444   1.826   6.027   6.926
  515SOL    HW2 2445   1.968   6.090   6.976
  516SOL     OW 2446   2.188   5.176   2.079
  516SOL    HW1 2447   2.142   5.104   2.027
  516SOL    HW2 2448   2.140   5.191   2.165
  517SOL     OW 2449   5.221   0.503   0.797
  517SOL    HW1 2450   5.127   0.493   0.830
  517SOL    HW2 2451   5.284   0.496   0.874
  518SOL     OW 2452   2.486   2.499   0.767
  518SOL    HW1 2453   2.446   2.408   0.753
  518SOL    HW2 2454   2.454   2.536   0.854
  519SOL     OW 2455   0.861   6.339   0.613
  519SOL    HW1 2456   0.959   6.344   0.631
  519SOL    HW2 2457   0.810   6.357   0.697
  520SOL     OW 2458   5.777   4.834   5.113
  520SOL    HW1 2459   5.778   4.873   5.021
  520SOL    HW2 2460   5.716   4.755   5.115
  521SOL     OW 2461   6.607   1.576   0.690
  521SOL    HW1 2462   6.585   1.590   0.787
  521SOL    HW2 2463   6.705   1.562   0.679
  522SOL     OW 2464   4.105   3.667   4.496
  522SOL    HW1 2465   4.127   3.586   4.443
  522SOL    HW2 2466   4.084   3.743   4.434
  523SOL     OW 2467   6.996   6.719   5.361
  523SOL    HW1 2468   6.900   6.708   5.384
  523SOL    HW2 2469   7.005   6.770   5.275
  524SOL     OW 2470   2.790   0.925   5.512
  524SOL    HW1 2471   2.890   0.931   5.507
  524SOL    HW2 2472   2.753   1.010   5.549
  525SOL     OW 2473   2.361   3.512   6.730
  525SOL    HW1 2474   2.298   3.463   6.670
  525SOL    HW2 2475   2.335   3.496   6.826
  526SOL     OW 2476   3.502   5.928   4.633
  526SOL    HW1 2477   3.556   5.988   4.574
  526SOL    HW2 2478   3.428   5.886   4.580
  527SOL     OW 2479   0.914   1.941   6.168
  527SOL    HW1 2480   0.904   1.958   6.266
  527SOL    HW2 2481   0.947   1.848   6.153
  528SOL     OW 2482   2.447   6.965   5.432
  528SOL    HW1 2483   2.485   7.020   5.506
  528SOL    HW2 2484   2.429   6.872   5.465
  529SOL     OW 2485   0.195   4.785   4.075
  529SOL    HW1 2486   0.149   4.874   4.069
  529SOL    HW2 2487   0.259   4.776   3.999
  530SOL     OW 2488   2.279   2.877   5.773
  530SOL    HW1 2489   2.219   2.798   5.780
  530SOL    HW2 2490   2.255   2.931   5.692
  531SOL     OW 2491   0.195   0.450   1.088
  531SOL    HW1 2492   0.189   0.356   1.123
  531SOL    HW2 2493   0.111   0.472   1.038
  532SOL     OW 2494   1.806   0.702   5.717
  532SOL    HW1 2495   1.849   0.782   5.757
  532SOL    HW2 2496   1.775   0.640   5.790
  533SOL     OW 2497   5.489   6.731   3.983
  533SOL    HW1 2498   5.428   6.652   3.973
  533SOL    HW2 2499   5.572   6.715   3.931
  534SOL     OW 2500   3.827   5.920   1.523
  534SOL    HW1 2501   3.766   5.982   1.571
  534SOL    HW2 2502   3.773   5.851   1.474
  535SOL     OW 2503   0.257   3.545   3.161
  535SOL    HW1 2504   0.328   3.495   3.212
  535SOL    HW2 2505   0.279   3.642   3.159
  536SOL     OW 2506   0.907   5.570   0.919
  536SOL    HW1 2507   0.985   5.556   0.857
  536SOL    HW2 2508   0.880   5.666   0.916
  537SOL     OW 2509   2.312   0.614   2.523
  537SOL    HW1 2510   2.365   0.675   2.464
  537SOL    HW2 2511   2.224   0.655   2.545
  538SOL     OW 2512   1.064   5.386   3.612
  538SOL    HW1 2513   1.109   5.300   3.639
  538SOL    HW2 2514   1.063   5.393   3.512
  539SOL     OW 2515   1.675   4.683   1.792
  539SOL    HW1 2516   1.724   4.763   1.825
  539SOL    HW2 2517   1.740   4.608   1.775
  540SOL     OW 2518   1.155   2.054   2.118
  540SOL    HW1 2519   1.191   2.036   2.210
  540SOL    HW2 2520   1.126   2.149   2.111
  541SOL     OW 2521   3.262   6.006   5.398
  541SOL    HW1 2522   3.204   5.934   5.360
  541SOL    HW2 2523   3.207   6.088   5.414
  542SOL     OW 2524   6.091   5.390   6.835
  542SOL    HW1 2525   6.109   5.465   6.899
  542SOL    HW2 2526   6.010   5.339   6.864
  543SOL     OW 2527   0.270   6.206   0.154
  543SOL    HW1 2528   0.186   6.196   0.101
  543SOL    HW2 2529   0.256   6.168   0.246
  544SOL     OW 2530   0.807   5.499   0.305
  544SOL    HW1 2531   0.869   5.545   0.241
  544SOL    HW2 2532   0.834   5.404   0.316
  545SOL     OW 2533   3.708   1.904   3.792
  545SOL    HW1 2534   3.609   1.906   3.780
  545SOL    HW2 2535   3.746   1.995   3.774
  546SOL     OW 2536   0.822   3.789   0.491
  546SOL    HW1 2537   0.794   3.752   0.402
  546SOL    HW2 2538   0.759   3.758   0.562
  547SOL     OW 2539   2.645   3.141   0.162
  547SOL    HW1 2540   2.682   3.228   0.194
  547SOL    HW2 2541   2.697   3.110   0.083
  548SOL     OW 2542   3.281   3.017   3.827
  548SOL    HW1 2543   3.336   3.100   3.829
  548SOL    HW2 2544   3.291   2.968   3.913
  549SOL     OW 2545   6.525   3.291   1.419
  549SOL    HW1 2546   6.494   3.375   1.464
  549SOL    HW2 2547   6.607   3.256   1.466
  550SOL     OW 2548   6.980   3.827   1.737
  550SOL    HW1 2549   6.896   3.810   1.686
  550SOL    HW2 2550   0.028   3.762   1.709
  551SOL     OW 2551   6.859   1.722   6.608
  551SOL    HW1 2552   6.837   1.818   6.589
  551SOL    HW2 2553   6.870   1.710   6.707
  552SOL     OW 2554   4.588   6.048   0.727
  552SOL    HW1 2555   4.622   6.142   0.735
  552SOL    HW2 2556   4.578   6.009   0.819
  553SOL     OW 2557   1.506   1.967   1.793
  553SOL    HW1 2558   1.583   1.903   1.788
  553SOL    HW2 2559   1.426   1.919   1.830
  554SOL     OW 2560   5.301   6.130   5.124
  554SOL    HW1 2561   5.248   6.180   5.056
  554SOL    HW2 2562   5.280   6.032   5.117
  555SOL     OW 2563   1.414   4.363   4.354
  555SOL    HW1 2564   1.427   4.435   4.423
  555SOL    HW2 2565   1.323   4.373   4.313
  556SOL     OW 2566   5.393   3.507   3.097
  556SOL    HW1 2567   5.355   3.592   3.060
  556SOL    HW2 2568   5.457   3.467   3.031
  557SOL     OW 2569   0.104   6.213   6.113
  557SOL    HW1 2570   0.129   6.278   6.185
  557SOL    HW2 2571   0.061   6.133   6.154
  558SOL     OW 2572   4.164   4.006   5.379
  558SOL    HW1 2573   4.215   4.089   5.353
  558SOL    HW2 2574   4.220   3.951   5.440
  559SOL     OW 2575   6.259   5.761   6.548
  559SOL    HW1 2576   6.259   5.800   6.456
  559SOL    HW2 2577   6.353   5.750   6.579
  560SOL     OW 2578   4.060   6.834   6.721
  560SOL    HW1 2579   4.093   6.740   6.736
  560SOL    HW2 2580   4.089   6.865   6.631
  561SOL     OW 2581   5.702   6.707   1.093
  561SOL    HW1 2582   5.655   6.786   1.055
  561SOL    HW2 2583   5.701   6.633   1.025
  562SOL     OW 2584   6.388   1.404   5.964
  562SOL    HW1 2585   6.427   1.391   5.872
  562SOL    HW2 2586   6.422   1.489   6.002
  563SOL     OW 2587   2.999   5.992   4.412
  563SOL    HW1 2588   3.090   5.950   4.416
  563SOL    HW2 2589   2.930   5.926   4.443
  564SOL     OW 2590   0.677   1.580   6.628
  564SOL    HW1 2591   0.664   1.676   6.654
  564SOL    HW2 2592   0.767   1.549   6.660
  565SOL     OW 2593   4.661   4.072   5.187
  565SOL    HW1 2594   4.725   4.095   5.113
  565SOL    HW2 2595   4.644   4.153   5.243
  566SOL     OW 2596   5.353   5.125   3.013
  566SOL    HW1 2597   5.328   5.122   3.110
  566SOL    HW2 2598   5.293   5.189   2.966
  567SOL     OW 2599   3.937   3.354   4.776
  567SOL    HW1 2600   3.950   3.450   4.799
  567SOL    HW2 2601   3.971   3.337   4.684
  568SOL     OW 2602   1.934   1.556   6.686
  568SOL    HW1 2603   1.921   1.598   6.596
  568SOL    HW2 2604   1.935   1.627   6.756
  569SOL     OW 2605   2.547   3.787   0.347
  569SOL    HW1 2606   2.460   3.739   0.348
  569SOL    HW2 2607   2.622   3.721   0.355
  570SOL     OW 2608   7.023   6.320   0.895
  570SOL    HW1 2609   7.013   6.257   0.972
  570SOL    HW2 2610   6.970   6.403   0.914
  571SOL     OW 2611   4.287   5.513   2.926
  571SOL    HW1 2612   4.274   5.486   3.021
  571SOL    HW2 2613   4.199   5.537   2.885
  572SOL     OW 2614   1.540   4.193   5.115
  572SOL    HW1 2615   1.537   4.093   5.112
  572SOL    HW2 2616   1.627   4.222   5.157
  573SOL     OW 2617   3.926   2.261   5.705
  573SOL    HW1 2618   3.842   2.239   5.755
  573SOL    HW2 2619   3.980   2.326   5.759
  574SOL     OW 2620   2.805   1.771   4.215
  574SOL    HW1 2621   2.904   1.760   4.202
  574SOL    HW2 2622   2.782   1.868   4.211
  575SOL     OW 2623   5.186   2.205   0.058
  575SOL    HW1 2624   5.251   2.206   7.004
  575SOL    HW2 2625   5.146   2.114   0.067
  576SOL     OW 2626   0.605   1.969   2.353
  576SOL    HW1 2627   0.668   1.894   2.372
  576SOL    HW2 2628   0.530   1.967   2.420
  577SOL     OW 2629   3.212   2.151   3.707
  577SOL    HW1 2630   3.232   2.241   3.669
  577SOL    HW2 2631   3.165   2.095   3.639
  578SOL     OW 2632   0.489   3.209   4.351
  578SOL    HW1 2633   0.396   3.174   4.360
  578SOL    HW2 2634   0.488   3.309   4.360
  579SOL     OW 2635   4.199   3.470   0.214
  579SOL    HW1 2636   4.296   3.447   0.208
  579SOL    HW2 2637   4.166   3.452   0.307
  580SOL     OW 2638   0.256   6.081   0.435
  580SOL    HW1 2639   0.262   6.173   0.475
  580SOL    HW2 2640   0.193   6.025   0.489
  581SOL     OW 2641   3.790   3.662   2.866
  581SOL    HW1 2642   3.845   3.740   2.896
  581SOL    HW2 2643   3.711   3.695   2.815
  582SOL     OW 2644   6.159   3.562   2.856
  582SOL    HW1 2645   6.163   3.556   2.756
  582SOL    HW2 2646   6.156   3.658   2.883
  583SOL     OW 2647   2.147   5.270   6.739
  583SOL    HW1 2648   2.230   5.215   6.744
  583SOL    HW2 2649   2.074   5.216   6.697
  584SOL     OW 2650   0.872   5.441   4.498
  584SOL    HW1 2651   0.833   5.413   4.411
  584SOL    HW2 2652   0.802   5.434   4.570
  585SOL     OW 2653   0.125   1.505   6.015
  585SOL    HW1 2654   0.182   1.541   6.090
  585SOL    HW2 2655   0.086   1.417   6.043
  586SOL     OW 2656   2.395   5.871   0.415
  586SOL    HW1 2657   2.461   5.830   0.352
  586SOL    HW2 2658   2.419   5.968   0.429
  587SOL     OW 2659   1.029   3.687   5.448
  587SOL    HW1 2660   1.021   3.594   5.411
  587SOL    HW2 2661   1.124   3.718   5.441
  588SOL     OW 2662   2.469   7.006   1.415
  588SOL    HW1 2663   2.435   0.039   1.492
  588SOL    HW2 2664   2.549   6.954   1.444
  589SOL     OW 2665   4.716   5.607   2.748
  589SOL    HW1 2666   4.645   5.544   2.780
  589SOL    HW2 2667   4.681   5.701   2.749
  590SOL     OW 2668   6.766   1.949   1.666
  590SOL    HW1 2669   6.792   1.870   1.720
  590SOL    HW2 2670   6.689   1.995   1.710
  591SOL     OW 2671   3.498   6.947   2.946
  591SOL    HW1 2672   3.479   0.022   2.939
  591SOL    HW2 2673   3.566   6.932   3.018
  592SOL     OW 2674   5.497   1.265   6.961
  592SOL    HW1 2675   5.426   1.265   6.892
  592SOL    HW2 2676   5.587   1.259   6.917
  593SOL     OW 2677   6.022   1.609   3.852
  593SOL    HW1 2678   6.085   1.620   3.775
  593SOL    HW2 2679   5.931   1.638   3.825
  594SOL     OW 2680   5.047   3.149   1.801
  594SOL    HW1 2681   5.040   3.053   1.827
  594SOL    HW2 2682   4.974   3.201   1.845
  595SOL     OW 2683   3.749   6.831   4.251
  595SOL    HW1 2684   3.810   6.760   4.216
  595SOL    HW2 2685   3.745   6.907   4.186
  596SOL     OW 2686   1.206   4.575   2.481
  596SOL    HW1 2687   1.107   4.591   2.484
  596SOL    HW2 2688   1.225   4.488   2.436
  597SOL     OW 2689   3.935   1.881   5.711
  597SOL    HW1 2690   3.872   1.878   5.633
  597SOL    HW2 2691   3.885   1.910   5.792
  598SOL     OW 2692   3.354   3.834   0.750
  598SOL    HW1 2693   3.312   3.787   0.828
  598SOL    HW2 2694   3.391   3.922   0.779
  599SOL     OW 2695   6.998   6.380   2.904
  599SOL    HW1 2696   0.010   6.473   2.891
  599SOL    HW2 2697   6.978   6.365   3.001
  600SOL     OW 2698   2.461   0.806   0.931
  600SOL    HW1 2699   2.556   0.819   0.957
  600SOL    HW2 2700   2.435   0.710   0.945
  601SOL     OW 2701   3.116   4.897   3.671
  601SOL    HW1 2702   3.091   4.993   3.656
  601SOL    HW2 2703   3.161   4.862   3.589
  602SOL     OW 2704   0.622   0.634   1.267
  602SOL    HW1 2705   0.606   0.732   1.253
  602SOL    HW2 2706   0.563   0.581   1.207
  603SOL     OW 2707   4.028   2.249   3.403
  603SOL    HW1 2708   4.091   2.325   3.411
  603SOL    HW2 2709   4.024   2.199   3.489
  604SOL     OW 2710   0.767   4.307   5.777
  604SOL    HW1 2711   0.756   4.314   5.876
  604SOL    HW2 2712   0.833   4.235   5.756
  605SOL     OW 2713   5.789   0.421   4.750
  605SOL    HW1 2714   5.812   0.507   4.796
  605SOL    HW2 2715   5.785   0.437   4.651
  606SOL     OW 2716   3.801   0.182   3.358
  606SOL    HW1 2717   3.780   0.102   3.300
  606SOL    HW2 2718   3.898   0.180   3.382
  607SOL     OW 2719   4.655   1.001   3.530
  607SOL    HW1 2720   4.636   0.938   3.455
  607SOL    HW2 2721   4.608   0.970   3.613
  608SOL     OW 2722   4.633   1.876   1.516
  608SOL    HW1 2723   4.560   1.855   1.580
  608SOL    HW2 2724   4.597   1.932   1.441
  609SOL     OW 2725   2.939   3.571   4.301
  609SOL    HW1 2726   2.949   3.669   4.319
  609SOL    HW2 2727   2.963   3.520   4.384
  610SOL     OW 2728   5.504   2.017   4.639
  610SOL    HW1 2729   5.492   2.097   4.580
  610SOL    HW2 2730   5.540   1.941   4.585
  611SOL     OW 2731   6.622   0.323   0.755
  611SOL    HW1 2732   6.601   0.242   0.810
  611SOL    HW2 2733   6.721   0.334   0.747
  612SOL     OW 2734   3.174   5.648   5.734
  612SOL    HW1 2735   3.088   5.650   5.683
  612SOL    HW2 2736   3.214   5.556   5.728
  613SOL     OW 2737   3.538   2.180   0.033
  613SOL    HW1 2738   3.520   2.089   7.018
  613SOL    HW2 2739   3.455   2.215   0.077
  614SOL     OW 2740   5.038   4.220   0.950
  614SOL    HW1 2741   5.070   4.197   1.042
  614SOL    HW2 2742   5.115   4.217   0.886
  615SOL     OW 2743   5.741   6.542   1.324
  615SOL    HW1 2744   5.708   6.612   1.260
  615SOL    HW2 2745   5.823   6.576   1.371
  616SOL     OW 2746   5.859   0.612   4.928
  616SOL    HW1 2747   5.927   0.667   4.977
  616SOL    HW2 2748   5.787   0.585   4.991
  617SOL     OW 2749   6.770   5.250   5.963
  617SOL    HW1 2750   6.831   5.299   5.900
  617SOL    HW2 2751   6.823   5.185   6.017
  618SOL     OW 2752   6.192   4.079   0.129
  618SOL    HW1 2753   6.162   4.173   0.112
  618SOL    HW2 2754   6.140   4.040   0.206
  619SOL     OW 2755   2.744   0.051   6.483
  619SOL    HW1 2756   2.697   0.096   6.408
  619SOL    HW2 2757   2.836   0.089   6.493
  620SOL     OW 2758   5.667   1.442   2.433
  620SOL    HW1 2759   5.579   1.488   2.435
  620SOL    HW2 2760   5.741   1.509   2.428
  621SOL     OW 2761   2.958   0.697   6.479
  621SOL    HW1 2762   3.044   0.747   6.484
  621SOL    HW2 2763   2.937   0.657   6.567
  622SOL     OW 2764   0.578   2.434   4.820
  622SOL    HW1 2765   0.666   2.443   4.774
  622SOL    HW2 2766   0.570   2.503   4.891
  623SOL     OW 2767   5.680   0.420   3.934
  623SOL    HW1 2768   5.751   0.483   3.965
  623SOL    HW2 2769   5.594   0.442   3.980
  624SOL     OW 2770   6.901   0.434   6.459
  624SOL    HW1 2771   6.969   0.415   6.530
  624SOL    HW2 2772   6.947   0.437   6.370
  625SOL     OW 2773   3.106   1.754   0.972
  625SOL    HW1 2774   3.125   1.765   1.069
  625SOL    HW2 2775   3.020   1.800   0.950
  626SOL     OW 2776   6.911   6.277   4.126
  626SOL    HW1 2777   6.959   6.212   4.067
  626SOL    HW2 2778   6.889   6.233   4.213
  627SOL     OW 2779   6.495   6.965   0.063
  627SOL    HW1 2780   6.534   6.925   0.146
  627SOL    HW2 2781   6.431   6.900   0.023
  628SOL     OW 2782   4.361   4.299   6.142
  628SOL    HW1 2783   4.288   4.300   6.211
  628SOL    HW2 2784   4.430   4.366   6.166
  629SOL     OW 2785   1.690   6.835   6.943
  629SOL    HW1 2786   1.701   6.774   6.865
  629SOL    HW2 2787   1.597   6.874   6.943
  630SOL     OW 2788   5.745   1.670   1.351
  630SOL    HW1 2789   5.798   1.755   1.350
  630SOL    HW2 2790   5.749   1.627   1.261
  631SOL     OW 2791   1.532   2.263   3.974
  631SOL    HW1 2792   1.519   2.164   3.962
  631SOL    HW2 2793   1.567   2.280   4.066
  632SOL     OW 2794   2.477   4.146   0.103
  632SOL    HW1 2795   2.441   4.084   0.034
  632SOL    HW2 2796   2.485   4.099   0.191
  633SOL     OW 2797   1.597   5.606   1.177
  633SOL    HW1 2798   1.667   5.643   1.117
  633SOL    HW2 2799   1.638   5.578   1.264
  634SOL     OW 2800   3.241   2.939   4.519
  634SOL    HW1 2801   3.322   2.899   4.562
  634SOL    HW2 2802   3.166   2.940   4.586
  635SOL     OW 2803   5.847   0.219   6.583
  635SOL    HW1 2804   5.931   0.260   6.547
  635SOL    HW2 2805   5.802   0.285   6.643
  636SOL     OW 2806   2.649   0.512   5.552
  636SOL    HW1 2807   2.559   0.470   5.565
  636SOL    HW2 2808   2.646   0.572   5.472
  637SOL     OW 2809   0.029   0.845   2.676
  637SOL    HW1 2810   7.016   0.767   2.728
  637SOL    HW2 2811   0.128   0.837   2.667
  638SOL     OW 2812   6.801   2.909   4.917
  638SOL    HW1 2813   6.729   2.975   4.938
  638SOL    HW2 2814   6.765   2.816   4.930
  639SOL     OW 2815   5.848   4.344   2.378
  639SOL    HW1 2816   5.888   4.435   2.391
  639SOL    HW2 2817   5.758   4.341   2.421
  640SOL     OW 2818   0.348   2.403   2.069
  640SOL    HW1 2819   0.403   2.479   2.103
  640SOL    HW2 2820   0.399   2.354   1.998
  641SOL     OW 2821   2.092   4.922   3.995
  641SOL    HW1 2822   2.129   4.926   4.088
  641SOL    HW2 2823   2.129   4.841   3.948
  642SOL     OW 2824   0.833   4.429   4.604
  642SOL    HW1 2825   0.857   4.341   4.562
  642SOL    HW2 2826   0.770   4.413   4.680
  643SOL     OW 2827   4.213   4.997   0.716
  643SOL    HW1 2828   4.300   4.990   0.766
  643SOL    HW2 2829   4.139   5.017   0.780
  644SOL     OW 2830   0.232   6.615   5.338
  644SOL    HW1 2831   0.295   6.681   5.379
  644SOL    HW2 2832   0.138   6.642   5.358
  645SOL     OW 2833   4.153   5.321   2.387
  645SOL    HW1 2834   4.199   5.256   2.326
  645SOL    HW2 2835   4.111   5.393   2.333
  646SOL     OW 2836   3.881   2.154   4.358
  646SOL    HW1 2837   3.909   2.220   4.428
  646SOL    HW2 2838   3.926   2.066   4.376
  647SOL     OW 2839   3.601   2.516   5.859
  647SOL    HW1 2840   3.538   2.594   5.851
  647SOL    HW2 2841   3.639   2.515   5.952
  648SOL     OW 2842   6.347   0.768   3.031
  648SOL    HW1 2843   6.297   0.785   2.946
  648SOL    HW2 2844   6.443   0.752   3.010
  649SOL     OW 2845   2.156   5.146   0.616
  649SOL    HW1 2846   2.170   5.239   0.649
  649SOL    HW2 2847   2.136   5.147   0.518
  650SOL     OW 2848   6.739   3.457   1.070
  650SOL    HW1 2849   6.737   3.387   0.998
  650SOL    HW2 2850   6.667   3.438   1.137
  651SOL     OW 2851   0.864   0.881   4.104
  651SOL    HW1 2852   0.767   0.857   4.114
  651SOL    HW2 2853   0.910   0.874   4.192
  652SOL     OW 2854   4.163   6.229   1.363
  652SOL    HW1 2855   4.100   6.166   1.409
  652SOL    HW2 2856   4.256   6.215   1.398
  653SOL     OW 2857   1.476   0.128   2.446
  653SOL    HW1 2858   1.496   0.075   2.364
  653SOL    HW2 2859   1.503   0.075   2.527
  654SOL     OW 2860   1.283   0.028   6.023
  654SOL    HW1 2861   1.371   7.004   6.016
  654SOL    HW2 2862   1.247   0.046   5.932
  655SOL     OW 2863   0.360   4.006   1.486
  655SOL    HW1 2864   0.276   4.049   1.454
  655SOL    HW2 2865   0.438   4.065   1.465
  656SOL     OW 2866   2.967   6.260   0.115
  656SOL    HW1 2867   2.887   6.280   0.173
  656SOL    HW2 2868   3.001   6.168   0.137
  657SOL     OW 2869   3.857   3.744   3.202
  657SOL    HW1 2870   3.864   3.647   3.176
  657SOL    HW2 2871   3.810   3.752   3.290
  658SOL     OW 2872   1.242   1.352   4.843
  658SOL    HW1 2873   1.256   1.411   4.764
  658SOL    HW2 2874   1.218   1.408   4.922
  659SOL     OW 2875   1.679   5.583   6.375
  659SOL    HW1 2876   1.684   5.647   6.298
  659SOL    HW2 2877   1.617   5.508   6.352
  660SOL     OW 2878   4.693   4.883   3.118
  660SOL    HW1 2879   4.717   4.791   3.085
  660SOL    HW2 2880   4.757   4.950   3.080
  661SOL     OW 2881   4.210   5.113   4.082
  661SOL    HW1 2882   4.270   5.035   4.067
  661SOL    HW2 2883   4.210   5.138   4.179
  662SOL     OW 2884   4.958   3.614   0.171
  662SOL    HW1 2885   5.032   3.585   0.232
  662SOL    HW2 2886   4.927   3.536   0.117
  663SOL     OW 2887   6.772   4.586   0.058
  663SOL    HW1 2888   6.783   4.510   0.121
  663SOL    HW2 2889   6.861   4.629   0.041
  664SOL     OW 2890   2.102   6.692   6.541
  664SOL    HW1 2891   2.103   6.751   6.460
  664SOL    HW2 2892   2.056   6.606   6.518
  665SOL     OW 2893   3.579   4.928   2.403
  665SOL    HW1 2894   3.566   4.889   2.311
  665SOL    HW2 2895   3.555   5.025   2.402
  666SOL     OW 2896   3.033   1.020   0.448
  666SOL    HW1 2897   2.989   1.089   0.392
  666SOL    HW2 2898   2.985   0.933   0.439
  667SOL     OW 2899   0.979   3.456   2.463
  667SOL    HW1 2900   0.954   3.364   2.495
  667SOL    HW2 2901   1.040   3.498   2.530
  668SOL     OW 2902   5.310   6.921   0.510
  668SOL    HW1 2903   5.384   6.932   0.443
  668SOL    HW2 2904   5.348   6.882   0.594
  669SOL     OW 2905   1.767   5.717   2.682
  669SOL    HW1 2906   1.840   5.673   2.631
  669SOL    HW2 2907   1.752   5.669   2.769
  670SOL     OW 2908   3.209   3.349   3.111
  670SOL    HW1 2909   3.116   3.336   3.078
  670SOL    HW2 2910   3.211   3.429   3.172
  671SOL     OW 2911   1.864   0.007   6.753
  671SOL    HW1 2912   1.843   0.055   6.839
  671SOL    HW2 2913   1.914   0.068   6.692
  672SOL     OW 2914   1.391   1.978   2.976
  672SOL    HW1 2915   1.411   2.035   3.055
  672SOL    HW2 2916   1.394   2.033   2.892
  673SOL     OW 2917   5.067   0.157   0.243
  673SOL    HW1 2918   5.064   0.091   0.318
  673SOL    HW2 2919   5.129   0.232   0.268
  674SOL     OW 2920   6.891   1.509   4.179
  674SOL    HW1 2921   6.818   1.440   4.178
  674SOL    HW2 2922   6.931   1.516   4.088
  675SOL     OW 2923   5.812   0.363   4.289
  675SOL    HW1 2924   5.853   0.338   4.202
  675SOL    HW2 2925   5.719   0.398   4.273
  676SOL     OW 2926   2.254   4.606   4.203
  676SOL    HW1 2927   2.265   4.682   4.267
  676SOL    HW2 2928   2.157   4.587   4.189
  677SOL     OW 2929   5.199   6.904   0.922
  677SOL    HW1 2930   5.259   6.865   0.852
  677SOL    HW2 2931   5.184   7.001   0.903
  678SOL     OW 2932   2.338   1.609   6.064
  678SOL    HW1 2933   2.360   1.518   6.031
  678SOL    HW2 2934   2.263   1.647   6.009
  679SOL     OW 2935   6.460   0.326   2.424
  679SOL    HW1 2936   6.496   0.411   2.385
  679SOL    HW2 2937   6.471   0.252   2.357
  680SOL     OW 2938   5.813   4.345   5.217
  680SOL    HW1 2939   5.714   4.349   5.200
  680SOL    HW2 2940   5.859   4.414   5.160
  681SOL     OW 2941   1.253   6.963   2.054
  681SOL    HW1 2942   1.219   6.937   1.964
  681SOL    HW2 2943   1.346   6.927   2.067
  682SOL     OW 2944   0.536   6.441   6.618
  682SOL    HW1 2945   0.553   6.539   6.614
  682SOL    HW2 2946   0.616   6.392   6.582
  683SOL     OW 2947   5.626   2.128   0.113
  683SOL    HW1 2948   5.631   2.227   0.115
  683SOL    HW2 2949   5.537   2.098   0.148
  684SOL     OW 2950   0.147   5.994   6.605
  684SOL    HW1 2951   0.240   5.961   6.590
  684SOL    HW2 2952   0.150   6.084   6.648
  685SOL     OW 2953   5.847   1.526   6.118
  685SOL    HW1 2954   5.752   1.496   6.103
  685SOL    HW2 2955   5.888   1.471   6.191
  686SOL     OW 2956   5.267   4.963   3.305
  686SOL    HW1 2957   5.260   5.051   3.352
  686SOL    HW2 2958   5.280   4.890   3.371
  687SOL     OW 2959   5.919   2.311   5.308
  687SOL    HW1 2960   6.000   2.306   5.248
  687SOL    HW2 2961   5.837   2.288   5.255
  688SOL     OW 2962   0.349   3.376   4.584
  688SOL    HW1 2963   0.415   3.416   4.520
  688SOL    HW2 2964   0.258   3.379   4.544
  689SOL     OW 2965   6.240   3.987   4.963
  689SOL    HW1 2966   6.296   4.040   5.026
  689SOL    HW2 2967   6.156   3.958   5.008
  690SOL     OW 2968   0.410   3.057   3.711
  690SOL    HW1 2969   0.473   3.025   3.782
  690SOL    HW2 2970   0.328   2.999   3.710
  691SOL     OW 2971   6.693   3.128   6.956
  691SOL    HW1 2972   6.608   3.077   6.948
  691SOL    HW2 2973   6.684   3.215   6.907
  692SOL     OW 2974   2.378   0.238   3.134
  692SOL    HW1 2975   2.426   0.204   3.215
  692SOL    HW2 2976   2.444   0.264   3.064
  693SOL     OW 2977   6.616   1.217   2.530
  693SOL    HW1 2978   6.629   1.308   2.569
  693SOL    HW2 2979   6.704   1.169   2.529
  694SOL     OW 2980   1.353   0.693   2.216
  694SOL    HW1 2981   1.315   0.601   2.228
  694SOL    HW2 2982   1.381   0.729   2.305
  695SOL     OW 2983   4.608   5.434   6.454
  695SOL    HW1 2984   4.691   5.378   6.451
  695SOL    HW2 2985   4.588   5.468   6.363
  696SOL     OW 2986   4.924   6.017   2.865
  696SOL    HW1 2987   4.998   6.010   2.931
  696SOL    HW2 2988   4.940   5.955   2.789
  697SOL     OW 2989   1.636   3.917   3.717
  697SOL    HW1 2990   1.538   3.902   3.727
  697SOL    HW2 2991   1.680   3.910   3.807
  698SOL     OW 2992   4.402   6.499   3.782
  698SOL    HW1 2993   4.384   6.522   3.686
  698SOL    HW2 2994   4.322   6.453   3.821
  699SOL     OW 2995   1.272   4.414   6.863
  699SOL    HW1 2996   1.300   4.394   6.957
  699SOL    HW2 2997   1.314   4.349   6.801
  700SOL     OW 2998   2.519   1.304   3.982
  700SOL    HW1 2999   2.494   1.364   4.058
  700SOL    HW2 3000   2.616   1.279   3.990
  701SOL     OW 3001   0.901   4.586   5.816
  701SOL    HW1 3002   0.815   4.599   5.766
  701SOL    HW2 3003   0.915   4.488   5.833
  702SOL     OW 3004   5.393   5.830   4.577
  702SOL    HW1 3005   5.386   5.915   4.630
  702SOL    HW2 3006   5.301   5.794   4.559
  703SOL     OW 3007   4.285   4.056   0.017
  703SOL    HW1 3008   4.327   3.968   0.042
  703SOL    HW2 3009   4.251   4.050   6.946
  704SOL     OW 3010   2.768   0.377   1.364
  704SOL    HW1 3011   2.699   0.447   1.380
  704SOL    HW2 3012   2.807   0.387   1.273
  705SOL     OW 3013   6.828   1.948   3.709
  705SOL    HW1 3014   6.892   1.958   3.632
  705SOL    HW2 3015   6.752   2.012   3.697
  706SOL     OW 3016   4.879   2.078   3.873
  706SOL    HW1 3017   4.912   2.003   3.815
  706SOL    HW2 3018   4.881   2.050   3.969
  707SOL     OW 3019   4.859   1.999   1.612
  707SOL    HW1 3020   4.795   1.930   1.578
  707SOL    HW2 3021   4.896   1.969   1.701
  708SOL     OW 3022   4.066   0.593   1.868
  708SOL    HW1 3023   4.105   0.504   1.843
  708SOL    HW2 3024   4.056   0.649   1.786
  709SOL     OW 3025   0.452   5.172   7.001
  709SOL    HW1 3026   0.475   5.208   6.910
  709SOL    HW2 3027   0.359   5.135   6.999
  710SOL     OW 3028   3.341   3.415   2.301
  710SOL    HW1 3029   3.248   3.450   2.291
  710SOL    HW2 3030   3.344   3.350   2.377
  711SOL     OW 3031   1.624   0.459   4.350
  711SOL    HW1 3032   1.565   0.404   4.409
  711SOL    HW2 3033   1.613   0.429   4.255
  712SOL     OW 3034   1.208   3.821   1.552
  712SOL    HW1 3035   1.209   3.848   1.648
  712SOL    HW2 3036   1.268   3.881   1.499
  713SOL     OW 3037   3.939   3.968   3.108
  713SOL    HW1 3038   3.860   4.024   3.081
  713SOL    HW2 3039   3.909   3.874   3.122
  714SOL     OW 3040   4.629   4.858   5.521
  714SOL    HW1 3041   4.544   4.847   5.573
  714SOL    HW2 3042   4.687   4.926   5.567
  715SOL     OW 3043   4.659   1.154   6.433
  715SOL    HW1 3044   4.698   1.128   6.521
  715SOL    HW2 3045   4.559   1.148   6.437
  716SOL     OW 3046   6.731   5.053   1.956
  716SOL    HW1 3047   6.678   5.046   2.041
  716SOL    HW2 3048   6.794   4.976   1.950
  717SOL     OW 3049   5.668   3.017   0.224
  717SOL    HW1 3050   5.732   2.951   0.184
  717SOL    HW2 3051   5.661   3.097   0.164
  718SOL     OW 3052   3.276   3.808   6.894
  718SOL    HW1 3053   3.321   3.760   6.819
  718SOL    HW2 3054   3.212   3.746   6.939
  719SOL     OW 3055   5.492   4.831   6.972
  719SOL    HW1 3056   5.519   4.823   0.046
  719SOL    HW2 3057   5.514   4.746   6.924
  720SOL     OW 3058   2.434   0.334   6.755
  720SOL    HW1 3059   2.428   0.235   6.742
  720SOL    HW2 3060   2.528   0.364   6.743
  721SOL     OW 3061   1.406   6.496   5.636
  721SOL    HW1 3062   1.493   6.462   5.670
  721SOL    HW2 3063   1.364   6.555   5.704
  722SOL     OW 3064   4.555   6.620   6.222
  722SOL    HW1 3065   4.621   6.558   6.264
  722SOL    HW2 3066   4.577   6.714   6.247
  723SOL     OW 3067   1.762   3.219   1.919
  723SOL    HW1 3068   1.799   3.161   1.847
  723SOL    HW2 3069   1.728   3.304   1.878
  724SOL     OW 3070   6.780   0.739   4.689
  724SOL    HW1 3071   6.805   0.644   4.708
  724SOL    HW2 3072   6.790   0.794   4.772
  725SOL     OW 3073   2.631   4.634   0.634
  725SOL    HW1 3074   2.573   4.628   0.716
  725SOL    HW2 3075   2.634   4.544   0.589
  726SOL     OW 3076   4.475   0.126   6.426
  726SOL    HW1 3077   4.458   0.049   6.366
  726SOL    HW2 3078   4.543   0.187   6.385
  727SOL     OW 3079   2.556   4.483   3.889
  727SOL    HW1 3080   2.503   4.428   3.952
  727SOL    HW2 3081   2.555   4.441   3.798
  728SOL     OW 3082   6.999   3.235   5.087
  728SOL    HW1 3083   0.031   3.158   5.122
  728SOL    HW2 3084   0.017   3.269   5.003
  729SOL     OW 3085   2.776   0.565   0.352
  729SOL    HW1 3086   2.722   0.494   0.396
  729SOL    HW2 3087   2.768   0.557   0.252
  730SOL     OW 3088   6.122   0.489   5.174
  730SOL    HW1 3089   6.103   0.526   5.082
  730SOL    HW2 3090   6.138   0.391   5.167
  731SOL     OW 3091   6.393   3.301   3.581
  731SOL    HW1 3092   6.374   3.318   3.484
  731SOL    HW2 3093   6.418   3.388   3.625
  732SOL     OW 3094   6.493   2.731   2.210
  732SOL    HW1 3095   6.450   2.646   2.242
  732SOL    HW2 3096   6.514   2.790   2.288
  733SOL     OW 3097   4.237   4.685   3.641
  733SOL    HW1 3098   4.210   4.699   3.736
  733SOL    HW2 3099   4.183   4.745   3.582
  734SOL     OW 3100   6.664   4.804   0.653
  734SOL    HW1 3101   6.598   4.740   0.692
  734SOL    HW2 3102   6.720   4.757   0.586
  735SOL     OW 3103   1.846   4.845   6.458
  735SOL    HW1 3104   1.882   4.783   6.389
  735SOL    HW2 3105   1.839   4.797   6.546
  736SOL     OW 3106   6.260   0.879   3.291
  736SOL    HW1 3107   6.198   0.807   3.323
  736SOL    HW2 3108   6.304   0.849   3.206
  737SOL     OW 3109   5.822   3.848   0.488
  737SOL    HW1 3110   5.763   3.918   0.527
  737SOL    HW2 3111   5.879   3.808   0.560
  738SOL     OW 3112   1.012   4.459   2.838
  738SOL    HW1 3113   1.006   4.553   2.870
  738SOL    HW2 3114   1.104   4.440   2.804
  739SOL     OW 3115   4.708   5.843   6.832
  739SOL    HW1 3116   4.778   5.914   6.844
  739SOL    HW2 3117   4.745   5.769   6.776
  740SOL     OW 3118   5.539   0.171   0.721
  740SOL    HW1 3119   5.609   0.236   0.751
  740SOL    HW2 3120   5.578   0.079   0.715
  741SOL     OW 3121   2.684   0.509   3.667
  741SOL    HW1 3122   2.769   0.560   3.673
  741SOL    HW2 3123   2.614   0.553   3.723
  742SOL     OW 3124   1.600   0.448   3.034
  742SOL    HW1 3125   1.545   0.396   2.968
  742SOL    HW2 3126   1.542   0.481   3.108
  743SOL     OW 3127   2.128   3.583   3.960
  743SOL    HW1 3128   2.128   3.483   3.964
  743SOL    HW2 3129   2.125   3.613   3.865
  744SOL     OW 3130   0.562   6.542   1.425
  744SOL    HW1 3131   0.651   6.543   1.470
  744SOL    HW2 3132   0.555   6.621   1.364
  745SOL     OW 3133   1.645   6.729   2.993
  745SOL    HW1 3134   1.706   6.807   2.982
  745SOL    HW2 3135   1.680   6.669   3.065
  746SOL     OW 3136   3.112   0.717   4.566
  746SOL    HW1 3137   3.188   0.674   4.517
  746SOL    HW2 3138   3.124   0.816   4.564
  747SOL     OW 3139   5.837   4.799   2.240
  747SOL    HW1 3140   5.790   4.836   2.160
  747SOL    HW2 3141   5.826   4.862   2.317
  748SOL     OW 3142   3.967   3.103   1.829
  748SOL    HW1 3143   3.970   3.131   1.925
  748SOL    HW2 3144   4.030   3.027   1.814
  749SOL     OW 3145   6.996   1.393   5.321
  749SOL    HW1 3146   6.922   1.328   5.306
  749SOL    HW2 3147   0.009   1.424   5.233
  750SOL     OW 3148   2.617   4.320   0.471
  750SOL    HW1 3149   2.586   4.226   0.484
  750SOL    HW2 3150   2.610   4.344   0.375
  751SOL     OW 3151   4.848   1.087   0.609
  751SOL    HW1 3152   4.880   0.993   0.599
  751SOL    HW2 3153   4.925   1.150   0.592
  752SOL     OW 3154   5.260   1.234   1.685
  752SOL    HW1 3155   5.285   1.282   1.602
  752SOL    HW2 3156   5.235   1.299   1.756
  753SOL     OW 3157   2.079   2.131   2.715
  753SOL    HW1 3158   2.095   2.032   2.721
  753SOL    HW2 3159   2.068   2.157   2.619
  754SOL     OW 3160   5.214   5.529   6.790
  754SOL    HW1 3161   5.214   5.442   6.740
  754SOL    HW2 3162   5.205   5.604   6.725
  755SOL     OW 3163   0.558   6.405   2.677
  755SOL    HW1 3164   0.475   6.413   2.732
  755SOL    HW2 3165   0.534   6.409   2.580
  756SOL     OW 3166   4.094   0.576   3.455
  756SOL    HW1 3167   4.168   0.604   3.515
  756SOL    HW2 3168   4.113   0.485   3.417
  757SOL     OW 3169   6.713   0.888   4.443
  757SOL    HW1 3170   6.708   0.822   4.369
  757SOL    HW2 3171   6.726   0.841   4.530
  758SOL     OW 3172   4.425   2.234   1.643
  758SOL    HW1 3173   4.446   2.302   1.572
  758SOL    HW2 3174   4.510   2.190   1.672
  759SOL     OW 3175   1.664   1.021   0.490
  759SOL    HW1 3176   1.582   1.034   0.434
  759SOL    HW2 3177   1.682   0.923   0.500
  760SOL     OW 3178   4.622   1.382   6.116
  760SOL    HW1 3179   4.654   1.288   6.115
  760SOL    HW2 3180   4.525   1.385   6.091
  761SOL     OW 3181   5.934   2.814   6.552
  761SOL    HW1 3182   5.913   2.787   6.646
  761SOL    HW2 3183   5.894   2.904   6.534
  762SOL     OW 3184   2.389   5.296   3.972
  762SOL    HW1 3185   2.417   5.221   4.033
  762SOL    HW2 3186   2.390   5.264   3.878
  763SOL     OW 3187   5.656   4.679   6.028
  763SOL    HW1 3188   5.605   4.688   6.113
  763SOL    HW2 3189   5.684   4.770   5.996
  764SOL     OW 3190   4.455   1.158   2.536
  764SOL    HW1 3191   4.530   1.148   2.471
  764SOL    HW2 3192   4.425   1.254   2.538
  765SOL     OW 3193   0.160   0.057   3.418
  765SOL    HW1 3194   0.074   0.047   3.368
  765SOL    HW2 3195   0.187   0.153   3.419
  766SOL     OW 3196   0.655   6.491   0.483
  766SOL    HW1 3197   0.581   6.460   0.544
  766SOL    HW2 3198   0.743   6.462   0.520
  767SOL     OW 3199   6.222   6.864   2.026
  767SOL    HW1 3200   6.136   6.914   2.019
  767SOL    HW2 3201   6.297   6.929   2.041
  768SOL     OW 3202   3.502   6.621   3.263
  768SOL    HW1 3203   3.427   6.601   3.200
  768SOL    HW2 3204   3.549   6.537   3.287
  769SOL     OW 3205   3.806   0.880   6.259
  769SOL    HW1 3206   3.768   0.945   6.193
  769SOL    HW2 3207   3.756   0.794   6.254
  770SOL     OW 3208   3.763   4.909   3.983
  770SOL    HW1 3209   3.730   5.003   3.996
  770SOL    HW2 3210   3.804   4.876   4.068
  771SOL     OW 3211   0.543   5.806   3.481
  771SOL    HW1 3212   0.481   5.845   3.413
  771SOL    HW2 3213   0.494   5.788   3.565
  772SOL     OW 3214   6.772   4.437   5.058
  772SOL    HW1 3215   6.729   4.383   4.986
  772SOL    HW2 3216   6.840   4.498   5.017
  773SOL     OW 3217   0.136   4.234   1.986
  773SOL    HW1 3218   0.159   4.328   1.959
  773SOL    HW2 3219   0.163   4.171   1.914
  774SOL     OW 3220   1.471   1.060   1.925
  774SOL    HW1 3221   1.377   1.032   1.910
  774SOL    HW2 3222   1.530   0.980   1.931
  775SOL     OW 3223   1.154   1.970   4.270
  775SOL    HW1 3224   1.230   2.021   4.312
  775SOL    HW2 3225   1.085   1.950   4.340
  776SOL     OW 3226   2.218   0.737   6.240
  776SOL    HW1 3227   2.146   0.758   6.306
  776SOL    HW2 3228   2.184   0.671   6.173
  777SOL     OW 3229   4.648   0.529   0.999
  777SOL    HW1 3230   4.631   0.473   0.917
  777SOL    HW2 3231   4.587   0.608   0.998
  778SOL     OW 3232   4.337   6.754   3.958
  778SOL    HW1 3233   4.426   6.744   4.004
  778SOL    HW2 3234   4.310   6.665   3.920
  779SOL     OW 3235   0.791   1.026   2.307
  779SOL    HW1 3236   0.818   1.060   2.217
  779SOL    HW2 3237   0.840   0.941   2.327
  780SOL     OW 3238   5.231   3.535   5.091
  780SOL    HW1 3239   5.201   3.445   5.122
  780SOL    HW2 3240   5.248   3.532   4.992
  781SOL     OW 3241   0.695   1.392   5.887
  781SOL    HW1 3242   0.725   1.486   5.867
  781SOL    HW2 3243   0.771   1.329   5.871
  782SOL     OW 3244   0.495   3.634   0.861
  782SOL    HW1 3245   0.561   3.671   0.796
  782SOL    HW2 3246   0.512   3.536   0.873
  783SOL     OW 3247   2.845   4.183   0.332
  783SOL    HW1 3248   2.900   4.169   0.250
  783SOL    HW2 3249   2.753   4.149   0.317
  784SOL     OW 3250   5.479   0.090   4.068
  784SOL    HW1 3251   5.530   0.029   4.128
  784SOL    HW2 3252   5.441   0.166   4.121
  785SOL     OW 3253   6.657   2.142   3.570
  785SOL    HW1 3254   6.563   2.170   3.550
  785SOL    HW2 3255   6.712   2.222   3.593
  786SOL     OW 3256   6.720   0.016   6.979
  786SOL    HW1 3257   6.646   6.991   0.005
  786SOL    HW2 3258   6.746   0.098   0.008
  787SOL     OW 3259   3.548   1.193   6.742
  787SOL    HW1 3260   3.537   1.279   6.792
  787SOL    HW2 3261   3.466   1.176   6.686
  788SOL     OW 3262   1.148   4.296   3.549
  788SOL    HW1 3263   1.169   4.377   3.495
  788SOL    HW2 3264   1.224   4.277   3.611
  789SOL     OW 3265   5.688   3.762   1.174
  789SOL    HW1 3266   5.760   3.825   1.147
  789SOL    HW2 3267   5.675   3.766   1.274
  790SOL     OW 3268   3.268   1.264   4.121
  790SOL    HW1 3269   3.225   1.322   4.052
  790SOL    HW2 3270   3.364   1.290   4.132
  791SOL     OW 3271   4.191   1.942   4.108
  791SOL    HW1 3272   4.274   1.906   4.152
  791SOL    HW2 3273   4.183   2.040   4.126
  792SOL     OW 3274   5.826   0.793   3.392
  792SOL    HW1 3275   5.925   0.780   3.378
  792SOL    HW2 3276   5.791   0.719   3.450
  793SOL     OW 3277   6.797   7.006   6.593
  793SOL    HW1 3278   6.750   0.031   6.667
  793SOL    HW2 3279   6.889   6.982   6.622
  794SOL     OW 3280   2.526   5.236   5.115
  794SOL    HW1 3281   2.562   5.249   5.207
  794SOL    HW2 3282   2.438   5.284   5.107
  795SOL     OW 3283   4.841   4.902   6.247
  795SOL    HW1 3284   4.838   4.946   6.337
  795SOL    HW2 3285   4.878   4.810   6.257
  796SOL     OW 3286   1.136   2.171   5.785
  796SOL    HW1 3287   1.121   2.267   5.760
  796SOL    HW2 3288   1.053   2.135   5.827
  797SOL     OW 3289   5.881   2.743   4.677
  797SOL    HW1 3290   5.944   2.744   4.599
  797SOL    HW2 3291   5.863   2.649   4.705
  798SOL     OW 3292   6.191   0.676   5.749
  798SOL    HW1 3293   6.271   0.619   5.726
  798SOL    HW2 3294   6.166   0.732   5.670
  799SOL     OW 3295   6.664   3.308   3.149
  799SOL    HW1 3296   6.763   3.294   3.162
  799SOL    HW2 3297   6.613   3.254   3.215
  800SOL     OW 3298   6.656   1.454   1.814
  800SOL    HW1 3299   6.731   1.391   1.796
  800SOL    HW2 3300   6.569   1.410   1.792
  801SOL     OW 3301   6.966   2.491   3.762
  801SOL    HW1 3302   6.936   2.523   3.852
  801SOL    HW2 3303   7.011   2.402   3.772
  802SOL     OW 3304   6.137   1.202   0.539
  802SOL    HW1 3305   6.146   1.261   0.620
  802SOL    HW2 3306   6.188   1.118   0.553
  803SOL     OW 3307   1.283   6.738   5.033
  803SOL    HW1 3308   1.210   6.806   5.025
  803SOL    HW2 3309   1.362   6.767   4.979
  804SOL     OW 3310   6.845   0.724   0.546
  804SOL    HW1 3311   6.754   0.690   0.522
  804SOL    HW2 3312   6.909   0.701   0.473
  805SOL     OW 3313   1.532   3.107   6.072
  805SOL    HW1 3314   1.564   3.192   6.029
  805SOL    HW2 3315   1.611   3.050   6.094
  806SOL     OW 3316   5.829   0.958   0.629
  806SOL    HW1 3317   5.905   1.011   0.666
  806SOL    HW2 3318   5.746   0.977   0.682
  807SOL     OW 3319   1.744   0.659   3.340
  807SOL    HW1 3320   1.791   0.591   3.395
  807SOL    HW2 3321   1.681   0.614   3.276
  808SOL     OW 3322   5.606   3.279   4.517
  808SOL    HW1 3323   5.609   3.310   4.422
  808SOL    HW2 3324   5.659   3.341   4.574
  809SOL     OW 3325   0.613   4.716   6.191
  809SOL    HW1 3326   0.580   4.634   6.237
  809SOL    HW2 3327   0.568   4.796   6.230
  810SOL     OW 3328   6.103   4.731   6.539
  810SOL    HW1 3329   6.042   4.699   6.466
  810SOL    HW2 3330   6.088   4.829   6.554
  811SOL     OW 3331   4.863   5.121   3.887
  811SOL    HW1 3332   4.792   5.190   3.871
  811SOL    HW2 3333   4.863   5.055   3.812
  812SOL     OW 3334   0.873   0.169   2.642
  812SOL    HW1 3335   0.816   0.183   2.723
  812SOL    HW2 3336   0.932   0.090   2.655
  813SOL     OW 3337   6.223   5.475   2.368
  813SOL    HW1 3338   6.180   5.541   2.307
  813SOL    HW2 3339   6.317   5.502   2.386
  814SOL     OW 3340   5.171   5.669   1.223
  814SOL    HW1 3341   5.123   5.732   1.162
  814SOL    HW2 3342   5.247   5.626   1.174
  815SOL     OW 3343   0.633   2.503   0.431
  815SOL    HW1 3344   0.673   2.471   0.517
  815SOL    HW2 3345   0.565   2.438   0.400
  816SOL     OW 3346   6.393   0.806   1.171
  816SOL    HW1 3347   6.328   0.730   1.180
  816SOL    HW2 3348   6.443   0.798   1.085
  817SOL     OW 3349   1.784   2.074   2.602
  817SOL    HW1 3350   1.719   1.998   2.593
  817SOL    HW2 3351   1.831   2.087   2.515
  818SOL     OW 3352   6.762   2.023   1.128
  818SOL    HW1 3353   6.685   2.087   1.128
  818SOL    HW2 3354   6.791   2.005   1.222
  819SOL     OW 3355   0.360   4.347   3.447
  819SOL    HW1 3356   0.263   4.333   3.427
  819SOL    HW2 3357   0.400   4.263   3.484
  820SOL     OW 3358   1.101   3.512   4.907
  820SOL    HW1 3359   1.170   3.464   4.853
  820SOL    HW2 3360   1.127   3.608   4.916
  821SOL     OW 3361   1.161   3.599   0.226
  821SOL    HW1 3362   1.234   3.622   0.161
  821SOL    HW2 3363   1.189   3.625   0.318
  822SOL     OW 3364   1.703   3.454   4.784
  822SOL    HW1 3365   1.623   3.445   4.844
  822SOL    HW2 3366   1.713   3.549   4.756
  823SOL     OW 3367   3.102   3.339   0.887
  823SOL    HW1 3368   3.111   3.270   0.816
  823SOL    HW2 3369   3.075   3.426   0.845
  824SOL     OW 3370   6.097   2.391   5.757
  824SOL    HW1 3371   6.185   2.437   5.751
  824SOL    HW2 3372   6.024   2.452   5.726
  825SOL     OW 3373   1.559   4.039   2.245
  825SOL    HW1 3374   1.544   4.062   2.341
  825SOL    HW2 3375   1.471   4.032   2.199
  826SOL     OW 3376   0.373   4.118   5.963
  826SOL    HW1 3377   0.333   4.189   5.905
  826SOL    HW2 3378   0.353   4.138   6.059
  827SOL     OW 3379   4.151   6.013   0.334
  827SOL    HW1 3380   4.109   6.103   0.325
  827SOL    HW2 3381   4.204   6.009   0.419
  828SOL     OW 3382   6.078   6.595   6.670
  828SOL    HW1 3383   6.064   6.640   6.758
  828SOL    HW2 3384   6.009   6.524   6.657
  829SOL     OW 3385   3.716   2.996   5.032
  829SOL    HW1 3386   3.789   3.057   5.000
  829SOL    HW2 3387   3.743   2.957   5.121
  830SOL     OW 3388   4.639   3.886   5.401
  830SOL    HW1 3389   4.571   3.879   5.329
  830SOL    HW2 3390   4.680   3.977   5.400
  831SOL     OW 3391   6.415   0.540   5.142
  831SOL    HW1 3392   6.411   0.551   5.043
  831SOL    HW2 3393   6.331   0.496   5.174
  832SOL     OW 3394   2.315   1.632   5.672
  832SOL    HW1 3395   2.291   1.582   5.756
  832SOL    HW2 3396   2.412   1.616   5.651
  833SOL     OW 3397   1.084   6.851   6.035
  833SOL    HW1 3398   1.102   6.778   6.100
  833SOL    HW2 3399   1.127   6.936   6.067
  834SOL     OW 3400   3.206   4.251   5.695
  834SOL    HW1 3401   3.271   4.247   5.619
  834SOL    HW2 3402   3.132   4.313   5.672
  835SOL     OW 3403   3.979   0.520   2.907
  835SOL    HW1 3404   3.901   0.515   2.969
  835SOL    HW2 3405   4.028   0.433   2.909
  836SOL     OW 3406   2.434   0.908   0.615
  836SOL    HW1 3407   2.529   0.934   0.596
  836SOL    HW2 3408   2.432   0.816   0.655
  837SOL     OW 3409   3.957   0.182   5.577
  837SOL    HW1 3410   3.888   0.227   5.521
  837SOL    HW2 3411   3.914   0.138   5.656
  838SOL     OW 3412   2.091   4.473   2.539
  838SOL    HW1 3413   2.026   4.448   2.610
  838SOL    HW2 3414   2.169   4.520   2.580
  839SOL     OW 3415   3.401   1.342   1.899
  839SOL    HW1 3416   3.486   1.296   1.871
  839SOL    HW2 3417   3.355   1.285   1.967
  840SOL     OW 3418   0.957   1.898   6.461
  840SOL    HW1 3419   0.995   1.806   6.469
  840SOL    HW2 3420   0.916   1.925   6.548
  841SOL     OW 3421   0.204   3.662   0.540
  841SOL    HW1 3422   0.242   3.610   0.616
  841SOL    HW2 3423   0.181   3.600   0.465
  842SOL     OW 3424   3.733   5.191   4.020
  842SOL    HW1 3425   3.746   5.227   3.928
  842SOL    HW2 3426   3.641   5.213   4.053
  843SOL     OW 3427   6.637   3.151   2.438
  843SOL    HW1 3428   6.653   3.198   2.525
  843SOL    HW2 3429   6.702   3.185   2.369
  844SOL     OW 3430   5.195   5.506   0.795
  844SOL    HW1 3431   5.258   5.463   0.730
  844SOL    HW2 3432   5.235   5.503   0.887
  845SOL     OW 3433   0.835   4.836   4.589
  845SOL    HW1 3434   0.782   4.918   4.565
  845SOL    HW2 3435   0.894   4.810   4.513
  846SOL     OW 3436   5.595   2.573   0.119
  846SOL    HW1 3437   5.628   2.656   0.075
  846SOL    HW2 3438   5.500   2.585   0.147
  847SOL     OW 3439   5.275   3.460   2.130
  847SOL    HW1 3440   5.304   3.434   2.038
  847SOL    HW2 3441   5.180   3.491   2.127
  848SOL     OW 3442   6.977   6.969   5.618
  848SOL    HW1 3443   6.964   6.906   5.695
  848SOL    HW2 3444   0.052   6.977   5.598
  849SOL     OW 3445   0.781   5.386   4.234
  849SOL    HW1 3446   0.773   5.405   4.136
  849SOL    HW2 3447   0.690   5.377   4.274
  850SOL     OW 3448   3.659   0.778   2.876
  850SOL    HW1 3449   3.605   0.848   2.828
  850SOL    HW2 3450   3.749   0.815   2.899
  851SOL     OW 3451   0.797   0.267   5.818
  851SOL    HW1 3452   0.803   0.259   5.719
  851SOL    HW2 3453   0.705   0.297   5.843
  852SOL     OW 3454   2.523   4.236   6.332
  852SOL    HW1 3455   2.572   4.271   6.252
  852SOL    HW2 3456   2.556   4.144   6.353
  853SOL     OW 3457   1.516   3.233   1.282
  853SOL    HW1 3458   1.586   3.174   1.241
  853SOL    HW2 3459   1.547   3.263   1.372
  854SOL     OW 3460   5.344   4.939   2.380
  854SOL    HW1 3461   5.436   4.966   2.410
  854SOL    HW2 3462   5.352   4.874   2.303
  855SOL     OW 3463   5.828   0.435   1.593
  855SOL    HW1 3464   5.839   0.526   1.634
  855SOL    HW2 3465   5.735   0.403   1.607
  856SOL     OW 3466   1.824   0.459   4.824
  856SOL    HW1 3467   1.822   0.385   4.756
  856SOL    HW2 3468   1.907   0.451   4.879
  857SOL     OW 3469   6.636   3.802   2.045
  857SOL    HW1 3470   6.705   3.873   2.031
  857SOL    HW2 3471   6.650   3.758   2.133
  858SOL     OW 3472   3.322   3.956   1.234
  858SOL    HW1 3473   3.389   3.897   1.189
  858SOL    HW2 3474   3.255   3.899   1.283
  859SOL     OW 3475   7.019   4.829   0.404
  859SOL    HW1 3476   0.023   4.756   0.466
  859SOL    HW2 3477   0.076   4.860   0.352
  860SOL     OW 3478   1.757   4.938   1.846
  860SOL    HW1 3479   1.699   4.991   1.784
  860SOL    HW2 3480   1.714   4.935   1.937
  861SOL     OW 3481   3.917   5.569   5.805
  861SOL    HW1 3482   3.884   5.576   5.900
  861SOL    HW2 3483   3.995   5.507   5.801
  862SOL     OW 3484   4.606   4.378   4.402
  862SOL    HW1 3485   4.703   4.397   4.387
  862SOL    HW2 3486   4.585   4.386   4.500
  863SOL     OW 3487   5.982   1.230   0.774
  863SOL    HW1 3488   5.882   1.225   0.780
  863SOL    HW2 3489   6.010   1.325   0.762
  864SOL     OW 3490   6.176   4.196   2.671
  864SOL    HW1 3491   6.244   4.261   2.707
  864SOL    HW2 3492   6.100   4.188   2.736
  865SOL     OW 3493   1.432   0.657   4.443
  865SOL    HW1 3494   1.362   0.600   4.401
  865SOL    HW2 3495   1.521   0.611   4.437
  866SOL     OW 3496   3.620   1.142   1.776
  866SOL    HW1 3497   3.626   1.195   1.691
  866SOL    HW2 3498   3.627   1.044   1.754
  867SOL     OW 3499   1.752   2.434   5.978
  867SOL    HW1 3500   1.686   2.388   5.920
  867SOL    HW2 3501   1.709   2.514   6.021
  868SOL     OW 3502   5.351   2.728   3.232
  868SOL    HW1 3503   5.442   2.738   3.272
  868SOL    HW2 3504   5.356   2.742   3.133
  869SOL     OW 3505   6.283   4.053   2.461
  869SOL    HW1 3506   6.245   4.099   2.541
  869SOL    HW2 3507   6.350   4.112   2.416
  870SOL     OW 3508   0.346   2.757   0.761
  870SOL    HW1 3509   0.304   2.699   0.691
  870SOL    HW2 3510   0.311   2.850   0.753
  871SOL     OW 3511   5.664   4.121   0.907
  871SOL    HW1 3512   5.749   4.164   0.874
  871SOL    HW2 3513   5.622   4.180   0.976
  872SOL     OW 3514   5.492   2.646   2.634
  872SOL    HW1 3515   5.529   2.611   2.548
  872SOL    HW2 3516   5.407   2.696   2.616
  873SOL     OW 3517   4.689   6.646   5.556
  873SOL    HW1 3518   4.763   6.685   5.501
  873SOL    HW2 3519   4.657   6.562   5.513
  874SOL     OW 3520   0.130   3.622   6.331
  874SOL    HW1 3521   0.043   3.673   6.331
  874SOL    HW2 3522   0.143   3.580   6.421
  875SOL     OW 3523   6.294   4.995   6.252
  875SOL    HW1 3524   6.363   4.955   6.313
  875SOL    HW2 3525   6.251   5.073   6.297
  876SOL     OW 3526   0.684   2.745   1.345
  876SOL    HW1 3527   0.665   2.807   1.421
  876SOL    HW2 3528   0.780   2.718   1.347
  877SOL     OW 3529   5.832   5.736   0.725
  877SOL    HW1 3530   5.773   5.678   0.782
  877SOL    HW2 3531   5.855   5.819   0.776
  878SOL     OW 3532   3.463   2.778   6.937
  878SOL    HW1 3533   3.463   2.679   6.944
  878SOL    HW2 3534   3.523   2.816   7.008
  879SOL     OW 3535   4.249   1.912   2.987
  879SOL    HW1 3536   4.330   1.855   2.970
  879SOL    HW2 3537   4.185   1.862   3.045
  880SOL     OW 3538   4.042   5.146   0.868
  880SOL    HW1 3539   3.948   5.174   0.888
  880SOL    HW2 3540   4.105   5.219   0.893
  881SOL     OW 3541   4.139   5.323   4.394
  881SOL    HW1 3542   4.157   5.368   4.306
  881SOL    HW2 3543   4.059   5.263   4.384
  882SOL     OW 3544   0.937   1.450   4.425
  882SOL    HW1 3545   0.848   1.415   4.397
  882SOL    HW2 3546   0.993   1.375   4.460
  883SOL     OW 3547   2.913   4.458   6.772
  883SOL    HW1 3548   2.826   4.506   6.778
  883SOL    HW2 3549   2.987   4.520   6.796
  884SOL     OW 3550   4.191   3.804   1.753
  884SOL    HW1 3551   4.169   3.729   1.816
  884SOL    HW2 3552   4.211   3.766   1.663
  885SOL     OW 3553   4.616   6.058   6.608
  885SOL    HW1 3554   4.525   6.093   6.633
  885SOL    HW2 3555   4.611   5.959   6.596
  886SOL     OW 3556   4.110   1.214   6.296
  886SOL    HW1 3557   4.018   1.226   6.259
  886SOL    HW2 3558   4.171   1.181   6.224
  887SOL     OW 3559   5.408   0.258   6.403
  887SOL    HW1 3560   5.371   0.174   6.442
  887SOL    HW2 3561   5.506   0.246   6.385
  888SOL     OW 3562   6.539   6.630   3.679
  888SOL    HW1 3563   6.539   6.530   3.683
  888SOL    HW2 3564   6.633   6.663   3.676
  889SOL     OW 3565   1.154   6.844   4.554
  889SOL    HW1 3566   1.240   6.885   4.584
  889SOL    HW2 3567   1.095   6.830   4.634
  890SOL     OW 3568   2.293   4.638   2.595
  890SOL    HW1 3569   2.373   4.665   2.648
  890SOL    HW2 3570   2.274   4.709   2.526
  891SOL     OW 3571   5.782   3.505   5.902
  891SOL    HW1 3572   5.789   3.587   5.846
  891SOL    HW2 3573   5.743   3.430   5.848
  892SOL     OW 3574   2.345   5.620   1.629
  892SOL    HW1 3575   2.398   5.545   1.668
  892SOL    HW2 3576   2.262   5.584   1.587
  893SOL     OW 3577   2.093   6.803   0.874
  893SOL    HW1 3578   2.103   6.717   0.824
  893SOL    HW2 3579   2.132   6.793   0.966
  894SOL     OW 3580   1.364   5.180   3.971
  894SOL    HW1 3581   1.359   5.278   3.952
  894SOL    HW2 3582   1.443   5.162   4.029
  895SOL     OW 3583   2.095   0.449   4.970
  895SOL    HW1 3584   2.109   0.519   5.041
  895SOL    HW2 3585   2.150   0.369   4.992
  896SOL     OW 3586   5.425   6.804   3.524
  896SOL    HW1 3587   5.379   6.839   3.606
  896SOL    HW2 3588   5.524   6.807   3.538
  897SOL     OW 3589   5.201   2.089   5.914
  897SOL    HW1 3590   5.291   2.131   5.904
  897SOL    HW2 3591   5.211   1.994   5.944
  898SOL     OW 3592   6.346   6.027   3.906
  898SOL    HW1 3593   6.406   5.968   3.852
  898SOL    HW2 3594   6.397   6.065   3.982
  899SOL     OW 3595   1.352   4.254   6.625
  899SOL    HW1 3596   1.284   4.230   6.556
  899SOL    HW2 3597   1.414   4.323   6.588
  900SOL     OW 3598   0.410   5.706   3.673
  900SOL    HW1 3599   0.344   5.632   3.685
  900SOL    HW2 3600   0.385   5.783   3.732
  901SOL     OW 3601   5.778   2.041   3.321
  901SOL    HW1 3602   5.828   1.955   3.325
  901SOL    HW2 3603   5.681   2.024   3.335
  902SOL     OW 3604   1.005   6.008   0.755
  902SOL    HW1 3605   1.083   5.995   0.694
  902SOL    HW2 3606   0.920   6.010   0.701
  903SOL     OW 3607   0.531   4.721   6.942
  903SOL    HW1 3608   0.505   4.632   6.979
  903SOL    HW2 3609   0.506   4.725   6.846
  904SOL     OW 3610   1.675   1.336   3.577
  904SOL    HW1 3611   1.725   1.403   3.632
  904SOL    HW2 3612   1.668   1.250   3.629
  905SOL     OW 3613   6.551   1.924   5.603
  905SOL    HW1 3614   6.633   1.868   5.597
  905SOL    HW2 3615   6.471   1.869   5.577
  906SOL     OW 3616   6.285   3.741   5.192
  906SOL    HW1 3617   6.225   3.681   5.139
  906SOL    HW2 3618   6.286   3.832   5.152
  907SOL     OW 3619   0.309   3.348   1.359
  907SOL    HW1 3620   0.243   3.348   1.435
  907SOL    HW2 3621   0.288   3.424   1.297
  908SOL     OW 3622   2.088   1.052   3.066
  908SOL    HW1 3623   2.120   1.088   2.979
  908SOL    HW2 3624   2.160   0.997   3.108
  909SOL     OW 3625   4.297   0.583   1.358
  909SOL    HW1 3626   4.337   0.652   1.419
  909SOL    HW2 3627   4.346   0.497   1.369
  910SOL     OW 3628   1.783   1.691   2.064
  910SOL    HW1 3629   1.768   1.766   1.999
  910SOL    HW2 3630   1.695   1.662   2.102
  911SOL     OW 3631   0.383   4.408   1.202
  911SOL    HW1 3632   0.469   4.458   1.192
  911SOL    HW2 3633   0.393   4.337   1.272
  912SOL     OW 3634   0.681   0.308   6.429
  912SOL    HW1 3635   0.735   0.365   6.368
  912SOL    HW2 3636   0.735   0.228   6.455
  913SOL     OW 3637   1.964   1.582   1.886
  913SOL    HW1 3638   1.902   1.617   1.956
  913SOL    HW2 3639   2.050   1.554   1.930
  914SOL     OW 3640   2.973   5.767   3.159
  914SOL    HW1 3641   2.929   5.761   3.248
  914SOL    HW2 3642   2.907   5.747   3.087
  915SOL     OW 3643   1.378   2.565   6.871
  915SOL    HW1 3644   1.454   2.544   6.810
  915SOL    HW2 3645   1.307   2.614   6.820
  916SOL     OW 3646   1.220   3.377   2.616
  916SOL    HW1 3647   1.275   3.316   2.672
  916SOL    HW2 3648   1.267   3.465   2.607
  917SOL     OW 3649   3.748   2.269   6.884
  917SOL    HW1 3650   3.658   2.227   6.895
  917SOL    HW2 3651   3.769   2.278   6.786
  918SOL     OW 3652   1.095   0.786   5.661
  918SOL    HW1 3653   1.060   0.733   5.584
  918SOL    HW2 3654   1.018   0.823   5.713
  919SOL     OW 3655   2.023   0.316   1.172
  919SOL    HW1 3656   1.951   0.259   1.211
  919SOL    HW2 3657   2.104   0.314   1.231
  920SOL     OW 3658   1.952   0.970   3.456
  920SOL    HW1 3659   1.968   0.924   3.369
  920SOL    HW2 3660   2.022   0.941   3.522
  921SOL     OW 3661   4.443   4.580   6.738
  921SOL    HW1 3662   4.513   4.632   6.688
  921SOL    HW2 3663   4.376   4.644   6.776
  922SOL     OW 3664   1.901   4.003   6.295
  922SOL    HW1 3665   1.931   3.930   6.233
  922SOL    HW2 3666   1.895   4.089   6.245
  923SOL     OW 3667   3.924   1.279   6.623
  923SOL    HW1 3668   3.885   1.268   6.715
  923SOL    HW2 3669   3.987   1.205   6.604
  924SOL     OW 3670   6.472   4.433   3.088
  924SOL    HW1 3671   6.533   4.374   3.035
  924SOL    HW2 3672   6.418   4.377   3.151
  925SOL     OW 3673   6.823   1.715   2.807
  925SOL    HW1 3674   6.850   1.625   2.839
  925SOL    HW2 3675   6.821   1.779   2.885
  926SOL     OW 3676   5.675   6.096   0.940
  926SOL    HW1 3677   5.655   6.122   1.034
  926SOL    HW2 3678   5.593   6.105   0.885
  927SOL     OW 3679   5.081   5.225   4.842
  927SOL    HW1 3680   5.118   5.314   4.816
  927SOL    HW2 3681   5.041   5.231   4.933
  928SOL     OW 3682   0.379   1.418   1.022
  928SOL    HW1 3683   0.429   1.502   1.039
  928SOL    HW2 3684   0.442   1.340   1.026
  929SOL     OW 3685   0.555   2.404   2.448
  929SOL    HW1 3686   0.482   2.338   2.433
  929SOL    HW2 3687   0.643   2.362   2.424
  930SOL     OW 3688   5.474   5.596   2.973
  930SOL    HW1 3689   5.555   5.547   2.942
  930SOL    HW2 3690   5.413   5.612   2.895
  931SOL     OW 3691   1.815   2.909   2.223
  931SOL    HW1 3692   1.753   2.860   2.284
  931SOL    HW2 3693   1.785   2.899   2.128
  932SOL     OW 3694   4.652   6.494   1.265
  932SOL    HW1 3695   4.731   6.527   1.212
  932SOL    HW2 3696   4.681   6.470   1.357
  933SOL     OW 3697   1.619   5.658   4.105
  933SOL    HW1 3698   1.555   5.707   4.164
  933SOL    HW2 3699   1.713   5.681   4.132
  934SOL     OW 3700   2.974   0.684   5.670
  934SOL    HW1 3701   3.027   0.768   5.677
  934SOL    HW2 3702   2.978   0.649   5.576
  935SOL     OW 3703   1.984   3.192   6.295
  935SOL    HW1 3704   1.982   3.144   6.207
  935SOL    HW2 3705   2.016   3.130   6.366
  936SOL     OW 3706   0.205   1.757   1.814
  936SOL    HW1 3707   0.182   1.662   1.790
  936SOL    HW2 3708   0.121   1.809   1.826
  937SOL     OW 3709   5.257   2.297   3.754
  937SOL    HW1 3710   5.275   2.281   3.656
  937SOL    HW2 3711   5.208   2.383   3.765
  938SOL     OW 3712   6.281   1.780   0.173
  938SOL    HW1 3713   6.357   1.845   0.175
  938SOL    HW2 3714   6.240   1.780   0.081
  939SOL     OW 3715   6.376   0.546   5.604
  939SOL    HW1 3716   6.383   0.615   5.532
  939SOL    HW2 3717   6.468   0.518   5.633
  940SOL     OW 3718   0.630   0.404   3.947
  940SOL    HW1 3719   0.589   0.314   3.936
  940SOL    HW2 3720   0.558   0.473   3.959
  941SOL     OW 3721   5.710   2.922   5.001
  941SOL    HW1 3722   5.673   2.829   4.996
  941SOL    HW2 3723   5.725   2.957   4.909
  942SOL     OW 3724   4.479   0.603   5.222
  942SOL    HW1 3725   4.447   0.541   5.294
  942SOL    HW2 3726   4.479   0.554   5.135
  943SOL     OW 3727   5.825   2.190   6.925
  943SOL    HW1 3728   5.811   2.135   7.008
  943SOL    HW2 3729   5.737   2.216   6.887
  944SOL     OW 3730   5.361   3.774   4.644
  944SOL    HW1 3731   5.315   3.787   4.732
  944SOL    HW2 3732   5.457   3.751   4.659
  945SOL     OW 3733   5.502   3.552   5.180
  945SOL    HW1 3734   5.532   3.632   5.232
  945SOL    HW2 3735   5.402   3.550   5.177
  946SOL     OW 3736   5.497   2.968   6.243
  946SOL    HW1 3737   5.470   3.017   6.160
  946SOL    HW2 3738   5.587   2.928   6.230
  947SOL     OW 3739   1.171   2.384   5.399
  947SOL    HW1 3740   1.162   2.483   5.390
  947SOL    HW2 3741   1.265   2.357   5.379
  948SOL     OW 3742   3.999   1.692   0.805
  948SOL    HW1 3743   3.990   1.595   0.783
  948SOL    HW2 3744   3.955   1.710   0.893
  949SOL     OW 3745   5.649   5.639   6.788
  949SOL    HW1 3746   5.730   5.609   6.838
  949SOL    HW2 3747   5.660   5.734   6.760
  950SOL     OW 3748   3.693   5.430   0.566
  950SOL    HW1 3749   3.719   5.457   0.473
  950SOL    HW2 3750   3.766   5.455   0.629
  951SOL     OW 3751   0.422   2.547   3.386
  951SOL    HW1 3752   0.336   2.497   3.393
  951SOL    HW2 3753   0.485   2.497   3.326
  952SOL     OW 3754   5.104   0.872   1.483
  952SOL    HW1 3755   5.089   0.962   1.523
  952SOL    HW2 3756   5.100   0.803   1.555
  953SOL     OW 3757   3.651   6.450   5.832
  953SOL    HW1 3758   3.595   6.374   5.866
  953SOL    HW2 3759   3.593   6.532   5.822
  954SOL     OW 3760   0.041   6.638   1.544
  954SOL    HW1 3761   0.023   6.541   1.527
  954SOL    HW2 3762   0.136   6.659   1.518
  955SOL     OW 3763   6.976   6.763   2.615
  955SOL    HW1 3764   6.983   6.835   2.546
  955SOL    HW2 3765   6.930   6.683   2.576
  956SOL     OW 3766   1.209   2.672   0.097
  956SOL    HW1 3767   1.261   2.586   0.092
  956SOL    HW2 3768   1.165   2.689   0.009
  957SOL     OW 3769   2.563   6.442   4.710
  957SOL    HW1 3770   2.515   6.463   4.625
  957SOL    HW2 3771   2.588   6.528   4.756
  958SOL     OW 3772   4.824   1.997   0.433
  958SOL    HW1 3773   4.793   2.034   0.521
  958SOL    HW2 3774   4.919   2.023   0.417
  959SOL     OW 3775   1.517   3.767   2.030
  959SOL    HW1 3776   1.595   3.792   2.088
  959SOL    HW2 3777   1.452   3.712   2.083
  960SOL     OW 3778   1.351   5.505   5.536
  960SOL    HW1 3779   1.344   5.416   5.491
  960SOL    HW2 3780   1.262   5.531   5.573
  961SOL     OW 3781   3.445   6.727   1.175
  961SOL    HW1 3782   3.384   6.660   1.219
  961SOL    HW2 3783   3.499   6.774   1.245
  962SOL     OW 3784   1.670   6.202   4.073
  962SOL    HW1 3785   1.728   6.160   4.003
  962SOL    HW2 3786   1.580   6.221   4.035
  963SOL     OW 3787   5.940   0.110   2.302
  963SOL    HW1 3788   6.034   0.129   2.328
  963SOL    HW2 3789   5.908   0.026   2.346
  964SOL     OW 3790   5.120   3.686   0.971
  964SOL    HW1 3791   5.192   3.707   0.905
  964SOL    HW2 3792   5.088   3.770   1.015
  965SOL     OW 3793   1.540   2.275   0.587
  965SOL    HW1 3794   1.540   2.323   0.499
  965SOL    HW2 3795   1.626   2.292   0.634
  966SOL     OW 3796   6.914   2.769   1.721
  966SOL    HW1 3797   6.979   2.714   1.668
  966SOL    HW2 3798   6.892   2.721   1.807
  967SOL     OW 3799   1.062   5.971   2.564
  967SOL    HW1 3800   1.162   5.980   2.567
  967SOL    HW2 3801   1.021   6.062   2.561
  968SOL     OW 3802   6.450   4.465   1.567
  968SOL    HW1 3803   6.468   4.372   1.598
  968SOL    HW2 3804   6.421   4.521   1.645
  969SOL     OW 3805   4.096   6.086   6.932
  969SOL    HW1 3806   4.155   6.136   6.995
  969SOL    HW2 3807   4.149   6.014   6.887
  970SOL     OW 3808   4.458   2.372   5.282
  970SOL    HW1 3809   4.462   2.427   5.199
  970SOL    HW2 3810   4.548   2.332   5.300
  971SOL     OW 3811   0.605   2.667   0.784
  971SOL    HW1 3812   0.622   2.757   0.745
  971SOL    HW2 3813   0.507   2.655   0.799
  972SOL     OW 3814   5.995   5.822   1.311
  972SOL    HW1 3815   5.908   5.777   1.290
  972SOL    HW2 3816   5.978   5.917   1.336
  973SOL     OW 3817   5.737   3.769   5.233
  973SOL    HW1 3818   5.663   3.765   5.300
  973SOL    HW2 3819   5.755   3.864   5.207
  974SOL     OW 3820   3.141   1.634   4.425
  974SOL    HW1 3821   3.125   1.680   4.337
  974SOL    HW2 3822   3.179   1.543   4.409
  975SOL     OW 3823   3.361   6.462   5.588
  975SOL    HW1 3824   3.434   6.423   5.533
  975SOL    HW2 3825   3.275   6.413   5.570
  976SOL     OW 3826   0.110   6.399   3.922
  976SOL    HW1 3827   0.039   6.337   3.889
  976SOL    HW2 3828   0.185   6.403   3.856
  977SOL     OW 3829   1.591   2.513   2.243
  977SOL    HW1 3830   1.648   2.438   2.278
  977SOL    HW2 3831   1.516   2.474   2.189
  978SOL     OW 3832   5.759   3.332   4.099
  978SOL    HW1 3833   5.732   3.236   4.091
  978SOL    HW2 3834   5.853   3.338   4.134
  979SOL     OW 3835   5.878   1.772   3.375
  979SOL    HW1 3836   5.831   1.710   3.313
  979SOL    HW2 3837   5.973   1.785   3.344
  980SOL     OW 3838   6.520   0.989   4.780
  980SOL    HW1 3839   6.612   0.993   4.741
  980SOL    HW2 3840   6.525   0.955   4.874
  981SOL     OW 3841   6.875   3.545   5.046
  981SOL    HW1 3842   6.933   3.520   4.969
  981SOL    HW2 3843   6.779   3.541   5.019
  982SOL     OW 3844   1.602   2.665   1.327
  982SOL    HW1 3845   1.550   2.715   1.396
  982SOL    HW2 3846   1.692   2.707   1.317
  983SOL     OW 3847   6.070   1.533   2.767
  983SOL    HW1 3848   6.154   1.517   2.819
  983SOL    HW2 3849   6.092   1.582   2.683
  984SOL     OW 3850   4.789   1.835   5.008
  984SOL    HW1 3851   4.726   1.757   5.009
  984SOL    HW2 3852   4.876   1.808   5.049
  985SOL     OW 3853   2.964   4.982   1.285
  985SOL    HW1 3854   2.910   4.926   1.347
  985SOL    HW2 3855   3.011   5.053   1.336
  986SOL     OW 3856   3.815   5.200   6.424
  986SOL    HW1 3857   3.812   5.240   6.332
  986SOL    HW2 3858   3.768   5.260   6.488
  987SOL     OW 3859   3.380   6.694   2.126
  987SOL    HW1 3860   3.469   6.715   2.087
  987SOL    HW2 3861   3.373   6.733   2.217
  988SOL     OW 3862   3.248   4.046   1.844
  988SOL    HW1 3863   3.302   4.099   1.910
  988SOL    HW2 3864   3.254   3.949   1.867
  989SOL     OW 3865   0.650   6.732   4.601
  989SOL    HW1 3866   0.605   6.719   4.513
  989SOL    HW2 3867   0.652   6.645   4.651
  990SOL     OW 3868   4.953   6.124   3.437
  990SOL    HW1 3869   4.956   6.217   3.475
  990SOL    HW2 3870   4.901   6.126   3.351
  991SOL     OW 3871   6.743   1.589   5.031
  991SOL    HW1 3872   6.812   1.545   4.973
  991SOL    HW2 3873   6.784   1.611   5.119
  992SOL     OW 3874   6.834   3.028   1.071
  992SOL    HW1 3875   6.887   3.001   1.151
  992SOL    HW2 3876   6.889   3.086   1.012
  993SOL     OW 3877   3.249   5.339   4.073
  993SOL    HW1 3878   3.151   5.324   4.064
  993SOL    HW2 3879   3.293   5.256   4.108
  994SOL     OW 3880   2.841   3.561   2.149
  994SOL    HW1 3881   2.741   3.567   2.145
  994SOL    HW2 3882   2.873   3.495   2.082
  995SOL     OW 3883   0.152   1.123   4.721
  995SOL    HW1 3884   0.125   1.140   4.815
  995SOL    HW2 3885   0.085   1.165   4.659
  996SOL     OW 3886   1.148   3.552   1.546
  996SOL    HW1 3887   1.117   3.565   1.640
  996SOL    HW2 3888   1.183   3.638   1.510
  997SOL     OW 3889   0.081   0.736   0.885
  997SOL    HW1 3890   0.021   0.663   0.916
  997SOL    HW2 3891   0.116   0.786   0.965
  998SOL     OW 3892   4.647   0.302   3.670
  998SOL    HW1 3893   4.616   0.249   3.591
  998SOL    HW2 3894   4.743   0.328   3.656
  999SOL     OW 3895   6.822   5.472   1.512
  999SOL    HW1 3896   6.842   5.438   1.420
  999SOL    HW2 3897   6.894   5.536   1.540
 1000SOL     OW 3898   4.170   2.232   4.196
 1000SOL    HW1 3899   4.246   2.298   4.199
 1000SOL    HW2 3900   4.118   2.245   4.112
 1001SOL     OW 3901   4.325   0.554   5.748
 1001SOL    HW1 3902   4.364   0.603   5.670
 1001SOL    HW2 3903   4.231   0.584   5.763
 1002SOL     OW 3904   6.756   1.414   0.464
 1002SOL    HW1 3905   6.680   1.469   0.432
 1002SOL    HW2 3906   6.827   1.474   0.501
 1003SOL     OW 3907   4.764   4.613   3.069
 1003SOL    HW1 3908   4.728   4.522   3.049
 1003SOL    HW2 3909   4.845   4.630   3.012
 1004SOL     OW 3910   5.695   5.558   0.880
 1004SOL    HW1 3911   5.630   5.516   0.816
 1004SOL    HW2 3912   5.662   5.546   0.973
 1005SOL     OW 3913   6.596   6.290   3.930
 1005SOL    HW1 3914   6.656   6.356   3.975
 1005SOL    HW2 3915   6.580   6.213   3.992
 1006SOL     OW 3916   2.294   4.419   1.001
 1006SOL    HW1 3917   2.204   4.389   0.972
 1006SOL    HW2 3918   2.363   4.356   0.966
 1007SOL     OW 3919   1.347   0.539   3.679
 1007SOL    HW1 3920   1.417   0.564   3.745
 1007SOL    HW2 3921   1.326   0.618   3.621
 1008SOL     OW 3922   2.617   2.447   4.035
 1008SOL    HW1 3923   2.564   2.483   3.958
 1008SOL    HW2 3924   2.566   2.461   4.120
 1009SOL     OW 3925   1.759   5.612   4.931
 1009SOL    HW1 3926   1.703   5.531   4.918
 1009SOL    HW2 3927   1.803   5.609   5.021
 1010SOL     OW 3928   4.288   1.069   6.786
 1010SOL    HW1 3929   4.381   1.107   6.791
 1010SOL    HW2 3930   4.248   1.091   6.697
 1011SOL     OW 3931   3.253   5.597   4.016
 1011SOL    HW1 3932   3.210   5.627   4.101
 1011SOL    HW2 3933   3.270   5.498   4.020
 1012SOL     OW 3934   4.623   5.780   0.080
 1012SOL    HW1 3935   4.634   5.767   7.004
 1012SOL    HW2 3936   4.694   5.841   0.114
 1013SOL     OW 3937   6.960   1.369   1.219
 1013SOL    HW1 3938   7.009   1.452   1.194
 1013SOL    HW2 3939   7.003   1.290   1.176
 1014SOL     OW 3940   5.427   0.553   6.456
 1014SOL    HW1 3941   5.518   0.551   6.497
 1014SOL    HW2 3942   5.401   0.460   6.428
 1015SOL     OW 3943   3.049   6.233   4.259
 1015SOL    HW1 3944   3.051   6.158   4.325
 1015SOL    HW2 3945   3.104   6.309   4.293
 1016SOL     OW 3946   4.768   2.418   1.617
 1016SOL    HW1 3947   4.677   2.426   1.657
 1016SOL    HW2 3948   4.794   2.505   1.575
 1017SOL     OW 3949   4.711   1.986   6.994
 1017SOL    HW1 3950   4.654   1.926   0.027
 1017SOL    HW2 3951   4.685   1.977   6.898
 1018SOL     OW 3952   1.436   2.775   1.880
 1018SOL    HW1 3953   1.393   2.816   1.960
 1018SOL    HW2 3954   1.526   2.739   1.905
 1019SOL     OW 3955   6.051   0.662   0.289
 1019SOL    HW1 3956   5.979   0.600   0.321
 1019SOL    HW2 3957   6.086   0.716   0.366
 1020SOL     OW 3958   3.062   2.248   0.935
 1020SOL    HW1 3959   3.054   2.270   1.032
 1020SOL    HW2 3960   3.103   2.326   0.886
 1021SOL     OW 3961   6.290   2.010   1.012
 1021SOL    HW1 3962   6.358   1.940   1.035
 1021SOL    HW2 3963   6.220   1.970   0.954
 1022SOL     OW 3964   3.845   2.761   6.923
 1022SOL    HW1 3965   3.827   2.698   6.998
 1022SOL    HW2 3966   3.858   2.710   6.838
 1023SOL     OW 3967   5.453   1.242   4.239
 1023SOL    HW1 3968   5.390   1.255   4.163
 1023SOL    HW2 3969   5.458   1.327   4.292
 1024SOL     OW 3970   6.289   1.392   3.670
 1024SOL    HW1 3971   6.214   1.459   3.670
 1024SOL    HW2 3972   6.371   1.435   3.632
 1025SOL     OW 3973   3.041   4.326   0.965
 1025SOL    HW1 3974   3.080   4.289   1.050
 1025SOL    HW2 3975   2.989   4.409   0.986
 1026SOL     OW 3976   1.095   2.985   6.741
 1026SOL    HW1 3977   1.023   3.043   6.701
 1026SOL    HW2 3978   1.163   3.044   6.785
 1027SOL     OW 3979   2.668   5.476   2.108
 1027SOL    HW1 3980   2.635   5.472   2.014
 1027SOL    HW2 3981   2.696   5.570   2.129
 1028SOL     OW 3982   1.550   6.005   0.964
 1028SOL    HW1 3983   1.567   6.089   0.913
 1028SOL    HW2 3984   1.476   5.954   0.921
 1029SOL     OW 3985   3.208   0.011   5.306
 1029SOL    HW1 3986   3.262   6.972   5.247
 1029SOL    HW2 3987   3.226   7.012   5.402
 1030SOL     OW 3988   3.484   4.228   5.153
 1030SOL    HW1 3989   3.406   4.172   5.124
 1030SOL    HW2 3990   3.552   4.231   5.079
 1031SOL     OW 3991   2.170   5.397   1.484
 1031SOL    HW1 3992   2.163   5.420   1.387
 1031SOL    HW2 3993   2.214   5.308   1.494
 1032SOL     OW 3994   1.952   1.071   4.682
 1032SOL    HW1 3995   1.968   0.977   4.710
 1032SOL    HW2 3996   1.941   1.076   4.583
 1033SOL     OW 3997   2.460   5.758   3.355
 1033SOL    HW1 3998   2.422   5.762   3.447
 1033SOL    HW2 3999   2.539   5.697   3.354
 1034SOL     OW 4000   1.593   6.429   2.834
 1034SOL    HW1 4001   1.623   6.525   2.836
 1034SOL    HW2 4002   1.511   6.420   2.890
 1035SOL     OW 4003   2.814   0.680   4.088
 1035SOL    HW1 4004   2.774   0.689   4.180
 1035SOL    HW2 4005   2.908   0.648   4.096
 1036SOL     OW 4006   3.996   0.445   6.626
 1036SOL    HW1 4007   4.082   0.395   6.614
 1036SOL    HW2 4008   4.015   0.543   6.623
 1037SOL     OW 4009   3.084   2.001   6.343
 1037SOL    HW1 4010   3.145   1.983   6.420
 1037SOL    HW2 4011   3.034   2.087   6.360
 1038SOL     OW 4012   2.969   1.191   4.709
 1038SOL    HW1 4013   2.965   1.287   4.740
 1038SOL    HW2 4014   2.900   1.176   4.639
 1039SOL     OW 4015   4.185   1.532   3.481
 1039SOL    HW1 4016   4.160   1.576   3.567
 1039SOL    HW2 4017   4.112   1.468   3.454
 1040SOL     OW 4018   6.226   3.333   4.045
 1040SOL    HW1 4019   6.190   3.416   4.003
 1040SOL    HW2 4020   6.320   3.317   4.014
 1041SOL     OW 4021   1.217   6.859   4.299
 1041SOL    HW1 4022   1.182   6.819   4.383
 1041SOL    HW2 4023   1.295   6.919   4.320
 1042SOL     OW 4024   4.796   3.802   1.060
 1042SOL    HW1 4025   4.776   3.832   1.153
 1042SOL    HW2 4026   4.894   3.810   1.043
 1043SOL     OW 4027   3.373   0.602   6.430
 1043SOL    HW1 4028   3.460   0.558   6.451
 1043SOL    HW2 4029   3.309   0.587   6.505
 1044SOL     OW 4030   3.679   4.179   1.787
 1044SOL    HW1 4031   3.746   4.181   1.861
 1044SOL    HW2 4032   3.688   4.262   1.731
 1045SOL     OW 4033   3.830   1.698   3.455
 1045SOL    HW1 4034   3.877   1.783   3.429
 1045SOL    HW2 4035   3.741   1.694   3.410
 1046SOL     OW 4036   3.914   0.985   2.420
 1046SOL    HW1 4037   3.970   0.907   2.391
 1046SOL    HW2 4038   3.906   1.051   2.346
 1047SOL     OW 4039   0.106   5.260   2.051
 1047SOL    HW1 4040   0.081   5.195   1.979
 1047SOL    HW2 4041   0.203   5.250   2.073
 1048SOL     OW 4042   6.515   4.623   5.038
 1048SOL    HW1 4043   6.434   4.573   5.070
 1048SOL    HW2 4044   6.584   4.624   5.110
 1049SOL     OW 4045   0.522   3.259   5.174
 1049SOL    HW1 4046   0.555   3.205   5.097
 1049SOL    HW2 4047   0.475   3.200   5.239
 1050SOL     OW 4048   3.535   0.578   0.026
 1050SOL    HW1 4049   3.577   0.636   0.095
 1050SOL    HW2 4050   3.472   0.514   0.069
 1051SOL     OW 4051   4.877   5.252   2.389
 1051SOL    HW1 4052   4.938   5.276   2.313
 1051SOL    HW2 4053   4.906   5.301   2.471
 1052SOL     OW 4054   3.279   6.859   4.035
 1052SOL    HW1 4055   3.332   6.835   4.116
 1052SOL    HW2 4056   3.227   6.942   4.053
 1053SOL     OW 4057   4.114   4.909   3.049
 1053SOL    HW1 4058   4.030   4.945   3.091
 1053SOL    HW2 4059   4.144   4.970   2.976
 1054SOL     OW 4060   3.418   6.188   4.259
 1054SOL    HW1 4061   3.381   6.121   4.195
 1054SOL    HW2 4062   3.388   6.280   4.233
 1055SOL     OW 4063   4.490   5.576   4.331
 1055SOL    HW1 4064   4.500   5.477   4.326
 1055SOL    HW2 4065   4.450   5.601   4.419
 1056SOL     OW 4066   1.525   5.728   5.596
 1056SOL    HW1 4067   1.457   5.658   5.572
 1056SOL    HW2 4068   1.602   5.723   5.533
 1057SOL     OW 4069   3.663   4.320   1.118
 1057SOL    HW1 4070   3.632   4.225   1.126
 1057SOL    HW2 4071   3.743   4.324   1.057
 1058SOL     OW 4072   3.373   0.266   1.294
 1058SOL    HW1 4073   3.288   0.317   1.282
 1058SOL    HW2 4074   3.356   0.169   1.275
 1059SOL     OW 4075   3.336   1.360   1.036
 1059SOL    HW1 4076   3.261   1.415   0.998
 1059SOL    HW2 4077   3.301   1.302   1.109
 1060SOL     OW 4078   2.599   2.119   4.462
 1060SOL    HW1 4079   2.543   2.136   4.381
 1060SOL    HW2 4080   2.669   2.190   4.470
 1061SOL     OW 4081   2.954   6.057   1.650
 1061SOL    HW1 4082   3.043   6.076   1.608
 1061SOL    HW2 4083   2.882   6.073   1.583
 1062SOL     OW 4084   4.946   4.402   5.382
 1062SOL    HW1 4085   4.883   4.338   5.338
 1062SOL    HW2 4086   4.914   4.424   5.474
 1063SOL     OW 4087   1.912   2.920   5.732
 1063SOL    HW1 4088   1.824   2.966   5.737
 1063SOL    HW2 4089   1.917   2.849   5.802
 1064SOL     OW 4090   0.160   3.707   1.563
 1064SOL    HW1 4091   0.220   3.774   1.519
 1064SOL    HW2 4092   0.090   3.677   1.498
 1065SOL     OW 4093   4.934   5.192   5.084
 1065SOL    HW1 4094   4.883   5.264   5.130
 1065SOL    HW2 4095   4.891   5.103   5.102
 1066SOL     OW 4096   3.852   0.503   3.648
 1066SOL    HW1 4097   3.941   0.532   3.613
 1066SOL    HW2 4098   3.865   0.447   3.730
 1067SOL     OW 4099   2.075   3.327   1.114
 1067SOL    HW1 4100   2.106   3.360   1.204
 1067SOL    HW2 4101   2.116   3.384   1.042
 1068SOL     OW 4102   0.774   4.265   1.058
 1068SOL    HW1 4103   0.742   4.358   1.038
 1068SOL    HW2 4104   0.703   4.199   1.031
 1069SOL     OW 4105   3.630   3.988   1.433
 1069SOL    HW1 4106   3.608   4.002   1.530
 1069SOL    HW2 4107   3.569   4.043   1.377
 1070SOL     OW 4108   2.243   0.162   0.389
 1070SOL    HW1 4109   2.151   0.145   0.425
 1070SOL    HW2 4110   2.297   0.211   0.457
 1071SOL     OW 4111   4.506   6.183   3.897
 1071SOL    HW1 4112   4.466   6.098   3.861
 1071SOL    HW2 4113   4.591   6.203   3.849
 1072SOL     OW 4114   3.801   5.620   3.271
 1072SOL    HW1 4115   3.851   5.686   3.214
 1072SOL    HW2 4116   3.730   5.668   3.323
 1073SOL     OW 4117   2.797   5.160   3.078
 1073SOL    HW1 4118   2.879   5.154   3.021
 1073SOL    HW2 4119   2.777   5.256   3.098
 1074SOL     OW 4120   1.582   5.279   2.060
 1074SOL    HW1 4121   1.515   5.231   2.003
 1074SOL    HW2 4122   1.670   5.282   2.011
 1075SOL     OW 4123   0.459   4.083   2.589
 1075SOL    HW1 4124   0.556   4.099   2.607
 1075SOL    HW2 4125   0.410   4.170   2.590
 1076SOL     OW 4126   0.175   4.226   2.716
 1076SOL    HW1 4127   0.147   4.154   2.652
 1076SOL    HW2 4128   0.095   4.279   2.743
 1077SOL     OW 4129   5.059   1.102   1.052
 1077SOL    HW1 4130   4.994   1.055   0.992
 1077SOL    HW2 4131   5.043   1.073   1.146
 1078SOL     OW 4132   1.019   3.362   1.410
 1078SOL    HW1 4133   1.077   3.423   1.465
 1078SOL    HW2 4134   0.934   3.408   1.387
 1079SOL     OW 4135   2.491   5.469   3.034
 1079SOL    HW1 4136   2.483   5.566   3.056
 1079SOL    HW2 4137   2.445   5.451   2.947
 1080SOL     OW 4138   1.437   5.796   4.265
 1080SOL    HW1 4139   1.375   5.759   4.335
 1080SOL    HW2 4140   1.399   5.880   4.227
 1081SOL     OW 4141   1.340   1.420   0.518
 1081SOL    HW1 4142   1.276   1.360   0.565
 1081SOL    HW2 4143   1.330   1.514   0.552
 1082SOL     OW 4144   2.241   6.731   0.150
 1082SOL    HW1 4145   2.242   6.780   0.237
 1082SOL    HW2 4146   2.182   6.778   0.085
 1083SOL     OW 4147   3.901   2.575   1.522
 1083SOL    HW1 4148   3.875   2.481   1.543
 1083SOL    HW2 4149   3.820   2.627   1.495
 1084SOL     OW 4150   6.728   3.492   0.459
 1084SOL    HW1 4151   6.650   3.504   0.397
 1084SOL    HW2 4152   6.812   3.523   0.414
 1085SOL     OW 4153   1.993   4.592   3.156
 1085SOL    HW1 4154   2.023   4.504   3.192
 1085SOL    HW2 4155   1.974   4.583   3.058
 1086SOL     OW 4156   4.319   5.156   2.235
 1086SOL    HW1 4157   4.283   5.086   2.173
 1086SOL    HW2 4158   4.362   5.112   2.313
 1087SOL     OW 4159   3.788   3.378   5.172
 1087SOL    HW1 4160   3.700   3.426   5.176
 1087SOL    HW2 4161   3.771   3.279   5.173
 1088SOL     OW 4162   5.896   4.652   3.353
 1088SOL    HW1 4163   5.896   4.655   3.253
 1088SOL    HW2 4164   5.802   4.662   3.386
 1089SOL     OW 4165   6.101   0.234   3.070
 1089SOL    HW1 4166   6.141   0.300   3.006
 1089SOL    HW2 4167   6.005   0.218   3.045
 1090SOL     OW 4168   1.340   2.073   5.592
 1090SOL    HW1 4169   1.281   2.093   5.670
 1090SOL    HW2 4170   1.418   2.136   5.593
 1091SOL     OW 4171   1.232   2.822   5.153
 1091SOL    HW1 4172   1.223   2.778   5.064
 1091SOL    HW2 4173   1.292   2.767   5.211
 1092SOL     OW 4174   1.995   4.580   1.038
 1092SOL    HW1 4175   1.931   4.568   0.963
 1092SOL    HW2 4176   2.006   4.492   1.086
 1093SOL     OW 4177   0.449   1.859   2.568
 1093SOL    HW1 4178   0.429   1.772   2.522
 1093SOL    HW2 4179   0.372   1.922   2.556
 1094SOL     OW 4180   0.796   6.146   2.258
 1094SOL    HW1 4181   0.795   6.049   2.233
 1094SOL    HW2 4182   0.845   6.157   2.345
 1095SOL     OW 4183   5.833   3.356   6.127
 1095SOL    HW1 4184   5.860   3.266   6.094
 1095SOL    HW2 4185   5.813   3.415   6.049
 1096SOL     OW 4186   3.448   4.220   1.553
 1096SOL    HW1 4187   3.463   4.138   1.609
 1096SOL    HW2 4188   3.507   4.294   1.586
 1097SOL     OW 4189   1.884   4.831   5.154
 1097SOL    HW1 4190   1.917   4.877   5.237
 1097SOL    HW2 4191   1.847   4.899   5.092
 1098SOL     OW 4192   4.210   0.983   3.097
 1098SOL    HW1 4193   4.127   0.942   3.133
 1098SOL    HW2 4194   4.222   0.955   3.002
 1099SOL     OW 4195   4.170   1.462   2.664
 1099SOL    HW1 4196   4.116   1.545   2.680
 1099SOL    HW2 4197   4.177   1.410   2.750
 1100SOL     OW 4198   0.401   0.352   0.471
 1100SOL    HW1 4199   0.458   0.271   0.487
 1100SOL    HW2 4200   0.319   0.327   0.421
 1101SOL     OW 4201   6.232   2.883   0.916
 1101SOL    HW1 4202   6.209   2.853   1.008
 1101SOL    HW2 4203   6.204   2.978   0.904
 1102SOL     OW 4204   0.248   4.256   3.811
 1102SOL    HW1 4205   0.285   4.342   3.846
 1102SOL    HW2 4206   0.274   4.245   3.715
 1103SOL     OW 4207   0.673   3.092   1.268
 1103SOL    HW1 4208   0.663   3.136   1.178
 1103SOL    HW2 4209   0.769   3.069   1.282
 1104SOL     OW 4210   2.827   5.528   5.906
 1104SOL    HW1 4211   2.747   5.563   5.858
 1104SOL    HW2 4212   2.901   5.596   5.902
 1105SOL     OW 4213   4.259   5.105   0.460
 1105SOL    HW1 4214   4.265   5.204   0.463
 1105SOL    HW2 4215   4.244   5.070   0.553
 1106SOL     OW 4216   1.580   0.783   6.100
 1106SOL    HW1 4217   1.569   0.714   6.029
 1106SOL    HW2 4218   1.551   0.872   6.064
 1107SOL     OW 4219   0.914   6.792   1.770
 1107SOL    HW1 4220   0.824   6.816   1.735
 1107SOL    HW2 4221   0.921   6.692   1.778
 1108SOL     OW 4222   1.304   1.031   6.491
 1108SOL    HW1 4223   1.212   1.028   6.451
 1108SOL    HW2 4224   1.335   1.125   6.497
 1109SOL     OW 4225   4.907   1.305   3.823
 1109SOL    HW1 4226   4.845   1.242   3.776
 1109SOL    HW2 4227   4.967   1.254   3.885
 1110SOL     OW 4228   3.547   2.796   1.941
 1110SOL    HW1 4229   3.560   2.721   1.876
 1110SOL    HW2 4230   3.559   2.883   1.893
 1111SOL     OW 4231   5.533   6.942   6.609
 1111SOL    HW1 4232   5.504   6.938   6.514
 1111SOL    HW2 4233   5.630   6.968   6.613
 1112SOL     OW 4234   0.589   1.439   3.226
 1112SOL    HW1 4235   0.591   1.437   3.126
 1112SOL    HW2 4236   0.508   1.390   3.258
 1113SOL     OW 4237   6.103   3.628   2.089
 1113SOL    HW1 4238   6.201   3.627   2.108
 1113SOL    HW2 4239   6.071   3.723   2.085
 1114SOL     OW 4240   6.133   1.391   5.800
 1114SOL    HW1 4241   6.158   1.386   5.703
 1114SOL    HW2 4242   6.214   1.408   5.855
 1115SOL     OW 4243   2.999   3.870   0.354
 1115SOL    HW1 4244   3.063   3.799   0.324
 1115SOL    HW2 4245   2.964   3.919   0.274
 1116SOL     OW 4246   3.885   5.919   6.059
 1116SOL    HW1 4247   3.920   5.948   5.970
 1116SOL    HW2 4248   3.847   5.998   6.107
 1117SOL     OW 4249   2.497   3.288   0.593
 1117SOL    HW1 4250   2.465   3.194   0.591
 1117SOL    HW2 4251   2.461   3.337   0.513
 1118SOL     OW 4252   1.557   3.424   2.735
 1118SOL    HW1 4253   1.486   3.358   2.759
 1118SOL    HW2 4254   1.627   3.379   2.679
 1119SOL     OW 4255   3.112   3.438   2.553
 1119SOL    HW1 4256   3.089   3.389   2.638
 1119SOL    HW2 4257   3.032   3.439   2.493
 1120SOL     OW 4258   5.113   0.480   4.543
 1120SOL    HW1 4259   5.187   0.420   4.573
 1120SOL    HW2 4260   5.085   0.455   4.450
 1121SOL     OW 4261   5.131   3.117   2.254
 1121SOL    HW1 4262   5.044   3.067   2.249
 1121SOL    HW2 4263   5.207   3.052   2.241
 1122SOL     OW 4264   4.710   5.095   0.265
 1122SOL    HW1 4265   4.743   5.117   0.173
 1122SOL    HW2 4266   4.614   5.068   0.259
 1123SOL     OW 4267   3.882   0.802   1.968
 1123SOL    HW1 4268   3.910   0.778   2.061
 1123SOL    HW2 4269   3.950   0.863   1.927
 1124SOL     OW 4270   0.664   4.692   4.774
 1124SOL    HW1 4271   0.725   4.725   4.702
 1124SOL    HW2 4272   0.700   4.606   4.810
 1125SOL     OW 4273   3.684   3.515   4.732
 1125SOL    HW1 4274   3.738   3.582   4.681
 1125SOL    HW2 4275   3.684   3.427   4.683
 1126SOL     OW 4276   6.101   0.105   2.630
 1126SOL    HW1 4277   6.164   0.099   2.553
 1126SOL    HW2 4278   6.010   0.077   2.601
 1127SOL     OW 4279   1.505   5.175   6.342
 1127SOL    HW1 4280   1.555   5.093   6.316
 1127SOL    HW2 4281   1.514   5.190   6.441
 1128SOL     OW 4282   2.438   1.658   4.101
 1128SOL    HW1 4283   2.461   1.649   4.198
 1128SOL    HW2 4284   2.518   1.634   4.045
 1129SOL     OW 4285   4.784   0.356   6.577
 1129SOL    HW1 4286   4.882   0.348   6.596
 1129SOL    HW2 4287   4.733   0.303   6.643
 1130SOL     OW 4288   0.227   4.681   5.670
 1130SOL    HW1 4289   0.171   4.653   5.748
 1130SOL    HW2 4290   0.271   4.769   5.692
 1131SOL     OW 4291   0.494   5.209   5.648
 1131SOL    HW1 4292   0.517   5.241   5.556
 1131SOL    HW2 4293   0.502   5.110   5.652
 1132SOL     OW 4294   4.917   0.434   4.890
 1132SOL    HW1 4295   5.017   0.436   4.896
 1132SOL    HW2 4296   4.881   0.377   4.964
 1133SOL     OW 4297   0.401   2.336   0.661
 1133SOL    HW1 4298   0.431   2.416   0.713
 1133SOL    HW2 4299   0.462   2.259   0.680
 1134SOL     OW 4300   6.743   2.410   5.918
 1134SOL    HW1 4301   6.766   2.377   6.010
 1134SOL    HW2 4302   6.821   2.459   5.879
 1135SOL     OW 4303   5.495   1.817   3.517
 1135SOL    HW1 4304   5.483   1.882   3.443
 1135SOL    HW2 4305   5.462   1.857   3.603
 1136SOL     OW 4306   3.825   5.405   4.420
 1136SOL    HW1 4307   3.815   5.381   4.517
 1136SOL    HW2 4308   3.880   5.335   4.374
 1137SOL     OW 4309   1.488   0.784   6.354
 1137SOL    HW1 4310   1.391   0.810   6.358
 1137SOL    HW2 4311   1.523   0.800   6.262
 1138SOL     OW 4312   0.447   4.393   5.551
 1138SOL    HW1 4313   0.369   4.424   5.497
 1138SOL    HW2 4314   0.482   4.308   5.512
 1139SOL     OW 4315   0.926   6.123   1.495
 1139SOL    HW1 4316   0.907   6.190   1.424
 1139SOL    HW2 4317   1.025   6.116   1.509
 1140SOL     OW 4318   3.768   1.622   3.733
 1140SOL    HW1 4319   3.736   1.698   3.790
 1140SOL    HW2 4320   3.795   1.657   3.644
 1141SOL     OW 4321   6.674   6.130   5.964
 1141SOL    HW1 4322   6.579   6.160   5.958
 1141SOL    HW2 4323   6.696   6.104   6.058
 1142SOL     OW 4324   5.864   0.832   4.004
 1142SOL    HW1 4325   5.806   0.883   4.067
 1142SOL    HW2 4326   5.954   0.875   3.998
 1143SOL     OW 4327   4.183   2.137   2.591
 1143SOL    HW1 4328   4.092   2.112   2.624
 1143SOL    HW2 4329   4.180   2.146   2.491
 1144SOL     OW 4330   1.389   6.670   5.841
 1144SOL    HW1 4331   1.369   6.732   5.916
 1144SOL    HW2 4332   1.484   6.681   5.813
 1145SOL     OW 4333   1.555   5.039   5.111
 1145SOL    HW1 4334   1.488   5.092   5.059
 1145SOL    HW2 4335   1.644   5.045   5.067
 1146SOL     OW 4336   6.221   2.275   0.819
 1146SOL    HW1 4337   6.141   2.215   0.827
 1146SOL    HW2 4338   6.304   2.219   0.817
 1147SOL     OW 4339   6.167   2.588   1.811
 1147SOL    HW1 4340   6.180   2.652   1.736
 1147SOL    HW2 4341   6.069   2.578   1.830
 1148SOL     OW 4342   4.723   0.874   0.004
 1148SOL    HW1 4343   4.811   0.894   6.985
 1148SOL    HW2 4344   4.679   0.798   6.977
 1149SOL     OW 4345   0.080   2.893   2.854
 1149SOL    HW1 4346   0.092   2.910   2.756
 1149SOL    HW2 4347   0.051   2.798   2.868
 1150SOL     OW 4348   0.761   4.852   5.459
 1150SOL    HW1 4349   0.795   4.873   5.551
 1150SOL    HW2 4350   0.798   4.765   5.428
 1151SOL     OW 4351   4.503   5.570   6.875
 1151SOL    HW1 4352   4.411   5.576   6.838
 1151SOL    HW2 4353   4.566   5.621   6.816
 1152SOL     OW 4354   0.365   1.044   4.527
 1152SOL    HW1 4355   0.314   1.072   4.609
 1152SOL    HW2 4356   0.343   0.949   4.505
 1153SOL     OW 4357   2.813   5.019   2.503
 1153SOL    HW1 4358   2.888   4.978   2.451
 1153SOL    HW2 4359   2.728   4.972   2.481
 1154SOL     OW 4360   1.748   4.014   1.836
 1154SOL    HW1 4361   1.738   4.105   1.877
 1154SOL    HW2 4362   1.657   3.972   1.827
 1155SOL     OW 4363   3.747   6.217   2.341
 1155SOL    HW1 4364   3.827   6.259   2.383
 1155SOL    HW2 4365   3.757   6.118   2.342
 1156SOL     OW 4366   1.705   0.969   4.430
 1156SOL    HW1 4367   1.613   0.978   4.468
 1156SOL    HW2 4368   1.699   0.962   4.330
 1157SOL     OW 4369   0.543   2.981   4.180
 1157SOL    HW1 4370   0.528   3.073   4.215
 1157SOL    HW2 4371   0.525   2.914   4.253
 1158SOL     OW 4372   4.501   5.581   6.226
 1158SOL    HW1 4373   4.419   5.569   6.171
 1158SOL    HW2 4374   4.570   5.631   6.173
 1159SOL     OW 4375   5.123   5.671   3.319
 1159SOL    HW1 4376   5.160   5.762   3.305
 1159SOL    HW2 4377   5.123   5.649   3.417
 1160SOL     OW 4378   2.537   2.635   0.547
 1160SOL    HW1 4379   2.511   2.729   0.569
 1160SOL    HW2 4380   2.525   2.577   0.627
 1161SOL     OW 4381   4.143   0.034   4.654
 1161SOL    HW1 4382   4.120   6.997   4.577
 1161SOL    HW2 4383   4.129   0.130   4.627
 1162SOL     OW 4384   3.899   4.599   1.686
 1162SOL    HW1 4385   3.910   4.499   1.693
 1162SOL    HW2 4386   3.974   4.637   1.633
 1163SOL     OW 4387   4.736   1.783   2.261
 1163SOL    HW1 4388   4.684   1.842   2.323
 1163SOL    HW2 4389   4.673   1.724   2.211
 1164SOL     OW 4390   5.459   3.373   3.840
 1164SOL    HW1 4391   5.474   3.470   3.858
 1164SOL    HW2 4392   5.415   3.363   3.750
 1165SOL     OW 4393   1.469   4.584   1.936
 1165SOL    HW1 4394   1.490   4.588   2.034
 1165SOL    HW2 4395   1.546   4.619   1.883
 1166SOL     OW 4396   3.735   2.524   6.597
 1166SOL    HW1 4397   3.775   2.434   6.613
 1166SOL    HW2 4398   3.807   2.594   6.600
 1167SOL     OW 4399   4.570   2.032   4.918
 1167SOL    HW1 4400   4.659   1.990   4.936
 1167SOL    HW2 4401   4.513   1.968   4.866
 1168SOL     OW 4402   6.241   6.566   3.680
 1168SOL    HW1 4403   6.292   6.562   3.594
 1168SOL    HW2 4404   6.162   6.627   3.670
 1169SOL     OW 4405   0.759   4.201   1.474
 1169SOL    HW1 4406   0.857   4.220   1.484
 1169SOL    HW2 4407   0.747   4.122   1.414
 1170SOL     OW 4408   2.697   0.904   0.987
 1170SOL    HW1 4409   2.668   0.993   0.953
 1170SOL    HW2 4410   2.690   0.902   1.086
 1171SOL     OW 4411   2.529   0.561   0.534
 1171SOL    HW1 4412   2.600   0.559   0.604
 1171SOL    HW2 4413   2.531   0.476   0.482
 1172SOL     OW 4414   3.093   3.281   4.762
 1172SOL    HW1 4415   3.101   3.182   4.767
 1172SOL    HW2 4416   3.185   3.322   4.765
 1173SOL     OW 4417   5.327   0.496   6.146
 1173SOL    HW1 4418   5.279   0.422   6.098
 1173SOL    HW2 4419   5.424   0.472   6.156
 1174SOL     OW 4420   3.374   6.447   0.940
 1174SOL    HW1 4421   3.297   6.485   0.890
 1174SOL    HW2 4422   3.349   6.434   1.036
 1175SOL     OW 4423   6.848   5.538   5.000
 1175SOL    HW1 4424   6.836   5.566   4.904
 1175SOL    HW2 4425   6.759   5.518   5.040
 1176SOL     OW 4426   6.548   3.693   1.025
 1176SOL    HW1 4427   6.467   3.752   1.025
 1176SOL    HW2 4428   6.537   3.622   1.094
 1177SOL     OW 4429   6.485   3.360   0.247
 1177SOL    HW1 4430   6.411   3.374   0.313
 1177SOL    HW2 4431   6.547   3.290   0.281
 1178SOL     OW 4432   5.222   4.011   1.678
 1178SOL    HW1 4433   5.162   4.050   1.747
 1178SOL    HW2 4434   5.232   3.913   1.693
 1179SOL     OW 4435   2.159   5.610   5.902
 1179SOL    HW1 4436   2.074   5.632   5.950
 1179SOL    HW2 4437   2.153   5.517   5.865
 1180SOL     OW 4438   2.278   1.240   3.876
 1180SOL    HW1 4439   2.211   1.271   3.944
 1180SOL    HW2 4440   2.370   1.265   3.907
 1181SOL     OW 4441   1.942   4.322   2.712
 1181SOL    HW1 4442   2.008   4.249   2.698
 1181SOL    HW2 4443   1.849   4.287   2.698
 1182SOL     OW 4444   1.225   3.899   3.000
 1182SOL    HW1 4445   1.248   3.954   2.920
 1182SOL    HW2 4446   1.302   3.896   3.063
 1183SOL     OW 4447   4.460   5.671   0.548
 1183SOL    HW1 4448   4.459   5.764   0.585
 1183SOL    HW2 4449   4.417   5.672   0.457
 1184SOL     OW 4450   2.973   2.963   5.620
 1184SOL    HW1 4451   2.946   3.054   5.590
 1184SOL    HW2 4452   2.920   2.938   5.701
 1185SOL     OW 4453   2.814   1.852   0.409
 1185SOL    HW1 4454   2.870   1.863   0.491
 1185SOL    HW2 4455   2.719   1.874   0.430
 1186SOL     OW 4456   3.976   1.100   5.198
 1186SOL    HW1 4457   3.905   1.169   5.213
 1186SOL    HW2 4458   3.942   1.010   5.229
 1187SOL     OW 4459   0.742   0.934   5.417
 1187SOL    HW1 4460   0.726   0.996   5.494
 1187SOL    HW2 4461   0.807   0.975   5.354
 1188SOL     OW 4462   1.349   0.021   5.427
 1188SOL    HW1 4463   1.338   6.984   5.506
 1188SOL    HW2 4464   1.326   0.115   5.454
 1189SOL     OW 4465   6.512   1.215   0.957
 1189SOL    HW1 4466   6.483   1.266   0.876
 1189SOL    HW2 4467   6.558   1.131   0.928
 1190SOL     OW 4468   4.249   4.666   3.017
 1190SOL    HW1 4469   4.227   4.763   3.014
 1190SOL    HW2 4470   4.241   4.627   2.926
 1191SOL     OW 4471   3.045   5.095   0.824
 1191SOL    HW1 4472   2.991   5.022   0.781
 1191SOL    HW2 4473   3.039   5.087   0.924
 1192SOL     OW 4474   4.672   5.551   2.307
 1192SOL    HW1 4475   4.603   5.618   2.336
 1192SOL    HW2 4476   4.744   5.545   2.376
 1193SOL     OW 4477   3.763   6.981   4.025
 1193SOL    HW1 4478   3.710   0.041   4.043
 1193SOL    HW2 4479   3.849   7.005   3.981
 1194SOL     OW 4480   6.431   0.869   1.581
 1194SOL    HW1 4481   6.525   0.853   1.553
 1194SOL    HW2 4482   6.382   0.917   1.508
 1195SOL     OW 4483   3.282   6.706   0.098
 1195SOL    HW1 4484   3.334   6.626   0.129
 1195SOL    HW2 4485   3.208   6.677   0.038
 1196SOL     OW 4486   0.506   5.387   3.045
 1196SOL    HW1 4487   0.476   5.297   3.016
 1196SOL    HW2 4488   0.500   5.451   2.968
 1197SOL     OW 4489   3.111   5.074   6.325
 1197SOL    HW1 4490   3.083   5.079   6.421
 1197SOL    HW2 4491   3.206   5.102   6.316
 1198SOL     OW 4492   3.490   1.627   2.531
 1198SOL    HW1 4493   3.404   1.618   2.481
 1198SOL    HW2 4494   3.500   1.721   2.563
 1199SOL     OW 4495   3.017   3.891   3.427
 1199SOL    HW1 4496   2.993   3.972   3.374
 1199SOL    HW2 4497   3.000   3.809   3.373
 1200SOL     OW 4498   3.867   3.348   0.596
 1200SOL    HW1 4499   3.820   3.423   0.643
 1200SOL    HW2 4500   3.849   3.355   0.497
 1201SOL     OW 4501   1.236   1.105   4.708
 1201SOL    HW1 4502   1.223   1.164   4.787
 1201SOL    HW2 4503   1.211   1.011   4.732
 1202SOL     OW 4504   5.331   0.165   4.898
 1202SOL    HW1 4505   5.356   0.159   4.994
 1202SOL    HW2 4506   5.411   0.191   4.844
 1203SOL     OW 4507   6.079   6.628   1.982
 1203SOL    HW1 4508   6.038   6.692   1.917
 1203SOL    HW2 4509   6.152   6.674   2.033
 1204SOL     OW 4510   2.362   6.476   6.666
 1204SOL    HW1 4511   2.345   6.389   6.620
 1204SOL    HW2 4512   2.385   6.545   6.597
 1205SOL     OW 4513   0.860   2.181   5.088
 1205SOL    HW1 4514   0.907   2.231   5.014
 1205SOL    HW2 4515   0.886   2.219   5.176
 1206SOL     OW 4516   0.654   1.467   4.368
 1206SOL    HW1 4517   0.589   1.530   4.327
 1206SOL    HW2 4518   0.604   1.394   4.416
 1207SOL     OW 4519   6.018   6.208   6.490
 1207SOL    HW1 4520   6.104   6.227   6.442
 1207SOL    HW2 4521   6.035   6.140   6.561
 1208SOL     OW 4522   3.699   4.130   3.491
 1208SOL    HW1 4523   3.724   4.210   3.544
 1208SOL    HW2 4524   3.615   4.149   3.440
 1209SOL     OW 4525   6.635   4.143   5.147
 1209SOL    HW1 4526   6.617   4.053   5.106
 1209SOL    HW2 4527   6.673   4.204   5.077
 1210SOL     OW 4528   2.978   6.701   2.145
 1210SOL    HW1 4529   3.057   6.640   2.147
 1210SOL    HW2 4530   2.999   6.782   2.090
 1211SOL     OW 4531   1.436   3.127   3.568
 1211SOL    HW1 4532   1.508   3.180   3.612
 1211SOL    HW2 4533   1.368   3.100   3.636
 1212SOL     OW 4534   2.054   3.882   4.320
 1212SOL    HW1 4535   1.995   3.880   4.401
 1212SOL    HW2 4536   2.085   3.789   4.300
 1213SOL     OW 4537   6.095   2.580   5.428
 1213SOL    HW1 4538   6.040   2.570   5.512
 1213SOL    HW2 4539   6.180   2.529   5.438
 1214SOL     OW 4540   1.973   2.508   2.765
 1214SOL    HW1 4541   2.012   2.599   2.753
 1214SOL    HW2 4542   2.028   2.457   2.831
 1215SOL     OW 4543   6.923   5.176   2.216
 1215SOL    HW1 4544   6.836   5.201   2.172
 1215SOL    HW2 4545   6.999   5.213   2.162
 1216SOL     OW 4546   2.976   0.354   1.570
 1216SOL    HW1 4547   2.945   0.291   1.641
 1216SOL    HW2 4548   2.899   0.377   1.510
 1217SOL     OW 4549   1.943   1.344   2.657
 1217SOL    HW1 4550   1.924   1.316   2.562
 1217SOL    HW2 4551   2.041   1.343   2.673
 1218SOL     OW 4552   0.487   3.527   3.472
 1218SOL    HW1 4553   0.472   3.437   3.511
 1218SOL    HW2 4554   0.553   3.520   3.397
 1219SOL     OW 4555   2.664   5.861   3.835
 1219SOL    HW1 4556   2.607   5.875   3.916
 1219SOL    HW2 4557   2.683   5.949   3.792
 1220SOL     OW 4558   6.069   4.286   3.143
 1220SOL    HW1 4559   6.013   4.345   3.086
 1220SOL    HW2 4560   6.009   4.225   3.196
 1221SOL     OW 4561   4.684   3.662   6.056
 1221SOL    HW1 4562   4.744   3.721   6.002
 1221SOL    HW2 4563   4.605   3.635   6.000
 1222SOL     OW 4564   5.203   5.079   1.743
 1222SOL    HW1 4565   5.141   5.124   1.680
 1222SOL    HW2 4566   5.278   5.142   1.767
 1223SOL     OW 4567   5.896   4.954   4.894
 1223SOL    HW1 4568   5.926   4.863   4.865
 1223SOL    HW2 4569   5.975   5.012   4.911
 1224SOL     OW 4570   4.811   5.252   2.036
 1224SOL    HW1 4571   4.852   5.204   2.114
 1224SOL    HW2 4572   4.726   5.296   2.066
 1225SOL     OW 4573   4.140   1.156   7.022
 1225SOL    HW1 4574   4.191   1.116   6.946
 1225SOL    HW2 4575   4.204   1.186   0.070
 1226SOL     OW 4576   5.410   5.098   1.088
 1226SOL    HW1 4577   5.367   5.058   1.169
 1226SOL    HW2 4578   5.351   5.085   1.009
 1227SOL     OW 4579   4.873   4.491   0.056
 1227SOL    HW1 4580   4.831   4.575   0.090
 1227SOL    HW2 4581   4.964   4.511   0.020
 1228SOL     OW 4582   3.911   4.020   4.390
 1228SOL    HW1 4583   4.001   4.018   4.346
 1228SOL    HW2 4584   3.842   3.988   4.326
 1229SOL     OW 4585   2.542   5.961   2.577
 1229SOL    HW1 4586   2.619   6.022   2.561
 1229SOL    HW2 4587   2.506   5.928   2.489
 1230SOL     OW 4588   5.623   4.672   1.700
 1230SOL    HW1 4589   5.571   4.600   1.745
 1230SOL    HW2 4590   5.594   4.680   1.605
 1231SOL     OW 4591   2.056   1.826   6.213
 1231SOL    HW1 4592   2.091   1.828   6.119
 1231SOL    HW2 4593   2.128   1.794   6.275
 1232SOL     OW 4594   3.158   1.016   5.209
 1232SOL    HW1 4595   3.166   1.116   5.214
 1232SOL    HW2 4596   3.169   0.987   5.114
 1233SOL     OW 4597   0.515   5.898   5.186
 1233SOL    HW1 4598   0.546   5.817   5.137
 1233SOL    HW2 4599   0.539   5.890   5.283
 1234SOL     OW 4600   6.091   4.146   6.692
 1234SOL    HW1 4601   6.047   4.132   6.781
 1234SOL    HW2 4602   6.124   4.240   6.687
 1235SOL     OW 4603   6.460   4.794   0.988
 1235SOL    HW1 4604   6.447   4.887   1.022
 1235SOL    HW2 4605   6.540   4.753   1.032
 1236SOL     OW 4606   1.344   1.496   1.996
 1236SOL    HW1 4607   1.305   1.418   1.946
 1236SOL    HW2 4608   1.298   1.505   2.084
 1237SOL     OW 4609   0.801   7.004   4.710
 1237SOL    HW1 4610   0.899   6.985   4.711
 1237SOL    HW2 4611   0.754   6.934   4.657
 1238SOL     OW 4612   0.798   0.852   4.916
 1238SOL    HW1 4613   0.756   0.769   4.954
 1238SOL    HW2 4614   0.735   0.893   4.850
 1239SOL     OW 4615   5.279   5.147   3.571
 1239SOL    HW1 4616   5.206   5.089   3.605
 1239SOL    HW2 4617   5.248   5.242   3.568
 1240SOL     OW 4618   0.835   3.581   1.643
 1240SOL    HW1 4619   0.919   3.531   1.667
 1240SOL    HW2 4620   0.774   3.582   1.721
 1241SOL     OW 4621   3.787   5.321   5.842
 1241SOL    HW1 4622   3.863   5.258   5.852
 1241SOL    HW2 4623   3.809   5.389   5.772
 1242SOL     OW 4624   2.305   4.576   1.207
 1242SOL    HW1 4625   2.292   4.526   1.122
 1242SOL    HW2 4626   2.291   4.514   1.285
 1243SOL     OW 4627   1.261   3.441   3.643
 1243SOL    HW1 4628   1.192   3.512   3.629
 1243SOL    HW2 4629   1.346   3.467   3.597
 1244SOL     OW 4630   6.539   6.944   5.690
 1244SOL    HW1 4631   6.583   6.892   5.763
 1244SOL    HW2 4632   6.462   6.997   5.728
 1245SOL     OW 4633   4.732   6.313   0.750
 1245SOL    HW1 4634   4.717   6.323   0.848
 1245SOL    HW2 4635   4.823   6.274   0.734
 1246SOL     OW 4636   4.966   1.554   1.087
 1246SOL    HW1 4637   4.868   1.564   1.104
 1246SOL    HW2 4638   4.980   1.507   1.000
 1247SOL     OW 4639   6.646   0.049   3.494
 1247SOL    HW1 4640   6.556   0.014   3.467
 1247SOL    HW2 4641   6.666   0.021   3.588
 1248SOL     OW 4642   1.037   6.564   4.437
 1248SOL    HW1 4643   1.135   6.549   4.450
 1248SOL    HW2 4644   0.986   6.485   4.469
 1249SOL     OW 4645   5.890   5.663   6.529
 1249SOL    HW1 4646   5.911   5.668   6.626
 1249SOL    HW2 4647   5.885   5.567   6.501
 1250SOL     OW 4648   0.330   3.597   5.523
 1250SOL    HW1 4649   0.323   3.646   5.609
 1250SOL    HW2 4650   0.376   3.654   5.455
 1251SOL     OW 4651   3.055   0.627   2.556
 1251SOL    HW1 4652   3.026   0.660   2.466
 1251SOL    HW2 4653   3.135   0.678   2.586
 1252SOL     OW 4654   2.121   5.422   6.478
 1252SOL    HW1 4655   2.076   5.338   6.449
 1252SOL    HW2 4656   2.148   5.414   6.575
 1253SOL     OW 4657   3.137   6.949   0.107
 1253SOL    HW1 4658   3.050   6.921   0.068
 1253SOL    HW2 4659   3.198   6.870   0.112
 1254SOL     OW 4660   5.955   1.198   3.008
 1254SOL    HW1 4661   5.983   1.248   3.090
 1254SOL    HW2 4662   5.911   1.260   2.944
 1255SOL     OW 4663   5.946   1.190   5.839
 1255SOL    HW1 4664   6.001   1.113   5.806
 1255SOL    HW2 4665   6.004   1.270   5.852
 1256SOL     OW 4666   0.028   5.777   4.860
 1256SOL    HW1 4667   0.083   5.829   4.925
 1256SOL    HW2 4668   0.055   5.681   4.863
 1257SOL     OW 4669   0.240   6.300   2.972
 1257SOL    HW1 4670   0.206   6.216   2.929
 1257SOL    HW2 4671   0.259   6.282   3.069
 1258SOL     OW 4672   4.558   6.220   6.322
 1258SOL    HW1 4673   4.614   6.137   6.327
 1258SOL    HW2 4674   4.464   6.199   6.345
 1259SOL     OW 4675   5.494   0.686   5.599
 1259SOL    HW1 4676   5.418   0.745   5.627
 1259SOL    HW2 4677   5.570   0.742   5.568
 1260SOL     OW 4678   2.957   1.637   1.411
 1260SOL    HW1 4679   3.037   1.597   1.366
 1260SOL    HW2 4680   2.894   1.564   1.439
 1261SOL     OW 4681   6.804   5.032   4.768
 1261SOL    HW1 4682   6.776   5.128   4.763
 1261SOL    HW2 4683   6.750   4.986   4.838
 1262SOL     OW 4684   3.945   5.249   1.345
 1262SOL    HW1 4685   4.030   5.204   1.371
 1262SOL    HW2 4686   3.868   5.198   1.383
 1263SOL     OW 4687   6.498   2.607   0.966
 1263SOL    HW1 4688   6.523   2.520   0.924
 1263SOL    HW2 4689   6.466   2.590   1.060
 1264SOL     OW 4690   6.643   2.560   4.157
 1264SOL    HW1 4691   6.651   2.614   4.241
 1264SOL    HW2 4692   6.552   2.517   4.154
 1265SOL     OW 4693   6.849   6.116   4.773
 1265SOL    HW1 4694   6.800   6.096   4.857
 1265SOL    HW2 4695   6.883   6.210   4.776
 1266SOL     OW 4696   2.236   0.846   4.361
 1266SOL    HW1 4697   2.201   0.893   4.442
 1266SOL    HW2 4698   2.202   0.752   4.359
 1267SOL     OW 4699   6.979   4.689   2.874
 1267SOL    HW1 4700   6.902   4.703   2.936
 1267SOL    HW2 4701   0.032   4.646   2.924
 1268SOL     OW 4702   6.100   3.627   0.022
 1268SOL    HW1 4703   6.125   3.713   7.000
 1268SOL    HW2 4704   6.049   3.570   6.980
 1269SOL     OW 4705   6.814   5.009   6.356
 1269SOL    HW1 4706   6.820   4.950   6.437
 1269SOL    HW2 4707   6.726   5.057   6.356
 1270SOL     OW 4708   1.752   2.006   5.086
 1270SOL    HW1 4709   1.807   2.082   5.050
 1270SOL    HW2 4710   1.696   1.968   5.012
 1271SOL     OW 4711   4.995   2.423   3.070
 1271SOL    HW1 4712   5.079   2.443   3.120
 1271SOL    HW2 4713   4.921   2.482   3.104
 1272SOL     OW 4714   6.665   6.637   1.687
 1272SOL    HW1 4715   6.747   6.582   1.699
 1272SOL    HW2 4716   6.671   6.690   1.602
 1273SOL     OW 4717   2.282   6.197   6.331
 1273SOL    HW1 4718   2.378   6.224   6.325
 1273SOL    HW2 4719   2.268   6.143   6.414
 1274SOL     OW 4720   5.493   2.723   1.300
 1274SOL    HW1 4721   5.467   2.807   1.253
 1274SOL    HW2 4722   5.413   2.666   1.314
 1275SOL     OW 4723   3.934   1.824   4.052
 1275SOL    HW1 4724   3.936   1.726   4.037
 1275SOL    HW2 4725   4.026   1.856   4.076
 1276SOL     OW 4726   5.818   0.341   3.566
 1276SOL    HW1 4727   5.815   0.337   3.467
 1276SOL    HW2 4728   5.911   0.322   3.598
 1277SOL     OW 4729   0.469   1.175   5.489
 1277SOL    HW1 4730   0.418   1.096   5.524
 1277SOL    HW2 4731   0.406   1.249   5.468
 1278SOL     OW 4732   3.061   2.086   5.373
 1278SOL    HW1 4733   3.021   2.171   5.339
 1278SOL    HW2 4734   3.126   2.107   5.446
 1279SOL     OW 4735   2.786   5.051   0.648
 1279SOL    HW1 4736   2.792   5.023   0.552
 1279SOL    HW2 4737   2.825   4.980   0.706
 1280SOL     OW 4738   1.775   5.934   3.246
 1280SOL    HW1 4739   1.837   6.013   3.247
 1280SOL    HW2 4740   1.829   5.850   3.254
 1281SOL     OW 4741   0.728   6.610   3.843
 1281SOL    HW1 4742   0.705   6.521   3.882
 1281SOL    HW2 4743   0.813   6.644   3.883
 1282SOL     OW 4744   1.291   0.210   2.132
 1282SOL    HW1 4745   1.391   0.211   2.122
 1282SOL    HW2 4746   1.256   0.123   2.098
 1283SOL     OW 4747   5.169   4.831   5.378
 1283SOL    HW1 4748   5.267   4.848   5.375
 1283SOL    HW2 4749   5.150   4.734   5.361
 1284SOL     OW 4750   2.408   1.902   2.624
 1284SOL    HW1 4751   2.481   1.883   2.690
 1284SOL    HW2 4752   2.412   1.998   2.597
 1285SOL     OW 4753   5.618   2.598   5.590
 1285SOL    HW1 4754   5.611   2.523   5.524
 1285SOL    HW2 4755   5.628   2.684   5.541
 1286SOL     OW 4756   5.970   5.844   1.645
 1286SOL    HW1 4757   5.975   5.882   1.552
 1286SOL    HW2 4758   5.879   5.805   1.659
 1287SOL     OW 4759   5.953   4.918   6.100
 1287SOL    HW1 4760   6.017   4.856   6.146
 1287SOL    HW2 4761   5.971   5.012   6.128
 1288SOL     OW 4762   6.679   2.658   2.971
 1288SOL    HW1 4763   6.752   2.630   3.033
 1288SOL    HW2 4764   6.718   2.710   2.895
 1289SOL     OW 4765   6.535   5.785   3.020
 1289SOL    HW1 4766   6.512   5.831   3.106
 1289SOL    HW2 4767   6.630   5.756   3.023
 1290SOL     OW 4768   0.475   6.554   1.685
 1290SOL    HW1 4769   0.440   6.577   1.595
 1290SOL    HW2 4770   0.399   6.543   1.749
 1291SOL     OW 4771   2.050   0.129   0.580
 1291SOL    HW1 4772   2.045   0.205   0.645
 1291SOL    HW2 4773   1.959   0.091   0.566
 1292SOL     OW 4774   0.903   6.077   6.901
 1292SOL    HW1 4775   1.002   6.076   6.883
 1292SOL    HW2 4776   0.874   5.985   6.930
 1293SOL     OW 4777   0.274   2.683   5.766
 1293SOL    HW1 4778   0.315   2.595   5.787
 1293SOL    HW2 4779   0.192   2.696   5.823
 1294SOL     OW 4780   6.920   1.480   2.951
 1294SOL    HW1 4781   6.944   1.541   3.027
 1294SOL    HW2 4782   7.003   1.435   2.917
 1295SOL     OW 4783   5.952   3.399   2.136
 1295SOL    HW1 4784   6.027   3.335   2.156
 1295SOL    HW2 4785   5.990   3.487   2.106
 1296SOL     OW 4786   3.693   2.670   6.365
 1296SOL    HW1 4787   3.678   2.610   6.443
 1296SOL    HW2 4788   3.605   2.704   6.332
 1297SOL     OW 4789   6.607   1.613   6.644
 1297SOL    HW1 4790   6.694   1.662   6.641
 1297SOL    HW2 4791   6.623   1.515   6.642
 1298SOL     OW 4792   5.901   2.766   3.509
 1298SOL    HW1 4793   5.994   2.743   3.535
 1298SOL    HW2 4794   5.876   2.855   3.548
 1299SOL     OW 4795   1.094   4.111   4.200
 1299SOL    HW1 4796   1.187   4.109   4.238
 1299SOL    HW2 4797   1.085   4.189   4.138
 1300SOL     OW 4798   2.866   3.289   1.263
 1300SOL    HW1 4799   2.962   3.278   1.238
 1300SOL    HW2 4800   2.856   3.271   1.361
 1301SOL     OW 4801   0.745   0.533   3.222
 1301SOL    HW1 4802   0.774   0.440   3.246
 1301SOL    HW2 4803   0.780   0.597   3.290
 1302SOL     OW 4804   2.655   5.683   5.325
 1302SOL    HW1 4805   2.614   5.655   5.412
 1302SOL    HW2 4806   2.726   5.616   5.299
 1303SOL     OW 4807   3.848   0.796   1.444
 1303SOL    HW1 4808   3.809   0.763   1.530
 1303SOL    HW2 4809   3.775   0.812   1.378
 1304SOL     OW 4810   3.034   0.575   6.166
 1304SOL    HW1 4811   2.972   0.651   6.147
 1304SOL    HW2 4812   3.126   0.610   6.185
 1305SOL     OW 4813   5.144   6.724   4.938
 1305SOL    HW1 4814   5.052   6.711   4.902
 1305SOL    HW2 4815   5.192   6.793   4.884
 1306SOL     OW 4816   0.847   4.488   3.689
 1306SOL    HW1 4817   0.911   4.433   3.635
 1306SOL    HW2 4818   0.896   4.562   3.734
 1307SOL     OW 4819   2.263   1.459   4.056
 1307SOL    HW1 4820   2.318   1.542   4.056
 1307SOL    HW2 4821   2.231   1.440   4.149
 1308SOL     OW 4822   4.932   5.338   2.737
 1308SOL    HW1 4823   4.942   5.413   2.671
 1308SOL    HW2 4824   4.846   5.291   2.720
 1309SOL     OW 4825   6.012   2.316   4.563
 1309SOL    HW1 4826   5.965   2.343   4.479
 1309SOL    HW2 4827   5.996   2.219   4.582
 1310SOL     OW 4828   5.078   3.544   5.430
 1310SOL    HW1 4829   5.012   3.528   5.504
 1310SOL    HW2 4830   5.107   3.639   5.431
 1311SOL     OW 4831   5.200   5.718   5.336
 1311SOL    HW1 4832   5.228   5.770   5.417
 1311SOL    HW2 4833   5.237   5.762   5.254
 1312SOL     OW 4834   7.002   6.591   1.900
 1312SOL    HW1 4835   6.969   6.681   1.928
 1312SOL    HW2 4836   6.928   6.541   1.854
 1313SOL     OW 4837   3.421   5.043   5.338
 1313SOL    HW1 4838   3.322   5.045   5.351
 1313SOL    HW2 4839   3.463   4.995   5.415
 1314SOL     OW 4840   6.026   1.300   4.898
 1314SOL    HW1 4841   5.962   1.239   4.943
 1314SOL    HW2 4842   5.976   1.375   4.854
 1315SOL     OW 4843   2.187   0.907   2.810
 1315SOL    HW1 4844   2.183   0.807   2.812
 1315SOL    HW2 4845   2.110   0.942   2.758
 1316SOL     OW 4846   3.253   6.301   2.298
 1316SOL    HW1 4847   3.179   6.239   2.323
 1316SOL    HW2 4848   3.337   6.249   2.285
 1317SOL     OW 4849   0.161   4.852   3.633
 1317SOL    HW1 4850   0.212   4.771   3.606
 1317SOL    HW2 4851   0.087   4.826   3.696
 1318SOL     OW 4852   0.225   6.361   1.214
 1318SOL    HW1 4853   0.316   6.400   1.201
 1318SOL    HW2 4854   0.226   6.264   1.188
 1319SOL     OW 4855   6.075   1.040   0.109
 1319SOL    HW1 4856   6.141   1.112   0.087
 1319SOL    HW2 4857   6.103   0.994   0.193
 1320SOL     OW 4858   5.441   5.740   5.820
 1320SOL    HW1 4859   5.401   5.677   5.754
 1320SOL    HW2 4860   5.540   5.740   5.809
 1321SOL     OW 4861   3.660   2.097   6.468
 1321SOL    HW1 4862   3.569   2.135   6.478
 1321SOL    HW2 4863   3.658   1.999   6.489
 1322SOL     OW 4864   5.797   1.146   5.037
 1322SOL    HW1 4865   5.849   1.122   5.118
 1322SOL    HW2 4866   5.729   1.075   5.018
 1323SOL     OW 4867   5.899   1.508   4.733
 1323SOL    HW1 4868   5.965   1.484   4.661
 1323SOL    HW2 4869   5.916   1.601   4.764
 1324SOL     OW 4870   1.050   3.885   0.921
 1324SOL    HW1 4871   0.957   3.855   0.943
 1324SOL    HW2 4872   1.048   3.979   0.887
 1325SOL     OW 4873   3.422   5.392   2.945
 1325SOL    HW1 4874   3.428   5.460   2.873
 1325SOL    HW2 4875   3.499   5.402   3.007
 1326SOL     OW 4876   5.347   4.072   4.182
 1326SOL    HW1 4877   5.305   4.044   4.095
 1326SOL    HW2 4878   5.311   4.015   4.256
 1327SOL     OW 4879   3.299   5.703   3.301
 1327SOL    HW1 4880   3.250   5.635   3.356
 1327SOL    HW2 4881   3.257   5.711   3.211
 1328SOL     OW 4882   1.944   2.283   6.597
 1328SOL    HW1 4883   1.903   2.267   6.507
 1328SOL    HW2 4884   1.872   2.294   6.665
 1329SOL     OW 4885   0.785   0.343   1.582
 1329SOL    HW1 4886   0.862   0.293   1.544
 1329SOL    HW2 4887   0.705   0.283   1.586
 1330SOL     OW 4888   5.976   6.739   1.108
 1330SOL    HW1 4889   5.882   6.727   1.138
 1330SOL    HW2 4890   5.989   6.696   1.019
 1331SOL     OW 4891   6.675   0.668   2.681
 1331SOL    HW1 4892   6.677   0.627   2.590
 1331SOL    HW2 4893   6.663   0.597   2.750
 1332SOL     OW 4894   4.266   1.507   1.226
 1332SOL    HW1 4895   4.231   1.462   1.308
 1332SOL    HW2 4896   4.320   1.587   1.252
 1333SOL     OW 4897   3.839   4.291   5.240
 1333SOL    HW1 4898   3.819   4.240   5.156
 1333SOL    HW2 4899   3.891   4.233   5.302
 1334SOL     OW 4900   0.917   4.015   3.296
 1334SOL    HW1 4901   0.824   3.985   3.320
 1334SOL    HW2 4902   0.914   4.111   3.269
 1335SOL     OW 4903   2.557   4.932   2.411
 1335SOL    HW1 4904   2.487   4.893   2.470
 1335SOL    HW2 4905   2.515   4.969   2.328
 1336SOL     OW 4906   0.835   0.137   4.929
 1336SOL    HW1 4907   0.807   0.069   4.861
 1336SOL    HW2 4908   0.757   0.163   4.986
 1337SOL     OW 4909   2.555   0.703   6.230
 1337SOL    HW1 4910   2.483   0.771   6.212
 1337SOL    HW2 4911   2.624   0.742   6.291
 1338SOL     OW 4912   3.204   5.639   0.445
 1338SOL    HW1 4913   3.110   5.655   0.416
 1338SOL    HW2 4914   3.266   5.666   0.371
 1339SOL     OW 4915   7.011   4.870   4.729
 1339SOL    HW1 4916   6.927   4.924   4.730
 1339SOL    HW2 4917   7.004   4.798   4.660
 1340SOL     OW 4918   1.995   1.483   6.187
 1340SOL    HW1 4919   1.937   1.414   6.145
 1340SOL    HW2 4920   1.940   1.544   6.243
 1341SOL     OW 4921   5.063   1.349   3.609
 1341SOL    HW1 4922   5.011   1.312   3.532
 1341SOL    HW2 4923   5.006   1.352   3.690
 1342SOL     OW 4924   0.593   5.933   1.161
 1342SOL    HW1 4925   0.613   5.852   1.216
 1342SOL    HW2 4926   0.532   5.908   1.086
 1343SOL     OW 4927   3.785   5.125   3.280
 1343SOL    HW1 4928   3.837   5.048   3.317
 1343SOL    HW2 4929   3.833   5.211   3.299
 1344SOL     OW 4930   6.101   1.327   2.432
 1344SOL    HW1 4931   6.023   1.293   2.380
 1344SOL    HW2 4932   6.140   1.251   2.485
 1345SOL     OW 4933   1.286   6.789   3.553
 1345SOL    HW1 4934   1.287   6.805   3.454
 1345SOL    HW2 4935   1.312   6.874   3.600
 1346SOL     OW 4936   0.413   0.597   4.054
 1346SOL    HW1 4937   0.372   0.557   3.972
 1346SOL    HW2 4938   0.355   0.577   4.133
 1347SOL     OW 4939   6.047   0.546   3.080
 1347SOL    HW1 4940   6.062   0.530   2.982
 1347SOL    HW2 4941   6.018   0.641   3.094
 1348SOL     OW 4942   4.135   5.529   4.613
 1348SOL    HW1 4943   4.142   5.460   4.541
 1348SOL    HW2 4944   4.226   5.566   4.631
 1349SOL     OW 4945   4.700   2.724   0.061
 1349SOL    HW1 4946   4.791   2.764   0.079
 1349SOL    HW2 4947   4.657   2.700   0.148
 1350SOL     OW 4948   3.037   6.790   5.628
 1350SOL    HW1 4949   3.036   6.844   5.712
 1350SOL    HW2 4950   2.945   6.784   5.590
 1351SOL     OW 4951   0.642   1.214   4.661
 1351SOL    HW1 4952   0.641   1.114   4.665
 1351SOL    HW2 4953   0.734   1.247   4.683
 1352SOL     OW 4954   0.417   6.926   4.015
 1352SOL    HW1 4955   0.418   6.837   3.969
 1352SOL    HW2 4956   0.458   6.995   3.955
 1353SOL     OW 4957   1.850   3.651   3.779
 1353SOL    HW1 4958   1.754   3.634   3.801
 1353SOL    HW2 4959   1.906   3.624   3.857
 1354SOL     OW 4960   0.050   0.079   1.397
 1354SOL    HW1 4961   0.062   0.134   1.314
 1354SOL    HW2 4962   6.992   0.111   1.446
 1355SOL     OW 4963   4.448   3.328   0.161
 1355SOL    HW1 4964   4.528   3.328   0.221
 1355SOL    HW2 4965   4.478   3.337   0.066
 1356SOL     OW 4966   3.067   3.682   1.558
 1356SOL    HW1 4967   3.148   3.649   1.605
 1356SOL    HW2 4968   2.985   3.654   1.608
 1357SOL     OW 4969   2.766   2.562   6.003
 1357SOL    HW1 4970   2.853   2.521   5.975
 1357SOL    HW2 4971   2.785   2.639   6.064
 1358SOL     OW 4972   2.654   3.131   5.827
 1358SOL    HW1 4973   2.621   3.201   5.764
 1358SOL    HW2 4974   2.606   3.139   5.914
 1359SOL     OW 4975   0.089   1.133   0.088
 1359SOL    HW1 4976   0.063   1.037   0.082
 1359SOL    HW2 4977   0.060   1.170   0.176
 1360SOL     OW 4978   2.913   3.426   3.873
 1360SOL    HW1 4979   2.933   3.352   3.937
 1360SOL    HW2 4980   2.901   3.388   3.781
 1361SOL     OW 4981   1.083   5.645   1.218
 1361SOL    HW1 4982   1.032   5.724   1.187
 1361SOL    HW2 4983   1.136   5.608   1.142
 1362SOL     OW 4984   3.404   2.310   6.743
 1362SOL    HW1 4985   3.462   2.376   6.792
 1362SOL    HW2 4986   3.355   2.253   6.809
 1363SOL     OW 4987   6.245   6.513   1.763
 1363SOL    HW1 4988   6.261   6.611   1.757
 1363SOL    HW2 4989   6.167   6.495   1.822
 1364SOL     OW 4990   0.908   3.498   0.689
 1364SOL    HW1 4991   0.889   3.480   0.785
 1364SOL    HW2 4992   0.977   3.569   0.681
 1365SOL     OW 4993   0.231   3.880   5.333
 1365SOL    HW1 4994   0.137   3.856   5.306
 1365SOL    HW2 4995   0.294   3.857   5.259
 1366SOL     OW 4996   5.590   0.305   1.158
 1366SOL    HW1 4997   5.637   0.217   1.156
 1366SOL    HW2 4998   5.492   0.291   1.163
 1367SOL     OW 4999   1.284   6.551   4.529
 1367SOL    HW1 5000   1.284   6.642   4.570
 1367SOL    HW2 5001   1.364   6.500   4.563
 1368SOL     OW 5002   1.342   6.422   5.382
 1368SOL    HW1 5003   1.380   6.469   5.462
 1368SOL    HW2 5004   1.251   6.458   5.363
 1369SOL     OW 5005   2.842   6.408   3.192
 1369SOL    HW1 5006   2.752   6.386   3.154
 1369SOL    HW2 5007   2.873   6.332   3.248
 1370SOL     OW 5008   6.836   2.239   2.506
 1370SOL    HW1 5009   6.776   2.207   2.579
 1370SOL    HW2 5010   6.867   2.332   2.528
 1371SOL     OW 5011   6.126   2.148   5.847
 1371SOL    HW1 5012   6.103   2.135   5.943
 1371SOL    HW2 5013   6.106   2.243   5.820
 1372SOL     OW 5014   6.511   3.067   0.713
 1372SOL    HW1 5015   6.457   3.120   0.778
 1372SOL    HW2 5016   6.595   3.035   0.757
 1373SOL     OW 5017   5.283   2.196   1.252
 1373SOL    HW1 5018   5.284   2.288   1.213
 1373SOL    HW2 5019   5.352   2.189   1.323
 1374SOL     OW 5020   4.271   4.241   0.910
 1374SOL    HW1 5021   4.267   4.169   0.979
 1374SOL    HW2 5022   4.265   4.330   0.956
 1375SOL     OW 5023   5.841   5.270   3.870
 1375SOL    HW1 5024   5.819   5.351   3.815
 1375SOL    HW2 5025   5.940   5.254   3.867
 1376SOL     OW 5026   3.113   4.902   6.017
 1376SOL    HW1 5027   3.055   4.969   6.063
 1376SOL    HW2 5028   3.204   4.903   6.058
 1377SOL     OW 5029   1.930   1.706   2.809
 1377SOL    HW1 5030   1.931   1.608   2.832
 1377SOL    HW2 5031   1.943   1.760   2.892
 1378SOL     OW 5032   5.211   2.916   4.184
 1378SOL    HW1 5033   5.150   2.970   4.243
 1378SOL    HW2 5034   5.297   2.966   4.171
 1379SOL     OW 5035   4.958   5.401   1.449
 1379SOL    HW1 5036   5.007   5.402   1.537
 1379SOL    HW2 5037   4.865   5.435   1.463
 1380SOL     OW 5038   6.751   5.992   2.175
 1380SOL    HW1 5039   6.774   5.988   2.272
 1380SOL    HW2 5040   6.743   6.087   2.147
 1381SOL     OW 5041   6.433   2.397   5.904
 1381SOL    HW1 5042   6.364   2.367   5.970
 1381SOL    HW2 5043   6.388   2.442   5.827
 1382SOL     OW 5044   4.617   2.985   0.088
 1382SOL    HW1 5045   4.699   3.037   0.113
 1382SOL    HW2 5046   4.639   2.887   0.085
 1383SOL     OW 5047   0.391   0.600   1.448
 1383SOL    HW1 5048   0.312   0.538   1.451
 1383SOL    HW2 5049   0.438   0.596   1.536
 1384SOL     OW 5050   6.093   1.589   1.787
 1384SOL    HW1 5051   6.057   1.680   1.808
 1384SOL    HW2 5052   6.173   1.571   1.843
 1385SOL     OW 5053   0.565   5.290   1.012
 1385SOL    HW1 5054   0.590   5.211   0.956
 1385SOL    HW2 5055   0.647   5.345   1.030
 1386SOL     OW 5056   1.878   5.720   4.216
 1386SOL    HW1 5057   1.886   5.652   4.289
 1386SOL    HW2 5058   1.961   5.776   4.213
 1387SOL     OW 5059   2.788   6.238   2.041
 1387SOL    HW1 5060   2.872   6.190   2.017
 1387SOL    HW2 5061   2.809   6.318   2.096
 1388SOL     OW 5062   6.923   0.613   1.671
 1388SOL    HW1 5063   7.008   0.666   1.670
 1388SOL    HW2 5064   6.896   0.597   1.766
 1389SOL     OW 5065   6.360   0.925   2.373
 1389SOL    HW1 5066   6.411   0.901   2.456
 1389SOL    HW2 5067   6.320   0.843   2.333
 1390SOL     OW 5068   1.401   1.627   5.511
 1390SOL    HW1 5069   1.419   1.545   5.457
 1390SOL    HW2 5070   1.457   1.625   5.594
 1391SOL     OW 5071   0.554   3.143   3.495
 1391SOL    HW1 5072   0.496   3.114   3.571
 1391SOL    HW2 5073   0.632   3.194   3.531
 1392SOL     OW 5074   5.141   4.575   5.291
 1392SOL    HW1 5075   5.083   4.497   5.318
 1392SOL    HW2 5076   5.127   4.593   5.193
 1393SOL     OW 5077   3.227   6.495   5.925
 1393SOL    HW1 5078   3.253   6.509   6.021
 1393SOL    HW2 5079   3.298   6.443   5.878
 1394SOL     OW 5080   1.688   6.162   6.504
 1394SOL    HW1 5081   1.649   6.194   6.590
 1394SOL    HW2 5082   1.679   6.062   6.498
 1395SOL     OW 5083   3.588   4.172   5.646
 1395SOL    HW1 5084   3.570   4.271   5.646
 1395SOL    HW2 5085   3.601   4.142   5.551
 1396SOL     OW 5086   5.751   5.716   3.852
 1396SOL    HW1 5087   5.753   5.636   3.912
 1396SOL    HW2 5088   5.685   5.782   3.887
 1397SOL     OW 5089   4.645   6.001   5.570
 1397SOL    HW1 5090   4.655   5.972   5.475
 1397SOL    HW2 5091   4.705   6.079   5.587
 1398SOL     OW 5092   2.157   1.226   4.289
 1398SOL    HW1 5093   2.240   1.179   4.259
 1398SOL    HW2 5094   2.092   1.159   4.325
 1399SOL     OW 5095   2.751   6.574   1.484
 1399SOL    HW1 5096   2.720   6.614   1.570
 1399SOL    HW2 5097   2.846   6.545   1.493
 1400SOL     OW 5098   1.370   6.639   2.088
 1400SOL    HW1 5099   1.387   6.545   2.117
 1400SOL    HW2 5100   1.333   6.692   2.165
 1401SOL     OW 5101   6.388   1.225   4.802
 1401SOL    HW1 5102   6.405   1.131   4.775
 1401SOL    HW2 5103   6.424   1.287   4.732
 1402SOL     OW 5104   0.173   3.291   0.679
 1402SOL    HW1 5105   0.124   3.291   0.591
 1402SOL    HW2 5106   0.185   3.385   0.711
 1403SOL     OW 5107   2.794   1.021   2.352
 1403SOL    HW1 5108   2.697   1.046   2.349
 1403SOL    HW2 5109   2.804   0.928   2.385
 1404SOL     OW 5110   5.335   1.045   0.040
 1404SOL    HW1 5111   5.389   1.122   0.005
 1404SOL    HW2 5112   5.238   1.062   0.024
 1405SOL     OW 5113   2.537   3.545   1.100
 1405SOL    HW1 5114   2.585   3.501   1.024
 1405SOL    HW2 5115   2.599   3.559   1.176
 1406SOL     OW 5116   1.436   4.136   0.889
 1406SOL    HW1 5117   1.492   4.217   0.908
 1406SOL    HW2 5118   1.458   4.064   0.955
 1407SOL     OW 5119   6.447   2.307   2.880
 1407SOL    HW1 5120   6.465   2.325   2.783
 1407SOL    HW2 5121   6.418   2.392   2.925
 1408SOL     OW 5122   6.651   0.732   6.796
 1408SOL    HW1 5123   6.622   0.678   6.717
 1408SOL    HW2 5124   6.572   0.782   6.832
 1409SOL     OW 5125   0.549   1.033   4.309
 1409SOL    HW1 5126   0.471   1.013   4.368
 1409SOL    HW2 5127   0.577   0.949   4.262
 1410SOL     OW 5128   0.778   2.709   6.866
 1410SOL    HW1 5129   0.789   2.735   6.770
 1410SOL    HW2 5130   0.690   2.662   6.878
 1411SOL     OW 5131   2.012   6.942   1.471
 1411SOL    HW1 5132   1.921   6.976   1.496
 1411SOL    HW2 5133   2.043   6.989   1.388
 1412SOL     OW 5134   1.121   2.981   0.148
 1412SOL    HW1 5135   1.119   2.987   0.248
 1412SOL    HW2 5136   1.141   2.887   0.121
 1413SOL     OW 5137   2.606   0.386   4.301
 1413SOL    HW1 5138   2.606   0.288   4.280
 1413SOL    HW2 5139   2.700   0.419   4.306
 1414SOL     OW 5140   1.901   1.511   1.647
 1414SOL    HW1 5141   1.912   1.545   1.740
 1414SOL    HW2 5142   1.870   1.585   1.588
 1415SOL     OW 5143   4.063   6.121   6.233
 1415SOL    HW1 5144   4.068   6.035   6.184
 1415SOL    HW2 5145   4.153   6.145   6.270
 1416SOL     OW 5146   4.359   5.474   2.044
 1416SOL    HW1 5147   4.312   5.453   2.130
 1416SOL    HW2 5148   4.456   5.451   2.052
 1417SOL     OW 5149   3.160   1.751   5.919
 1417SOL    HW1 5150   3.176   1.792   5.829
 1417SOL    HW2 5151   3.192   1.813   5.990
 1418SOL     OW 5152   3.431   4.057   2.502
 1418SOL    HW1 5153   3.407   4.085   2.409
 1418SOL    HW2 5154   3.474   3.967   2.500
 1419SOL     OW 5155   4.511   6.795   5.068
 1419SOL    HW1 5156   4.534   6.849   5.149
 1419SOL    HW2 5157   4.520   6.697   5.089
 1420SOL     OW 5158   0.802   5.829   2.152
 1420SOL    HW1 5159   0.756   5.872   2.074
 1420SOL    HW2 5160   0.891   5.794   2.123
 1421SOL     OW 5161   3.308   1.072   2.809
 1421SOL    HW1 5162   3.287   1.087   2.905
 1421SOL    HW2 5163   3.406   1.055   2.798
 1422SOL     OW 5164   2.779   6.436   0.229
 1422SOL    HW1 5165   2.854   6.492   0.264
 1422SOL    HW2 5166   2.771   6.450   0.130
 1423SOL     OW 5167   4.660   0.023   2.695
 1423SOL    HW1 5168   4.755   0.008   2.724
 1423SOL    HW2 5169   4.659   0.062   2.603
 1424SOL     OW 5170   6.621   4.863   4.414
 1424SOL    HW1 5171   6.546   4.915   4.373
 1424SOL    HW2 5172   6.584   4.802   4.484
 1425SOL     OW 5173   2.625   6.819   3.983
 1425SOL    HW1 5174   2.542   6.871   4.004
 1425SOL    HW2 5175   2.691   6.880   3.936
 1426SOL     OW 5176   1.161   1.642   5.732
 1426SOL    HW1 5177   1.079   1.586   5.718
 1426SOL    HW2 5178   1.242   1.592   5.703
 1427SOL     OW 5179   6.096   0.706   4.614
 1427SOL    HW1 5180   6.123   0.610   4.606
 1427SOL    HW2 5181   6.015   0.723   4.558
 1428SOL     OW 5182   5.354   1.600   6.906
 1428SOL    HW1 5183   5.347   1.610   7.005
 1428SOL    HW2 5184   5.265   1.576   6.869
 1429SOL     OW 5185   6.720   0.933   0.356
 1429SOL    HW1 5186   6.659   0.898   0.427
 1429SOL    HW2 5187   6.679   0.919   0.266
 1430SOL     OW 5188   1.993   4.998   3.728
 1430SOL    HW1 5189   1.920   5.065   3.719
 1430SOL    HW2 5190   2.026   4.997   3.822
 1431SOL     OW 5191   2.068   0.822   0.746
 1431SOL    HW1 5192   2.149   0.825   0.687
 1431SOL    HW2 5193   2.087   0.867   0.833
 1432SOL     OW 5194   2.067   1.261   1.951
 1432SOL    HW1 5195   2.076   1.194   2.025
 1432SOL    HW2 5196   1.975   1.256   1.913
 1433SOL     OW 5197   4.476   0.802   4.076
 1433SOL    HW1 5198   4.562   0.752   4.070
 1433SOL    HW2 5199   4.419   0.763   4.148
 1434SOL     OW 5200   1.046   0.356   5.339
 1434SOL    HW1 5201   1.108   0.401   5.275
 1434SOL    HW2 5202   0.998   0.282   5.293
 1435SOL     OW 5203   6.558   1.616   2.887
 1435SOL    HW1 5204   6.597   1.527   2.909
 1435SOL    HW2 5205   6.489   1.605   2.815
 1436SOL     OW 5206   4.032   3.484   0.878
 1436SOL    HW1 5207   4.105   3.495   0.945
 1436SOL    HW2 5208   4.070   3.455   0.790
 1437SOL     OW 5209   3.647   0.921   2.354
 1437SOL    HW1 5210   3.585   0.890   2.425
 1437SOL    HW2 5211   3.742   0.916   2.387
 1438SOL     OW 5212   2.458   0.366   1.193
 1438SOL    HW1 5213   2.381   0.361   1.257
 1438SOL    HW2 5214   2.470   0.278   1.148
 1439SOL     OW 5215   0.291   5.757   2.733
 1439SOL    HW1 5216   0.347   5.809   2.798
 1439SOL    HW2 5217   0.194   5.766   2.759
 1440SOL     OW 5218   2.606   3.377   1.602
 1440SOL    HW1 5219   2.508   3.377   1.620
 1440SOL    HW2 5220   2.625   3.314   1.526
 1441SOL     OW 5221   5.672   6.424   0.889
 1441SOL    HW1 5222   5.689   6.400   0.793
 1441SOL    HW2 5223   5.726   6.363   0.947
 1442SOL     OW 5224   5.920   5.358   0.887
 1442SOL    HW1 5225   5.970   5.346   0.802
 1442SOL    HW2 5226   5.845   5.422   0.873
 1443SOL     OW 5227   0.584   2.668   2.871
 1443SOL    HW1 5228   0.582   2.739   2.800
 1443SOL    HW2 5229   0.526   2.696   2.947
 1444SOL     OW 5230   6.086   5.027   6.562
 1444SOL    HW1 5231   6.072   5.103   6.498
 1444SOL    HW2 5232   6.182   5.023   6.588
 1445SOL     OW 5233   1.375   3.025   1.756
 1445SOL    HW1 5234   1.448   3.036   1.689
 1445SOL    HW2 5235   1.399   2.951   1.819
 1446SOL     OW 5236   6.913   0.307   6.885
 1446SOL    HW1 5237   6.928   0.217   6.925
 1446SOL    HW2 5238   6.900   0.374   6.958
 1447SOL     OW 5239   6.041   5.139   4.557
 1447SOL    HW1 5240   5.989   5.182   4.483
 1447SOL    HW2 5241   6.123   5.192   4.575
 1448SOL     OW 5242   1.115   2.886   5.539
 1448SOL    HW1 5243   1.146   2.850   5.627
 1448SOL    HW2 5244   1.163   2.971   5.518
 1449SOL     OW 5245   2.163   3.581   3.676
 1449SOL    HW1 5246   2.176   3.485   3.698
 1449SOL    HW2 5247   2.129   3.589   3.582
 1450SOL     OW 5248   2.322   2.834   4.116
 1450SOL    HW1 5249   2.401   2.822   4.057
 1450SOL    HW2 5250   2.342   2.797   4.207
 1451SOL     OW 5251   2.293   0.440   1.997
 1451SOL    HW1 5252   2.325   0.413   1.907
 1451SOL    HW2 5253   2.371   0.449   2.059
 1452SOL     OW 5254   5.146   2.960   5.938
 1452SOL    HW1 5255   5.072   3.024   5.919
 1452SOL    HW2 5256   5.140   2.930   6.034
 1453SOL     OW 5257   6.743   5.281   4.834
 1453SOL    HW1 5258   6.716   5.259   4.928
 1453SOL    HW2 5259   6.693   5.362   4.803
 1454SOL     OW 5260   3.756   2.171   3.823
 1454SOL    HW1 5261   3.802   2.174   3.912
 1454SOL    HW2 5262   3.689   2.245   3.818
 1455SOL     OW 5263   0.623   5.772   1.668
 1455SOL    HW1 5264   0.592   5.821   1.587
 1455SOL    HW2 5265   0.689   5.828   1.718
 1456SOL     OW 5266   6.285   4.734   4.680
 1456SOL    HW1 5267   6.264   4.737   4.777
 1456SOL    HW2 5268   6.214   4.782   4.628
 1457SOL     OW 5269   1.253   4.394   6.104
 1457SOL    HW1 5270   1.277   4.411   6.199
 1457SOL    HW2 5271   1.271   4.475   6.049
 1458SOL     OW 5272   4.822   4.951   5.226
 1458SOL    HW1 5273   4.826   4.870   5.285
 1458SOL    HW2 5274   4.736   4.998   5.240
 1459SOL     OW 5275   5.175   6.494   5.149
 1459SOL    HW1 5276   5.106   6.498   5.077
 1459SOL    HW2 5277   5.260   6.458   5.111
 1460SOL     OW 5278   1.285   6.160   5.451
 1460SOL    HW1 5279   1.318   6.254   5.444
 1460SOL    HW2 5280   1.347   6.099   5.401
 1461SOL     OW 5281   6.838   3.329   3.446
 1461SOL    HW1 5282   6.872   3.396   3.512
 1461SOL    HW2 5283   6.803   3.249   3.496
 1462SOL     OW 5284   0.391   0.440   1.948
 1462SOL    HW1 5285   0.483   0.461   1.915
 1462SOL    HW2 5286   0.396   0.407   2.042
 1463SOL     OW 5287   1.542   5.578   0.183
 1463SOL    HW1 5288   1.568   5.569   0.087
 1463SOL    HW2 5289   1.504   5.669   0.199
 1464SOL     OW 5290   1.345   4.169   3.336
 1464SOL    HW1 5291   1.403   4.164   3.417
 1464SOL    HW2 5292   1.340   4.263   3.304
 1465SOL     OW 5293   0.834   2.521   3.444
 1465SOL    HW1 5294   0.777   2.483   3.370
 1465SOL    HW2 5295   0.871   2.446   3.499
 1466SOL     OW 5296   4.823   2.224   1.987
 1466SOL    HW1 5297   4.893   2.295   1.984
 1466SOL    HW2 5298   4.784   2.219   2.079
 1467SOL     OW 5299   1.362   1.400   4.512
 1467SOL    HW1 5300   1.376   1.487   4.464
 1467SOL    HW2 5301   1.265   1.379   4.517
 1468SOL     OW 5302   2.285   5.681   2.680
 1468SOL    HW1 5303   2.249   5.589   2.692
 1468SOL    HW2 5304   2.251   5.740   2.752
 1469SOL     OW 5305   6.433   4.048   3.098
 1469SOL    HW1 5306   6.428   4.029   3.000
 1469SOL    HW2 5307   6.510   3.997   3.138
 1470SOL     OW 5308   6.532   1.864   1.087
 1470SOL    HW1 5309   6.543   1.830   1.181
 1470SOL    HW2 5310   6.601   1.934   1.069
 1471SOL     OW 5311   5.344   6.585   1.887
 1471SOL    HW1 5312   5.334   6.489   1.914
 1471SOL    HW2 5313   5.387   6.636   1.961
 1472SOL     OW 5314   1.769   6.915   6.129
 1472SOL    HW1 5315   1.688   6.865   6.098
 1472SOL    HW2 5316   1.844   6.850   6.143
 1473SOL     OW 5317   2.033   5.497   3.717
 1473SOL    HW1 5318   2.017   5.433   3.793
 1473SOL    HW2 5319   2.036   5.447   3.631
 1474SOL     OW 5320   3.161   5.077   1.762
 1474SOL    HW1 5321   3.080   5.052   1.815
 1474SOL    HW2 5322   3.236   5.014   1.785
 1475SOL     OW 5323   5.513   0.298   6.723
 1475SOL    HW1 5324   5.467   0.326   6.638
 1475SOL    HW2 5325   5.599   0.348   6.732
 1476SOL     OW 5326   4.995   0.433   1.353
 1476SOL    HW1 5327   4.990   0.533   1.355
 1476SOL    HW2 5328   4.917   0.397   1.301
 1477SOL     OW 5329   3.596   4.934   1.559
 1477SOL    HW1 5330   3.533   4.931   1.481
 1477SOL    HW2 5331   3.551   4.978   1.637
 1478SOL     OW 5332   5.259   5.399   6.313
 1478SOL    HW1 5333   5.166   5.363   6.316
 1478SOL    HW2 5334   5.292   5.399   6.218
 1479SOL     OW 5335   4.068   3.846   1.234
 1479SOL    HW1 5336   3.970   3.828   1.242
 1479SOL    HW2 5337   4.087   3.939   1.267
 1480SOL     OW 5338   3.357   0.213   4.948
 1480SOL    HW1 5339   3.316   0.288   4.898
 1480SOL    HW2 5340   3.312   0.127   4.923
 1481SOL     OW 5341   5.192   2.593   5.888
 1481SOL    HW1 5342   5.181   2.656   5.812
 1481SOL    HW2 5343   5.282   2.551   5.885
 1482SOL     OW 5344   4.819   1.244   0.848
 1482SOL    HW1 5345   4.842   1.148   0.861
 1482SOL    HW2 5346   4.774   1.279   0.930
 1483SOL     OW 5347   5.618   1.690   6.030
 1483SOL    HW1 5348   5.571   1.745   6.099
 1483SOL    HW2 5349   5.717   1.702   6.040
 1484SOL     OW 5350   3.499   5.750   5.179
 1484SOL    HW1 5351   3.499   5.701   5.092
 1484SOL    HW2 5352   3.542   5.839   5.167
 1485SOL     OW 5353   5.304   2.267   2.967
 1485SOL    HW1 5354   5.338   2.179   2.998
 1485SOL    HW2 5355   5.366   2.305   2.898
 1486SOL     OW 5356   4.879   6.994   3.722
 1486SOL    HW1 5357   4.918   6.926   3.659
 1486SOL    HW2 5358   4.838   0.046   3.669
 1487SOL     OW 5359   6.744   0.744   1.098
 1487SOL    HW1 5360   6.677   0.791   1.041
 1487SOL    HW2 5361   6.699   0.672   1.151
 1488SOL     OW 5362   6.390   1.520   2.634
 1488SOL    HW1 5363   6.416   1.446   2.696
 1488SOL    HW2 5364   6.381   1.483   2.541
 1489SOL     OW 5365   3.417   4.357   0.468
 1489SOL    HW1 5366   3.342   4.391   0.412
 1489SOL    HW2 5367   3.408   4.394   0.561
 1490SOL     OW 5368   6.876   2.506   2.346
 1490SOL    HW1 5369   6.936   2.476   2.272
 1490SOL    HW2 5370   6.788   2.460   2.338
 1491SOL     OW 5371   6.393   2.535   3.615
 1491SOL    HW1 5372   6.453   2.553   3.694
 1491SOL    HW2 5373   6.415   2.599   3.542
 1492SOL     OW 5374   6.310   1.154   3.553
 1492SOL    HW1 5375   6.229   1.144   3.495
 1492SOL    HW2 5376   6.323   1.251   3.575
 1493SOL     OW 5377   4.521   2.746   6.086
 1493SOL    HW1 5378   4.454   2.684   6.127
 1493SOL    HW2 5379   4.574   2.697   6.017
 1494SOL     OW 5380   6.495   4.439   5.500
 1494SOL    HW1 5381   6.556   4.380   5.447
 1494SOL    HW2 5382   6.426   4.383   5.546
 1495SOL     OW 5383   6.948   4.122   4.458
 1495SOL    HW1 5384   6.866   4.091   4.409
 1495SOL    HW2 5385   6.982   4.048   4.515
 1496SOL     OW 5386   6.715   5.295   6.317
 1496SOL    HW1 5387   6.775   5.293   6.236
 1496SOL    HW2 5388   6.683   5.388   6.332
 1497SOL     OW 5389   5.750   2.805   2.794
 1497SOL    HW1 5390   5.832   2.757   2.763
 1497SOL    HW2 5391   5.715   2.762   2.877
 1498SOL     OW 5392   3.188   3.991   0.541
 1498SOL    HW1 5393   3.227   3.919   0.599
 1498SOL    HW2 5394   3.115   3.952   0.484
 1499SOL     OW 5395   0.567   3.959   5.099
 1499SOL    HW1 5396   0.660   3.932   5.126
 1499SOL    HW2 5397   0.503   3.886   5.122
 1500SOL     OW 5398   0.957   5.486   1.639
 1500SOL    HW1 5399   0.957   5.463   1.541
 1500SOL    HW2 5400   0.967   5.585   1.650
 1501SOL     OW 5401   5.965   2.628   0.175
 1501SOL    HW1 5402   6.000   2.648   0.267
 1501SOL    HW2 5403   5.944   2.531   0.168
 1502SOL     OW 5404   6.546   0.046   6.300
 1502SOL    HW1 5405   6.621   0.067   6.237
 1502SOL    HW2 5406   6.583   0.011   6.386
 1503SOL     OW 5407   6.569   4.819   1.844
 1503SOL    HW1 5408   6.535   4.726   1.853
 1503SOL    HW2 5409   6.572   4.862   1.934
 1504SOL     OW 5410   1.215   0.199   2.532
 1504SOL    HW1 5411   1.156   0.119   2.540
 1504SOL    HW2 5412   1.303   0.172   2.493
 1505SOL     OW 5413   4.993   6.130   5.026
 1505SOL    HW1 5414   4.949   6.204   5.077
 1505SOL    HW2 5415   5.050   6.076   5.088
 1506SOL     OW 5416   0.445   1.901   0.875
 1506SOL    HW1 5417   0.486   1.984   0.836
 1506SOL    HW2 5418   0.398   1.850   0.804
 1507SOL     OW 5419   1.282   2.884   4.417
 1507SOL    HW1 5420   1.313   2.879   4.322
 1507SOL    HW2 5421   1.340   2.827   4.474
 1508SOL     OW 5422   1.151   0.677   0.960
 1508SOL    HW1 5423   1.159   0.592   1.013
 1508SOL    HW2 5424   1.083   0.736   1.003
 1509SOL     OW 5425   4.944   0.340   4.355
 1509SOL    HW1 5426   4.888   0.296   4.425
 1509SOL    HW2 5427   4.941   0.286   4.271
 1510SOL     OW 5428   3.779   5.647   4.298
 1510SOL    HW1 5429   3.701   5.628   4.238
 1510SOL    HW2 5430   3.812   5.562   4.337
 1511SOL     OW 5431   3.109   3.678   4.647
 1511SOL    HW1 5432   3.072   3.770   4.633
 1511SOL    HW2 5433   3.069   3.615   4.581
 1512SOL     OW 5434   5.921   5.975   0.826
 1512SOL    HW1 5435   5.942   6.010   0.734
 1512SOL    HW2 5436   5.852   6.034   0.869
 1513SOL     OW 5437   2.962   6.786   6.280
 1513SOL    HW1 5438   2.936   6.824   6.191
 1513SOL    HW2 5439   2.896   6.815   6.349
 1514SOL     OW 5440   3.304   2.589   5.605
 1514SOL    HW1 5441   3.339   2.677   5.635
 1514SOL    HW2 5442   3.236   2.603   5.533
 1515SOL     OW 5443   5.249   1.591   1.799
 1515SOL    HW1 5444   5.196   1.564   1.718
 1515SOL    HW2 5445   5.346   1.577   1.782
 1516SOL     OW 5446   5.971   0.000   5.475
 1516SOL    HW1 5447   6.017   0.066   5.416
 1516SOL    HW2 5448   5.873   0.016   5.474
 1517SOL     OW 5449   3.634   6.072   3.756
 1517SOL    HW1 5450   3.584   6.019   3.688
 1517SOL    HW2 5451   3.655   6.015   3.835
 1518SOL     OW 5452   0.823   2.911   0.260
 1518SOL    HW1 5453   0.887   2.972   0.213
 1518SOL    HW2 5454   0.868   2.824   0.281
 1519SOL     OW 5455   0.308   4.455   6.365
 1519SOL    HW1 5456   0.268   4.547   6.368
 1519SOL    HW2 5457   0.342   4.430   6.456
 1520SOL     OW 5458   0.312   5.791   2.458
 1520SOL    HW1 5459   0.403   5.779   2.419
 1520SOL    HW2 5460   0.314   5.767   2.555
 1521SOL     OW 5461   2.187   4.914   5.849
 1521SOL    HW1 5462   2.207   4.988   5.913
 1521SOL    HW2 5463   2.174   4.829   5.899
 1522SOL     OW 5464   4.990   5.904   4.001
 1522SOL    HW1 5465   5.067   5.951   3.960
 1522SOL    HW2 5466   4.984   5.929   4.098
 1523SOL     OW 5467   3.675   6.615   0.701
 1523SOL    HW1 5468   3.611   6.552   0.746
 1523SOL    HW2 5469   3.640   6.640   0.611
 1524SOL     OW 5470   2.282   1.622   2.957
 1524SOL    HW1 5471   2.239   1.533   2.970
 1524SOL    HW2 5472   2.257   1.658   2.867
 1525SOL     OW 5473   5.487   3.028   6.889
 1525SOL    HW1 5474   5.458   3.061   6.799
 1525SOL    HW2 5475   5.407   3.019   6.949
 1526SOL     OW 5476   1.063   1.094   0.182
 1526SOL    HW1 5477   1.148   1.093   0.130
 1526SOL    HW2 5478   1.056   1.011   0.236
 1527SOL     OW 5479   4.049   1.027   4.073
 1527SOL    HW1 5480   4.054   0.931   4.045
 1527SOL    HW2 5481   4.062   1.085   3.992
 1528SOL     OW 5482   3.977   4.054   1.620
 1528SOL    HW1 5483   4.075   4.034   1.616
 1528SOL    HW2 5484   3.936   4.008   1.698
 1529SOL     OW 5485   4.762   1.165   5.771
 1529SOL    HW1 5486   4.679   1.132   5.726
 1529SOL    HW2 5487   4.756   1.146   5.869
 1530SOL     OW 5488   3.238   5.901   1.343
 1530SOL    HW1 5489   3.304   5.858   1.406
 1530SOL    HW2 5490   3.203   5.832   1.280
 1531SOL     OW 5491   3.688   6.672   3.946
 1531SOL    HW1 5492   3.663   6.769   3.953
 1531SOL    HW2 5493   3.770   6.655   4.000
 1532SOL     OW 5494   3.005   5.769   6.246
 1532SOL    HW1 5495   2.919   5.732   6.279
 1532SOL    HW2 5496   3.067   5.694   6.222
 1533SOL     OW 5497   6.055   5.172   1.550
 1533SOL    HW1 5498   6.091   5.262   1.576
 1533SOL    HW2 5499   6.113   5.132   1.480
 1534SOL     OW 5500   3.624   5.681   6.302
 1534SOL    HW1 5501   3.613   5.739   6.221
 1534SOL    HW2 5502   3.537   5.638   6.325
 1535SOL     OW 5503   6.092   5.986   4.170
 1535SOL    HW1 5504   6.176   5.984   4.224
 1535SOL    HW2 5505   6.093   6.066   4.110
 1536SOL     OW 5506   4.692   3.427   6.198
 1536SOL    HW1 5507   4.713   3.514   6.154
 1536SOL    HW2 5508   4.677   3.357   6.128
 1537SOL     OW 5509   3.415   5.207   3.488
 1537SOL    HW1 5510   3.456   5.217   3.397
 1537SOL    HW2 5511   3.340   5.141   3.484
 1538SOL     OW 5512   2.986   1.559   6.662
 1538SOL    HW1 5513   2.901   1.607   6.683
 1538SOL    HW2 5514   3.035   1.607   6.590
 1539SOL     OW 5515   6.036   3.384   0.684
 1539SOL    HW1 5516   5.952   3.351   0.641
 1539SOL    HW2 5517   6.029   3.374   0.783
 1540SOL     OW 5518   3.397   6.530   4.749
 1540SOL    HW1 5519   3.494   6.551   4.767
 1540SOL    HW2 5520   3.373   6.444   4.796
 1541SOL     OW 5521   3.696   3.237   4.793
 1541SOL    HW1 5522   3.795   3.253   4.789
 1541SOL    HW2 5523   3.654   3.304   4.854
 1542SOL     OW 5524   0.197   0.374   2.726
 1542SOL    HW1 5525   0.165   0.333   2.640
 1542SOL    HW2 5526   0.263   0.312   2.769
 1543SOL     OW 5527   2.685   4.582   6.920
 1543SOL    HW1 5528   2.760   4.570   6.985
 1543SOL    HW2 5529   2.689   4.673   6.880
 1544SOL     OW 5530   3.694   3.524   4.387
 1544SOL    HW1 5531   3.603   3.528   4.429
 1544SOL    HW2 5532   3.687   3.485   4.295
 1545SOL     OW 5533   5.871   6.147   2.166
 1545SOL    HW1 5534   5.935   6.072   2.181
 1545SOL    HW2 5535   5.843   6.186   2.254
 1546SOL     OW 5536   5.420   6.579   5.721
 1546SOL    HW1 5537   5.516   6.601   5.703
 1546SOL    HW2 5538   5.388   6.514   5.652
 1547SOL     OW 5539   1.741   3.520   6.784
 1547SOL    HW1 5540   1.750   3.593   6.851
 1547SOL    HW2 5541   1.717   3.559   6.695
 1548SOL     OW 5542   6.547   2.107   6.490
 1548SOL    HW1 5543   6.499   2.126   6.404
 1548SOL    HW2 5544   6.503   2.158   6.564
 1549SOL     OW 5545   4.533   0.435   4.982
 1549SOL    HW1 5546   4.500   0.341   4.979
 1549SOL    HW2 5547   4.573   0.459   4.893
 1550SOL     OW 5548   4.013   3.040   3.387
 1550SOL    HW1 5549   3.957   3.019   3.307
 1550SOL    HW2 5550   4.106   3.007   3.373
 1551SOL     OW 5551   6.714   4.448   5.994
 1551SOL    HW1 5552   6.726   4.358   6.036
 1551SOL    HW2 5553   6.755   4.518   6.053
 1552SOL     OW 5554   1.547   4.224   1.662
 1552SOL    HW1 5555   1.510   4.219   1.755
 1552SOL    HW2 5556   1.505   4.300   1.613
 1553SOL     OW 5557   1.366   1.432   5.832
 1553SOL    HW1 5558   1.361   1.504   5.901
 1553SOL    HW2 5559   1.456   1.388   5.837
 1554SOL     OW 5560   2.887   1.457   4.025
 1554SOL    HW1 5561   2.987   1.462   4.022
 1554SOL    HW2 5562   2.859   1.377   4.079
 1555SOL     OW 5563   6.402   4.090   6.181
 1555SOL    HW1 5564   6.421   4.021   6.111
 1555SOL    HW2 5565   6.468   4.082   6.255
 1556SOL     OW 5566   2.157   1.249   6.149
 1556SOL    HW1 5567   2.253   1.278   6.147
 1556SOL    HW2 5568   2.104   1.316   6.201
 1557SOL     OW 5569   0.330   2.858   6.715
 1557SOL    HW1 5570   0.348   2.903   6.628
 1557SOL    HW2 5571   0.416   2.832   6.758
 1558SOL     OW 5572   0.527   7.009   5.031
 1558SOL    HW1 5573   0.490   6.959   4.953
 1558SOL    HW2 5574   0.523   0.085   5.013
 1559SOL     OW 5575   1.342   2.088   6.260
 1559SOL    HW1 5576   1.329   1.999   6.218
 1559SOL    HW2 5577   1.437   2.117   6.246
 1560SOL     OW 5578   6.695   0.294   6.672
 1560SOL    HW1 5579   6.712   0.351   6.752
 1560SOL    HW2 5580   6.770   0.306   6.607
 1561SOL     OW 5581   5.649   5.795   3.019
 1561SOL    HW1 5582   5.710   5.787   2.940
 1561SOL    HW2 5583   5.576   5.726   3.011
 1562SOL     OW 5584   5.767   1.167   3.835
 1562SOL    HW1 5585   5.755   1.259   3.798
 1562SOL    HW2 5586   5.698   1.106   3.796
 1563SOL     OW 5587   4.047   0.224   5.135
 1563SOL    HW1 5588   4.117   0.223   5.064
 1563SOL    HW2 5589   4.044   0.315   5.177
 1564SOL     OW 5590   1.600   1.838   2.625
 1564SOL    HW1 5591   1.623   1.793   2.711
 1564SOL    HW2 5592   1.610   1.772   2.550
 1565SOL     OW 5593   5.474   4.043   1.982
 1565SOL    HW1 5594   5.517   3.999   1.903
 1565SOL    HW2 5595   5.449   4.137   1.958
 1566SOL     OW 5596   6.072   4.403   3.640
 1566SOL    HW1 5597   6.105   4.421   3.547
 1566SOL    HW2 5598   6.106   4.474   3.702
 1567SOL     OW 5599   6.576   5.805   5.532
 1567SOL    HW1 5600   6.563   5.856   5.618
 1567SOL    HW2 5601   6.559   5.708   5.548
 1568SOL     OW 5602   0.563   6.873   0.637
 1568SOL    HW1 5603   0.629   6.875   0.562
 1568SOL    HW2 5604   0.590   6.939   0.707
 1569SOL     OW 5605   3.595   5.975   5.089
 1569SOL    HW1 5606   3.562   5.943   5.000
 1569SOL    HW2 5607   3.692   5.999   5.081
 1570SOL     OW 5608   3.794   2.030   1.660
 1570SOL    HW1 5609   3.778   2.113   1.713
 1570SOL    HW2 5610   3.879   2.041   1.608
 1571SOL     OW 5611   6.414   4.557   1.301
 1571SOL    HW1 5612   6.456   4.502   1.373
 1571SOL    HW2 5613   6.366   4.635   1.341
 1572SOL     OW 5614   1.686   6.213   2.243
 1572SOL    HW1 5615   1.729   6.125   2.265
 1572SOL    HW2 5616   1.598   6.196   2.197
 1573SOL     OW 5617   3.891   0.384   1.176
 1573SOL    HW1 5618   3.801   0.369   1.136
 1573SOL    HW2 5619   3.890   0.468   1.230
 1574SOL     OW 5620   6.289   2.473   2.024
 1574SOL    HW1 5621   6.202   2.452   2.070
 1574SOL    HW2 5622   6.272   2.532   1.945
 1575SOL     OW 5623   2.439   2.831   0.798
 1575SOL    HW1 5624   2.377   2.792   0.866
 1575SOL    HW2 5625   2.531   2.838   0.837
 1576SOL     OW 5626   6.883   6.032   4.287
 1576SOL    HW1 5627   6.917   5.971   4.215
 1576SOL    HW2 5628   6.959   6.059   4.346
 1577SOL     OW 5629   1.750   0.694   0.274
 1577SOL    HW1 5630   1.819   0.764   0.252
 1577SOL    HW2 5631   1.790   0.627   0.336
 1578SOL     OW 5632   5.520   5.431   4.899
 1578SOL    HW1 5633   5.533   5.486   4.816
 1578SOL    HW2 5634   5.505   5.335   4.873
 1579SOL     OW 5635   0.972   0.188   3.787
 1579SOL    HW1 5636   0.884   0.144   3.767
 1579SOL    HW2 5637   0.983   0.269   3.729
 1580SOL     OW 5638   3.131   4.004   5.512
 1580SOL    HW1 5639   3.173   3.938   5.450
 1580SOL    HW2 5640   3.144   3.974   5.606
 1581SOL     OW 5641   0.005   3.685   4.408
 1581SOL    HW1 5642   0.079   3.651   4.465
 1581SOL    HW2 5643   6.995   3.773   4.444
 1582SOL     OW 5644   5.991   5.304   4.291
 1582SOL    HW1 5645   6.019   5.400   4.282
 1582SOL    HW2 5646   5.894   5.295   4.269
 1583SOL     OW 5647   1.600   2.478   3.040
 1583SOL    HW1 5648   1.582   2.562   3.091
 1583SOL    HW2 5649   1.613   2.500   2.943
 1584SOL     OW 5650   2.640   0.560   6.986
 1584SOL    HW1 5651   2.716   0.622   7.005
 1584SOL    HW2 5652   2.676   0.479   6.938
 1585SOL     OW 5653   5.737   1.960   5.693
 1585SOL    HW1 5654   5.670   1.890   5.718
 1585SOL    HW2 5655   5.691   2.037   5.650
 1586SOL     OW 5656   3.614   4.104   2.727
 1586SOL    HW1 5657   3.581   4.117   2.634
 1586SOL    HW2 5658   3.539   4.118   2.792
 1587SOL     OW 5659   2.693   6.090   6.709
 1587SOL    HW1 5660   2.780   6.041   6.718
 1587SOL    HW2 5661   2.671   6.137   6.795
 1588SOL     OW 5662   5.751   3.777   2.022
 1588SOL    HW1 5663   5.689   3.721   2.078
 1588SOL    HW2 5664   5.838   3.787   2.069
 1589SOL     OW 5665   5.301   4.273   3.939
 1589SOL    HW1 5666   5.241   4.233   3.868
 1589SOL    HW2 5667   5.370   4.205   3.966
 1590SOL     OW 5668   2.065   0.627   5.779
 1590SOL    HW1 5669   2.123   0.708   5.769
 1590SOL    HW2 5670   1.974   0.648   5.745
 1591SOL     OW 5671   0.470   4.578   1.760
 1591SOL    HW1 5672   0.542   4.550   1.696
 1591SOL    HW2 5673   0.494   4.667   1.799
 1592SOL     OW 5674   3.321   3.273   2.540
 1592SOL    HW1 5675   3.305   3.181   2.576
 1592SOL    HW2 5676   3.236   3.326   2.545
 1593SOL     OW 5677   0.800   5.564   5.460
 1593SOL    HW1 5678   0.863   5.488   5.479
 1593SOL    HW2 5679   0.772   5.561   5.364
 1594SOL     OW 5680   6.974   5.147   3.457
 1594SOL    HW1 5681   0.002   5.206   3.394
 1594SOL    HW2 5682   6.946   5.200   3.537
 1595SOL     OW 5683   0.528   4.782   5.893
 1595SOL    HW1 5684   0.545   4.811   5.987
 1595SOL    HW2 5685   0.527   4.682   5.888
 1596SOL     OW 5686   2.454   5.352   6.659
 1596SOL    HW1 5687   2.383   5.422   6.671
 1596SOL    HW2 5688   2.544   5.397   6.655
 1597SOL     OW 5689   2.632   0.091   0.894
 1597SOL    HW1 5690   2.729   0.068   0.893
 1597SOL    HW2 5691   2.579   0.009   0.919
 1598SOL     OW 5692   0.206   5.674   1.440
 1598SOL    HW1 5693   0.125   5.640   1.489
 1598SOL    HW2 5694   0.279   5.692   1.505
 1599SOL     OW 5695   3.437   5.224   6.849
 1599SOL    HW1 5696   3.537   5.221   6.853
 1599SOL    HW2 5697   3.400   5.211   6.941
 1600SOL     OW 5698   4.009   1.218   4.673
 1600SOL    HW1 5699   4.082   1.277   4.706
 1600SOL    HW2 5700   3.924   1.238   4.723
 1601SOL     OW 5701   1.048   5.223   4.233
 1601SOL    HW1 5702   1.090   5.230   4.323
 1601SOL    HW2 5703   0.950   5.207   4.243
 1602SOL     OW 5704   1.252   4.503   3.402
 1602SOL    HW1 5705   1.321   4.550   3.456
 1602SOL    HW2 5706   1.278   4.505   3.306
 1603SOL     OW 5707   6.773   6.889   1.098
 1603SOL    HW1 5708   6.741   6.913   1.190
 1603SOL    HW2 5709   6.817   6.969   1.056
 1604SOL     OW 5710   0.560   5.542   5.633
 1604SOL    HW1 5711   0.538   5.444   5.635
 1604SOL    HW2 5712   0.638   5.556   5.572
 1605SOL     OW 5713   5.432   6.644   2.983
 1605SOL    HW1 5714   5.387   6.674   3.068
 1605SOL    HW2 5715   5.524   6.611   3.004
 1606SOL     OW 5716   4.830   6.701   5.951
 1606SOL    HW1 5717   4.896   6.687   5.878
 1606SOL    HW2 5718   4.782   6.616   5.970
 1607SOL     OW 5719   4.275   2.335   0.909
 1607SOL    HW1 5720   4.266   2.241   0.878
 1607SOL    HW2 5721   4.208   2.393   0.862
 1608SOL     OW 5722   2.500   0.336   0.905
 1608SOL    HW1 5723   2.528   0.248   0.943
 1608SOL    HW2 5724   2.555   0.409   0.946
 1609SOL     OW 5725   4.467   1.891   5.113
 1609SOL    HW1 5726   4.492   1.805   5.068
 1609SOL    HW2 5727   4.508   1.967   5.064
 1610SOL     OW 5728   5.694   5.770   4.227
 1610SOL    HW1 5729   5.777   5.792   4.279
 1610SOL    HW2 5730   5.627   5.726   4.287
 1611SOL     OW 5731   3.085   3.587   1.140
 1611SOL    HW1 5732   3.047   3.655   1.203
 1611SOL    HW2 5733   3.065   3.495   1.175
 1612SOL     OW 5734   3.563   0.918   4.183
 1612SOL    HW1 5735   3.527   0.938   4.274
 1612SOL    HW2 5736   3.639   0.980   4.164
 1613SOL     OW 5737   1.683   5.969   0.498
 1613SOL    HW1 5738   1.616   6.011   0.437
 1613SOL    HW2 5739   1.721   6.039   0.558
 1614SOL     OW 5740   0.101   2.650   6.724
 1614SOL    HW1 5741   0.176   2.707   6.689
 1614SOL    HW2 5742   0.066   2.592   6.650
 1615SOL     OW 5743   6.459   4.851   6.428
 1615SOL    HW1 5744   6.405   4.804   6.498
 1615SOL    HW2 5745   6.499   4.934   6.467
 1616SOL     OW 5746   2.827   1.523   5.374
 1616SOL    HW1 5747   2.896   1.566   5.433
 1616SOL    HW2 5748   2.740   1.572   5.384
 1617SOL     OW 5749   4.663   0.605   4.069
 1617SOL    HW1 5750   4.596   0.531   4.080
 1617SOL    HW2 5751   4.719   0.611   4.152
 1618SOL     OW 5752   5.517   2.575   0.732
 1618SOL    HW1 5753   5.569   2.493   0.756
 1618SOL    HW2 5754   5.465   2.557   0.648
 1619SOL     OW 5755   1.760   3.212   4.639
 1619SOL    HW1 5756   1.763   3.306   4.606
 1619SOL    HW2 5757   1.753   3.211   4.739
 1620SOL     OW 5758   3.706   5.171   1.506
 1620SOL    HW1 5759   3.616   5.209   1.527
 1620SOL    HW2 5760   3.696   5.075   1.480
 1621SOL     OW 5761   1.369   1.174   1.496
 1621SOL    HW1 5762   1.433   1.112   1.542
 1621SOL    HW2 5763   1.290   1.191   1.556
 1622SOL     OW 5764   2.233   2.182   4.316
 1622SOL    HW1 5765   2.227   2.267   4.368
 1622SOL    HW2 5766   2.173   2.187   4.236
 1623SOL     OW 5767   2.967   2.088   5.042
 1623SOL    HW1 5768   3.035   2.024   5.079
 1623SOL    HW2 5769   3.014   2.161   4.992
 1624SOL     OW 5770   2.331   0.642   0.697
 1624SOL    HW1 5771   2.319   0.576   0.771
 1624SOL    HW2 5772   2.410   0.616   0.642
 1625SOL     OW 5773   6.612   5.574   1.842
 1625SOL    HW1 5774   6.516   5.602   1.846
 1625SOL    HW2 5775   6.627   5.518   1.761
 1626SOL     OW 5776   2.158   2.601   6.117
 1626SOL    HW1 5777   2.212   2.592   6.033
 1626SOL    HW2 5778   2.093   2.526   6.124
 1627SOL     OW 5779   5.156   3.173   3.765
 1627SOL    HW1 5780   5.070   3.176   3.816
 1627SOL    HW2 5781   5.230   3.205   3.824
 1628SOL     OW 5782   2.912   3.099   0.406
 1628SOL    HW1 5783   2.841   3.067   0.343
 1628SOL    HW2 5784   3.001   3.064   0.375
 1629SOL     OW 5785   4.708   2.300   3.608
 1629SOL    HW1 5786   4.663   2.243   3.539
 1629SOL    HW2 5787   4.648   2.377   3.631
 1630SOL     OW 5788   0.048   5.089   4.296
 1630SOL    HW1 5789   0.051   5.082   4.196
 1630SOL    HW2 5790   6.999   5.028   4.331
 1631SOL     OW 5791   0.597   6.600   5.644
 1631SOL    HW1 5792   0.569   6.648   5.727
 1631SOL    HW2 5793   0.609   6.503   5.665
 1632SOL     OW 5794   6.211   0.242   1.786
 1632SOL    HW1 5795   6.191   0.234   1.689
 1632SOL    HW2 5796   6.235   0.336   1.809
 1633SOL     OW 5797   5.631   2.759   3.383
 1633SOL    HW1 5798   5.721   2.758   3.428
 1633SOL    HW2 5799   5.565   2.803   3.443
 1634SOL     OW 5800   3.511   0.747   6.817
 1634SOL    HW1 5801   3.520   0.834   6.865
 1634SOL    HW2 5802   3.542   0.672   6.876
 1635SOL     OW 5803   0.662   5.318   3.537
 1635SOL    HW1 5804   0.693   5.261   3.613
 1635SOL    HW2 5805   0.659   5.414   3.566
 1636SOL     OW 5806   2.428   6.065   1.500
 1636SOL    HW1 5807   2.334   6.097   1.486
 1636SOL    HW2 5808   2.426   5.976   1.546
 1637SOL     OW 5809   0.015   3.284   2.631
 1637SOL    HW1 5810   0.096   3.280   2.690
 1637SOL    HW2 5811   0.030   3.225   2.551
 1638SOL     OW 5812   1.776   2.949   5.182
 1638SOL    HW1 5813   1.696   2.912   5.134
 1638SOL    HW2 5814   1.860   2.915   5.138
 1639SOL     OW 5815   4.881   4.539   2.650
 1639SOL    HW1 5816   4.853   4.613   2.712
 1639SOL    HW2 5817   4.965   4.566   2.603
 1640SOL     OW 5818   6.252   0.594   1.156
 1640SOL    HW1 5819   6.235   0.565   1.250
 1640SOL    HW2 5820   6.308   0.526   1.110
 1641SOL     OW 5821   6.481   2.735   5.304
 1641SOL    HW1 5822   6.407   2.801   5.306
 1641SOL    HW2 5823   6.529   2.737   5.392
 1642SOL     OW 5824   0.752   2.347   1.452
 1642SOL    HW1 5825   0.723   2.354   1.547
 1642SOL    HW2 5826   0.683   2.299   1.399
 1643SOL     OW 5827   4.023   0.621   5.747
 1643SOL    HW1 5828   3.955   0.688   5.714
 1643SOL    HW2 5829   3.976   0.547   5.795
 1644SOL     OW 5830   3.478   1.110   1.344
 1644SOL    HW1 5831   3.391   1.150   1.314
 1644SOL    HW2 5832   3.522   1.066   1.266
 1645SOL     OW 5833   2.068   6.741   6.255
 1645SOL    HW1 5834   1.992   6.677   6.263
 1645SOL    HW2 5835   2.152   6.691   6.234
 1646SOL     OW 5836   0.831   3.639   1.127
 1646SOL    HW1 5837   0.849   3.549   1.088
 1646SOL    HW2 5838   0.807   3.629   1.223
 1647SOL     OW 5839   6.157   2.717   3.618
 1647SOL    HW1 5840   6.232   2.653   3.636
 1647SOL    HW2 5841   6.090   2.710   3.692
 1648SOL     OW 5842   4.481   7.002   2.115
 1648SOL    HW1 5843   4.475   0.079   2.123
 1648SOL    HW2 5844   4.450   6.960   2.200
 1649SOL     OW 5845   3.411   0.503   3.114
 1649SOL    HW1 5846   3.426   0.519   3.211
 1649SOL    HW2 5847   3.498   0.504   3.066
 1650SOL     OW 5848   2.864   6.382   3.891
 1650SOL    HW1 5849   2.902   6.302   3.844
 1650SOL    HW2 5850   2.939   6.435   3.932
 1651SOL     OW 5851   1.661   6.527   0.841
 1651SOL    HW1 5852   1.577   6.570   0.876
 1651SOL    HW2 5853   1.739   6.585   0.862
 1652SOL     OW 5854   2.732   2.793   1.682
 1652SOL    HW1 5855   2.782   2.723   1.732
 1652SOL    HW2 5856   2.704   2.757   1.593
 1653SOL     OW 5857   0.907   5.404   0.590
 1653SOL    HW1 5858   0.919   5.377   0.495
 1653SOL    HW2 5859   0.814   5.438   0.603
 1654SOL     OW 5860   0.157   2.628   3.092
 1654SOL    HW1 5861   0.245   2.675   3.083
 1654SOL    HW2 5862   0.132   2.622   3.188
 1655SOL     OW 5863   4.770   4.723   5.795
 1655SOL    HW1 5864   4.736   4.813   5.822
 1655SOL    HW2 5865   4.868   4.729   5.776
 1656SOL     OW 5866   0.767   4.218   3.060
 1656SOL    HW1 5867   0.690   4.170   3.101
 1656SOL    HW2 5868   0.819   4.155   3.001
 1657SOL     OW 5869   1.015   7.010   5.640
 1657SOL    HW1 5870   1.051   0.058   5.701
 1657SOL    HW2 5871   0.922   0.011   5.613
 1658SOL     OW 5872   6.060   6.260   2.907
 1658SOL    HW1 5873   6.148   6.271   2.953
 1658SOL    HW2 5874   6.023   6.169   2.925
 1659SOL     OW 5875   4.359   2.194   5.581
 1659SOL    HW1 5876   4.385   2.125   5.514
 1659SOL    HW2 5877   4.435   2.257   5.597
 1660SOL     OW 5878   1.780   5.541   3.324
 1660SOL    HW1 5879   1.731   5.568   3.407
 1660SOL    HW2 5880   1.718   5.544   3.246
 1661SOL     OW 5881   2.584   0.340   2.251
 1661SOL    HW1 5882   2.677   0.376   2.245
 1661SOL    HW2 5883   2.562   0.288   2.169
 1662SOL     OW 5884   0.762   0.357   3.619
 1662SOL    HW1 5885   0.750   0.262   3.646
 1662SOL    HW2 5886   0.676   0.407   3.633
 1663SOL     OW 5887   2.986   6.951   3.381
 1663SOL    HW1 5888   3.010   6.943   3.478
 1663SOL    HW2 5889   3.017   6.869   3.332
 1664SOL     OW 5890   2.351   5.723   4.472
 1664SOL    HW1 5891   2.335   5.814   4.512
 1664SOL    HW2 5892   2.289   5.711   4.394
 1665SOL     OW 5893   0.678   6.520   5.315
 1665SOL    HW1 5894   0.646   6.597   5.260
 1665SOL    HW2 5895   0.777   6.525   5.325
 1666SOL     OW 5896   5.740   2.837   6.321
 1666SOL    HW1 5897   5.735   2.738   6.335
 1666SOL    HW2 5898   5.770   2.881   6.405
 1667SOL     OW 5899   6.603   0.651   6.219
 1667SOL    HW1 5900   6.604   0.586   6.143
 1667SOL    HW2 5901   6.693   0.694   6.228
 1668SOL     OW 5902   3.475   1.092   5.210
 1668SOL    HW1 5903   3.425   1.129   5.289
 1668SOL    HW2 5904   3.459   0.994   5.203
 1669SOL     OW 5905   5.680   6.636   6.567
 1669SOL    HW1 5906   5.723   6.666   6.481
 1669SOL    HW2 5907   5.650   6.716   6.619
 1670SOL     OW 5908   5.467   4.246   5.750
 1670SOL    HW1 5909   5.525   4.306   5.695
 1670SOL    HW2 5910   5.371   4.264   5.729
 1671SOL     OW 5911   5.275   4.448   0.156
 1671SOL    HW1 5912   5.242   4.444   0.062
 1671SOL    HW2 5913   5.255   4.538   0.195
 1672SOL     OW 5914   2.180   5.361   2.649
 1672SOL    HW1 5915   2.245   5.302   2.600
 1672SOL    HW2 5916   2.095   5.311   2.665
 1673SOL     OW 5917   6.757   1.812   4.077
 1673SOL    HW1 5918   6.838   1.796   4.133
 1673SOL    HW2 5919   6.686   1.746   4.102
 1674SOL     OW 5920   1.057   4.876   6.248
 1674SOL    HW1 5921   1.026   4.782   6.232
 1674SOL    HW2 5922   1.157   4.880   6.244
 1675SOL     OW 5923   4.502   2.697   6.718
 1675SOL    HW1 5924   4.408   2.731   6.707
 1675SOL    HW2 5925   4.501   2.615   6.776
 1676SOL     OW 5926   2.356   0.883   3.387
 1676SOL    HW1 5927   2.315   0.975   3.389
 1676SOL    HW2 5928   2.310   0.825   3.454
 1677SOL     OW 5929   6.350   0.970   5.419
 1677SOL    HW1 5930   6.355   1.002   5.513
 1677SOL    HW2 5931   6.324   1.046   5.359
 1678SOL     OW 5932   5.477   6.799   1.335
 1678SOL    HW1 5933   5.446   6.883   1.290
 1678SOL    HW2 5934   5.447   6.720   1.280
 1679SOL     OW 5935   0.063   4.078   0.077
 1679SOL    HW1 5936   7.019   4.148   0.053
 1679SOL    HW2 5937   0.026   4.018   0.148
 1680SOL     OW 5938   0.985   1.772   4.861
 1680SOL    HW1 5939   0.991   1.817   4.950
 1680SOL    HW2 5940   1.074   1.733   4.837
 1681SOL     OW 5941   5.843   5.570   1.492
 1681SOL    HW1 5942   5.820   5.611   1.403
 1681SOL    HW2 5943   5.941   5.550   1.495
 1682SOL     OW 5944   6.282   3.328   5.479
 1682SOL    HW1 5945   6.216   3.310   5.406
 1682SOL    HW2 5946   6.319   3.421   5.468
 1683SOL     OW 5947   5.761   5.436   0.419
 1683SOL    HW1 5948   5.696   5.362   0.435
 1683SOL    HW2 5949   5.771   5.451   0.321
 1684SOL     OW 5950   0.654   5.856   4.649
 1684SOL    HW1 5951   0.659   5.764   4.686
 1684SOL    HW2 5952   0.742   5.881   4.609
 1685SOL     OW 5953   1.336   1.908   6.778
 1685SOL    HW1 5954   1.299   1.980   6.838
 1685SOL    HW2 5955   1.338   1.821   6.828
 1686SOL     OW 5956   1.667   5.839   6.528
 1686SOL    HW1 5957   1.651   5.741   6.527
 1686SOL    HW2 5958   1.748   5.860   6.473
 1687SOL     OW 5959   1.411   0.654   1.589
 1687SOL    HW1 5960   1.349   0.579   1.567
 1687SOL    HW2 5961   1.504   0.630   1.563
 1688SOL     OW 5962   0.638   1.986   3.385
 1688SOL    HW1 5963   0.632   1.921   3.461
 1688SOL    HW2 5964   0.658   1.937   3.300
 1689SOL     OW 5965   2.873   1.309   2.398
 1689SOL    HW1 5966   2.825   1.221   2.399
 1689SOL    HW2 5967   2.971   1.294   2.410
 1690SOL     OW 5968   0.580   2.221   1.287
 1690SOL    HW1 5969   0.481   2.209   1.283
 1690SOL    HW2 5970   0.606   2.303   1.236
 1691SOL     OW 5971   4.678   5.239   2.690
 1691SOL    HW1 5972   4.642   5.170   2.627
 1691SOL    HW2 5973   4.608   5.308   2.707
 1692SOL     OW 5974   1.529   0.908   4.127
 1692SOL    HW1 5975   1.553   1.004   4.139
 1692SOL    HW2 5976   1.434   0.901   4.095
 1693SOL     OW 5977   2.523   2.409   3.565
 1693SOL    HW1 5978   2.467   2.327   3.552
 1693SOL    HW2 5979   2.620   2.386   3.550
 1694SOL     OW 5980   4.684   6.202   5.934
 1694SOL    HW1 5981   4.586   6.218   5.939
 1694SOL    HW2 5982   4.706   6.113   5.974
 1695SOL     OW 5983   2.393   1.964   5.873
 1695SOL    HW1 5984   2.469   1.966   5.938
 1695SOL    HW2 5985   2.375   2.057   5.841
 1696SOL     OW 5986   3.218   5.383   1.004
 1696SOL    HW1 5987   3.122   5.364   0.981
 1696SOL    HW2 5988   3.252   5.456   0.944
 1697SOL     OW 5989   0.885   1.537   1.923
 1697SOL    HW1 5990   0.858   1.477   1.848
 1697SOL    HW2 5991   0.871   1.490   2.010
 1698SOL     OW 5992   5.170   1.964   0.607
 1698SOL    HW1 5993   5.264   1.949   0.636
 1698SOL    HW2 5994   5.109   1.908   0.662
 1699SOL     OW 5995   2.257   3.858   0.912
 1699SOL    HW1 5996   2.251   3.912   0.996
 1699SOL    HW2 5997   2.347   3.816   0.906
 1700SOL     OW 5998   6.456   3.086   4.262
 1700SOL    HW1 5999   6.526   3.034   4.311
 1700SOL    HW2 6000   6.394   3.023   4.216
 1701SOL     OW 6001   5.902   3.463   4.616
 1701SOL    HW1 6002   5.907   3.515   4.531
 1701SOL    HW2 6003   5.977   3.491   4.676
 1702SOL     OW 6004   4.574   2.857   1.291
 1702SOL    HW1 6005   4.584   2.909   1.207
 1702SOL    HW2 6006   4.477   2.853   1.316
 1703SOL     OW 6007   1.840   4.144   0.334
 1703SOL    HW1 6008   1.766   4.094   0.379
 1703SOL    HW2 6009   1.838   4.126   0.236
 1704SOL     OW 6010   0.984   1.227   2.125
 1704SOL    HW1 6011   1.072   1.225   2.173
 1704SOL    HW2 6012   0.967   1.139   2.082
 1705SOL     OW 6013   3.918   3.489   1.813
 1705SOL    HW1 6014   4.008   3.523   1.839
 1705SOL    HW2 6015   3.927   3.410   1.753
 1706SOL     OW 6016   2.725   0.993   6.734
 1706SOL    HW1 6017   2.786   1.065   6.703
 1706SOL    HW2 6018   2.635   1.006   6.692
 1707SOL     OW 6019   6.264   1.454   2.941
 1707SOL    HW1 6020   6.311   1.392   2.879
 1707SOL    HW2 6021   6.300   1.442   3.034
 1708SOL     OW 6022   0.106   4.601   2.062
 1708SOL    HW1 6023   0.157   4.548   1.994
 1708SOL    HW2 6024   0.112   4.698   2.041
 1709SOL     OW 6025   3.494   5.371   3.940
 1709SOL    HW1 6026   3.469   5.377   3.844
 1709SOL    HW2 6027   3.415   5.340   3.993
 1710SOL     OW 6028   7.016   5.825   3.883
 1710SOL    HW1 6029   6.957   5.825   3.964
 1710SOL    HW2 6030   6.990   5.749   3.824
 1711SOL     OW 6031   1.543   4.517   5.590
 1711SOL    HW1 6032   1.637   4.549   5.600
 1711SOL    HW2 6033   1.481   4.595   5.599
 1712SOL     OW 6034   1.285   4.949   1.027
 1712SOL    HW1 6035   1.256   4.867   0.978
 1712SOL    HW2 6036   1.217   4.972   1.096
 1713SOL     OW 6037   1.483   3.524   0.357
 1713SOL    HW1 6038   1.407   3.458   0.355
 1713SOL    HW2 6039   1.450   3.610   0.397
 1714SOL     OW 6040   3.652   1.710   0.351
 1714SOL    HW1 6041   3.609   1.646   0.287
 1714SOL    HW2 6042   3.670   1.796   0.304
 1715SOL     OW 6043   0.331   3.318   3.628
 1715SOL    HW1 6044   0.371   3.226   3.632
 1715SOL    HW2 6045   0.309   3.349   3.720
 1716SOL     OW 6046   0.553   6.776   0.301
 1716SOL    HW1 6047   0.467   6.742   0.339
 1716SOL    HW2 6048   0.601   6.702   0.254
 1717SOL     OW 6049   3.531   0.253   0.430
 1717SOL    HW1 6050   3.467   0.238   0.506
 1717SOL    HW2 6051   3.511   0.340   0.385
 1718SOL     OW 6052   0.929   4.755   5.046
 1718SOL    HW1 6053   0.871   4.815   5.101
 1718SOL    HW2 6054   0.975   4.809   4.975
 1719SOL     OW 6055   2.304   3.391   1.498
 1719SOL    HW1 6056   2.286   3.374   1.594
 1719SOL    HW2 6057   2.351   3.312   1.459
 1720SOL     OW 6058   6.531   1.780   1.347
 1720SOL    HW1 6059   6.462   1.710   1.329
 1720SOL    HW2 6060   6.603   1.742   1.404
 1721SOL     OW 6061   2.104   6.290   3.495
 1721SOL    HW1 6062   2.004   6.296   3.491
 1721SOL    HW2 6063   2.132   6.198   3.466
 1722SOL     OW 6064   5.488   6.746   2.064
 1722SOL    HW1 6065   5.534   6.820   2.113
 1722SOL    HW2 6066   5.556   6.690   2.017
 1723SOL     OW 6067   5.994   1.165   1.954
 1723SOL    HW1 6068   6.026   1.144   1.861
 1723SOL    HW2 6069   6.006   1.263   1.971
 1724SOL     OW 6070   4.964   0.690   0.007
 1724SOL    HW1 6071   4.997   0.678   0.100
 1724SOL    HW2 6072   4.924   0.604   6.998
 1725SOL     OW 6073   4.261   4.937   1.733
 1725SOL    HW1 6074   4.237   4.840   1.738
 1725SOL    HW2 6075   4.356   4.949   1.762
 1726SOL     OW 6076   0.306   5.073   4.642
 1726SOL    HW1 6077   0.288   4.981   4.607
 1726SOL    HW2 6078   0.221   5.125   4.643
 1727SOL     OW 6079   3.556   3.569   5.160
 1727SOL    HW1 6080   3.489   3.567   5.234
 1727SOL    HW2 6081   3.513   3.537   5.075
 1728SOL     OW 6082   4.699   4.139   3.350
 1728SOL    HW1 6083   4.723   4.177   3.261
 1728SOL    HW2 6084   4.754   4.057   3.367
 1729SOL     OW 6085   1.845   3.177   2.666
 1729SOL    HW1 6086   1.789   3.226   2.599
 1729SOL    HW2 6087   1.938   3.168   2.630
 1730SOL     OW 6088   5.729   2.043   4.789
 1730SOL    HW1 6089   5.810   2.028   4.733
 1730SOL    HW2 6090   5.647   2.026   4.734
 1731SOL     OW 6091   1.176   5.293   0.216
 1731SOL    HW1 6092   1.270   5.322   0.232
 1731SOL    HW2 6093   1.159   5.207   0.263
 1732SOL     OW 6094   0.444   4.591   0.292
 1732SOL    HW1 6095   0.488   4.549   0.212
 1732SOL    HW2 6096   0.513   4.642   0.344
 1733SOL     OW 6097   1.196   4.132   0.599
 1733SOL    HW1 6098   1.181   4.154   0.696
 1733SOL    HW2 6099   1.136   4.057   0.572
 1734SOL     OW 6100   4.896   3.327   0.982
 1734SOL    HW1 6101   4.849   3.378   1.055
 1734SOL    HW2 6102   4.828   3.290   0.919
 1735SOL     OW 6103   5.561   5.405   1.950
 1735SOL    HW1 6104   5.632   5.351   1.904
 1735SOL    HW2 6105   5.556   5.377   2.046
 1736SOL     OW 6106   3.087   3.419   0.458
 1736SOL    HW1 6107   3.094   3.472   0.374
 1736SOL    HW2 6108   2.991   3.402   0.480
 1737SOL     OW 6109   1.610   5.967   3.675
 1737SOL    HW1 6110   1.597   5.901   3.601
 1737SOL    HW2 6111   1.594   5.922   3.763
 1738SOL     OW 6112   0.969   2.389   1.633
 1738SOL    HW1 6113   0.910   2.373   1.554
 1738SOL    HW2 6114   1.064   2.398   1.603
 1739SOL     OW 6115   4.057   1.704   5.525
 1739SOL    HW1 6116   4.031   1.729   5.618
 1739SOL    HW2 6117   4.024   1.611   5.505
 1740SOL     OW 6118   0.712   1.114   6.125
 1740SOL    HW1 6119   0.758   1.046   6.067
 1740SOL    HW2 6120   0.770   1.196   6.131
 1741SOL     OW 6121   1.685   0.558   2.566
 1741SOL    HW1 6122   1.599   0.526   2.526
 1741SOL    HW2 6123   1.742   0.480   2.592
 1742SOL     OW 6124   5.772   0.519   4.502
 1742SOL    HW1 6125   5.808   0.608   4.473
 1742SOL    HW2 6126   5.803   0.448   4.439
 1743SOL     OW 6127   4.563   1.120   0.726
 1743SOL    HW1 6128   4.516   1.034   0.708
 1743SOL    HW2 6129   4.657   1.115   0.693
 1744SOL     OW 6130   3.001   0.773   1.663
 1744SOL    HW1 6131   3.011   0.835   1.585
 1744SOL    HW2 6132   3.065   0.697   1.653
 1745SOL     OW 6133   7.016   2.188   4.426
 1745SOL    HW1 6134   6.934   2.176   4.482
 1745SOL    HW2 6135   6.992   2.236   4.342
 1746SOL     OW 6136   2.790   0.339   5.708
 1746SOL    HW1 6137   2.817   0.388   5.792
 1746SOL    HW2 6138   2.744   0.403   5.647
 1747SOL     OW 6139   4.238   0.478   0.755
 1747SOL    HW1 6140   4.217   0.419   0.677
 1747SOL    HW2 6141   4.266   0.569   0.722
 1748SOL     OW 6142   5.801   2.052   1.611
 1748SOL    HW1 6143   5.786   2.122   1.541
 1748SOL    HW2 6144   5.716   2.038   1.663
 1749SOL     OW 6145   4.726   6.905   6.122
 1749SOL    HW1 6146   4.768   6.821   6.085
 1749SOL    HW2 6147   4.642   6.924   6.072
 1750SOL     OW 6148   5.011   0.572   3.411
 1750SOL    HW1 6149   5.104   0.540   3.430
 1750SOL    HW2 6150   4.981   0.632   3.484
 1751SOL     OW 6151   2.188   5.683   3.870
 1751SOL    HW1 6152   2.130   5.607   3.841
 1751SOL    HW2 6153   2.277   5.648   3.899
 1752SOL     OW 6154   6.296   2.372   0.261
 1752SOL    HW1 6155   6.255   2.384   0.171
 1752SOL    HW2 6156   6.283   2.455   0.316
 1753SOL     OW 6157   2.456   0.561   2.181
 1753SOL    HW1 6158   2.444   0.641   2.240
 1753SOL    HW2 6159   2.506   0.491   2.231
 1754SOL     OW 6160   3.568   2.882   1.052
 1754SOL    HW1 6161   3.579   2.827   0.969
 1754SOL    HW2 6162   3.491   2.944   1.040
 1755SOL     OW 6163   5.075   3.447   0.721
 1755SOL    HW1 6164   5.093   3.479   0.814
 1755SOL    HW2 6165   5.124   3.361   0.705
 1756SOL     OW 6166   6.049   5.566   4.273
 1756SOL    HW1 6167   5.974   5.607   4.325
 1756SOL    HW2 6168   6.128   5.627   4.275
 1757SOL     OW 6169   2.980   6.697   4.361
 1757SOL    HW1 6170   2.974   6.794   4.384
 1757SOL    HW2 6171   2.923   6.677   4.282
 1758SOL     OW 6172   2.569   1.220   3.514
 1758SOL    HW1 6173   2.533   1.168   3.437
 1758SOL    HW2 6174   2.559   1.167   3.598
 1759SOL     OW 6175   0.188   5.521   5.978
 1759SOL    HW1 6176   0.149   5.457   6.044
 1759SOL    HW2 6177   0.209   5.473   5.893
 1760SOL     OW 6178   5.620   0.700   2.504
 1760SOL    HW1 6179   5.672   0.628   2.459
 1760SOL    HW2 6180   5.540   0.660   2.549
 1761SOL     OW 6181   6.245   2.752   1.249
 1761SOL    HW1 6182   6.275   2.767   1.343
 1761SOL    HW2 6183   6.312   2.695   1.201
 1762SOL     OW 6184   5.923   2.358   6.558
 1762SOL    HW1 6185   5.922   2.259   6.570
 1762SOL    HW2 6186   5.913   2.379   6.460
 1763SOL     OW 6187   2.209   3.880   3.657
 1763SOL    HW1 6188   2.213   3.933   3.742
 1763SOL    HW2 6189   2.243   3.787   3.674
 1764SOL     OW 6190   6.656   2.829   4.056
 1764SOL    HW1 6191   6.644   2.745   4.108
 1764SOL    HW2 6192   6.717   2.891   4.105
 1765SOL     OW 6193   3.071   2.482   5.996
 1765SOL    HW1 6194   3.149   2.541   6.017
 1765SOL    HW2 6195   3.030   2.448   6.081
 1766SOL     OW 6196   5.433   2.980   5.097
 1766SOL    HW1 6197   5.432   2.931   5.184
 1766SOL    HW2 6198   5.527   2.990   5.065
 1767SOL     OW 6199   5.802   3.620   2.299
 1767SOL    HW1 6200   5.848   3.538   2.267
 1767SOL    HW2 6201   5.867   3.678   2.349
 1768SOL     OW 6202   5.686   6.257   4.155
 1768SOL    HW1 6203   5.769   6.306   4.128
 1768SOL    HW2 6204   5.668   6.272   4.252
 1769SOL     OW 6205   5.251   1.432   3.100
 1769SOL    HW1 6206   5.186   1.496   3.141
 1769SOL    HW2 6207   5.222   1.338   3.120
 1770SOL     OW 6208   2.787   5.242   5.022
 1770SOL    HW1 6209   2.691   5.220   5.038
 1770SOL    HW2 6210   2.845   5.165   5.050
 1771SOL     OW 6211   4.683   5.973   6.333
 1771SOL    HW1 6212   4.780   5.995   6.343
 1771SOL    HW2 6213   4.650   5.929   6.416
 1772SOL     OW 6214   3.243   6.455   2.576
 1772SOL    HW1 6215   3.214   6.495   2.663
 1772SOL    HW2 6216   3.177   6.386   2.548
 1773SOL     OW 6217   0.344   5.393   0.073
 1773SOL    HW1 6218   0.410   5.330   0.032
 1773SOL    HW2 6219   0.393   5.470   0.114
 1774SOL     OW 6220   3.577   5.360   1.854
 1774SOL    HW1 6221   3.572   5.376   1.755
 1774SOL    HW2 6222   3.668   5.326   1.878
 1775SOL     OW 6223   0.534   4.821   1.861
 1775SOL    HW1 6224   0.528   4.921   1.864
 1775SOL    HW2 6225   0.543   4.786   1.954
 1776SOL     OW 6226   2.895   5.530   5.280
 1776SOL    HW1 6227   2.914   5.535   5.182
 1776SOL    HW2 6228   2.872   5.436   5.305
 1777SOL     OW 6229   3.866   6.075   0.453
 1777SOL    HW1 6230   3.914   5.988   0.444
 1777SOL    HW2 6231   3.769   6.058   0.471
 1778SOL     OW 6232   5.478   3.583   5.635
 1778SOL    HW1 6233   5.574   3.601   5.657
 1778SOL    HW2 6234   5.467   3.488   5.605
 1779SOL     OW 6235   3.149   6.613   5.096
 1779SOL    HW1 6236   3.176   6.517   5.088
 1779SOL    HW2 6237   3.132   6.635   5.192
 1780SOL     OW 6238   3.400   3.242   6.528
 1780SOL    HW1 6239   3.494   3.274   6.516
 1780SOL    HW2 6240   3.337   3.305   6.484
 1781SOL     OW 6241   3.661   5.423   3.087
 1781SOL    HW1 6242   3.728   5.394   3.019
 1781SOL    HW2 6243   3.702   5.491   3.148
 1782SOL     OW 6244   3.609   1.888   4.060
 1782SOL    HW1 6245   3.605   1.981   4.095
 1782SOL    HW2 6246   3.670   1.884   3.981
 1783SOL     OW 6247   1.407   5.448   0.602
 1783SOL    HW1 6248   1.472   5.507   0.650
 1783SOL    HW2 6249   1.387   5.487   0.513
 1784SOL     OW 6250   3.591   6.526   5.128
 1784SOL    HW1 6251   3.539   6.589   5.186
 1784SOL    HW2 6252   3.670   6.492   5.179
 1785SOL     OW 6253   6.613   4.171   2.842
 1785SOL    HW1 6254   6.648   4.208   2.928
 1785SOL    HW2 6255   6.556   4.091   2.861
 1786SOL     OW 6256   3.354   2.676   1.418
 1786SOL    HW1 6257   3.341   2.775   1.428
 1786SOL    HW2 6258   3.367   2.635   1.508
 1787SOL     OW 6259   3.408   0.222   5.885
 1787SOL    HW1 6260   3.320   0.263   5.861
 1787SOL    HW2 6261   3.397   0.123   5.895
 1788SOL     OW 6262   1.790   5.039   4.967
 1788SOL    HW1 6263   1.828   4.990   4.888
 1788SOL    HW2 6264   1.849   5.116   4.990
 1789SOL     OW 6265   6.314   1.494   6.948
 1789SOL    HW1 6266   6.226   1.492   6.997
 1789SOL    HW2 6267   6.347   1.588   6.942
 1790SOL     OW 6268   3.919   6.870   3.444
 1790SOL    HW1 6269   3.862   6.834   3.370
 1790SOL    HW2 6270   3.877   6.850   3.532
 1791SOL     OW 6271   0.135   6.647   2.783
 1791SOL    HW1 6272   0.183   6.704   2.849
 1791SOL    HW2 6273   0.074   6.704   2.727
 1792SOL     OW 6274   1.319   3.287   5.223
 1792SOL    HW1 6275   1.238   3.341   5.244
 1792SOL    HW2 6276   1.385   3.295   5.297
 1793SOL     OW 6277   0.408   0.250   3.704
 1793SOL    HW1 6278   0.425   0.211   3.614
 1793SOL    HW2 6279   0.362   0.339   3.694
 1794SOL     OW 6280   4.223   5.860   6.179
 1794SOL    HW1 6281   4.174   5.846   6.093
 1794SOL    HW2 6282   4.316   5.889   6.160
 1795SOL     OW 6283   0.874   2.995   0.564
 1795SOL    HW1 6284   0.924   2.997   0.478
 1795SOL    HW2 6285   0.854   2.900   0.589
 1796SOL     OW 6286   3.303   0.621   6.177
 1796SOL    HW1 6287   3.337   0.715   6.166
 1796SOL    HW2 6288   3.340   0.582   6.261
 1797SOL     OW 6289   0.952   6.992   0.978
 1797SOL    HW1 6290   0.944   0.046   1.042
 1797SOL    HW2 6291   0.875   6.994   0.915
 1798SOL     OW 6292   5.162   2.517   2.865
 1798SOL    HW1 6293   5.193   2.423   2.884
 1798SOL    HW2 6294   5.079   2.535   2.919
 1799SOL     OW 6295   1.548   1.681   6.508
 1799SOL    HW1 6296   1.570   1.681   6.606
 1799SOL    HW2 6297   1.603   1.750   6.461
 1800SOL     OW 6298   4.196   5.132   1.955
 1800SOL    HW1 6299   4.240   5.055   1.909
 1800SOL    HW2 6300   4.229   5.218   1.917
 1801SOL     OW 6301   6.336   6.821   0.726
 1801SOL    HW1 6302   6.278   6.874   0.666
 1801SOL    HW2 6303   6.339   6.863   0.817
 1802SOL     OW 6304   5.465   5.578   4.077
 1802SOL    HW1 6305   5.546   5.521   4.089
 1802SOL    HW2 6306   5.493   5.672   4.055
 1803SOL     OW 6307   6.549   5.223   1.083
 1803SOL    HW1 6308   6.619   5.233   1.012
 1803SOL    HW2 6309   6.593   5.212   1.172
 1804SOL     OW 6310   3.224   3.032   4.805
 1804SOL    HW1 6311   3.317   3.066   4.812
 1804SOL    HW2 6312   3.197   2.988   4.890
 1805SOL     OW 6313   4.668   3.105   6.639
 1805SOL    HW1 6314   4.762   3.078   6.618
 1805SOL    HW2 6315   4.631   3.045   6.709
 1806SOL     OW 6316   0.246   6.536   1.833
 1806SOL    HW1 6317   0.149   6.562   1.840
 1806SOL    HW2 6318   0.270   6.476   1.909
 1807SOL     OW 6319   5.911   1.129   5.340
 1807SOL    HW1 6320   6.005   1.154   5.366
 1807SOL    HW2 6321   5.856   1.120   5.422
 1808SOL     OW 6322   1.617   5.105   4.077
 1808SOL    HW1 6323   1.711   5.074   4.089
 1808SOL    HW2 6324   1.560   5.030   4.045
 1809SOL     OW 6325   3.581   0.458   6.582
 1809SOL    HW1 6326   3.598   0.491   6.675
 1809SOL    HW2 6327   3.653   0.394   6.556
 1810SOL     OW 6328   3.405   6.248   3.053
 1810SOL    HW1 6329   3.494   6.203   3.061
 1810SOL    HW2 6330   3.337   6.181   3.023
 1811SOL     OW 6331   5.875   4.987   3.673
 1811SOL    HW1 6332   5.803   4.989   3.603
 1811SOL    HW2 6333   5.878   5.075   3.720
 1812SOL     OW 6334   4.043   5.483   6.148
 1812SOL    HW1 6335   3.975   5.548   6.114
 1812SOL    HW2 6336   4.084   5.520   6.232
 1813SOL     OW 6337   6.230   4.762   5.877
 1813SOL    HW1 6338   6.151   4.751   5.817
 1813SOL    HW2 6339   6.207   4.726   5.968
 1814SOL     OW 6340   4.664   6.684   2.023
 1814SOL    HW1 6341   4.756   6.682   2.062
 1814SOL    HW2 6342   4.634   6.779   2.013
 1815SOL     OW 6343   0.483   0.434   3.373
 1815SOL    HW1 6344   0.551   0.456   3.303
 1815SOL    HW2 6345   0.515   0.466   3.462
 1816SOL     OW 6346   0.797   4.336   0.289
 1816SOL    HW1 6347   0.791   4.236   0.296
 1816SOL    HW2 6348   0.836   4.372   0.374
 1817SOL     OW 6349   2.221   6.222   2.094
 1817SOL    HW1 6350   2.158   6.147   2.074
 1817SOL    HW2 6351   2.215   6.291   2.022
 1818SOL     OW 6352   2.413   1.311   3.007
 1818SOL    HW1 6353   2.443   1.224   3.045
 1818SOL    HW2 6354   2.438   1.385   3.070
 1819SOL     OW 6355   1.882   4.684   2.156
 1819SOL    HW1 6356   1.932   4.726   2.081
 1819SOL    HW2 6357   1.840   4.598   2.125
 1820SOL     OW 6358   4.812   0.322   2.697
 1820SOL    HW1 6359   4.739   0.316   2.765
 1820SOL    HW2 6360   4.840   0.417   2.687
 1821SOL     OW 6361   2.917   2.165   3.100
 1821SOL    HW1 6362   2.971   2.242   3.067
 1821SOL    HW2 6363   2.960   2.079   3.070
 1822SOL     OW 6364   3.491   3.225   1.661
 1822SOL    HW1 6365   3.486   3.240   1.760
 1822SOL    HW2 6366   3.529   3.307   1.617
 1823SOL     OW 6367   3.990   6.624   2.453
 1823SOL    HW1 6368   4.051   6.691   2.410
 1823SOL    HW2 6369   3.900   6.664   2.466
 1824SOL     OW 6370   5.030   2.711   1.328
 1824SOL    HW1 6371   5.038   2.771   1.408
 1824SOL    HW2 6372   5.101   2.736   1.261
 1825SOL     OW 6373   1.191   1.048   1.874
 1825SOL    HW1 6374   1.235   0.960   1.858
 1825SOL    HW2 6375   1.112   1.036   1.934
 1826SOL     OW 6376   3.529   6.446   6.707
 1826SOL    HW1 6377   3.578   6.363   6.735
 1826SOL    HW2 6378   3.534   6.514   6.779
 1827SOL     OW 6379   6.642   6.104   1.381
 1827SOL    HW1 6380   6.586   6.175   1.338
 1827SOL    HW2 6381   6.625   6.016   1.337
 1828SOL     OW 6382   1.580   2.072   6.744
 1828SOL    HW1 6383   1.480   2.071   6.737
 1828SOL    HW2 6384   1.608   2.008   6.816
 1829SOL     OW 6385   5.743   5.026   1.977
 1829SOL    HW1 6386   5.762   4.931   1.954
 1829SOL    HW2 6387   5.762   5.084   1.898
 1830SOL     OW 6388   4.788   6.700   3.882
 1830SOL    HW1 6389   4.729   6.761   3.830
 1830SOL    HW2 6390   4.739   6.615   3.901
 1831SOL     OW 6391   4.937   0.076   2.773
 1831SOL    HW1 6392   4.889   0.162   2.754
 1831SOL    HW2 6393   5.001   0.090   2.849
 1832SOL     OW 6394   4.980   2.815   0.947
 1832SOL    HW1 6395   5.042   2.797   0.871
 1832SOL    HW2 6396   4.909   2.745   0.950
 1833SOL     OW 6397   5.989   1.910   5.797
 1833SOL    HW1 6398   6.048   1.990   5.804
 1833SOL    HW2 6399   5.900   1.937   5.760
 1834SOL     OW 6400   2.830   3.323   0.556
 1834SOL    HW1 6401   2.786   3.298   0.642
 1834SOL    HW2 6402   2.847   3.240   0.502
 1835SOL     OW 6403   1.539   4.608   0.082
 1835SOL    HW1 6404   1.530   4.707   0.070
 1835SOL    HW2 6405   1.630   4.579   0.054
 1836SOL     OW 6406   0.493   6.379   1.174
 1836SOL    HW1 6407   0.530   6.422   1.257
 1836SOL    HW2 6408   0.551   6.302   1.147
 1837SOL     OW 6409   0.874   2.547   4.750
 1837SOL    HW1 6410   0.874   2.622   4.816
 1837SOL    HW2 6411   0.959   2.548   4.698
 1838SOL     OW 6412   6.432   2.397   4.021
 1838SOL    HW1 6413   6.337   2.371   4.005
 1838SOL    HW2 6414   6.493   2.340   3.966
 1839SOL     OW 6415   0.073   2.365   5.804
 1839SOL    HW1 6416   0.049   2.396   5.712
 1839SOL    HW2 6417   0.067   2.265   5.809
 1840SOL     OW 6418   1.619   5.121   1.391
 1840SOL    HW1 6419   1.549   5.192   1.399
 1840SOL    HW2 6420   1.710   5.163   1.397
 1841SOL     OW 6421   1.602   2.509   3.795
 1841SOL    HW1 6422   1.684   2.509   3.738
 1841SOL    HW2 6423   1.577   2.415   3.817
 1842SOL     OW 6424   0.902   4.615   0.281
 1842SOL    HW1 6425   0.869   4.521   0.268
 1842SOL    HW2 6426   0.995   4.613   0.317
 1843SOL     OW 6427   3.262   1.821   4.609
 1843SOL    HW1 6428   3.216   1.759   4.547
 1843SOL    HW2 6429   3.194   1.868   4.666
 1844SOL     OW 6430   4.930   2.986   3.933
 1844SOL    HW1 6431   4.856   3.005   3.869
 1844SOL    HW2 6432   4.970   3.072   3.964
 1845SOL     OW 6433   4.375   0.606   0.250
 1845SOL    HW1 6434   4.284   0.632   0.279
 1845SOL    HW2 6435   4.389   0.629   0.154
 1846SOL     OW 6436   3.415   1.303   5.863
 1846SOL    HW1 6437   3.343   1.364   5.895
 1846SOL    HW2 6438   3.503   1.350   5.865
 1847SOL     OW 6439   0.711   7.022   0.809
 1847SOL    HW1 6440   0.757   0.068   0.753
 1847SOL    HW2 6441   0.657   0.045   0.880
 1848SOL     OW 6442   2.747   6.770   2.274
 1848SOL    HW1 6443   2.785   6.843   2.216
 1848SOL    HW2 6444   2.810   6.693   2.275
 1849SOL     OW 6445   2.562   1.810   6.645
 1849SOL    HW1 6446   2.543   1.896   6.693
 1849SOL    HW2 6447   2.525   1.733   6.697
 1850SOL     OW 6448   5.609   2.015   1.839
 1850SOL    HW1 6449   5.663   1.994   1.920
 1850SOL    HW2 6450   5.539   1.945   1.826
 1851SOL     OW 6451   6.741   2.493   2.670
 1851SOL    HW1 6452   6.801   2.561   2.628
 1851SOL    HW2 6453   6.792   2.443   2.740
 1852SOL     OW 6454   5.094   3.087   0.053
 1852SOL    HW1 6455   5.138   3.031   7.005
 1852SOL    HW2 6456   5.100   3.041   0.141
 1853SOL     OW 6457   1.635   4.874   0.428
 1853SOL    HW1 6458   1.551   4.903   0.472
 1853SOL    HW2 6459   1.708   4.940   0.447
 1854SOL     OW 6460   2.491   6.078   4.419
 1854SOL    HW1 6461   2.422   6.109   4.484
 1854SOL    HW2 6462   2.571   6.044   4.469
 1855SOL     OW 6463   4.963   4.816   1.800
 1855SOL    HW1 6464   5.010   4.892   1.845
 1855SOL    HW2 6465   5.025   4.771   1.736
 1856SOL     OW 6466   5.086   2.176   5.438
 1856SOL    HW1 6467   5.168   2.134   5.398
 1856SOL    HW2 6468   5.075   2.144   5.532
 1857SOL     OW 6469   4.846   1.110   2.970
 1857SOL    HW1 6470   4.753   1.122   3.005
 1857SOL    HW2 6471   4.905   1.182   3.006
 1858SOL     OW 6472   4.993   3.713   3.649
 1858SOL    HW1 6473   4.920   3.780   3.658
 1858SOL    HW2 6474   4.955   3.621   3.655
 1859SOL     OW 6475   5.043   1.713   2.910
 1859SOL    HW1 6476   5.048   1.626   2.862
 1859SOL    HW2 6477   5.116   1.773   2.877
 1860SOL     OW 6478   5.116   1.233   4.798
 1860SOL    HW1 6479   5.085   1.138   4.797
 1860SOL    HW2 6480   5.204   1.239   4.844
 1861SOL     OW 6481   5.814   6.520   2.458
 1861SOL    HW1 6482   5.742   6.534   2.389
 1861SOL    HW2 6483   5.789   6.569   2.542
 1862SOL     OW 6484   2.007   1.721   0.126
 1862SOL    HW1 6485   2.103   1.699   0.147
 1862SOL    HW2 6486   1.992   1.712   0.028
 1863SOL     OW 6487   2.889   3.119   1.488
 1863SOL    HW1 6488   2.834   3.075   1.559
 1863SOL    HW2 6489   2.965   3.059   1.462
 1864SOL     OW 6490   1.419   6.183   3.935
 1864SOL    HW1 6491   1.346   6.235   3.891
 1864SOL    HW2 6492   1.427   6.093   3.892
 1865SOL     OW 6493   4.428   2.226   6.631
 1865SOL    HW1 6494   4.375   2.274   6.561
 1865SOL    HW2 6495   4.367   2.193   6.702
 1866SOL     OW 6496   4.494   5.469   2.765
 1866SOL    HW1 6497   4.424   5.514   2.820
 1866SOL    HW2 6498   4.453   5.430   2.682
 1867SOL     OW 6499   0.969   4.020   6.661
 1867SOL    HW1 6500   1.000   4.010   6.755
 1867SOL    HW2 6501   0.967   4.118   6.637
 1868SOL     OW 6502   5.776   3.769   4.924
 1868SOL    HW1 6503   5.726   3.744   5.007
 1868SOL    HW2 6504   5.869   3.732   4.929
 1869SOL     OW 6505   6.282   1.216   5.282
 1869SOL    HW1 6506   6.291   1.300   5.335
 1869SOL    HW2 6507   6.323   1.229   5.192
 1870SOL     OW 6508   1.590   5.575   4.551
 1870SOL    HW1 6509   1.598   5.648   4.620
 1870SOL    HW2 6510   1.681   5.538   4.532
 1871SOL     OW 6511   1.469   7.009   0.900
 1871SOL    HW1 6512   1.432   0.079   0.884
 1871SOL    HW2 6513   1.567   7.015   0.916
 1872SOL     OW 6514   2.438   4.615   0.208
 1872SOL    HW1 6515   2.389   4.631   0.122
 1872SOL    HW2 6516   2.496   4.534   0.198
 1873SOL     OW 6517   4.337   1.652   6.996
 1873SOL    HW1 6518   4.349   1.716   6.920
 1873SOL    HW2 6519   4.245   1.613   6.993
 1874SOL     OW 6520   1.181   2.304   2.548
 1874SOL    HW1 6521   1.279   2.316   2.558
 1874SOL    HW2 6522   1.143   2.382   2.498
 1875SOL     OW 6523   0.722   6.958   0.398
 1875SOL    HW1 6524   0.650   6.904   0.354
 1875SOL    HW2 6525   0.803   6.900   0.411
 1876SOL     OW 6526   2.615   0.111   4.252
 1876SOL    HW1 6527   2.547   0.055   4.204
 1876SOL    HW2 6528   2.706   0.082   4.225
 1877SOL     OW 6529   0.996   6.725   3.536
 1877SOL    HW1 6530   1.095   6.710   3.542
 1877SOL    HW2 6531   0.973   6.810   3.583
 1878SOL     OW 6532   6.326   2.518   5.668
 1878SOL    HW1 6533   6.327   2.617   5.682
 1878SOL    HW2 6534   6.357   2.497   5.576
 1879SOL     OW 6535   1.115   4.560   4.947
 1879SOL    HW1 6536   1.130   4.469   4.985
 1879SOL    HW2 6537   1.065   4.616   5.013
 1880SOL     OW 6538   5.884   0.460   5.816
 1880SOL    HW1 6539   5.849   0.530   5.754
 1880SOL    HW2 6540   5.953   0.500   5.877
 1881SOL     OW 6541   6.804   2.280   0.147
 1881SOL    HW1 6542   6.853   2.336   0.215
 1881SOL    HW2 6543   6.713   2.258   0.182
 1882SOL     OW 6544   0.567   5.264   6.142
 1882SOL    HW1 6545   0.598   5.358   6.157
 1882SOL    HW2 6546   0.554   5.219   6.230
 1883SOL     OW 6547   0.088   1.852   4.049
 1883SOL    HW1 6548   0.030   1.924   4.009
 1883SOL    HW2 6549   0.064   1.841   4.146
 1884SOL     OW 6550   0.155   2.673   1.234
 1884SOL    HW1 6551   0.195   2.735   1.167
 1884SOL    HW2 6552   0.225   2.611   1.269
 1885SOL     OW 6553   1.974   1.871   4.437
 1885SOL    HW1 6554   2.019   1.850   4.350
 1885SOL    HW2 6555   2.024   1.942   4.485
 1886SOL     OW 6556   1.375   6.864   3.056
 1886SOL    HW1 6557   1.355   6.775   3.014
 1886SOL    HW2 6558   1.474   6.876   3.060
 1887SOL     OW 6559   1.916   5.847   6.423
 1887SOL    HW1 6560   1.967   5.929   6.398
 1887SOL    HW2 6561   1.964   5.766   6.388
 1888SOL     OW 6562   2.861   0.988   1.811
 1888SOL    HW1 6563   2.876   1.085   1.793
 1888SOL    HW2 6564   2.928   0.934   1.761
 1889SOL     OW 6565   0.379   3.294   3.279
 1889SOL    HW1 6566   0.429   3.249   3.353
 1889SOL    HW2 6567   0.438   3.303   3.199
 1890SOL     OW 6568   0.249   5.893   3.894
 1890SOL    HW1 6569   0.276   5.933   3.982
 1890SOL    HW2 6570   0.150   5.882   3.891
 1891SOL     OW 6571   3.401   3.259   3.307
 1891SOL    HW1 6572   3.349   3.335   3.268
 1891SOL    HW2 6573   3.399   3.182   3.243
 1892SOL     OW 6574   0.699   0.679   2.712
 1892SOL    HW1 6575   0.645   0.749   2.759
 1892SOL    HW2 6576   0.649   0.592   2.712
 1893SOL     OW 6577   3.667   2.877   4.203
 1893SOL    HW1 6578   3.660   2.919   4.112
 1893SOL    HW2 6579   3.700   2.782   4.193
 1894SOL     OW 6580   2.951   3.643   4.017
 1894SOL    HW1 6581   2.917   3.639   4.111
 1894SOL    HW2 6582   2.933   3.555   3.972
 1895SOL     OW 6583   2.100   5.663   6.277
 1895SOL    HW1 6584   2.142   5.580   6.314
 1895SOL    HW2 6585   2.171   5.727   6.249
 1896SOL     OW 6586   5.172   2.710   0.783
 1896SOL    HW1 6587   5.165   2.720   0.683
 1896SOL    HW2 6588   5.268   2.694   0.807
 1897SOL     OW 6589   1.809   4.846   4.371
 1897SOL    HW1 6590   1.782   4.780   4.441
 1897SOL    HW2 6591   1.907   4.865   4.379
 1898SOL     OW 6592   1.428   6.103   3.353
 1898SOL    HW1 6593   1.432   6.017   3.405
 1898SOL    HW2 6594   1.515   6.152   3.363
 1899SOL     OW 6595   0.183   0.567   2.509
 1899SOL    HW1 6596   0.208   0.558   2.605
 1899SOL    HW2 6597   0.088   0.540   2.496
 1900SOL     OW 6598   2.451   6.906   0.064
 1900SOL    HW1 6599   2.372   6.885   0.008
 1900SOL    HW2 6600   2.449   6.852   0.148
 1901SOL     OW 6601   2.843   3.791   1.214
 1901SOL    HW1 6602   2.751   3.824   1.236
 1901SOL    HW2 6603   2.871   3.827   1.125
 1902SOL     OW 6604   1.399   6.569   4.269
 1902SOL    HW1 6605   1.334   6.550   4.343
 1902SOL    HW2 6606   1.350   6.571   4.182
 1903SOL     OW 6607   0.546   2.331   4.175
 1903SOL    HW1 6608   0.537   2.345   4.273
 1903SOL    HW2 6609   0.509   2.410   4.126
 1904SOL     OW 6610   5.292   5.724   2.165
 1904SOL    HW1 6611   5.373   5.686   2.210
 1904SOL    HW2 6612   5.259   5.659   2.097
 1905SOL     OW 6613   6.880   0.782   3.825
 1905SOL    HW1 6614   6.919   0.843   3.756
 1905SOL    HW2 6615   6.903   0.817   3.916
 1906SOL     OW 6616   1.628   0.032   5.586
 1906SOL    HW1 6617   1.588   6.979   5.533
 1906SOL    HW2 6618   1.706   7.020   5.639
 1907SOL     OW 6619   5.847   2.865   0.116
 1907SOL    HW1 6620   5.922   2.931   0.112
 1907SOL    HW2 6621   5.882   2.776   0.144
 1908SOL     OW 6622   3.241   1.232   1.263
 1908SOL    HW1 6623   3.235   1.244   1.362
 1908SOL    HW2 6624   3.153   1.200   1.228
 1909SOL     OW 6625   6.478   4.509   4.800
 1909SOL    HW1 6626   6.405   4.577   4.810
 1909SOL    HW2 6627   6.552   4.530   4.865
 1910SOL     OW 6628   7.003   6.361   5.530
 1910SOL    HW1 6629   6.937   6.315   5.589
 1910SOL    HW2 6630   0.009   6.299   5.457
 1911SOL     OW 6631   0.062   5.012   4.012
 1911SOL    HW1 6632   0.003   4.938   3.980
 1911SOL    HW2 6633   0.046   5.094   3.957
 1912SOL     OW 6634   2.797   5.150   2.174
 1912SOL    HW1 6635   2.815   5.053   2.191
 1912SOL    HW2 6636   2.766   5.194   2.258
 1913SOL     OW 6637   3.269   4.437   6.284
 1913SOL    HW1 6638   3.256   4.498   6.206
 1913SOL    HW2 6639   3.316   4.354   6.254
 1914SOL     OW 6640   2.238   4.975   6.143
 1914SOL    HW1 6641   2.320   4.918   6.133
 1914SOL    HW2 6642   2.258   5.052   6.204
 1915SOL     OW 6643   4.205   2.402   5.564
 1915SOL    HW1 6644   4.181   2.425   5.658
 1915SOL    HW2 6645   4.257   2.317   5.562
 1916SOL     OW 6646   4.338   0.925   2.173
 1916SOL    HW1 6647   4.322   1.021   2.150
 1916SOL    HW2 6648   4.272   0.868   2.124
 1917SOL     OW 6649   2.315   4.140   1.387
 1917SOL    HW1 6650   2.316   4.083   1.305
 1917SOL    HW2 6651   2.287   4.085   1.466
 1918SOL     OW 6652   5.601   2.992   3.822
 1918SOL    HW1 6653   5.663   2.916   3.802
 1918SOL    HW2 6654   5.514   2.957   3.858
 1919SOL     OW 6655   0.181   2.389   0.441
 1919SOL    HW1 6656   0.199   2.344   0.528
 1919SOL    HW2 6657   0.180   2.321   0.368
 1920SOL     OW 6658   4.828   2.957   0.592
 1920SOL    HW1 6659   4.926   2.968   0.578
 1920SOL    HW2 6660   4.803   2.993   0.682
 1921SOL     OW 6661   1.711   2.619   6.784
 1921SOL    HW1 6662   1.753   2.548   6.728
 1921SOL    HW2 6663   1.641   2.667   6.730
 1922SOL     OW 6664   3.391   2.960   2.310
 1922SOL    HW1 6665   3.481   2.925   2.335
 1922SOL    HW2 6666   3.401   3.050   2.266
 1923SOL     OW 6667   3.830   0.542   5.076
 1923SOL    HW1 6668   3.774   0.623   5.093
 1923SOL    HW2 6669   3.771   0.461   5.074
 1924SOL     OW 6670   4.534   0.666   6.987
 1924SOL    HW1 6671   4.465   0.619   6.932
 1924SOL    HW2 6672   4.599   0.599   7.022
 1925SOL     OW 6673   1.617   4.111   0.703
 1925SOL    HW1 6674   1.532   4.150   0.739
 1925SOL    HW2 6675   1.678   4.089   0.779
 1926SOL     OW 6676   3.629   0.329   1.981
 1926SOL    HW1 6677   3.572   0.260   2.025
 1926SOL    HW2 6678   3.679   0.381   2.050
 1927SOL     OW 6679   2.333   5.190   1.529
 1927SOL    HW1 6680   2.262   5.120   1.530
 1927SOL    HW2 6681   2.423   5.148   1.540
 1928SOL     OW 6682   5.093   4.562   3.859
 1928SOL    HW1 6683   5.098   4.463   3.846
 1928SOL    HW2 6684   5.006   4.596   3.823
 1929SOL     OW 6685   3.365   6.984   2.675
 1929SOL    HW1 6686   3.415   6.949   2.754
 1929SOL    HW2 6687   3.295   6.918   2.647
 1930SOL     OW 6688   4.200   3.228   6.844
 1930SOL    HW1 6689   4.263   3.258   6.772
 1930SOL    HW2 6690   4.196   3.128   6.846
 1931SOL     OW 6691   6.966   1.858   4.835
 1931SOL    HW1 6692   6.887   1.874   4.894
 1931SOL    HW2 6693   0.026   1.854   4.891
 1932SOL     OW 6694   4.257   2.147   2.106
 1932SOL    HW1 6695   4.296   2.224   2.056
 1932SOL    HW2 6696   4.161   2.136   2.081
 1933SOL     OW 6697   1.005   1.102   1.376
 1933SOL    HW1 6698   1.023   1.055   1.463
 1933SOL    HW2 6699   1.074   1.074   1.308
 1934SOL     OW 6700   0.356   0.876   6.856
 1934SOL    HW1 6701   0.335   0.973   6.870
 1934SOL    HW2 6702   0.432   0.849   6.915
 1935SOL     OW 6703   6.565   5.423   4.291
 1935SOL    HW1 6704   6.541   5.467   4.378
 1935SOL    HW2 6705   6.488   5.432   4.227
 1936SOL     OW 6706   4.708   2.812   5.598
 1936SOL    HW1 6707   4.673   2.805   5.691
 1936SOL    HW2 6708   4.645   2.768   5.534
 1937SOL     OW 6709   5.785   4.863   6.430
 1937SOL    HW1 6710   5.723   4.941   6.423
 1937SOL    HW2 6711   5.785   4.829   6.524
 1938SOL     OW 6712   6.805   3.266   6.599
 1938SOL    HW1 6713   6.730   3.208   6.567
 1938SOL    HW2 6714   6.825   3.245   6.694
 1939SOL     OW 6715   1.234   0.841   4.835
 1939SOL    HW1 6716   1.227   0.893   4.920
 1939SOL    HW2 6717   1.168   0.766   4.836
 1940SOL     OW 6718   6.848   5.089   0.368
 1940SOL    HW1 6719   6.883   5.008   0.414
 1940SOL    HW2 6720   6.849   5.166   0.433
 1941SOL     OW 6721   5.023   1.592   4.115
 1941SOL    HW1 6722   5.050   1.586   4.212
 1941SOL    HW2 6723   5.040   1.684   4.081
 1942SOL     OW 6724   6.435   3.922   2.846
 1942SOL    HW1 6725   6.335   3.912   2.850
 1942SOL    HW2 6726   6.478   3.842   2.888
 1943SOL     OW 6727   0.925   2.197   2.685
 1943SOL    HW1 6728   1.007   2.139   2.687
 1943SOL    HW2 6729   0.938   2.275   2.746
 1944SOL     OW 6730   0.219   2.842   3.656
 1944SOL    HW1 6731   0.154   2.915   3.633
 1944SOL    HW2 6732   0.183   2.754   3.625
 1945SOL     OW 6733   4.711   1.690   1.962
 1945SOL    HW1 6734   4.654   1.622   1.916
 1945SOL    HW2 6735   4.656   1.771   1.982
 1946SOL     OW 6736   6.704   5.264   0.858
 1946SOL    HW1 6737   6.641   5.321   0.806
 1946SOL    HW2 6738   6.796   5.304   0.854
 1947SOL     OW 6739   6.572   4.848   3.575
 1947SOL    HW1 6740   6.592   4.940   3.608
 1947SOL    HW2 6741   6.474   4.830   3.581
 1948SOL     OW 6742   5.283   3.461   3.366
 1948SOL    HW1 6743   5.346   3.473   3.289
 1948SOL    HW2 6744   5.210   3.529   3.360
 1949SOL     OW 6745   3.339   5.285   0.086
 1949SOL    HW1 6746   3.266   5.327   0.141
 1949SOL    HW2 6747   3.387   5.217   0.141
 1950SOL     OW 6748   3.314   3.573   3.248
 1950SOL    HW1 6749   3.411   3.571   3.228
 1950SOL    HW2 6750   3.300   3.571   3.348
 1951SOL     OW 6751   5.934   5.115   5.451
 1951SOL    HW1 6752   5.920   5.204   5.495
 1951SOL    HW2 6753   5.880   5.045   5.499
 1952SOL     OW 6754   6.105   5.346   0.638
 1952SOL    HW1 6755   6.080   5.410   0.565
 1952SOL    HW2 6756   6.170   5.389   0.700
 1953SOL     OW 6757   0.734   1.411   6.964
 1953SOL    HW1 6758   0.801   1.433   6.893
 1953SOL    HW2 6759   0.773   1.343   0.004
 1954SOL     OW 6760   4.080   0.081   2.193
 1954SOL    HW1 6761   4.137   0.146   2.143
 1954SOL    HW2 6762   3.995   0.126   2.220
 1955SOL     OW 6763   0.021   2.206   3.771
 1955SOL    HW1 6764   0.010   2.158   3.685
 1955SOL    HW2 6765   7.005   2.152   3.846
 1956SOL     OW 6766   5.944   0.637   1.931
 1956SOL    HW1 6767   5.867   0.592   1.975
 1956SOL    HW2 6768   6.024   0.577   1.935
 1957SOL     OW 6769   6.011   2.032   4.633
 1957SOL    HW1 6770   5.998   1.944   4.588
 1957SOL    HW2 6771   6.102   2.036   4.673
 1958SOL     OW 6772   4.117   1.825   0.592
 1958SOL    HW1 6773   4.062   1.774   0.657
 1958SOL    HW2 6774   4.173   1.762   0.539
 1959SOL     OW 6775   0.800   1.722   5.512
 1959SOL    HW1 6776   0.792   1.734   5.413
 1959SOL    HW2 6777   0.847   1.802   5.551
 1960SOL     OW 6778   5.602   4.209   4.166
 1960SOL    HW1 6779   5.540   4.131   4.169
 1960SOL    HW2 6780   5.643   4.216   4.075
 1961SOL     OW 6781   0.239   3.755   4.010
 1961SOL    HW1 6782   0.317   3.691   4.011
 1961SOL    HW2 6783   0.272   3.848   4.027
 1962SOL     OW 6784   0.900   0.477   2.943
 1962SOL    HW1 6785   0.819   0.419   2.949
 1962SOL    HW2 6786   0.967   0.435   2.883
 1963SOL     OW 6787   0.499   2.725   0.397
 1963SOL    HW1 6788   0.535   2.632   0.392
 1963SOL    HW2 6789   0.549   2.777   0.467
 1964SOL     OW 6790   5.962   3.693   0.934
 1964SOL    HW1 6791   5.923   3.776   0.973
 1964SOL    HW2 6792   6.023   3.650   1.001
 1965SOL     OW 6793   6.368   4.155   3.760
 1965SOL    HW1 6794   6.439   4.182   3.826
 1965SOL    HW2 6795   6.387   4.197   3.672
 1966SOL     OW 6796   1.239   4.912   0.119
 1966SOL    HW1 6797   1.335   4.904   0.092
 1966SOL    HW2 6798   1.231   4.976   0.195
 1967SOL     OW 6799   6.498   2.980   3.867
 1967SOL    HW1 6800   6.408   3.005   3.902
 1967SOL    HW2 6801   6.544   2.920   3.933
 1968SOL     OW 6802   2.959   1.447   4.776
 1968SOL    HW1 6803   2.914   1.473   4.861
 1968SOL    HW2 6804   3.039   1.504   4.762
 1969SOL     OW 6805   2.032   6.087   0.720
 1969SOL    HW1 6806   1.934   6.100   0.707
 1969SOL    HW2 6807   2.068   6.033   0.643
 1970SOL     OW 6808   5.814   5.590   4.676
 1970SOL    HW1 6809   5.823   5.578   4.577
 1970SOL    HW2 6810   5.722   5.624   4.697
 1971SOL     OW 6811   1.555   5.367   5.187
 1971SOL    HW1 6812   1.633   5.322   5.231
 1971SOL    HW2 6813   1.568   5.466   5.191
 1972SOL     OW 6814   5.803   2.567   2.083
 1972SOL    HW1 6815   5.846   2.479   2.064
 1972SOL    HW2 6816   5.853   2.639   2.035
 1973SOL     OW 6817   2.672   2.802   0.976
 1973SOL    HW1 6818   2.690   2.883   1.031
 1973SOL    HW2 6819   2.643   2.727   1.036
 1974SOL     OW 6820   2.443   5.683   5.144
 1974SOL    HW1 6821   2.513   5.672   5.215
 1974SOL    HW2 6822   2.464   5.763   5.089
 1975SOL     OW 6823   2.143   2.641   3.228
 1975SOL    HW1 6824   2.088   2.557   3.235
 1975SOL    HW2 6825   2.198   2.652   3.311
 1976SOL     OW 6826   0.837   0.304   5.525
 1976SOL    HW1 6827   0.913   0.342   5.472
 1976SOL    HW2 6828   0.831   0.205   5.510
 1977SOL     OW 6829   1.894   4.547   5.866
 1977SOL    HW1 6830   1.887   4.481   5.941
 1977SOL    HW2 6831   1.806   4.553   5.818
 1978SOL     OW 6832   3.267   0.068   1.608
 1978SOL    HW1 6833   3.167   0.067   1.608
 1978SOL    HW2 6834   3.299   0.163   1.599
 1979SOL     OW 6835   6.365   4.580   6.174
 1979SOL    HW1 6836   6.357   4.531   6.087
 1979SOL    HW2 6837   6.421   4.662   6.162
 1980SOL     OW 6838   3.747   1.260   1.189
 1980SOL    HW1 6839   3.758   1.230   1.094
 1980SOL    HW2 6840   3.661   1.311   1.197
 1981SOL     OW 6841   3.403   2.016   3.093
 1981SOL    HW1 6842   3.362   2.058   3.174
 1981SOL    HW2 6843   3.357   2.051   3.011
 1982SOL     OW 6844   0.976   2.997   5.244
 1982SOL    HW1 6845   1.049   2.929   5.251
 1982SOL    HW2 6846   0.895   2.965   5.294
 1983SOL     OW 6847   0.256   0.706   2.261
 1983SOL    HW1 6848   0.226   0.650   2.338
 1983SOL    HW2 6849   0.230   0.801   2.278
 1984SOL     OW 6850   4.373   3.057   5.755
 1984SOL    HW1 6851   4.412   2.965   5.766
 1984SOL    HW2 6852   4.444   3.119   5.721
 1985SOL     OW 6853   6.495   2.889   3.003
 1985SOL    HW1 6854   6.545   2.802   3.000
 1985SOL    HW2 6855   6.436   2.897   2.923
 1986SOL     OW 6856   3.709   3.090   2.062
 1986SOL    HW1 6857   3.690   3.031   1.984
 1986SOL    HW2 6858   3.808   3.102   2.071
 1987SOL     OW 6859   2.816   1.634   1.156
 1987SOL    HW1 6860   2.823   1.732   1.175
 1987SOL    HW2 6861   2.736   1.597   1.202
 1988SOL     OW 6862   0.221   2.302   1.791
 1988SOL    HW1 6863   0.203   2.257   1.703
 1988SOL    HW2 6864   0.281   2.245   1.846
 1989SOL     OW 6865   2.987   4.843   4.802
 1989SOL    HW1 6866   3.035   4.780   4.863
 1989SOL    HW2 6867   2.951   4.792   4.724
 1990SOL     OW 6868   4.534   0.330   0.320
 1990SOL    HW1 6869   4.473   0.276   0.378
 1990SOL    HW2 6870   4.484   0.409   0.283
 1991SOL     OW 6871   2.631   5.542   1.165
 1991SOL    HW1 6872   2.563   5.469   1.161
 1991SOL    HW2 6873   2.717   5.509   1.126
 1992SOL     OW 6874   0.961   6.582   2.643
 1992SOL    HW1 6875   0.976   6.646   2.568
 1992SOL    HW2 6876   1.033   6.513   2.644
 1993SOL     OW 6877   2.428   2.194   2.936
 1993SOL    HW1 6878   2.498   2.236   2.994
 1993SOL    HW2 6879   2.357   2.262   2.916
 1994SOL     OW 6880   3.496   3.093   1.402
 1994SOL    HW1 6881   3.506   3.152   1.482
 1994SOL    HW2 6882   3.421   3.028   1.418
 1995SOL     OW 6883   5.199   1.973   4.391
 1995SOL    HW1 6884   5.113   2.023   4.382
 1995SOL    HW2 6885   5.265   2.030   4.440
 1996SOL     OW 6886   4.401   0.878   1.166
 1996SOL    HW1 6887   4.443   0.851   1.252
 1996SOL    HW2 6888   4.312   0.834   1.157
 1997SOL     OW 6889   4.061   0.780   3.957
 1997SOL    HW1 6890   3.973   0.742   3.928
 1997SOL    HW2 6891   4.106   0.717   4.019
 1998SOL     OW 6892   2.000   3.587   1.427
 1998SOL    HW1 6893   1.967   3.494   1.444
 1998SOL    HW2 6894   1.966   3.648   1.498
 1999SOL     OW 6895   1.152   0.098   0.780
 1999SOL    HW1 6896   1.139   0.022   0.843
 1999SOL    HW2 6897   1.229   0.154   0.811
 2000SOL     OW 6898   4.268   4.507   5.955
 2000SOL    HW1 6899   4.169   4.499   5.964
 2000SOL    HW2 6900   4.311   4.423   5.988
 2001SOL     OW 6901   2.189   2.024   1.314
 2001SOL    HW1 6902   2.143   2.090   1.372
 2001SOL    HW2 6903   2.220   2.069   1.230
 2002SOL     OW 6904   6.917   5.515   0.386
 2002SOL    HW1 6905   7.006   5.470   0.385
 2002SOL    HW2 6906   6.920   5.593   0.448
 2003SOL     OW 6907   6.339   4.998   2.850
 2003SOL    HW1 6908   6.342   4.978   2.948
 2003SOL    HW2 6909   6.250   4.970   2.813
 2004SOL     OW 6910   3.957   7.002   3.189
 2004SOL    HW1 6911   3.990   6.983   3.282
 2004SOL    HW2 6912   4.027   6.976   3.122
 2005SOL     OW 6913   1.457   5.962   0.199
 2005SOL    HW1 6914   1.464   5.909   0.114
 2005SOL    HW2 6915   1.545   6.007   0.217
 2006SOL     OW 6916   5.629   6.019   2.116
 2006SOL    HW1 6917   5.598   6.024   2.211
 2006SOL    HW2 6918   5.715   6.069   2.105
 2007SOL     OW 6919   5.071   4.475   6.735
 2007SOL    HW1 6920   5.075   4.575   6.731
 2007SOL    HW2 6921   4.982   4.444   6.704
 2008SOL     OW 6922   1.981   2.925   3.418
 2008SOL    HW1 6923   1.892   2.929   3.463
 2008SOL    HW2 6924   1.971   2.947   3.321
 2009SOL     OW 6925   6.324   0.111   3.099
 2009SOL    HW1 6926   6.240   0.161   3.122
 2009SOL    HW2 6927   6.338   0.113   3.000
 2010SOL     OW 6928   6.975   1.864   1.856
 2010SOL    HW1 6929   6.939   1.955   1.875
 2010SOL    HW2 6930   6.901   1.797   1.858
 2011SOL     OW 6931   1.225   7.019   5.027
 2011SOL    HW1 6932   1.138   0.005   4.977
 2011SOL    HW2 6933   1.284   0.074   5.005
 2012SOL     OW 6934   0.899   2.978   1.603
 2012SOL    HW1 6935   0.992   2.956   1.631
 2012SOL    HW2 6936   0.846   3.009   1.682
 2013SOL     OW 6937   0.516   3.031   1.840
 2013SOL    HW1 6938   0.423   2.993   1.834
 2013SOL    HW2 6939   0.558   3.004   1.927
 2014SOL     OW 6940   3.803   0.731   4.730
 2014SOL    HW1 6941   3.837   0.823   4.753
 2014SOL    HW2 6942   3.715   0.716   4.774
 2015SOL     OW 6943   4.079   0.034   1.497
 2015SOL    HW1 6944   4.050   0.061   1.589
 2015SOL    HW2 6945   4.008   0.059   1.431
 2016SOL     OW 6946   1.996   0.837   4.764
 2016SOL    HW1 6947   2.035   0.745   4.767
 2016SOL    HW2 6948   1.896   0.830   4.768
 2017SOL     OW 6949   4.165   6.343   3.867
 2017SOL    HW1 6950   4.155   6.267   3.803
 2017SOL    HW2 6951   4.096   6.413   3.846
 2018SOL     OW 6952   1.238   0.502   4.276
 2018SOL    HW1 6953   1.236   0.531   4.180
 2018SOL    HW2 6954   1.153   0.529   4.321
 2019SOL     OW 6955   5.290   5.390   6.043
 2019SOL    HW1 6956   5.278   5.325   5.968
 2019SOL    HW2 6957   5.273   5.483   6.009
 2020SOL     OW 6958   1.965   6.347   0.207
 2020SOL    HW1 6959   1.999   6.308   0.122
 2020SOL    HW2 6960   2.001   6.295   0.284
 2021SOL     OW 6961   0.049   6.379   4.508
 2021SOL    HW1 6962   0.030   6.395   4.605
 2021SOL    HW2 6963   0.047   6.281   4.489
 2022SOL     OW 6964   1.866   3.580   4.134
 2022SOL    HW1 6965   1.963   3.598   4.116
 2022SOL    HW2 6966   1.848   3.482   4.122
 2023SOL     OW 6967   6.893   6.167   0.110
 2023SOL    HW1 6968   6.805   6.205   0.081
 2023SOL    HW2 6969   6.887   6.068   0.114
 2024SOL     OW 6970   0.524   5.961   4.050
 2024SOL    HW1 6971   0.500   6.005   3.964
 2024SOL    HW2 6972   0.511   5.862   4.042
 2025SOL     OW 6973   1.569   6.056   4.714
 2025SOL    HW1 6974   1.613   6.108   4.641
 2025SOL    HW2 6975   1.503   6.114   4.762
 2026SOL     OW 6976   0.509   0.352   5.874
 2026SOL    HW1 6977   0.546   0.369   5.965
 2026SOL    HW2 6978   0.409   0.360   5.877
 2027SOL     OW 6979   6.516   6.283   2.021
 2027SOL    HW1 6980   6.465   6.197   2.026
 2027SOL    HW2 6981   6.604   6.271   2.067
 2028SOL     OW 6982   3.128   5.610   4.935
 2028SOL    HW1 6983   3.182   5.655   5.005
 2028SOL    HW2 6984   3.045   5.571   4.977
 2029SOL     OW 6985   6.326   3.119   6.316
 2029SOL    HW1 6986   6.296   3.208   6.282
 2029SOL    HW2 6987   6.247   3.067   6.348
 2030SOL     OW 6988   2.310   6.930   2.080
 2030SOL    HW1 6989   2.285   6.897   2.171
 2030SOL    HW2 6990   2.228   6.944   2.025
 2031SOL     OW 6991   0.541   6.070   4.293
 2031SOL    HW1 6992   0.547   6.020   4.206
 2031SOL    HW2 6993   0.569   6.164   4.279
 2032SOL     OW 6994   2.555   2.913   5.688
 2032SOL    HW1 6995   2.588   2.999   5.725
 2032SOL    HW2 6996   2.469   2.888   5.731
 2033SOL     OW 6997   2.441   1.956   0.832
 2033SOL    HW1 6998   2.520   1.994   0.880
 2033SOL    HW2 6999   2.414   1.870   0.876
 2034SOL     OW 7000   0.378   4.190   5.192
 2034SOL    HW1 7001   0.315   4.185   5.114
 2034SOL    HW2 7002   0.453   4.125   5.179
 2035SOL     OW 7003   5.029   0.040   3.390
 2035SOL    HW1 7004   4.935   0.056   3.360
 2035SOL    HW2 7005   5.059   0.116   3.447
 2036SOL     OW 7006   0.463   4.674   6.674
 2036SOL    HW1 7007   0.368   4.660   6.649
 2036SOL    HW2 7008   0.499   4.753   6.625
 2037SOL     OW 7009   1.070   2.434   6.857
 2037SOL    HW1 7010   1.001   2.416   6.787
 2037SOL    HW2 7011   1.137   2.500   6.822
 2038SOL     OW 7012   1.051   0.992   6.447
 2038SOL    HW1 7013   0.995   0.960   6.371
 2038SOL    HW2 7014   1.002   1.063   6.498
 2039SOL     OW 7015   5.012   6.390   3.496
 2039SOL    HW1 7016   4.973   6.476   3.527
 2039SOL    HW2 7017   5.087   6.407   3.432
 2040SOL     OW 7018   2.253   2.332   0.320
 2040SOL    HW1 7019   2.261   2.413   0.262
 2040SOL    HW2 7020   2.342   2.287   0.326
 2041SOL     OW 7021   2.742   0.814   6.388
 2041SOL    HW1 7022   2.738   0.906   6.426
 2041SOL    HW2 7023   2.826   0.769   6.417
 2042SOL     OW 7024   6.124   0.996   5.767
 2042SOL    HW1 7025   6.133   0.919   5.703
 2042SOL    HW2 7026   6.209   1.008   5.818
 2043SOL     OW 7027   0.575   4.078   1.025
 2043SOL    HW1 7028   0.500   4.140   1.005
 2043SOL    HW2 7029   0.541   3.984   1.027
 2044SOL     OW 7030   4.044   0.525   1.426
 2044SOL    HW1 7031   4.092   0.493   1.507
 2044SOL    HW2 7032   4.110   0.553   1.356
 2045SOL     OW 7033   1.513   6.481   4.656
 2045SOL    HW1 7034   1.501   6.491   4.755
 2045SOL    HW2 7035   1.606   6.509   4.631
 2046SOL     OW 7036   0.886   2.791   4.922
 2046SOL    HW1 7037   0.894   2.867   4.987
 2046SOL    HW2 7038   0.854   2.825   4.834
 2047SOL     OW 7039   6.939   0.343   0.473
 2047SOL    HW1 7040   0.006   0.317   0.435
 2047SOL    HW2 7041   6.904   0.423   0.425
 2048SOL     OW 7042   1.260   1.963   3.839
 2048SOL    HW1 7043   1.344   1.987   3.887
 2048SOL    HW2 7044   1.241   2.030   3.768
 2049SOL     OW 7045   4.546   2.273   4.759
 2049SOL    HW1 7046   4.556   2.191   4.815
 2049SOL    HW2 7047   4.471   2.260   4.694
 2050SOL     OW 7048   0.918   1.196   3.870
 2050SOL    HW1 7049   0.823   1.211   3.843
 2050SOL    HW2 7050   0.933   1.233   3.961
 2051SOL     OW 7051   2.587   6.351   0.455
 2051SOL    HW1 7052   2.614   6.394   0.540
 2051SOL    HW2 7053   2.593   6.416   0.380
 2052SOL     OW 7054   0.802   4.054   0.236
 2052SOL    HW1 7055   0.786   3.969   0.187
 2052SOL    HW2 7056   0.801   4.037   0.334
 2053SOL     OW 7057   6.676   5.214   2.839
 2053SOL    HW1 7058   6.746   5.282   2.816
 2053SOL    HW2 7059   6.586   5.247   2.812
 2054SOL     OW 7060   2.870   3.610   2.905
 2054SOL    HW1 7061   2.878   3.622   2.806
 2054SOL    HW2 7062   2.774   3.613   2.932
 2055SOL     OW 7063   3.687   2.580   5.312
 2055SOL    HW1 7064   3.780   2.613   5.297
 2055SOL    HW2 7065   3.668   2.579   5.410
 2056SOL     OW 7066   3.230   4.984   1.452
 2056SOL    HW1 7067   3.290   4.983   1.373
 2056SOL    HW2 7068   3.211   4.889   1.480
 2057SOL     OW 7069   5.326   3.269   4.048
 2057SOL    HW1 7070   5.383   3.199   4.090
 2057SOL    HW2 7071   5.377   3.314   3.975
 2058SOL     OW 7072   6.294   7.020   3.696
 2058SOL    HW1 7073   6.315   6.935   3.745
 2058SOL    HW2 7074   6.316   0.076   3.754
 2059SOL     OW 7075   1.658   1.216   5.550
 2059SOL    HW1 7076   1.746   1.171   5.563
 2059SOL    HW2 7077   1.673   1.306   5.508
 2060SOL     OW 7078   1.760   2.950   6.823
 2060SOL    HW1 7079   1.841   2.982   6.872
 2060SOL    HW2 7080   1.785   2.874   6.763
 2061SOL     OW 7081   1.694   2.639   2.817
 2061SOL    HW1 7082   1.727   2.729   2.847
 2061SOL    HW2 7083   1.767   2.593   2.766
 2062SOL     OW 7084   6.788   5.126   4.508
 2062SOL    HW1 7085   6.799   5.085   4.598
 2062SOL    HW2 7086   6.737   5.064   4.449
 2063SOL     OW 7087   0.735   1.781   4.297
 2063SOL    HW1 7088   0.712   1.685   4.277
 2063SOL    HW2 7089   0.655   1.827   4.335
 2064SOL     OW 7090   0.842   3.288   3.937
 2064SOL    HW1 7091   0.825   3.213   3.873
 2064SOL    HW2 7092   0.939   3.311   3.936
 2065SOL     OW 7093   4.345   3.523   5.907
 2065SOL    HW1 7094   4.333   3.436   5.956
 2065SOL    HW2 7095   4.368   3.504   5.811
 2066SOL     OW 7096   1.135   3.381   5.648
 2066SOL    HW1 7097   1.110   3.474   5.677
 2066SOL    HW2 7098   1.216   3.352   5.698
 2067SOL     OW 7099   6.312   4.853   1.699
 2067SOL    HW1 7100   6.218   4.838   1.730
 2067SOL    HW2 7101   6.338   4.948   1.716
 2068SOL     OW 7102   4.235   0.762   4.607
 2068SOL    HW1 7103   4.213   0.859   4.618
 2068SOL    HW2 7104   4.157   0.707   4.637
 2069SOL     OW 7105   0.128   0.971   3.401
 2069SOL    HW1 7106   0.133   1.071   3.404
 2069SOL    HW2 7107   0.071   0.943   3.324
 2070SOL     OW 7108   1.330   5.166   1.586
 2070SOL    HW1 7109   1.349   5.180   1.683
 2070SOL    HW2 7110   1.244   5.116   1.575
 2071SOL     OW 7111   0.428   2.143   5.832
 2071SOL    HW1 7112   0.447   2.226   5.779
 2071SOL    HW2 7113   0.330   2.127   5.834
 2072SOL     OW 7114   5.183   4.253   5.411
 2072SOL    HW1 7115   5.176   4.212   5.320
 2072SOL    HW2 7116   5.107   4.317   5.424
 2073SOL     OW 7117   3.072   5.527   6.977
 2073SOL    HW1 7118   2.975   5.503   6.984
 2073SOL    HW2 7119   3.108   5.497   6.889
 2074SOL     OW 7120   1.966   4.708   6.277
 2074SOL    HW1 7121   1.990   4.756   6.192
 2074SOL    HW2 7122   1.950   4.611   6.258
 2075SOL     OW 7123   5.847   3.006   1.081
 2075SOL    HW1 7124   5.804   2.956   1.005
 2075SOL    HW2 7125   5.903   2.943   1.134
 2076SOL     OW 7126   6.215   6.902   4.544
 2076SOL    HW1 7127   6.157   6.875   4.467
 2076SOL    HW2 7128   6.178   6.863   4.629
 2077SOL     OW 7129   6.299   4.768   0.754
 2077SOL    HW1 7130   6.314   4.794   0.849
 2077SOL    HW2 7131   6.215   4.811   0.720
 2078SOL     OW 7132   0.684   3.619   5.549
 2078SOL    HW1 7133   0.752   3.545   5.552
 2078SOL    HW2 7134   0.648   3.635   5.640
 2079SOL     OW 7135   5.241   0.801   2.605
 2079SOL    HW1 7136   5.191   0.844   2.680
 2079SOL    HW2 7137   5.273   0.871   2.541
 2080SOL     OW 7138   2.442   3.365   6.258
 2080SOL    HW1 7139   2.345   3.373   6.281
 2080SOL    HW2 7140   2.494   3.435   6.307
 2081SOL     OW 7141   5.890   6.046   1.823
 2081SOL    HW1 7142   5.790   6.051   1.822
 2081SOL    HW2 7143   5.920   5.972   1.763
 2082SOL     OW 7144   6.660   6.199   4.265
 2082SOL    HW1 7145   6.673   6.271   4.333
 2082SOL    HW2 7146   6.733   6.131   4.274
 2083SOL     OW 7147   0.064   6.816   4.273
 2083SOL    HW1 7148   0.125   6.737   4.265
 2083SOL    HW2 7149   0.118   6.898   4.288
 2084SOL     OW 7150   6.622   2.164   0.473
 2084SOL    HW1 7151   6.672   2.246   0.500
 2084SOL    HW2 7152   6.581   2.178   0.383
 2085SOL     OW 7153   6.322   6.071   0.572
 2085SOL    HW1 7154   6.252   6.002   0.586
 2085SOL    HW2 7155   6.392   6.062   0.643
 2086SOL     OW 7156   4.442   0.991   0.039
 2086SOL    HW1 7157   4.425   1.004   6.964
 2086SOL    HW2 7158   4.536   0.958   0.052
 2087SOL     OW 7159   3.832   1.558   7.021
 2087SOL    HW1 7160   3.885   1.607   0.067
 2087SOL    HW2 7161   3.788   1.624   6.960
 2088SOL     OW 7162   0.823   5.083   5.318
 2088SOL    HW1 7163   0.769   5.161   5.349
 2088SOL    HW2 7164   0.805   5.004   5.377
 2089SOL     OW 7165   2.177   3.395   6.331
 2089SOL    HW1 7166   2.128   3.481   6.323
 2089SOL    HW2 7167   2.117   3.319   6.304
 2090SOL     OW 7168   5.258   3.080   5.716
 2090SOL    HW1 7169   5.178   3.133   5.689
 2090SOL    HW2 7170   5.244   3.043   5.808
 2091SOL     OW 7171   5.429   6.058   0.736
 2091SOL    HW1 7172   5.369   5.979   0.746
 2091SOL    HW2 7173   5.502   6.036   0.671
 2092SOL     OW 7174   3.563   3.705   1.785
 2092SOL    HW1 7175   3.650   3.710   1.736
 2092SOL    HW2 7176   3.576   3.654   1.870
 2093SOL     OW 7177   4.147   1.349   1.442
 2093SOL    HW1 7178   4.072   1.284   1.433
 2093SOL    HW2 7179   4.211   1.316   1.511
 2094SOL     OW 7180   5.597   2.070   6.747
 2094SOL    HW1 7181   5.522   2.093   6.685
 2094SOL    HW2 7182   5.677   2.043   6.694
 2095SOL     OW 7183   5.546   5.481   3.736
 2095SOL    HW1 7184   5.644   5.479   3.755
 2095SOL    HW2 7185   5.528   5.545   3.661
 2096SOL     OW 7186   3.859   6.343   1.456
 2096SOL    HW1 7187   3.789   6.403   1.493
 2096SOL    HW2 7188   3.949   6.371   1.491
 2097SOL     OW 7189   0.855   5.832   5.861
 2097SOL    HW1 7190   0.936   5.786   5.898
 2097SOL    HW2 7191   0.773   5.778   5.881
 2098SOL     OW 7192   3.184   6.599   3.553
 2098SOL    HW1 7193   3.238   6.670   3.598
 2098SOL    HW2 7194   3.090   6.602   3.589
 2099SOL     OW 7195   4.652   2.340   6.463
 2099SOL    HW1 7196   4.613   2.363   6.374
 2099SOL    HW2 7197   4.584   2.291   6.518
 2100SOL     OW 7198   5.341   6.965   1.167
 2100SOL    HW1 7199   5.423   7.004   1.124
 2100SOL    HW2 7200   5.285   6.921   1.097
 2101SOL     OW 7201   1.274   0.392   3.145
 2101SOL    HW1 7202   1.198   0.432   3.196
 2101SOL    HW2 7203   1.358   0.442   3.165
 2102SOL     OW 7204   3.862   2.386   1.093
 2102SOL    HW1 7205   3.908   2.330   1.025
 2102SOL    HW2 7206   3.763   2.371   1.087
 2103SOL     OW 7207   2.093   6.238   0.941
 2103SOL    HW1 7208   2.183   6.198   0.921
 2103SOL    HW2 7209   2.025   6.199   0.881
 2104SOL     OW 7210   1.918   3.830   3.446
 2104SOL    HW1 7211   1.852   3.754   3.451
 2104SOL    HW2 7212   2.004   3.797   3.406
 2105SOL     OW 7213   5.596   6.925   5.001
 2105SOL    HW1 7214   5.589   6.956   4.906
 2105SOL    HW2 7215   5.536   6.846   5.014
 2106SOL     OW 7216   4.300   3.291   1.403
 2106SOL    HW1 7217   4.252   3.276   1.317
 2106SOL    HW2 7218   4.399   3.293   1.387
 2107SOL     OW 7219   5.287   5.052   5.060
 2107SOL    HW1 7220   5.201   5.005   5.077
 2107SOL    HW2 7221   5.321   5.091   5.146
 2108SOL     OW 7222   4.841   0.247   4.590
 2108SOL    HW1 7223   4.927   0.229   4.639
 2108SOL    HW2 7224   4.799   0.331   4.625
 2109SOL     OW 7225   3.116   6.396   1.906
 2109SOL    HW1 7226   3.086   6.303   1.928
 2109SOL    HW2 7227   3.163   6.435   1.985
 2110SOL     OW 7228   3.496   6.170   0.244
 2110SOL    HW1 7229   3.502   6.085   0.193
 2110SOL    HW2 7230   3.416   6.222   0.213
 2111SOL     OW 7231   1.121   2.429   5.688
 2111SOL    HW1 7232   1.180   2.394   5.616
 2111SOL    HW2 7233   1.051   2.488   5.648
 2112SOL     OW 7234   1.558   0.107   7.010
 2112SOL    HW1 7235   1.492   0.043   0.026
 2112SOL    HW2 7236   1.650   0.068   7.015
 2113SOL     OW 7237   6.525   1.434   4.649
 2113SOL    HW1 7238   6.521   1.365   4.577
 2113SOL    HW2 7239   6.612   1.483   4.645
 2114SOL     OW 7240   2.230   1.414   5.829
 2114SOL    HW1 7241   2.133   1.435   5.823
 2114SOL    HW2 7242   2.246   1.350   5.905
 2115SOL     OW 7243   6.536   5.945   3.716
 2115SOL    HW1 7244   6.475   5.914   3.643
 2115SOL    HW2 7245   6.613   5.995   3.675
 2116SOL     OW 7246   2.033   1.785   6.856
 2116SOL    HW1 7247   2.028   1.876   6.897
 2116SOL    HW2 7248   2.106   1.783   6.788
 2117SOL     OW 7249   6.795   1.578   2.381
 2117SOL    HW1 7250   6.878   1.539   2.421
 2117SOL    HW2 7251   6.748   1.633   2.450
 2118SOL     OW 7252   0.096   1.941   2.764
 2118SOL    HW1 7253   0.146   1.932   2.851
 2118SOL    HW2 7254   7.022   1.919   2.779
 2119SOL     OW 7255   0.744   2.386   0.638
 2119SOL    HW1 7256   0.716   2.394   0.734
 2119SOL    HW2 7257   0.843   2.396   0.632
 2120SOL     OW 7258   5.740   1.792   0.565
 2120SOL    HW1 7259   5.727   1.888   0.542
 2120SOL    HW2 7260   5.697   1.735   0.496
 2121SOL     OW 7261   1.887   6.915   0.771
 2121SOL    HW1 7262   1.891   6.871   0.682
 2121SOL    HW2 7263   1.974   6.901   0.820
 2122SOL     OW 7264   6.442   0.509   4.695
 2122SOL    HW1 7265   6.441   0.601   4.657
 2122SOL    HW2 7266   6.530   0.492   4.740
 2123SOL     OW 7267   1.540   5.459   2.732
 2123SOL    HW1 7268   1.592   5.411   2.660
 2123SOL    HW2 7269   1.604   5.497   2.798
 2124SOL     OW 7270   4.301   3.584   6.710
 2124SOL    HW1 7271   4.277   3.580   6.808
 2124SOL    HW2 7272   4.392   3.624   6.699
 2125SOL     OW 7273   1.733   5.929   4.369
 2125SOL    HW1 7274   1.778   5.864   4.307
 2125SOL    HW2 7275   1.647   5.889   4.401
 2126SOL     OW 7276   2.639   3.777   6.843
 2126SOL    HW1 7277   2.642   3.706   6.913
 2126SOL    HW2 7278   2.545   3.805   6.827
 2127SOL     OW 7279   0.963   3.089   4.216
 2127SOL    HW1 7280   1.061   3.108   4.215
 2127SOL    HW2 7281   0.933   3.071   4.309
 2128SOL     OW 7282   5.205   2.799   2.082
 2128SOL    HW1 7283   5.129   2.854   2.048
 2128SOL    HW2 7284   5.169   2.721   2.133
 2129SOL     OW 7285   5.022   4.962   4.404
 2129SOL    HW1 7286   4.926   4.940   4.389
 2129SOL    HW2 7287   5.039   4.975   4.502
 2130SOL     OW 7288   2.510   1.341   1.016
 2130SOL    HW1 7289   2.569   1.369   0.940
 2130SOL    HW2 7290   2.416   1.370   0.998
 2131SOL     OW 7291   5.512   0.506   5.793
 2131SOL    HW1 7292   5.514   0.582   5.727
 2131SOL    HW2 7293   5.604   0.467   5.802
 2132SOL     OW 7294   2.441   2.637   7.006
 2132SOL    HW1 7295   2.463   2.733   7.021
 2132SOL    HW2 7296   2.498   2.601   6.932
 2133SOL     OW 7297   3.453   2.440   1.124
 2133SOL    HW1 7298   3.489   2.434   1.217
 2133SOL    HW2 7299   3.504   2.378   1.064
 2134SOL     OW 7300   2.341   6.551   5.218
 2134SOL    HW1 7301   2.334   6.517   5.312
 2134SOL    HW2 7302   2.279   6.629   5.207
 2135SOL     OW 7303   0.935   5.967   3.434
 2135SOL    HW1 7304   0.950   6.039   3.366
 2135SOL    HW2 7305   0.897   5.886   3.389
 2136SOL     OW 7306   1.469   5.051   3.474
 2136SOL    HW1 7307   1.532   5.080   3.402
 2136SOL    HW2 7308   1.518   5.047   3.561
 2137SOL     OW 7309   0.835   1.497   4.842
 2137SOL    HW1 7310   0.809   1.556   4.919
 2137SOL    HW2 7311   0.788   1.527   4.759
 2138SOL     OW 7312   0.870   2.759   5.482
 2138SOL    HW1 7313   0.952   2.809   5.510
 2138SOL    HW2 7314   0.790   2.818   5.489
 2139SOL     OW 7315   2.680   0.257   4.663
 2139SOL    HW1 7316   2.678   0.314   4.581
 2139SOL    HW2 7317   2.624   0.298   4.734
 2140SOL     OW 7318   1.588   5.842   3.421
 2140SOL    HW1 7319   1.643   5.885   3.349
 2140SOL    HW2 7320   1.528   5.772   3.380
 2141SOL     OW 7321   0.005   1.520   0.150
 2141SOL    HW1 7322   0.017   1.566   0.062
 2141SOL    HW2 7323   7.013   1.588   0.222
 2142SOL     OW 7324   2.942   1.224   3.749
 2142SOL    HW1 7325   2.989   1.307   3.779
 2142SOL    HW2 7326   3.009   1.161   3.710
 2143SOL     OW 7327   4.333   6.254   0.020
 2143SOL    HW1 7328   4.338   6.314   6.963
 2143SOL    HW2 7329   4.422   6.253   0.066
 2144SOL     OW 7330   0.338   0.830   2.017
 2144SOL    HW1 7331   0.324   0.929   2.023
 2144SOL    HW2 7332   0.284   0.784   2.087
 2145SOL     OW 7333   3.667   5.717   2.651
 2145SOL    HW1 7334   3.724   5.750   2.726
 2145SOL    HW2 7335   3.587   5.775   2.641
 2146SOL     OW 7336   3.178   2.324   0.649
 2146SOL    HW1 7337   3.258   2.326   0.710
 2146SOL    HW2 7338   3.200   2.374   0.565
 2147SOL     OW 7339   0.578   0.744   5.479
 2147SOL    HW1 7340   0.648   0.685   5.518
 2147SOL    HW2 7341   0.620   0.827   5.443
 2148SOL     OW 7342   5.277   3.120   3.437
 2148SOL    HW1 7343   5.351   3.188   3.438
 2148SOL    HW2 7344   5.189   3.166   3.454
 2149SOL     OW 7345   3.321   0.283   2.656
 2149SOL    HW1 7346   3.254   0.330   2.713
 2149SOL    HW2 7347   3.326   0.187   2.683
 2150SOL     OW 7348   4.027   1.143   2.636
 2150SOL    HW1 7349   4.123   1.116   2.640
 2150SOL    HW2 7350   3.978   1.082   2.574
 2151SOL     OW 7351   3.228   3.534   5.657
 2151SOL    HW1 7352   3.168   3.589   5.599
 2151SOL    HW2 7353   3.182   3.449   5.682
 2152SOL     OW 7354   6.147   6.133   1.873
 2152SOL    HW1 7355   6.057   6.090   1.864
 2152SOL    HW2 7356   6.139   6.214   1.931
 2153SOL     OW 7357   4.795   2.366   2.590
 2153SOL    HW1 7358   4.751   2.456   2.600
 2153SOL    HW2 7359   4.725   2.297   2.574
 2154SOL     OW 7360   3.809   6.166   5.142
 2154SOL    HW1 7361   3.904   6.183   5.112
 2154SOL    HW2 7362   3.806   6.084   5.198
 2155SOL     OW 7363   5.538   4.008   6.389
 2155SOL    HW1 7364   5.629   4.008   6.428
 2155SOL    HW2 7365   5.470   4.020   6.462
 2156SOL     OW 7366   0.654   0.891   1.145
 2156SOL    HW1 7367   0.688   0.967   1.201
 2156SOL    HW2 7368   0.571   0.920   1.097
 2157SOL     OW 7369   6.462   1.232   4.469
 2157SOL    HW1 7370   6.424   1.286   4.394
 2157SOL    HW2 7371   6.390   1.175   4.509
 2158SOL     OW 7372   4.605   6.660   2.846
 2158SOL    HW1 7373   4.644   6.619   2.764
 2158SOL    HW2 7374   4.568   6.588   2.904
 2159SOL     OW 7375   2.176   6.764   5.173
 2159SOL    HW1 7376   2.262   6.811   5.155
 2159SOL    HW2 7377   2.129   6.809   5.250
 2160SOL     OW 7378   2.942   3.044   1.069
 2160SOL    HW1 7379   2.938   2.976   0.995
 2160SOL    HW2 7380   3.015   3.110   1.050
 2161SOL     OW 7381   5.066   2.505   3.717
 2161SOL    HW1 7382   5.118   2.586   3.687
 2161SOL    HW2 7383   4.996   2.533   3.782
 2162SOL     OW 7384   1.878   1.561   0.720
 2162SOL    HW1 7385   1.926   1.493   0.776
 2162SOL    HW2 7386   1.786   1.528   0.697
 2163SOL     OW 7387   2.621   1.417   1.266
 2163SOL    HW1 7388   2.583   1.393   1.177
 2163SOL    HW2 7389   2.550   1.460   1.322
 2164SOL     OW 7390   0.067   0.549   1.287
 2164SOL    HW1 7391   0.116   0.539   1.373
 2164SOL    HW2 7392   0.120   0.507   1.213
 2165SOL     OW 7393   3.092   0.091   0.854
 2165SOL    HW1 7394   3.046   0.177   0.834
 2165SOL    HW2 7395   3.057   0.054   0.940
 2166SOL     OW 7396   6.064   2.679   6.254
 2166SOL    HW1 7397   6.015   2.765   6.267
 2166SOL    HW2 7398   6.137   2.691   6.187
 2167SOL     OW 7399   2.832   0.789   2.021
 2167SOL    HW1 7400   2.741   0.784   1.981
 2167SOL    HW2 7401   2.891   0.845   1.963
 2168SOL     OW 7402   5.684   6.296   4.840
 2168SOL    HW1 7403   5.602   6.354   4.843
 2168SOL    HW2 7404   5.664   6.209   4.883
 2169SOL     OW 7405   6.596   1.414   5.450
 2169SOL    HW1 7406   6.663   1.486   5.464
 2169SOL    HW2 7407   6.511   1.453   5.416
 2170SOL     OW 7408   5.383   4.425   4.412
 2170SOL    HW1 7409   5.455   4.440   4.344
 2170SOL    HW2 7410   5.298   4.467   4.379
 2171SOL     OW 7411   6.779   3.510   0.172
 2171SOL    HW1 7412   6.842   3.441   0.138
 2171SOL    HW2 7413   6.686   3.487   0.143
 2172SOL     OW 7414   2.909   0.396   1.111
 2172SOL    HW1 7415   2.975   0.350   1.051
 2172SOL    HW2 7416   2.896   0.490   1.079
 2173SOL     OW 7417   4.852   2.091   5.093
 2173SOL    HW1 7418   4.812   2.148   5.022
 2173SOL    HW2 7419   4.855   1.996   5.062
 2174SOL     OW 7420   1.173   5.517   5.013
 2174SOL    HW1 7421   1.128   5.529   4.925
 2174SOL    HW2 7422   1.262   5.562   5.011
 2175SOL     OW 7423   1.622   6.052   5.986
 2175SOL    HW1 7424   1.620   5.986   5.910
 2175SOL    HW2 7425   1.662   6.138   5.954
 2176SOL     OW 7426   1.577   2.762   2.356
 2176SOL    HW1 7427   1.478   2.774   2.369
 2176SOL    HW2 7428   1.594   2.672   2.316
 2177SOL     OW 7429   0.217   1.165   2.560
 2177SOL    HW1 7430   0.306   1.168   2.606
 2177SOL    HW2 7431   0.177   1.256   2.559
 2178SOL     OW 7432   0.110   5.807   0.913
 2178SOL    HW1 7433   0.150   5.716   0.920
 2178SOL    HW2 7434   0.165   5.863   0.851
 2179SOL     OW 7435   1.222   3.844   4.066
 2179SOL    HW1 7436   1.221   3.942   4.083
 2179SOL    HW2 7437   1.131   3.805   4.083
 2180SOL     OW 7438   3.847   2.959   1.580
 2180SOL    HW1 7439   3.873   3.024   1.508
 2180SOL    HW2 7440   3.916   2.961   1.653
 2181SOL     OW 7441   4.052   6.489   1.005
 2181SOL    HW1 7442   4.098   6.577   0.998
 2181SOL    HW2 7443   3.989   6.478   0.929
 2182SOL     OW 7444   5.707   2.074   0.447
 2182SOL    HW1 7445   5.645   2.041   0.375
 2182SOL    HW2 7446   5.715   2.173   0.441
 2183SOL     OW 7447   2.820   2.775   0.283
 2183SOL    HW1 7448   2.748   2.841   0.307
 2183SOL    HW2 7449   2.853   2.731   0.367
 2184SOL     OW 7450   4.357   3.305   6.181
 2184SOL    HW1 7451   4.450   3.278   6.155
 2184SOL    HW2 7452   4.362   3.383   6.244
 2185SOL     OW 7453   0.310   7.001   1.876
 2185SOL    HW1 7454   0.227   6.982   1.824
 2185SOL    HW2 7455   0.371   6.922   1.871
 2186SOL     OW 7456   0.220   4.537   2.814
 2186SOL    HW1 7457   0.132   4.493   2.797
 2186SOL    HW2 7458   0.277   4.477   2.870
 2187SOL     OW 7459   6.450   1.592   6.342
 2187SOL    HW1 7460   6.448   1.636   6.432
 2187SOL    HW2 7461   6.357   1.589   6.304
 2188SOL     OW 7462   4.798   1.243   3.433
 2188SOL    HW1 7463   4.730   1.171   3.447
 2188SOL    HW2 7464   4.764   1.308   3.365
 2189SOL     OW 7465   2.910   0.634   6.744
 2189SOL    HW1 7466   2.867   0.677   6.824
 2189SOL    HW2 7467   2.977   0.567   6.775
 2190SOL     OW 7468   5.332   2.327   0.749
 2190SOL    HW1 7469   5.237   2.343   0.775
 2190SOL    HW2 7470   5.388   2.319   0.832
 2191SOL     OW 7471   2.858   1.899   6.918
 2191SOL    HW1 7472   2.798   1.944   6.985
 2191SOL    HW2 7473   2.908   1.825   6.962
 2192SOL     OW 7474   3.902   5.117   2.805
 2192SOL    HW1 7475   3.973   5.135   2.737
 2192SOL    HW2 7476   3.836   5.052   2.768
 2193SOL     OW 7477   6.884   5.931   5.137
 2193SOL    HW1 7478   6.930   5.843   5.147
 2193SOL    HW2 7479   6.952   6.003   5.120
 2194SOL     OW 7480   2.860   0.114   1.356
 2194SOL    HW1 7481   2.922   0.123   1.434
 2194SOL    HW2 7482   2.806   0.197   1.347
 2195SOL     OW 7483   1.239   5.088   2.303
 2195SOL    HW1 7484   1.320   5.072   2.359
 2195SOL    HW2 7485   1.194   5.001   2.283
 2196SOL     OW 7486   4.282   2.926   6.909
 2196SOL    HW1 7487   4.364   2.951   6.856
 2196SOL    HW2 7488   4.301   2.844   6.962
 2197SOL     OW 7489   4.686   4.369   6.937
 2197SOL    HW1 7490   4.729   4.435   6.998
 2197SOL    HW2 7491   4.609   4.325   6.983
 2198SOL     OW 7492   5.962   4.291   0.575
 2198SOL    HW1 7493   6.051   4.248   0.561
 2198SOL    HW2 7494   5.904   4.272   0.496
 2199SOL     OW 7495   4.157   0.780   2.625
 2199SOL    HW1 7496   4.074   0.736   2.590
 2199SOL    HW2 7497   4.203   0.828   2.550
 2200SOL     OW 7498   2.214   6.569   3.825
 2200SOL    HW1 7499   2.196   6.667   3.817
 2200SOL    HW2 7500   2.128   6.521   3.844
 2201SOL     OW 7501   4.699   4.171   3.792
 2201SOL    HW1 7502   4.684   4.265   3.762
 2201SOL    HW2 7503   4.694   4.167   3.892
 2202SOL     OW 7504   4.986   6.217   4.099
 2202SOL    HW1 7505   5.028   6.210   4.008
 2202SOL    HW2 7506   4.888   6.232   4.089
 2203SOL     OW 7507   3.059   1.925   3.018
 2203SOL    HW1 7508   3.024   1.873   2.940
 2203SOL    HW2 7509   3.081   1.862   3.093
 2204SOL     OW 7510   2.532   3.215   1.095
 2204SOL    HW1 7511   2.449   3.197   1.147
 2204SOL    HW2 7512   2.509   3.218   0.997
 2205SOL     OW 7513   2.458   0.858   1.856
 2205SOL    HW1 7514   2.506   0.781   1.897
 2205SOL    HW2 7515   2.521   0.936   1.848
 2206SOL     OW 7516   2.044   3.281   0.413
 2206SOL    HW1 7517   1.947   3.260   0.415
 2206SOL    HW2 7518   2.057   3.376   0.382
 2207SOL     OW 7519   0.241   4.461   4.469
 2207SOL    HW1 7520   0.195   4.491   4.553
 2207SOL    HW2 7521   0.285   4.540   4.426
 2208SOL     OW 7522   6.696   4.673   2.250
 2208SOL    HW1 7523   6.673   4.595   2.192
 2208SOL    HW2 7524   6.761   4.731   2.202
 2209SOL     OW 7525   1.145   6.926   1.795
 2209SOL    HW1 7526   1.063   6.869   1.785
 2209SOL    HW2 7527   1.224   6.877   1.758
 2210SOL     OW 7528   2.317   5.032   3.437
 2210SOL    HW1 7529   2.278   4.992   3.520
 2210SOL    HW2 7530   2.250   5.094   3.396
 2211SOL     OW 7531   6.885   1.521   5.540
 2211SOL    HW1 7532   6.924   1.525   5.632
 2211SOL    HW2 7533   6.947   1.472   5.479
 2212SOL     OW 7534   2.286   0.138   6.227
 2212SOL    HW1 7535   2.198   0.094   6.204
 2212SOL    HW2 7536   2.353   0.067   6.249
 2213SOL     OW 7537   3.602   0.945   3.283
 2213SOL    HW1 7538   3.673   0.925   3.350
 2213SOL    HW2 7539   3.513   0.916   3.319
 2214SOL     OW 7540   4.647   6.955   5.238
 2214SOL    HW1 7541   4.645   6.971   5.337
 2214SOL    HW2 7542   4.742   6.947   5.207
 2215SOL     OW 7543   5.922   2.556   5.642
 2215SOL    HW1 7544   5.828   2.563   5.610
 2215SOL    HW2 7545   5.934   2.610   5.725
 2216SOL     OW 7546   2.961   0.724   2.271
 2216SOL    HW1 7547   3.058   0.710   2.251
 2216SOL    HW2 7548   2.917   0.768   2.193
 2217SOL     OW 7549   4.087   0.756   1.649
 2217SOL    HW1 7550   4.034   0.735   1.567
 2217SOL    HW2 7551   4.059   0.845   1.685
 2218SOL     OW 7552   1.610   7.017   3.225
 2218SOL    HW1 7553   1.533   0.038   3.272
 2218SOL    HW2 7554   1.627   6.927   3.266
 2219SOL     OW 7555   1.463   2.387   2.586
 2219SOL    HW1 7556   1.489   2.351   2.497
 2219SOL    HW2 7557   1.473   2.486   2.586
 2220SOL     OW 7558   0.421   0.068   2.185
 2220SOL    HW1 7559   0.404   0.007   2.107
 2220SOL    HW2 7560   0.512   0.050   2.222
 2221SOL     OW 7561   1.197   1.401   6.530
 2221SOL    HW1 7562   1.182   1.460   6.451
 2221SOL    HW2 7563   1.285   1.355   6.521
 2222SOL     OW 7564   6.282   6.142   3.064
 2222SOL    HW1 7565   6.372   6.121   3.025
 2222SOL    HW2 7566   6.220   6.066   3.045
 2223SOL     OW 7567   6.221   5.809   1.716
 2223SOL    HW1 7568   6.291   5.857   1.663
 2223SOL    HW2 7569   6.132   5.820   1.671
 2224SOL     OW 7570   1.002   4.606   1.833
 2224SOL    HW1 7571   1.090   4.559   1.836
 2224SOL    HW2 7572   0.933   4.552   1.879
 2225SOL     OW 7573   0.137   4.552   1.147
 2225SOL    HW1 7574   0.217   4.494   1.162
 2225SOL    HW2 7575   0.061   4.520   1.203
 2226SOL     OW 7576   3.941   3.925   1.851
 2226SOL    HW1 7577   4.037   3.911   1.873
 2226SOL    HW2 7578   3.899   3.980   1.923
 2227SOL     OW 7579   0.697   2.638   4.571
 2227SOL    HW1 7580   0.632   2.695   4.620
 2227SOL    HW2 7581   0.756   2.590   4.637
 2228SOL     OW 7582   3.270   5.021   4.625
 2228SOL    HW1 7583   3.240   4.929   4.600
 2228SOL    HW2 7584   3.232   5.045   4.715
 2229SOL     OW 7585   5.644   6.865   3.299
 2229SOL    HW1 7586   5.637   6.768   3.324
 2229SOL    HW2 7587   5.684   6.916   3.374
 2230SOL     OW 7588   2.744   5.405   1.670
 2230SOL    HW1 7589   2.764   5.358   1.756
 2230SOL    HW2 7590   2.757   5.341   1.593
 2231SOL     OW 7591   2.587   6.064   1.083
 2231SOL    HW1 7592   2.600   5.969   1.108
 2231SOL    HW2 7593   2.601   6.075   0.985
 2232SOL     OW 7594   5.439   2.912   3.563
 2232SOL    HW1 7595   5.480   2.973   3.631
 2232SOL    HW2 7596   5.392   2.966   3.494
 2233SOL     OW 7597   2.374   1.973   6.341
 2233SOL    HW1 7598   2.473   1.964   6.329
 2233SOL    HW2 7599   2.331   1.884   6.327
 2234SOL     OW 7600   3.602   2.677   1.256
 2234SOL    HW1 7601   3.555   2.745   1.201
 2234SOL    HW2 7602   3.536   2.608   1.287
 2235SOL     OW 7603   2.507   2.066   1.226
 2235SOL    HW1 7604   2.590   2.068   1.170
 2235SOL    HW2 7605   2.517   1.999   1.299
 2236SOL     OW 7606   0.878   4.654   6.168
 2236SOL    HW1 7607   0.904   4.615   6.079
 2236SOL    HW2 7608   0.787   4.695   6.161
 2237SOL     OW 7609   6.468   3.266   3.978
 2237SOL    HW1 7610   6.529   3.234   4.050
 2237SOL    HW2 7611   6.522   3.292   3.897
 2238SOL     OW 7612   6.492   6.337   1.254
 2238SOL    HW1 7613   6.419   6.341   1.323
 2238SOL    HW2 7614   6.515   6.430   1.224
 2239SOL     OW 7615   5.598   6.082   2.387
 2239SOL    HW1 7616   5.595   5.987   2.419
 2239SOL    HW2 7617   5.670   6.131   2.436
 2240SOL     OW 7618   5.558   3.860   1.812
 2240SOL    HW1 7619   5.600   3.882   1.724
 2240SOL    HW2 7620   5.628   3.824   1.874
 2241SOL     OW 7621   1.143   6.939   2.534
 2241SOL    HW1 7622   1.229   6.904   2.572
 2241SOL    HW2 7623   1.108   6.874   2.466
 2242SOL     OW 7624   3.638   2.105   2.698
 2242SOL    HW1 7625   3.541   2.100   2.723
 2242SOL    HW2 7626   3.688   2.151   2.771
 2243SOL     OW 7627   2.433   6.720   4.990
 2243SOL    HW1 7628   2.416   6.796   5.054
 2243SOL    HW2 7629   2.454   6.637   5.042
 2244SOL     OW 7630   3.396   1.027   4.910
 2244SOL    HW1 7631   3.362   1.108   4.864
 2244SOL    HW2 7632   3.428   1.052   5.002
 2245SOL     OW 7633   0.243   2.141   2.072
 2245SOL    HW1 7634   0.330   2.133   2.022
 2245SOL    HW2 7635   0.247   2.221   2.132
 2246SOL     OW 7636   1.583   4.764   4.997
 2246SOL    HW1 7637   1.582   4.862   5.018
 2246SOL    HW2 7638   1.537   4.713   5.069
 2247SOL     OW 7639   1.849   1.508   4.785
 2247SOL    HW1 7640   1.869   1.606   4.780
 2247SOL    HW2 7641   1.755   1.492   4.753
 2248SOL     OW 7642   4.248   3.840   5.578
 2248SOL    HW1 7643   4.234   3.792   5.665
 2248SOL    HW2 7644   4.276   3.774   5.508
 2249SOL     OW 7645   3.605   4.922   5.161
 2249SOL    HW1 7646   3.532   4.942   5.225
 2249SOL    HW2 7647   3.582   4.959   5.071
 2250SOL     OW 7648   4.990   4.941   1.165
 2250SOL    HW1 7649   5.059   4.986   1.109
 2250SOL    HW2 7650   4.936   5.009   1.214
 2251SOL     OW 7651   0.737   0.140   6.133
 2251SOL    HW1 7652   0.835   0.132   6.153
 2251SOL    HW2 7653   0.719   0.108   6.040
 2252SOL     OW 7654   3.764   0.598   5.872
 2252SOL    HW1 7655   3.679   0.642   5.842
 2252SOL    HW2 7656   3.759   0.499   5.855
 2253SOL     OW 7657   1.184   2.885   6.071
 2253SOL    HW1 7658   1.102   2.941   6.084
 2253SOL    HW2 7659   1.254   2.938   6.023
 2254SOL     OW 7660   1.700   4.411   6.107
 2254SOL    HW1 7661   1.661   4.481   6.048
 2254SOL    HW2 7662   1.639   4.332   6.111
 2255SOL     OW 7663   5.581   3.430   0.073
 2255SOL    HW1 7664   5.533   3.430   0.161
 2255SOL    HW2 7665   5.542   3.501   0.014
 2256SOL     OW 7666   3.251   4.872   2.427
 2256SOL    HW1 7667   3.349   4.851   2.435
 2256SOL    HW2 7668   3.238   4.936   2.351
 2257SOL     OW 7669   2.163   3.624   4.238
 2257SOL    HW1 7670   2.136   3.547   4.296
 2257SOL    HW2 7671   2.173   3.594   4.144
 2258SOL     OW 7672   1.593   4.856   5.302
 2258SOL    HW1 7673   1.539   4.773   5.295
 2258SOL    HW2 7674   1.578   4.913   5.222
 2259SOL     OW 7675   6.420   3.636   6.366
 2259SOL    HW1 7676   6.452   3.553   6.412
 2259SOL    HW2 7677   6.471   3.648   6.280
 2260SOL     OW 7678   4.241   3.715   1.503
 2260SOL    HW1 7679   4.328   3.674   1.477
 2260SOL    HW2 7680   4.201   3.761   1.423
 2261SOL     OW 7681   2.863   6.533   4.958
 2261SOL    HW1 7682   2.945   6.568   5.005
 2261SOL    HW2 7683   2.868   6.434   4.950
 2262SOL     OW 7684   3.450   1.926   3.534
 2262SOL    HW1 7685   3.392   1.848   3.511
 2262SOL    HW2 7686   3.425   1.961   3.625
 2263SOL     OW 7687   0.549   3.672   5.772
 2263SOL    HW1 7688   0.506   3.611   5.839
 2263SOL    HW2 7689   0.480   3.735   5.736
 2264SOL     OW 7690   3.142   3.776   3.197
 2264SOL    HW1 7691   3.185   3.865   3.208
 2264SOL    HW2 7692   3.209   3.704   3.214
 2265SOL     OW 7693   0.945   6.666   3.280
 2265SOL    HW1 7694   0.937   6.692   3.376
 2265SOL    HW2 7695   1.002   6.585   3.272
 2266SOL     OW 7696   6.688   0.593   6.526
 2266SOL    HW1 7697   6.634   0.618   6.446
 2266SOL    HW2 7698   6.769   0.542   6.497
 2267SOL     OW 7699   6.069   2.227   5.530
 2267SOL    HW1 7700   6.019   2.272   5.456
 2267SOL    HW2 7701   6.072   2.287   5.609
 2268SOL     OW 7702   6.788   5.147   6.831
 2268SOL    HW1 7703   6.699   5.192   6.829
 2268SOL    HW2 7704   6.860   5.215   6.816
 2269SOL     OW 7705   0.301   6.434   2.750
 2269SOL    HW1 7706   0.277   6.378   2.829
 2269SOL    HW2 7707   0.273   6.528   2.766
 2270SOL     OW 7708   3.605   3.166   2.849
 2270SOL    HW1 7709   3.648   3.129   2.767
 2270SOL    HW2 7710   3.668   3.156   2.926
 2271SOL     OW 7711   0.716   4.281   2.430
 2271SOL    HW1 7712   0.746   4.212   2.496
 2271SOL    HW2 7713   0.693   4.365   2.479
 2272SOL     OW 7714   5.379   1.952   5.647
 2272SOL    HW1 7715   5.283   1.938   5.673
 2272SOL    HW2 7716   5.438   1.897   5.707
 2273SOL     OW 7717   0.765   0.676   3.449
 2273SOL    HW1 7718   0.758   0.748   3.518
 2273SOL    HW2 7719   0.701   0.602   3.471
 2274SOL     OW 7720   0.801   4.106   2.624
 2274SOL    HW1 7721   0.840   4.037   2.561
 2274SOL    HW2 7722   0.832   4.087   2.717
 2275SOL     OW 7723   4.772   6.268   3.777
 2275SOL    HW1 7724   4.818   6.189   3.736
 2275SOL    HW2 7725   4.831   6.308   3.848
 2276SOL     OW 7726   3.235   6.014   2.218
 2276SOL    HW1 7727   3.280   5.953   2.153
 2276SOL    HW2 7728   3.230   5.969   2.307
 2277SOL     OW 7729   3.213   3.674   0.922
 2277SOL    HW1 7730   3.138   3.652   0.984
 2277SOL    HW2 7731   3.189   3.644   0.829
 2278SOL     OW 7732   5.015   6.356   0.921
 2278SOL    HW1 7733   4.979   6.305   1.000
 2278SOL    HW2 7734   5.019   6.296   0.842
 2279SOL     OW 7735   5.835   4.140   5.798
 2279SOL    HW1 7736   5.804   4.125   5.704
 2279SOL    HW2 7737   5.771   4.098   5.862
 2280SOL     OW 7738   5.570   6.768   6.228
 2280SOL    HW1 7739   5.665   6.779   6.257
 2280SOL    HW2 7740   5.538   6.853   6.186
 2281SOL     OW 7741   3.119   2.076   0.494
 2281SOL    HW1 7742   3.141   2.070   0.397
 2281SOL    HW2 7743   3.186   2.133   0.541
 2282SOL     OW 7744   4.460   5.918   2.122
 2282SOL    HW1 7745   4.387   5.852   2.101
 2282SOL    HW2 7746   4.484   5.967   2.038
 2283SOL     OW 7747   6.886   3.967   2.000
 2283SOL    HW1 7748   6.932   3.935   1.917
 2283SOL    HW2 7749   6.831   4.047   1.979
 2284SOL     OW 7750   2.651   2.262   2.210
 2284SOL    HW1 7751   2.613   2.169   2.203
 2284SOL    HW2 7752   2.746   2.261   2.181
 2285SOL     OW 7753   1.922   3.895   6.757
 2285SOL    HW1 7754   1.918   3.834   6.836
 2285SOL    HW2 7755   1.995   3.961   6.768
 2286SOL     OW 7756   5.929   6.626   4.485
 2286SOL    HW1 7757   5.973   6.626   4.575
 2286SOL    HW2 7758   5.836   6.663   4.493
 2287SOL     OW 7759   2.103   2.236   0.710
 2287SOL    HW1 7760   2.147   2.164   0.656
 2287SOL    HW2 7761   2.126   2.325   0.672
 2288SOL     OW 7762   1.884   5.611   4.488
 2288SOL    HW1 7763   1.904   5.644   4.580
 2288SOL    HW2 7764   1.927   5.522   4.474
 2289SOL     OW 7765   4.127   1.518   6.938
 2289SOL    HW1 7766   4.124   1.421   6.965
 2289SOL    HW2 7767   4.140   1.525   6.839
 2290SOL     OW 7768   3.300   3.903   3.487
 2290SOL    HW1 7769   3.204   3.931   3.491
 2290SOL    HW2 7770   3.313   3.820   3.541
 2291SOL     OW 7771   1.347   2.359   6.165
 2291SOL    HW1 7772   1.410   2.350   6.088
 2291SOL    HW2 7773   1.355   2.279   6.225
 2292SOL     OW 7774   4.877   1.729   2.667
 2292SOL    HW1 7775   4.945   1.712   2.738
 2292SOL    HW2 7776   4.920   1.723   2.577
 2293SOL     OW 7777   0.796   0.584   0.173
 2293SOL    HW1 7778   0.885   0.540   0.181
 2293SOL    HW2 7779   0.734   0.548   0.242
 2294SOL     OW 7780   0.143   0.852   5.948
 2294SOL    HW1 7781   0.093   0.785   5.894
 2294SOL    HW2 7782   0.146   0.822   6.044
 2295SOL     OW 7783   5.704   5.320   1.499
 2295SOL    HW1 7784   5.739   5.247   1.441
 2295SOL    HW2 7785   5.750   5.406   1.478
 2296SOL     OW 7786   3.909   5.214   4.223
 2296SOL    HW1 7787   3.855   5.195   4.141
 2296SOL    HW2 7788   3.911   5.134   4.282
 2297SOL     OW 7789   5.317   3.832   5.107
 2297SOL    HW1 7790   5.233   3.783   5.131
 2297SOL    HW2 7791   5.331   3.828   5.008
 2298SOL     OW 7792   3.025   3.695   4.966
 2298SOL    HW1 7793   2.975   3.718   5.050
 2298SOL    HW2 7794   2.968   3.636   4.910
 2299SOL     OW 7795   5.763   3.038   4.035
 2299SOL    HW1 7796   5.849   3.004   3.998
 2299SOL    HW2 7797   5.697   3.050   3.960
 2300SOL     OW 7798   5.315   0.111   1.999
 2300SOL    HW1 7799   5.261   0.047   2.054
 2300SOL    HW2 7800   5.285   0.107   1.904
 2301SOL     OW 7801   3.907   3.195   4.993
 2301SOL    HW1 7802   3.940   3.252   4.918
 2301SOL    HW2 7803   3.964   3.209   5.073
 2302SOL     OW 7804   6.509   3.025   6.146
 2302SOL    HW1 7805   6.519   2.955   6.217
 2302SOL    HW2 7806   6.443   3.093   6.177
 2303SOL     OW 7807   3.223   2.565   0.126
 2303SOL    HW1 7808   3.199   2.622   0.047
 2303SOL    HW2 7809   3.154   2.576   0.197
 2304SOL     OW 7810   6.782   6.463   2.687
 2304SOL    HW1 7811   6.838   6.462   2.770
 2304SOL    HW2 7812   6.735   6.375   2.678
 2305SOL     OW 7813   2.397   6.947   5.164
 2305SOL    HW1 7814   2.402   6.954   5.263
 2305SOL    HW2 7815   2.450   7.020   5.121
 2306SOL     OW 7816   1.645   5.011   4.625
 2306SOL    HW1 7817   1.647   5.102   4.666
 2306SOL    HW2 7818   1.733   4.992   4.582
 2307SOL     OW 7819   6.248   3.352   4.680
 2307SOL    HW1 7820   6.212   3.311   4.764
 2307SOL    HW2 7821   6.192   3.432   4.656
 2308SOL     OW 7822   1.069   5.601   2.427
 2308SOL    HW1 7823   1.163   5.634   2.420
 2308SOL    HW2 7824   1.019   5.656   2.494
 2309SOL     OW 7825   2.148   0.576   4.748
 2309SOL    HW1 7826   2.145   0.532   4.838
 2309SOL    HW2 7827   2.232   0.629   4.740
 2310SOL     OW 7828   4.582   6.781   1.218
 2310SOL    HW1 7829   4.588   6.691   1.262
 2310SOL    HW2 7830   4.486   6.800   1.193
 2311SOL     OW 7831   2.015   5.322   0.950
 2311SOL    HW1 7832   1.980   5.383   1.021
 2311SOL    HW2 7833   2.037   5.376   0.868
 2312SOL     OW 7834   3.322   4.796   1.785
 2312SOL    HW1 7835   3.226   4.780   1.809
 2312SOL    HW2 7836   3.372   4.710   1.788
 2313SOL     OW 7837   4.952   4.728   1.367
 2313SOL    HW1 7838   4.984   4.795   1.299
 2313SOL    HW2 7839   5.029   4.697   1.422
 2314SOL     OW 7840   2.715   4.683   4.169
 2314SOL    HW1 7841   2.727   4.648   4.076
 2314SOL    HW2 7842   2.657   4.619   4.220
 2315SOL     OW 7843   4.540   2.681   6.433
 2315SOL    HW1 7844   4.551   2.779   6.414
 2315SOL    HW2 7845   4.518   2.668   6.530
 2316SOL     OW 7846   5.178   3.742   2.036
 2316SOL    HW1 7847   5.124   3.673   2.086
 2316SOL    HW2 7848   5.132   3.830   2.042
 2317SOL     OW 7849   0.178   6.057   2.846
 2317SOL    HW1 7850   0.187   6.088   2.751
 2317SOL    HW2 7851   0.081   6.037   2.865
 2318SOL     OW 7852   0.308   0.870   4.161
 2318SOL    HW1 7853   0.407   0.867   4.144
 2318SOL    HW2 7854   0.260   0.823   4.087
 2319SOL     OW 7855   1.584   4.936   2.047
 2319SOL    HW1 7856   1.606   4.901   2.138
 2319SOL    HW2 7857   1.485   4.948   2.039
 2320SOL     OW 7858   6.559   4.899   4.948
 2320SOL    HW1 7859   6.573   4.966   5.021
 2320SOL    HW2 7860   6.534   4.811   4.987
 2321SOL     OW 7861   3.556   5.006   4.891
 2321SOL    HW1 7862   3.588   5.100   4.879
 2321SOL    HW2 7863   3.456   5.004   4.881
 2322SOL     OW 7864   2.876   0.588   4.721
 2322SOL    HW1 7865   2.938   0.657   4.683
 2322SOL    HW2 7866   2.799   0.576   4.659
 2323SOL     OW 7867   4.991   3.602   2.477
 2323SOL    HW1 7868   5.074   3.595   2.423
 2323SOL    HW2 7869   4.995   3.683   2.535
 2324SOL     OW 7870   0.689   4.605   3.472
 2324SOL    HW1 7871   0.663   4.513   3.444
 2324SOL    HW2 7872   0.765   4.600   3.536
 2325SOL     OW 7873   0.442   2.594   0.098
 2325SOL    HW1 7874   0.502   2.651   0.042
 2325SOL    HW2 7875   0.376   2.652   0.147
 2326SOL     OW 7876   0.685   4.104   0.625
 2326SOL    HW1 7877   0.716   4.061   0.710
 2326SOL    HW2 7878   0.611   4.050   0.586
 2327SOL     OW 7879   5.345   1.871   3.766
 2327SOL    HW1 7880   5.296   1.812   3.702
 2327SOL    HW2 7881   5.296   1.957   3.776
 2328SOL     OW 7882   6.677   6.321   3.513
 2328SOL    HW1 7883   6.595   6.335   3.568
 2328SOL    HW2 7884   6.668   6.369   3.426
 2329SOL     OW 7885   6.771   5.413   3.128
 2329SOL    HW1 7886   6.675   5.396   3.147
 2329SOL    HW2 7887   6.800   5.497   3.173
 2330SOL     OW 7888   0.551   3.813   1.486
 2330SOL    HW1 7889   0.512   3.721   1.482
 2330SOL    HW2 7890   0.480   3.879   1.510
 2331SOL     OW 7891   1.213   4.302   5.692
 2331SOL    HW1 7892   1.201   4.396   5.660
 2331SOL    HW2 7893   1.310   4.283   5.706
 2332SOL     OW 7894   5.301   2.107   5.239
 2332SOL    HW1 7895   5.286   2.200   5.206
 2332SOL    HW2 7896   5.385   2.104   5.294
 2333SOL     OW 7897   3.018   4.829   3.914
 2333SOL    HW1 7898   2.977   4.738   3.909
 2333SOL    HW2 7899   3.044   4.859   3.822
 2334SOL     OW 7900   2.688   0.002   6.987
 2334SOL    HW1 7901   2.611   6.970   7.021
 2334SOL    HW2 7902   2.658   0.056   6.908
 2335SOL     OW 7903   4.638   5.294   4.718
 2335SOL    HW1 7904   4.734   5.301   4.689
 2335SOL    HW2 7905   4.586   5.244   4.649
 2336SOL     OW 7906   4.105   2.963   5.777
 2336SOL    HW1 7907   4.132   2.888   5.838
 2336SOL    HW2 7908   4.177   3.032   5.774
 2337SOL     OW 7909   6.235   0.431   4.489
 2337SOL    HW1 7910   6.280   0.464   4.406
 2337SOL    HW2 7911   6.303   0.388   4.549
 2338SOL     OW 7912   1.021   0.292   6.406
 2338SOL    HW1 7913   1.006   0.268   6.502
 2338SOL    HW2 7914   1.115   0.271   6.380
 2339SOL     OW 7915   4.120   4.707   6.667
 2339SOL    HW1 7916   4.186   4.736   6.736
 2339SOL    HW2 7917   4.167   4.658   6.594
 2340SOL     OW 7918   3.835   4.900   3.703
 2340SOL    HW1 7919   3.833   4.890   3.802
 2340SOL    HW2 7920   3.742   4.919   3.670
 2341SOL     OW 7921   5.542   4.734   6.259
 2341SOL    HW1 7922   5.627   4.768   6.300
 2341SOL    HW2 7923   5.494   4.676   6.325
 2342SOL     OW 7924   0.114   0.162   5.392
 2342SOL    HW1 7925   0.021   0.140   5.360
 2342SOL    HW2 7926   0.180   0.120   5.330
 2343SOL     OW 7927   1.073   0.437   0.772
 2343SOL    HW1 7928   1.130   0.475   0.845
 2343SOL    HW2 7929   1.129   0.419   0.692
 2344SOL     OW 7930   3.094   1.575   3.305
 2344SOL    HW1 7931   3.055   1.536   3.222
 2344SOL    HW2 7932   3.088   1.510   3.380
 2345SOL     OW 7933   1.256   1.734   2.866
 2345SOL    HW1 7934   1.281   1.805   2.801
 2345SOL    HW2 7935   1.338   1.705   2.917
 2346SOL     OW 7936   4.769   3.335   5.385
 2346SOL    HW1 7937   4.719   3.268   5.331
 2346SOL    HW2 7938   4.711   3.415   5.402
 2347SOL     OW 7939   1.334   3.503   0.965
 2347SOL    HW1 7940   1.265   3.543   1.026
 2347SOL    HW2 7941   1.424   3.514   1.007
 2348SOL     OW 7942   2.804   6.317   1.731
 2348SOL    HW1 7943   2.779   6.226   1.698
 2348SOL    HW2 7944   2.781   6.324   1.828
 2349SOL     OW 7945   4.414   4.066   6.017
 2349SOL    HW1 7946   4.389   4.162   6.029
 2349SOL    HW2 7947   4.514   4.059   6.011
 2350SOL     OW 7948   2.086   5.562   5.358
 2350SOL    HW1 7949   2.171   5.581   5.309
 2350SOL    HW2 7950   2.105   5.507   5.440
 2351SOL     OW 7951   2.429   4.782   3.299
 2351SOL    HW1 7952   2.456   4.793   3.203
 2351SOL    HW2 7953   2.405   4.871   3.337
 2352SOL     OW 7954   5.927   4.587   0.852
 2352SOL    HW1 7955   5.852   4.632   0.804
 2352SOL    HW2 7956   6.002   4.569   0.788
 2353SOL     OW 7957   2.484   3.914   6.339
 2353SOL    HW1 7958   2.408   3.917   6.404
 2353SOL    HW2 7959   2.503   3.818   6.315
 2354SOL     OW 7960   4.005   2.160   1.948
 2354SOL    HW1 7961   3.980   2.064   1.941
 2354SOL    HW2 7962   3.923   2.216   1.959
 2355SOL     OW 7963   6.788   1.688   1.767
 2355SOL    HW1 7964   6.862   1.651   1.710
 2355SOL    HW2 7965   6.715   1.620   1.773
 2356SOL     OW 7966   2.828   5.118   3.918
 2356SOL    HW1 7967   2.821   5.057   3.997
 2356SOL    HW2 7968   2.895   5.082   3.854
 2357SOL     OW 7969   6.959   4.328   0.878
 2357SOL    HW1 7970   6.955   4.301   0.781
 2357SOL    HW2 7971   6.893   4.274   0.930
 2358SOL     OW 7972   3.534   1.278   5.004
 2358SOL    HW1 7973   3.493   1.265   5.095
 2358SOL    HW2 7974   3.513   1.370   4.971
 2359SOL     OW 7975   2.572   1.348   5.456
 2359SOL    HW1 7976   2.584   1.367   5.358
 2359SOL    HW2 7977   2.584   1.433   5.508
 2360SOL     OW 7978   3.119   5.165   0.440
 2360SOL    HW1 7979   3.051   5.096   0.418
 2360SOL    HW2 7980   3.073   5.246   0.478
 2361SOL     OW 7981   3.662   5.614   1.024
 2361SOL    HW1 7982   3.605   5.697   1.026
 2361SOL    HW2 7983   3.656   5.567   1.111
 2362SOL     OW 7984   3.431   5.033   3.846
 2362SOL    HW1 7985   3.417   5.064   3.940
 2362SOL    HW2 7986   3.368   4.958   3.827
 2363SOL     OW 7987   1.393   3.852   0.185
 2363SOL    HW1 7988   1.374   3.780   0.118
 2363SOL    HW2 7989   1.399   3.813   0.276
 2364SOL     OW 7990   3.827   1.714   2.519
 2364SOL    HW1 7991   3.792   1.639   2.575
 2364SOL    HW2 7992   3.767   1.793   2.527
 2365SOL     OW 7993   5.114   4.597   2.923
 2365SOL    HW1 7994   5.053   4.647   2.862
 2365SOL    HW2 7995   5.205   4.591   2.881
 2366SOL     OW 7996   3.240   5.106   5.598
 2366SOL    HW1 7997   3.243   5.043   5.520
 2366SOL    HW2 7998   3.191   5.189   5.572
 2367SOL     OW 7999   6.055   5.174   5.937
 2367SOL    HW1 8000   6.102   5.189   6.024
 2367SOL    HW2 8001   6.116   5.126   5.873
 2368SOL     OW 8002   5.674   0.303   5.407
 2368SOL    HW1 8003   5.683   0.287   5.309
 2368SOL    HW2 8004   5.681   0.216   5.456
 2369SOL     OW 8005   3.878   2.097   4.091
 2369SOL    HW1 8006   3.880   1.997   4.096
 2369SOL    HW2 8007   3.877   2.134   4.184
 2370SOL     OW 8008   5.224   2.304   1.964
 2370SOL    HW1 8009   5.217   2.395   1.924
 2370SOL    HW2 8010   5.190   2.236   1.899
 2371SOL     OW 8011   1.069   6.187   1.922
 2371SOL    HW1 8012   1.154   6.232   1.896
 2371SOL    HW2 8013   0.998   6.211   1.855
 2372SOL     OW 8014   6.516   6.453   6.982
 2372SOL    HW1 8015   6.608   6.459   7.021
 2372SOL    HW2 8016   6.476   6.545   6.974
 2373SOL     OW 8017   6.134   4.219   6.015
 2373SOL    HW1 8018   6.049   4.272   6.023
 2373SOL    HW2 8019   6.175   4.209   6.105
 2374SOL     OW 8020   6.247   6.688   2.496
 2374SOL    HW1 8021   6.312   6.617   2.523
 2374SOL    HW2 8022   6.181   6.650   2.430
 2375SOL     OW 8023   2.105   0.475   4.502
 2375SOL    HW1 8024   2.009   0.493   4.481
 2375SOL    HW2 8025   2.127   0.511   4.592
 2376SOL     OW 8026   5.210   2.491   2.613
 2376SOL    HW1 8027   5.132   2.466   2.554
 2376SOL    HW2 8028   5.183   2.482   2.709
 2377SOL     OW 8029   4.954   3.619   5.688
 2377SOL    HW1 8030   5.049   3.642   5.709
 2377SOL    HW2 8031   4.893   3.679   5.740
 2378SOL     OW 8032   0.616   2.042   0.265
 2378SOL    HW1 8033   0.693   2.002   0.215
 2378SOL    HW2 8034   0.531   2.024   0.216
 2379SOL     OW 8035   0.009   5.388   2.503
 2379SOL    HW1 8036   0.028   5.422   2.411
 2379SOL    HW2 8037   0.072   5.313   2.525
 2380SOL     OW 8038   4.840   5.307   6.760
 2380SOL    HW1 8039   4.877   5.216   6.777
 2380SOL    HW2 8040   4.862   5.367   6.836
 2381SOL     OW 8041   2.196   4.162   3.596
 2381SOL    HW1 8042   2.224   4.066   3.585
 2381SOL    HW2 8043   2.233   4.197   3.682
 2382SOL     OW 8044   6.951   4.879   3.363
 2382SOL    HW1 8045   6.970   4.897   3.267
 2382SOL    HW2 8046   6.984   4.956   3.419
 2383SOL     OW 8047   4.980   4.201   6.199
 2383SOL    HW1 8048   4.923   4.170   6.275
 2383SOL    HW2 8049   5.073   4.165   6.210
 2384SOL     OW 8050   0.030   1.721   3.094
 2384SOL    HW1 8051   0.026   1.708   3.193
 2384SOL    HW2 8052   6.966   1.760   3.063
 2385SOL     OW 8053   0.039   1.351   0.674
 2385SOL    HW1 8054   0.106   1.350   0.748
 2385SOL    HW2 8055   0.010   1.258   0.654
 2386SOL     OW 8056   5.863   6.451   4.997
 2386SOL    HW1 8057   5.826   6.466   5.088
 2386SOL    HW2 8058   5.797   6.401   4.941
 2387SOL     OW 8059   1.176   1.499   4.080
 2387SOL    HW1 8060   1.261   1.500   4.027
 2387SOL    HW2 8061   1.141   1.592   4.087
 2388SOL     OW 8062   0.310   3.069   5.292
 2388SOL    HW1 8063   0.371   3.054   5.369
 2388SOL    HW2 8064   0.260   3.155   5.305
 2389SOL     OW 8065   4.394   5.246   3.223
 2389SOL    HW1 8066   4.304   5.286   3.205
 2389SOL    HW2 8067   4.402   5.159   3.174
 2390SOL     OW 8068   4.778   2.663   6.302
 2390SOL    HW1 8069   4.810   2.757   6.290
 2390SOL    HW2 8070   4.702   2.662   6.367
 2391SOL     OW 8071   3.400   4.776   6.575
 2391SOL    HW1 8072   3.480   4.717   6.589
 2391SOL    HW2 8073   3.333   4.729   6.518
 2392SOL     OW 8074   4.248   4.560   5.698
 2392SOL    HW1 8075   4.157   4.598   5.684
 2392SOL    HW2 8076   4.267   4.554   5.796
 2393SOL     OW 8077   4.609   4.477   0.862
 2393SOL    HW1 8078   4.556   4.418   0.802
 2393SOL    HW2 8079   4.666   4.421   0.922
 2394SOL     OW 8080   0.392   1.557   3.735
 2394SOL    HW1 8081   0.411   1.540   3.638
 2394SOL    HW2 8082   0.301   1.597   3.745
 2395SOL     OW 8083   1.105   3.304   3.979
 2395SOL    HW1 8084   1.111   3.267   4.071
 2395SOL    HW2 8085   1.128   3.232   3.912
 2396SOL     OW 8086   0.461   0.372   6.572
 2396SOL    HW1 8087   0.396   0.314   6.523
 2396SOL    HW2 8088   0.549   0.369   6.525
 2397SOL     OW 8089   0.665   3.716   4.933
 2397SOL    HW1 8090   0.580   3.716   4.985
 2397SOL    HW2 8091   0.732   3.775   4.977
 2398SOL     OW 8092   3.970   6.898   3.734
 2398SOL    HW1 8093   3.872   6.908   3.718
 2398SOL    HW2 8094   4.010   6.987   3.754
 2399SOL     OW 8095   3.249   2.134   3.349
 2399SOL    HW1 8096   3.182   2.166   3.416
 2399SOL    HW2 8097   3.341   2.140   3.388
 2400SOL     OW 8098   1.622   4.002   0.431
 2400SOL    HW1 8099   1.542   4.034   0.380
 2400SOL    HW2 8100   1.607   4.016   0.529
 2401SOL     OW 8101   2.088   6.386   6.375
 2401SOL    HW1 8102   2.151   6.322   6.332
 2401SOL    HW2 8103   2.061   6.352   6.465
 2402SOL     OW 8104   0.961   4.116   1.990
 2402SOL    HW1 8105   0.879   4.067   1.961
 2402SOL    HW2 8106   0.952   4.142   2.086
 2403SOL     OW 8107   3.272   3.588   4.987
 2403SOL    HW1 8108   3.335   3.654   4.946
 2403SOL    HW2 8109   3.178   3.620   4.979
 2404SOL     OW 8110   6.016   1.844   0.656
 2404SOL    HW1 8111   5.927   1.836   0.612
 2404SOL    HW2 8112   6.087   1.812   0.593
 2405SOL     OW 8113   1.544   3.342   0.617
 2405SOL    HW1 8114   1.462   3.396   0.634
 2405SOL    HW2 8115   1.518   3.249   0.593
 2406SOL     OW 8116   2.757   5.585   4.728
 2406SOL    HW1 8117   2.663   5.609   4.703
 2406SOL    HW2 8118   2.811   5.572   4.645
 2407SOL     OW 8119   2.913   1.058   3.158
 2407SOL    HW1 8120   2.878   1.126   3.223
 2407SOL    HW2 8121   3.000   1.090   3.120
 2408SOL     OW 8122   2.650   6.415   5.595
 2408SOL    HW1 8123   2.626   6.465   5.512
 2408SOL    HW2 8124   2.749   6.424   5.612
 2409SOL     OW 8125   0.956   3.406   0.168
 2409SOL    HW1 8126   0.934   3.388   0.264
 2409SOL    HW2 8127   1.040   3.460   0.162
 2410SOL     OW 8128   6.936   2.904   4.425
 2410SOL    HW1 8129   6.967   2.809   4.427
 2410SOL    HW2 8130   7.014   2.964   4.444
 2411SOL     OW 8131   3.423   2.229   6.481
 2411SOL    HW1 8132   3.424   2.281   6.567
 2411SOL    HW2 8133   3.409   2.291   6.404
 2412SOL     OW 8134   3.263   1.427   5.506
 2412SOL    HW1 8135   3.316   1.346   5.530
 2412SOL    HW2 8136   3.317   1.509   5.524
 2413SOL     OW 8137   0.260   3.179   0.166
 2413SOL    HW1 8138   0.246   3.088   0.129
 2413SOL    HW2 8139   0.309   3.235   0.100
 2414SOL     OW 8140   6.652   1.238   4.935
 2414SOL    HW1 8141   6.588   1.205   4.866
 2414SOL    HW2 8142   6.612   1.224   5.026
 2415SOL     OW 8143   2.549   5.165   6.460
 2415SOL    HW1 8144   2.619   5.228   6.429
 2415SOL    HW2 8145   2.502   5.205   6.539
 2416SOL     OW 8146   6.930   2.366   2.826
 2416SOL    HW1 8147   7.017   2.322   2.802
 2416SOL    HW2 8148   6.892   2.323   2.908
 2417SOL     OW 8149   2.699   2.567   1.460
 2417SOL    HW1 8150   2.760   2.592   1.385
 2417SOL    HW2 8151   2.734   2.487   1.507
 2418SOL     OW 8152   4.574   3.911   6.406
 2418SOL    HW1 8153   4.573   3.916   6.506
 2418SOL    HW2 8154   4.629   3.832   6.377
 2419SOL     OW 8155   2.842   0.555   3.383
 2419SOL    HW1 8156   2.815   0.624   3.315
 2419SOL    HW2 8157   2.896   0.599   3.455
 2420SOL     OW 8158   1.231   4.345   2.348
 2420SOL    HW1 8159   1.274   4.336   2.258
 2420SOL    HW2 8160   1.179   4.262   2.369
 2421SOL     OW 8161   3.519   6.723   3.577
 2421SOL    HW1 8162   3.542   6.647   3.637
 2421SOL    HW2 8163   3.494   6.689   3.486
 2422SOL     OW 8164   4.220   4.726   1.124
 2422SOL    HW1 8165   4.163   4.805   1.103
 2422SOL    HW2 8166   4.275   4.745   1.205
 2423SOL     OW 8167   2.494   5.730   3.081
 2423SOL    HW1 8168   2.494   5.750   3.179
 2423SOL    HW2 8169   2.437   5.797   3.033
 2424SOL     OW 8170   4.882   6.687   6.255
 2424SOL    HW1 8171   4.965   6.719   6.209
 2424SOL    HW2 8172   4.891   6.590   6.277
 2425SOL     OW 8173   4.917   5.595   4.870
 2425SOL    HW1 8174   4.854   5.583   4.794
 2425SOL    HW2 8175   4.871   5.641   4.945
 2426SOL     OW 8176   2.305   2.531   5.010
 2426SOL    HW1 8177   2.385   2.477   5.035
 2426SOL    HW2 8178   2.262   2.567   5.092
 2427SOL     OW 8179   5.388   0.876   0.473
 2427SOL    HW1 8180   5.334   0.960   0.465
 2427SOL    HW2 8181   5.468   0.882   0.413
 2428SOL     OW 8182   1.571   1.434   2.674
 2428SOL    HW1 8183   1.503   1.368   2.641
 2428SOL    HW2 8184   1.657   1.420   2.625
 2429SOL     OW 8185   6.017   5.237   1.834
 2429SOL    HW1 8186   6.110   5.270   1.848
 2429SOL    HW2 8187   6.019   5.159   1.770
 2430SOL     OW 8188   6.465   0.861   6.582
 2430SOL    HW1 8189   6.387   0.924   6.577
 2430SOL    HW2 8190   6.435   0.774   6.619
 2431SOL     OW 8191   0.552   3.545   1.551
 2431SOL    HW1 8192   0.573   3.453   1.516
 2431SOL    HW2 8193   0.573   3.548   1.649
 2432SOL     OW 8194   2.255   5.416   2.013
 2432SOL    HW1 8195   2.220   5.459   1.931
 2432SOL    HW2 8196   2.206   5.330   2.030
 2433SOL     OW 8197   6.899   3.980   5.021
 2433SOL    HW1 8198   6.844   4.063   5.014
 2433SOL    HW2 8199   6.856   3.917   5.086
 2434SOL     OW 8200   4.248   0.529   2.841
 2434SOL    HW1 8201   4.162   0.548   2.794
 2434SOL    HW2 8202   4.286   0.613   2.878
 2435SOL     OW 8203   6.102   6.770   6.898
 2435SOL    HW1 8204   6.039   6.756   6.974
 2435SOL    HW2 8205   6.074   6.851   6.846
 2436SOL     OW 8206   0.608   2.432   0.883
 2436SOL    HW1 8207   0.559   2.426   0.970
 2436SOL    HW2 8208   0.618   2.528   0.857
 2437SOL     OW 8209   0.165   3.835   2.046
 2437SOL    HW1 8210   0.157   3.891   1.963
 2437SOL    HW2 8211   0.131   3.886   2.124
 2438SOL     OW 8212   3.818   1.867   4.701
 2438SOL    HW1 8213   3.835   1.864   4.800
 2438SOL    HW2 8214   3.743   1.931   4.682
 2439SOL     OW 8215   1.921   5.716   1.596
 2439SOL    HW1 8216   1.925   5.616   1.592
 2439SOL    HW2 8217   1.902   5.752   1.504
 2440SOL     OW 8218   6.799   1.266   5.679
 2440SOL    HW1 8219   6.824   1.350   5.629
 2440SOL    HW2 8220   6.773   1.290   5.772
 2441SOL     OW 8221   6.027   0.381   0.424
 2441SOL    HW1 8222   5.968   0.380   0.505
 2441SOL    HW2 8223   5.994   0.314   0.358
 2442SOL     OW 8224   5.554   3.102   1.379
 2442SOL    HW1 8225   5.478   3.047   1.344
 2442SOL    HW2 8226   5.578   3.172   1.312
 2443SOL     OW 8227   0.943   3.083   1.357
 2443SOL    HW1 8228   0.977   3.177   1.358
 2443SOL    HW2 8229   0.931   3.051   1.451
 2444SOL     OW 8230   3.496   5.932   2.508
 2444SOL    HW1 8231   3.517   5.885   2.422
 2444SOL    HW2 8232   3.397   5.946   2.514
 2445SOL     OW 8233   0.550   2.040   1.502
 2445SOL    HW1 8234   0.537   2.137   1.479
 2445SOL    HW2 8235   0.615   1.999   1.438
 2446SOL     OW 8236   1.003   5.661   2.142
 2446SOL    HW1 8237   1.103   5.654   2.137
 2446SOL    HW2 8238   0.970   5.602   2.216
 2447SOL     OW 8239   2.436   0.181   0.039
 2447SOL    HW1 8240   2.532   0.210   0.033
 2447SOL    HW2 8241   2.432   0.091   0.082
 2448SOL     OW 8242   5.345   0.948   4.713
 2448SOL    HW1 8243   5.273   0.975   4.648
 2448SOL    HW2 8244   5.303   0.900   4.790
 2449SOL     OW 8245   1.056   4.291   1.503
 2449SOL    HW1 8246   1.077   4.277   1.600
 2449SOL    HW2 8247   1.130   4.253   1.447
 2450SOL     OW 8248   1.165   6.462   5.086
 2450SOL    HW1 8249   1.230   6.398   5.045
 2450SOL    HW2 8250   1.182   6.554   5.051
 2451SOL     OW 8251   1.470   6.341   5.151
 2451SOL    HW1 8252   1.405   6.352   5.226
 2451SOL    HW2 8253   1.502   6.246   5.148
 2452SOL     OW 8254   2.565   1.984   3.143
 2452SOL    HW1 8255   2.618   1.996   3.227
 2452SOL    HW2 8256   2.574   2.066   3.086
 2453SOL     OW 8257   1.145   1.229   5.797
 2453SOL    HW1 8258   1.136   1.185   5.708
 2453SOL    HW2 8259   1.231   1.281   5.801
 2454SOL     OW 8260   3.858   5.750   0.802
 2454SOL    HW1 8261   3.775   5.800   0.780
 2454SOL    HW2 8262   3.838   5.680   0.871
 2455SOL     OW 8263   3.980   2.453   0.546
 2455SOL    HW1 8264   4.063   2.503   0.519
 2455SOL    HW2 8265   3.900   2.510   0.529
 2456SOL     OW 8266   0.712   3.125   5.913
 2456SOL    HW1 8267   0.736   3.043   5.860
 2456SOL    HW2 8268   0.654   3.184   5.858
 2457SOL     OW 8269   4.175   1.785   5.071
 2457SOL    HW1 8270   4.103   1.811   5.135
 2457SOL    HW2 8271   4.264   1.804   5.112
 2458SOL     OW 8272   0.748   0.244   2.893
 2458SOL    HW1 8273   0.668   0.209   2.942
 2458SOL    HW2 8274   0.830   0.198   2.926
 2459SOL     OW 8275   1.961   0.032   0.264
 2459SOL    HW1 8276   2.000   7.006   0.186
 2459SOL    HW2 8277   1.958   0.130   0.244
 2460SOL     OW 8278   1.134   1.353   5.238
 2460SOL    HW1 8279   1.052   1.407   5.219
 2460SOL    HW2 8280   1.109   1.257   5.248
 2461SOL     OW 8281   4.686   0.672   3.822
 2461SOL    HW1 8282   4.782   0.694   3.804
 2461SOL    HW2 8283   4.675   0.644   3.917
 2462SOL     OW 8284   0.292   4.745   0.090
 2462SOL    HW1 8285   0.302   4.654   0.130
 2462SOL    HW2 8286   0.372   4.764   0.032
 2463SOL     OW 8287   6.534   0.625   0.140
 2463SOL    HW1 8288   6.548   0.724   0.153
 2463SOL    HW2 8289   6.455   0.611   0.080
 2464SOL     OW 8290   0.874   2.354   4.321
 2464SOL    HW1 8291   0.862   2.296   4.240
 2464SOL    HW2 8292   0.875   2.450   4.293
 2465SOL     OW 8293   6.993   6.605   6.349
 2465SOL    HW1 8294   6.906   6.620   6.302
 2465SOL    HW2 8295   6.989   6.521   6.402
 2466SOL     OW 8296   0.775   2.050   1.655
 2466SOL    HW1 8297   0.689   2.052   1.605
 2466SOL    HW2 8298   0.757   2.041   1.753
 2467SOL     OW 8299   5.882   2.626   5.230
 2467SOL    HW1 8300   5.905   2.641   5.134
 2467SOL    HW2 8301   5.965   2.615   5.284
 2468SOL     OW 8302   3.454   6.692   5.312
 2468SOL    HW1 8303   3.425   6.763   5.248
 2468SOL    HW2 8304   3.402   6.700   5.397
 2469SOL     OW 8305   3.741   1.910   5.489
 2469SOL    HW1 8306   3.750   1.911   5.390
 2469SOL    HW2 8307   3.657   1.958   5.515
 2470SOL     OW 8308   2.726   4.900   6.140
 2470SOL    HW1 8309   2.799   4.833   6.151
 2470SOL    HW2 8310   2.766   4.990   6.125
 2471SOL     OW 8311   2.801   5.250   1.894
 2471SOL    HW1 8312   2.750   5.245   1.980
 2471SOL    HW2 8313   2.833   5.159   1.868
 2472SOL     OW 8314   5.157   1.855   3.469
 2472SOL    HW1 8315   5.214   1.828   3.391
 2472SOL    HW2 8316   5.122   1.948   3.453
 2473SOL     OW 8317   0.551   3.900   3.737
 2473SOL    HW1 8318   0.620   3.864   3.799
 2473SOL    HW2 8319   0.460   3.876   3.770
 2474SOL     OW 8320   0.990   5.767   1.695
 2474SOL    HW1 8321   1.043   5.799   1.773
 2474SOL    HW2 8322   1.030   5.804   1.611
 2475SOL     OW 8323   4.635   0.901   0.459
 2475SOL    HW1 8324   4.686   0.968   0.513
 2475SOL    HW2 8325   4.577   0.950   0.393
 2476SOL     OW 8326   4.935   0.838   0.584
 2476SOL    HW1 8327   4.860   0.773   0.596
 2476SOL    HW2 8328   5.022   0.788   0.578
 2477SOL     OW 8329   3.818   0.142   3.035
 2477SOL    HW1 8330   3.721   0.142   3.057
 2477SOL    HW2 8331   3.868   0.089   3.104
 2478SOL     OW 8332   4.401   6.742   4.826
 2478SOL    HW1 8333   4.462   6.779   4.756
 2478SOL    HW2 8334   4.429   6.776   4.916
 2479SOL     OW 8335   5.946   3.277   6.965
 2479SOL    HW1 8336   5.978   3.287   0.037
 2479SOL    HW2 8337   5.852   3.245   6.965
 2480SOL     OW 8338   3.314   2.332   1.743
 2480SOL    HW1 8339   3.298   2.430   1.750
 2480SOL    HW2 8340   3.227   2.285   1.727
 2481SOL     OW 8341   3.282   0.611   1.219
 2481SOL    HW1 8342   3.328   0.628   1.306
 2481SOL    HW2 8343   3.214   0.539   1.231
 2482SOL     OW 8344   6.033   3.723   6.142
 2482SOL    HW1 8345   6.069   3.816   6.157
 2482SOL    HW2 8346   5.934   3.728   6.125
 2483SOL     OW 8347   1.399   2.800   0.314
 2483SOL    HW1 8348   1.365   2.760   0.228
 2483SOL    HW2 8349   1.494   2.772   0.328
 2484SOL     OW 8350   5.333   0.562   1.030
 2484SOL    HW1 8351   5.284   0.641   0.995
 2484SOL    HW2 8352   5.354   0.575   1.127
 2485SOL     OW 8353   6.794   2.285   6.148
 2485SOL    HW1 8354   6.816   2.310   6.242
 2485SOL    HW2 8355   6.776   2.187   6.143
 2486SOL     OW 8356   6.418   5.295   4.955
 2486SOL    HW1 8357   6.346   5.311   4.887
 2486SOL    HW2 8358   6.390   5.221   5.017
 2487SOL     OW 8359   5.089   5.838   6.279
 2487SOL    HW1 8360   5.111   5.842   6.181
 2487SOL    HW2 8361   5.173   5.849   6.332
 2488SOL     OW 8362   6.344   4.055   0.704
 2488SOL    HW1 8363   6.361   3.986   0.634
 2488SOL    HW2 8364   6.247   4.077   0.706
 2489SOL     OW 8365   6.959   6.362   4.742
 2489SOL    HW1 8366   6.878   6.401   4.785
 2489SOL    HW2 8367   0.013   6.366   4.806
 2490SOL     OW 8368   2.587   5.659   2.718
 2490SOL    HW1 8369   2.537   5.735   2.676
 2490SOL    HW2 8370   2.521   5.593   2.754
 2491SOL     OW 8371   3.712   4.682   1.471
 2491SOL    HW1 8372   3.762   4.601   1.441
 2491SOL    HW2 8373   3.619   4.680   1.433
 2492SOL     OW 8374   6.822   4.487   1.560
 2492SOL    HW1 8375   6.807   4.416   1.629
 2492SOL    HW2 8376   6.772   4.570   1.585
 2493SOL     OW 8377   6.251   6.790   1.119
 2493SOL    HW1 8378   6.297   6.858   1.063
 2493SOL    HW2 8379   6.152   6.801   1.110
 2494SOL     OW 8380   6.535   3.908   2.568
 2494SOL    HW1 8381   6.499   3.945   2.654
 2494SOL    HW2 8382   6.471   3.925   2.494
 2495SOL     OW 8383   6.767   4.797   3.025
 2495SOL    HW1 8384   6.718   4.745   3.095
 2495SOL    HW2 8385   6.717   4.882   3.006
 2496SOL     OW 8386   6.156   4.768   6.190
 2496SOL    HW1 8387   6.194   4.854   6.225
 2496SOL    HW2 8388   6.224   4.696   6.199
 2497SOL     OW 8389   0.416   0.338   2.213
 2497SOL    HW1 8390   0.490   0.375   2.269
 2497SOL    HW2 8391   0.430   0.240   2.199
 2498SOL     OW 8392   1.899   3.796   6.095
 2498SOL    HW1 8393   1.803   3.821   6.081
 2498SOL    HW2 8394   1.948   3.805   6.008
 2499SOL     OW 8395   6.362   3.866   1.995
 2499SOL    HW1 8396   6.320   3.814   2.070
 2499SOL    HW2 8397   6.461   3.853   1.997
 2500SOL     OW 8398   3.332   4.015   0.023
 2500SOL    HW1 8399   3.339   3.937   6.983
 2500SOL    HW2 8400   3.421   4.031   0.066
 2501SOL     OW 8401   5.797   5.497   6.998
 2501SOL    HW1 8402   5.853   5.574   0.005
 2501SOL    HW2 8403   5.701   5.514   7.022
 2502SOL     OW 8404   2.893   5.039   4.422
 2502SOL    HW1 8405   2.880   4.941   4.410
 2502SOL    HW2 8406   2.950   5.074   4.347
 2503SOL     OW 8407   2.275   6.534   6.232
 2503SOL    HW1 8408   2.209   6.486   6.290
 2503SOL    HW2 8409   2.312   6.470   6.165
 2504SOL     OW 8410   3.577   6.368   3.370
 2504SOL    HW1 8411   3.550   6.275   3.397
 2504SOL    HW2 8412   3.675   6.380   3.389
 2505SOL     OW 8413   0.196   5.295   3.599
 2505SOL    HW1 8414   0.241   5.206   3.606
 2505SOL    HW2 8415   0.248   5.354   3.537
 2506SOL     OW 8416   5.178   5.619   5.890
 2506SOL    HW1 8417   5.224   5.594   5.805
 2506SOL    HW2 8418   5.200   5.714   5.913
 2507SOL     OW 8419   6.868   3.329   0.842
 2507SOL    HW1 8420   6.945   3.297   0.899
 2507SOL    HW2 8421   6.846   3.260   0.774
 2508SOL     OW 8422   4.841   2.028   4.134
 2508SOL    HW1 8423   4.891   2.050   4.218
 2508SOL    HW2 8424   4.757   2.083   4.130
 2509SOL     OW 8425   6.829   4.516   5.296
 2509SOL    HW1 8426   6.905   4.580   5.287
 2509SOL    HW2 8427   6.803   4.482   5.206
 2510SOL     OW 8428   3.186   4.167   1.627
 2510SOL    HW1 8429   3.191   4.112   1.710
 2510SOL    HW2 8430   3.277   4.175   1.586
 2511SOL     OW 8431   2.250   0.240   5.010
 2511SOL    HW1 8432   2.299   0.214   5.093
 2511SOL    HW2 8433   2.309   0.227   4.931
 2512SOL     OW 8434   3.549   5.428   4.440
 2512SOL    HW1 8435   3.508   5.483   4.367
 2512SOL    HW2 8436   3.649   5.438   4.437
 2513SOL     OW 8437   1.927   5.790   5.787
 2513SOL    HW1 8438   1.934   5.763   5.883
 2513SOL    HW2 8439   2.014   5.830   5.757
 2514SOL     OW 8440   1.322   2.878   3.000
 2514SOL    HW1 8441   1.253   2.808   2.981
 2514SOL    HW2 8442   1.288   2.940   3.071
 2515SOL     OW 8443   1.250   1.570   1.386
 2515SOL    HW1 8444   1.307   1.490   1.366
 2515SOL    HW2 8445   1.153   1.544   1.384
 2516SOL     OW 8446   5.818   1.760   3.786
 2516SOL    HW1 8447   5.782   1.718   3.703
 2516SOL    HW2 8448   5.748   1.817   3.829
 2517SOL     OW 8449   1.603   1.552   4.240
 2517SOL    HW1 8450   1.508   1.565   4.214
 2517SOL    HW2 8451   1.609   1.541   4.340
 2518SOL     OW 8452   2.889   4.429   1.214
 2518SOL    HW1 8453   2.862   4.500   1.149
 2518SOL    HW2 8454   2.927   4.472   1.296
 2519SOL     OW 8455   1.300   1.038   0.591
 2519SOL    HW1 8456   1.238   1.096   0.644
 2519SOL    HW2 8457   1.355   0.982   0.653
 2520SOL     OW 8458   2.906   2.441   0.719
 2520SOL    HW1 8459   2.994   2.394   0.710
 2520SOL    HW2 8460   2.914   2.514   0.788
 2521SOL     OW 8461   5.099   1.181   5.204
 2521SOL    HW1 8462   5.015   1.137   5.173
 2521SOL    HW2 8463   5.097   1.188   5.304
 2522SOL     OW 8464   0.883   2.356   6.013
 2522SOL    HW1 8465   0.922   2.366   6.105
 2522SOL    HW2 8466   0.887   2.260   5.985
 2523SOL     OW 8467   2.111   4.989   6.935
 2523SOL    HW1 8468   2.129   4.893   6.956
 2523SOL    HW2 8469   2.187   5.026   6.882
 2524SOL     OW 8470   1.432   6.861   3.875
 2524SOL    HW1 8471   1.441   6.961   3.866
 2524SOL    HW2 8472   1.338   6.838   3.899
 2525SOL     OW 8473   6.736   2.112   4.146
 2525SOL    HW1 8474   6.738   2.062   4.233
 2525SOL    HW2 8475   6.654   2.088   4.095
 2526SOL     OW 8476   0.948   6.501   1.166
 2526SOL    HW1 8477   1.035   6.455   1.178
 2526SOL    HW2 8478   0.958   6.599   1.186
 2527SOL     OW 8479   4.852   4.661   6.610
 2527SOL    HW1 8480   4.776   4.725   6.613
 2527SOL    HW2 8481   4.934   4.704   6.648
 2528SOL     OW 8482   4.488   5.221   6.784
 2528SOL    HW1 8483   4.547   5.227   6.703
 2528SOL    HW2 8484   4.528   5.277   6.858
 2529SOL     OW 8485   0.597   6.722   6.669
 2529SOL    HW1 8486   0.536   6.784   6.717
 2529SOL    HW2 8487   0.689   6.728   6.709
 2530SOL     OW 8488   1.686   5.760   6.148
 2530SOL    HW1 8489   1.695   5.858   6.164
 2530SOL    HW2 8490   1.627   5.745   6.068
 2531SOL     OW 8491   6.325   5.285   5.797
 2531SOL    HW1 8492   6.423   5.281   5.778
 2531SOL    HW2 8493   6.291   5.192   5.815
 2532SOL     OW 8494   6.291   6.554   0.742
 2532SOL    HW1 8495   6.302   6.653   0.750
 2532SOL    HW2 8496   6.367   6.508   0.788
 2533SOL     OW 8497   5.025   0.707   3.190
 2533SOL    HW1 8498   5.023   0.651   3.273
 2533SOL    HW2 8499   5.113   0.753   3.182
 2534SOL     OW 8500   4.450   1.794   2.651
 2534SOL    HW1 8501   4.454   1.700   2.684
 2534SOL    HW2 8502   4.525   1.847   2.692
 2535SOL     OW 8503   3.568   2.920   6.046
 2535SOL    HW1 8504   3.568   2.955   6.140
 2535SOL    HW2 8505   3.539   2.993   5.984
 2536SOL     OW 8506   1.529   0.397   0.088
 2536SOL    HW1 8507   1.572   0.312   0.059
 2536SOL    HW2 8508   1.580   0.475   0.050
 2537SOL     OW 8509   4.157   0.483   6.991
 2537SOL    HW1 8510   4.216   0.503   6.913
 2537SOL    HW2 8511   4.095   0.561   7.006
 2538SOL     OW 8512   6.796   3.686   3.925
 2538SOL    HW1 8513   6.748   3.749   3.987
 2538SOL    HW2 8514   6.840   3.614   3.979
 2539SOL     OW 8515   4.919   1.598   5.477
 2539SOL    HW1 8516   4.866   1.537   5.536
 2539SOL    HW2 8517   4.973   1.544   5.412
 2540SOL     OW 8518   3.724   1.527   2.329
 2540SOL    HW1 8519   3.643   1.540   2.386
 2540SOL    HW2 8520   3.806   1.544   2.383
 2541SOL     OW 8521   3.316   6.352   4.960
 2541SOL    HW1 8522   3.406   6.321   4.988
 2541SOL    HW2 8523   3.250   6.336   5.034
 2542SOL     OW 8524   1.388   4.819   6.264
 2542SOL    HW1 8525   1.464   4.883   6.270
 2542SOL    HW2 8526   1.378   4.770   6.351
 2543SOL     OW 8527   1.774   1.084   4.171
 2543SOL    HW1 8528   1.704   1.095   4.100
 2543SOL    HW2 8529   1.864   1.073   4.127
 2544SOL     OW 8530   0.930   5.264   0.337
 2544SOL    HW1 8531   0.865   5.198   0.299
 2544SOL    HW2 8532   1.001   5.283   0.269
 2545SOL     OW 8533   2.363   6.352   2.804
 2545SOL    HW1 8534   2.361   6.422   2.733
 2545SOL    HW2 8535   2.362   6.261   2.761
 2546SOL     OW 8536   5.990   2.101   0.828
 2546SOL    HW1 8537   5.960   2.120   0.734
 2546SOL    HW2 8538   6.022   2.007   0.835
 2547SOL     OW 8539   0.345   3.452   5.072
 2547SOL    HW1 8540   0.262   3.481   5.120
 2547SOL    HW2 8541   0.386   3.376   5.121
 2548SOL     OW 8542   0.474   6.239   4.071
 2548SOL    HW1 8543   0.559   6.292   4.060
 2548SOL    HW2 8544   0.494   6.142   4.063
 2549SOL     OW 8545   0.356   1.725   0.695
 2549SOL    HW1 8546   0.322   1.638   0.732
 2549SOL    HW2 8547   0.323   1.737   0.602
 2550SOL     OW 8548   5.667   6.382   0.605
 2550SOL    HW1 8549   5.767   6.389   0.603
 2550SOL    HW2 8550   5.641   6.289   0.626
 2551SOL     OW 8551   1.621   4.061   6.533
 2551SOL    HW1 8552   1.647   3.970   6.502
 2551SOL    HW2 8553   1.551   4.098   6.472
 2552SOL     OW 8554   2.296   5.470   3.500
 2552SOL    HW1 8555   2.349   5.434   3.423
 2552SOL    HW2 8556   2.322   5.422   3.584
 2553SOL     OW 8557   4.064   3.402   0.001
 2553SOL    HW1 8558   4.117   3.449   0.071
 2553SOL    HW2 8559   4.125   3.353   6.961
 2554SOL     OW 8560   1.355   1.331   0.269
 2554SOL    HW1 8561   1.410   1.250   0.291
 2554SOL    HW2 8562   1.347   1.389   0.350
 2555SOL     OW 8563   6.178   2.425   6.694
 2555SOL    HW1 8564   6.094   2.441   6.642
 2555SOL    HW2 8565   6.222   2.512   6.713
 2556SOL     OW 8566   3.166   5.973   0.607
 2556SOL    HW1 8567   3.110   5.948   0.686
 2556SOL    HW2 8568   3.115   5.957   0.523
 2557SOL     OW 8569   2.110   4.094   6.778
 2557SOL    HW1 8570   2.135   4.175   6.831
 2557SOL    HW2 8571   2.129   4.109   6.682
 2558SOL     OW 8572   4.422   0.787   5.915
 2558SOL    HW1 8573   4.383   0.721   5.851
 2558SOL    HW2 8574   4.497   0.837   5.871
 2559SOL     OW 8575   0.209   4.684   4.776
 2559SOL    HW1 8576   0.279   4.715   4.711
 2559SOL    HW2 8577   0.129   4.744   4.770
 2560SOL     OW 8578   5.886   2.035   6.264
 2560SOL    HW1 8579   5.925   2.063   6.351
 2560SOL    HW2 8580   5.937   1.957   6.228
 2561SOL     OW 8581   2.856   5.504   4.974
 2561SOL    HW1 8582   2.798   5.531   4.896
 2561SOL    HW2 8583   2.836   5.410   4.999
 2562SOL     OW 8584   1.694   3.842   0.160
 2562SOL    HW1 8585   1.595   3.853   0.152
 2562SOL    HW2 8586   1.736   3.929   0.186
 2563SOL     OW 8587   2.751   1.278   0.033
 2563SOL    HW1 8588   2.721   1.193   7.013
 2563SOL    HW2 8589   2.681   1.348   0.020
 2564SOL     OW 8590   1.594   5.528   1.756
 2564SOL    HW1 8591   1.539   5.516   1.673
 2564SOL    HW2 8592   1.688   5.499   1.738
 2565SOL     OW 8593   1.428   0.867   1.342
 2565SOL    HW1 8594   1.419   0.812   1.425
 2565SOL    HW2 8595   1.369   0.947   1.349
 2566SOL     OW 8596   1.647   6.511   6.962
 2566SOL    HW1 8597   1.553   6.487   6.937
 2566SOL    HW2 8598   1.652   6.608   6.983
 2567SOL     OW 8599   1.331   6.298   0.184
 2567SOL    HW1 8600   1.398   6.271   0.115
 2567SOL    HW2 8601   1.269   6.366   0.145
 2568SOL     OW 8602   4.944   2.843   0.079
 2568SOL    HW1 8603   5.033   2.798   0.077
 2568SOL    HW2 8604   4.955   2.939   0.055
 2569SOL     OW 8605   3.101   0.487   3.356
 2569SOL    HW1 8606   3.001   0.485   3.366
 2569SOL    HW2 8607   3.126   0.450   3.267
 2570SOL     OW 8608   5.376   1.624   6.452
 2570SOL    HW1 8609   5.339   1.533   6.468
 2570SOL    HW2 8610   5.418   1.659   6.536
 2571SOL     OW 8611   1.148   4.464   4.241
 2571SOL    HW1 8612   1.177   4.543   4.187
 2571SOL    HW2 8613   1.052   4.443   4.222
 2572SOL     OW 8614   2.059   4.896   2.695
 2572SOL    HW1 8615   2.155   4.906   2.724
 2572SOL    HW2 8616   2.054   4.831   2.619
 2573SOL     OW 8617   1.127   0.445   1.124
 2573SOL    HW1 8618   1.218   0.404   1.123
 2573SOL    HW2 8619   1.061   0.380   1.087
 2574SOL     OW 8620   6.674   3.395   6.852
 2574SOL    HW1 8621   6.590   3.413   6.904
 2574SOL    HW2 8622   6.692   3.471   6.790
 2575SOL     OW 8623   6.893   5.569   6.063
 2575SOL    HW1 8624   6.942   5.483   6.077
 2575SOL    HW2 8625   6.925   5.612   5.979
 2576SOL     OW 8626   4.712   6.180   4.125
 2576SOL    HW1 8627   4.638   6.170   4.058
 2576SOL    HW2 8628   4.677   6.157   4.216
 2577SOL     OW 8629   2.736   4.666   2.486
 2577SOL    HW1 8630   2.706   4.649   2.392
 2577SOL    HW2 8631   2.825   4.710   2.486
 2578SOL     OW 8632   4.109   1.984   3.796
 2578SOL    HW1 8633   4.017   1.945   3.797
 2578SOL    HW2 8634   4.155   1.964   3.882
 2579SOL     OW 8635   0.899   6.305   3.531
 2579SOL    HW1 8636   0.908   6.317   3.432
 2579SOL    HW2 8637   0.803   6.302   3.556
 2580SOL     OW 8638   2.077   3.015   6.696
 2580SOL    HW1 8639   2.165   2.976   6.723
 2580SOL    HW2 8640   2.058   3.096   6.752
 2581SOL     OW 8641   3.267   6.978   4.893
 2581SOL    HW1 8642   3.186   6.919   4.894
 2581SOL    HW2 8643   3.332   6.945   4.824
 2582SOL     OW 8644   0.579   3.309   1.413
 2582SOL    HW1 8645   0.481   3.314   1.397
 2582SOL    HW2 8646   0.613   3.219   1.386
 2583SOL     OW 8647   6.031   7.010   1.164
 2583SOL    HW1 8648   5.993   6.922   1.136
 2583SOL    HW2 8649   5.996   0.012   1.255
 2584SOL     OW 8650   4.510   4.809   5.274
 2584SOL    HW1 8651   4.577   4.806   5.347
 2584SOL    HW2 8652   4.497   4.903   5.243
 2585SOL     OW 8653   3.088   5.137   6.590
 2585SOL    HW1 8654   3.033   5.078   6.648
 2585SOL    HW2 8655   3.180   5.146   6.629
 2586SOL     OW 8656   2.397   0.668   4.702
 2586SOL    HW1 8657   2.387   0.634   4.608
 2586SOL    HW2 8658   2.460   0.745   4.703
 2587SOL     OW 8659   6.732   1.288   3.445
 2587SOL    HW1 8660   6.781   1.259   3.528
 2587SOL    HW2 8661   6.793   1.279   3.366
 2588SOL     OW 8662   4.390   0.756   5.575
 2588SOL    HW1 8663   4.340   0.841   5.593
 2588SOL    HW2 8664   4.483   0.777   5.546
 2589SOL     OW 8665   1.747   6.714   0.206
 2589SOL    HW1 8666   1.843   6.686   0.201
 2589SOL    HW2 8667   1.734   6.799   0.155
 2590SOL     OW 8668   2.678   5.364   0.840
 2590SOL    HW1 8669   2.632   5.356   0.751
 2590SOL    HW2 8670   2.612   5.355   0.914
 2591SOL     OW 8671   6.156   5.652   3.808
 2591SOL    HW1 8672   6.085   5.710   3.846
 2591SOL    HW2 8673   6.238   5.658   3.865
 2592SOL     OW 8674   2.062   4.626   0.532
 2592SOL    HW1 8675   2.134   4.569   0.492
 2592SOL    HW2 8676   2.074   4.630   0.631
 2593SOL     OW 8677   2.903   3.759   0.599
 2593SOL    HW1 8678   2.842   3.808   0.662
 2593SOL    HW2 8679   2.909   3.810   0.512
 2594SOL     OW 8680   1.451   3.545   4.612
 2594SOL    HW1 8681   1.417   3.564   4.519
 2594SOL    HW2 8682   1.530   3.603   4.631
 2595SOL     OW 8683   1.562   1.045   3.245
 2595SOL    HW1 8684   1.635   1.102   3.206
 2595SOL    HW2 8685   1.560   0.957   3.198
 2596SOL     OW 8686   1.251   2.123   6.920
 2596SOL    HW1 8687   1.265   2.198   6.856
 2596SOL    HW2 8688   1.331   2.114   6.979
 2597SOL     OW 8689   6.944   5.813   6.131
 2597SOL    HW1 8690   7.018   5.831   6.066
 2597SOL    HW2 8691   6.916   5.717   6.123
 2598SOL     OW 8692   5.568   2.569   1.935
 2598SOL    HW1 8693   5.506   2.645   1.955
 2598SOL    HW2 8694   5.637   2.562   2.007
 2599SOL     OW 8695   3.017   6.092   2.029
 2599SOL    HW1 8696   3.037   5.999   1.997
 2599SOL    HW2 8697   3.082   6.117   2.101
 2600SOL     OW 8698   5.949   4.125   4.517
 2600SOL    HW1 8699   5.912   4.154   4.605
 2600SOL    HW2 8700   5.987   4.204   4.469
 2601SOL     OW 8701   0.196   1.938   3.319
 2601SOL    HW1 8702   0.262   2.004   3.282
 2601SOL    HW2 8703   0.241   1.851   3.335
 2602SOL     OW 8704   1.773   4.779   3.852
 2602SOL    HW1 8705   1.821   4.750   3.935
 2602SOL    HW2 8706   1.802   4.722   3.775
 2603SOL     OW 8707   3.056   0.132   2.736
 2603SOL    HW1 8708   3.079   0.059   2.670
 2603SOL    HW2 8709   3.026   0.213   2.686
 2604SOL     OW 8710   4.522   2.458   2.822
 2604SOL    HW1 8711   4.450   2.469   2.754
 2604SOL    HW2 8712   4.520   2.365   2.858
 2605SOL     OW 8713   1.432   3.692   1.739
 2605SOL    HW1 8714   1.461   3.713   1.646
 2605SOL    HW2 8715   1.448   3.772   1.797
 2606SOL     OW 8716   4.488   3.595   1.465
 2606SOL    HW1 8717   4.489   3.551   1.555
 2606SOL    HW2 8718   4.578   3.633   1.445
 2607SOL     OW 8719   2.660   2.220   1.614
 2607SOL    HW1 8720   2.583   2.256   1.561
 2607SOL    HW2 8721   2.626   2.152   1.680
 2608SOL     OW 8722   2.609   5.311   5.439
 2608SOL    HW1 8723   2.693   5.319   5.386
 2608SOL    HW2 8724   2.626   5.256   5.521
 2609SOL     OW 8725   0.128   1.993   0.792
 2609SOL    HW1 8726   0.177   2.040   0.719
 2609SOL    HW2 8727   0.104   2.058   0.864
 2610SOL     OW 8728   1.114   4.517   4.525
 2610SOL    HW1 8729   1.152   4.475   4.443
 2610SOL    HW2 8730   1.029   4.470   4.549
 2611SOL     OW 8731   5.313   0.004   6.432
 2611SOL    HW1 8732   5.230   7.013   6.485
 2611SOL    HW2 8733   5.297   6.999   6.337
 2612SOL     OW 8734   6.126   0.132   5.862
 2612SOL    HW1 8735   6.169   0.217   5.890
 2612SOL    HW2 8736   6.156   0.109   5.769
 2613SOL     OW 8737   0.633   6.110   0.063
 2613SOL    HW1 8738   0.602   6.205   0.056
 2613SOL    HW2 8739   0.672   6.081   6.998
 2614SOL     OW 8740   6.702   1.161   6.320
 2614SOL    HW1 8741   6.678   1.108   6.401
 2614SOL    HW2 8742   6.790   1.206   6.334
 2615SOL     OW 8743   0.845   3.412   0.435
 2615SOL    HW1 8744   0.755   3.366   0.437
 2615SOL    HW2 8745   0.862   3.455   0.523
 2616SOL     OW 8746   1.389   0.711   5.513
 2616SOL    HW1 8747   1.324   0.706   5.588
 2616SOL    HW2 8748   1.343   0.740   5.429
 2617SOL     OW 8749   5.745   0.063   1.180
 2617SOL    HW1 8750   5.837   0.101   1.191
 2617SOL    HW2 8751   5.716   0.021   1.266
 2618SOL     OW 8752   0.828   6.297   6.512
 2618SOL    HW1 8753   0.842   6.393   6.488
 2618SOL    HW2 8754   0.917   6.252   6.520
 2619SOL     OW 8755   5.059   0.954   2.264
 2619SOL    HW1 8756   5.050   1.045   2.223
 2619SOL    HW2 8757   5.018   0.954   2.355
 2620SOL     OW 8758   6.052   1.176   1.067
 2620SOL    HW1 8759   6.041   1.224   0.980
 2620SOL    HW2 8760   6.025   1.236   1.142
 2621SOL     OW 8761   1.318   6.289   1.837
 2621SOL    HW1 8762   1.369   6.271   1.753
 2621SOL    HW2 8763   1.372   6.261   1.916
 2622SOL     OW 8764   3.643   3.438   6.431
 2622SOL    HW1 8765   3.692   3.510   6.481
 2622SOL    HW2 8766   3.681   3.430   6.339
 2623SOL     OW 8767   1.233   6.448   3.222
 2623SOL    HW1 8768   1.225   6.365   3.277
 2623SOL    HW2 8769   1.321   6.493   3.242
 2624SOL     OW 8770   0.388   1.853   5.297
 2624SOL    HW1 8771   0.418   1.760   5.272
 2624SOL    HW2 8772   0.458   1.919   5.268
 2625SOL     OW 8773   2.315   5.201   6.276
 2625SOL    HW1 8774   2.343   5.284   6.228
 2625SOL    HW2 8775   2.392   5.165   6.328
 2626SOL     OW 8776   6.665   5.783   6.913
 2626SOL    HW1 8777   6.616   5.835   6.843
 2626SOL    HW2 8778   6.750   5.831   6.937
 2627SOL     OW 8779   1.894   0.279   5.600
 2627SOL    HW1 8780   1.884   0.211   5.673
 2627SOL    HW2 8781   1.804   0.305   5.566
 2628SOL     OW 8782   0.435   4.487   2.133
 2628SOL    HW1 8783   0.472   4.403   2.172
 2628SOL    HW2 8784   0.507   4.557   2.130
 2629SOL     OW 8785   3.270   3.649   2.645
 2629SOL    HW1 8786   3.354   3.626   2.597
 2629SOL    HW2 8787   3.197   3.587   2.615
 2630SOL     OW 8788   3.915   0.933   3.737
 2630SOL    HW1 8789   3.955   0.849   3.774
 2630SOL    HW2 8790   3.967   1.012   3.769
 2631SOL     OW 8791   6.394   0.370   6.828
 2631SOL    HW1 8792   6.415   0.283   6.783
 2631SOL    HW2 8793   6.311   0.360   6.882
 2632SOL     OW 8794   5.089   4.629   2.472
 2632SOL    HW1 8795   5.133   4.580   2.397
 2632SOL    HW2 8796   5.088   4.727   2.451
 2633SOL     OW 8797   7.010   3.332   6.045
 2633SOL    HW1 8798   0.070   3.388   6.039
 2633SOL    HW2 8799   7.015   3.274   6.127
 2634SOL     OW 8800   0.674   0.622   6.101
 2634SOL    HW1 8801   0.661   0.705   6.156
 2634SOL    HW2 8802   0.670   0.542   6.160
 2635SOL     OW 8803   5.276   5.255   3.302
 2635SOL    HW1 8804   5.369   5.230   3.275
 2635SOL    HW2 8805   5.280   5.328   3.369
 2636SOL     OW 8806   3.921   5.810   5.022
 2636SOL    HW1 8807   4.013   5.804   4.983
 2636SOL    HW2 8808   3.926   5.848   5.114
 2637SOL     OW 8809   1.152   1.207   3.689
 2637SOL    HW1 8810   1.157   1.162   3.600
 2637SOL    HW2 8811   1.060   1.197   3.727
 2638SOL     OW 8812   0.838   6.181   4.352
 2638SOL    HW1 8813   0.905   6.163   4.280
 2638SOL    HW2 8814   0.752   6.213   4.311
 2639SOL     OW 8815   4.350   4.825   5.049
 2639SOL    HW1 8816   4.321   4.840   4.955
 2639SOL    HW2 8817   4.445   4.855   5.059
 2640SOL     OW 8818   2.017   6.833   3.429
 2640SOL    HW1 8819   2.015   6.931   3.446
 2640SOL    HW2 8820   2.112   6.801   3.433
 2641SOL     OW 8821   6.325   2.655   6.676
 2641SOL    HW1 8822   6.282   2.709   6.749
 2641SOL    HW2 8823   6.341   2.714   6.597
 2642SOL     OW 8824   6.111   0.904   3.932
 2642SOL    HW1 8825   6.158   0.867   3.853
 2642SOL    HW2 8826   6.069   0.992   3.908
 2643SOL     OW 8827   2.261   4.672   3.620
 2643SOL    HW1 8828   2.311   4.756   3.641
 2643SOL    HW2 8829   2.224   4.678   3.527
 2644SOL     OW 8830   5.040   5.426   4.402
 2644SOL    HW1 8831   4.972   5.380   4.346
 2644SOL    HW2 8832   5.128   5.379   4.394
 2645SOL     OW 8833   4.733   5.701   3.534
 2645SOL    HW1 8834   4.687   5.684   3.446
 2645SOL    HW2 8835   4.669   5.746   3.596
 2646SOL     OW 8836   0.844   2.750   6.127
 2646SOL    HW1 8837   0.928   2.712   6.166
 2646SOL    HW2 8838   0.857   2.847   6.109
 2647SOL     OW 8839   5.450   0.592   1.698
 2647SOL    HW1 8840   5.459   0.613   1.796
 2647SOL    HW2 8841   5.468   0.674   1.644
 2648SOL     OW 8842   0.778   0.024   6.481
 2648SOL    HW1 8843   0.774   0.040   6.580
 2648SOL    HW2 8844   0.870   7.018   6.456
 2649SOL     OW 8845   5.108   2.043   2.446
 2649SOL    HW1 8846   5.049   2.010   2.372
 2649SOL    HW2 8847   5.051   2.083   2.518
 2650SOL     OW 8848   2.371   6.270   4.271
 2650SOL    HW1 8849   2.418   6.183   4.287
 2650SOL    HW2 8850   2.426   6.326   4.209
 2651SOL     OW 8851   4.137   2.094   4.466
 2651SOL    HW1 8852   4.152   2.147   4.383
 2651SOL    HW2 8853   4.177   2.003   4.455
 2652SOL     OW 8854   4.988   3.969   5.277
 2652SOL    HW1 8855   5.029   3.878   5.267
 2652SOL    HW2 8856   4.894   3.966   5.242
 2653SOL     OW 8857   2.576   5.679   0.293
 2653SOL    HW1 8858   2.490   5.629   0.283
 2653SOL    HW2 8859   2.628   5.674   0.208
 2654SOL     OW 8860   6.759   1.170   0.066
 2654SOL    HW1 8861   6.738   1.264   0.041
 2654SOL    HW2 8862   6.829   1.168   0.137
 2655SOL     OW 8863   5.041   6.474   2.539
 2655SOL    HW1 8864   5.111   6.456   2.470
 2655SOL    HW2 8865   5.069   6.552   2.595
 2656SOL     OW 8866   4.164   6.424   3.182
 2656SOL    HW1 8867   4.169   6.353   3.112
 2656SOL    HW2 8868   4.095   6.492   3.156
 2657SOL     OW 8869   0.331   3.915   0.284
 2657SOL    HW1 8870   0.233   3.905   0.304
 2657SOL    HW2 8871   0.372   3.825   0.271
 2658SOL     OW 8872   3.640   5.216   0.379
 2658SOL    HW1 8873   3.549   5.180   0.360
 2658SOL    HW2 8874   3.635   5.282   0.455
 2659SOL     OW 8875   0.179   1.861   4.991
 2659SOL    HW1 8876   0.176   1.930   5.063
 2659SOL    HW2 8877   0.254   1.881   4.927
 2660SOL     OW 8878   0.479   1.704   1.948
 2660SOL    HW1 8879   0.404   1.722   1.884
 2660SOL    HW2 8880   0.556   1.764   1.927
 2661SOL     OW 8881   1.307   1.339   1.053
 2661SOL    HW1 8882   1.209   1.332   1.035
 2661SOL    HW2 8883   1.353   1.259   1.015
 2662SOL     OW 8884   2.879   1.394   2.119
 2662SOL    HW1 8885   2.898   1.376   2.216
 2662SOL    HW2 8886   2.957   1.441   2.078
 2663SOL     OW 8887   4.053   6.916   0.542
 2663SOL    HW1 8888   3.978   6.896   0.606
 2663SOL    HW2 8889   4.136   6.871   0.573
 2664SOL     OW 8890   4.794   3.650   5.421
 2664SOL    HW1 8891   4.787   3.638   5.520
 2664SOL    HW2 8892   4.758   3.740   5.396
 2665SOL     OW 8893   2.012   3.672   4.678
 2665SOL    HW1 8894   2.033   3.733   4.754
 2665SOL    HW2 8895   2.096   3.651   4.627
 2666SOL     OW 8896   2.135   3.705   1.964
 2666SOL    HW1 8897   2.174   3.614   1.951
 2666SOL    HW2 8898   2.052   3.714   1.910
 2667SOL     OW 8899   7.013   3.117   4.788
 2667SOL    HW1 8900   6.951   3.043   4.815
 2667SOL    HW2 8901   0.077   3.107   4.837
 2668SOL     OW 8902   6.119   0.664   3.442
 2668SOL    HW1 8903   6.192   0.682   3.509
 2668SOL    HW2 8904   6.066   0.585   3.472
 2669SOL     OW 8905   2.212   0.726   0.127
 2669SOL    HW1 8906   2.258   0.763   0.207
 2669SOL    HW2 8907   2.265   0.746   0.044
 2670SOL     OW 8908   0.789   0.044   6.751
 2670SOL    HW1 8909   0.834   0.117   6.803
 2670SOL    HW2 8910   0.749   7.000   6.815
 2671SOL     OW 8911   5.314   4.501   5.864
 2671SOL    HW1 8912   5.289   4.431   5.797
 2671SOL    HW2 8913   5.233   4.526   5.918
 2672SOL     OW 8914   3.461   1.445   2.227
 2672SOL    HW1 8915   3.535   1.475   2.168
 2672SOL    HW2 8916   3.480   1.354   2.262
 2673SOL     OW 8917   3.188   0.387   2.320
 2673SOL    HW1 8918   3.121   0.363   2.391
 2673SOL    HW2 8919   3.261   0.319   2.318
 2674SOL     OW 8920   0.044   5.529   2.832
 2674SOL    HW1 8921   0.029   5.624   2.805
 2674SOL    HW2 8922   0.138   5.502   2.810
 2675SOL     OW 8923   5.319   0.935   4.203
 2675SOL    HW1 8924   5.280   0.844   4.219
 2675SOL    HW2 8925   5.390   0.953   4.272
 2676SOL     OW 8926   4.002   3.754   3.592
 2676SOL    HW1 8927   4.020   3.822   3.663
 2676SOL    HW2 8928   3.988   3.800   3.504
 2677SOL     OW 8929   2.279   5.146   1.072
 2677SOL    HW1 8930   2.182   5.135   1.050
 2677SOL    HW2 8931   2.303   5.088   1.150
 2678SOL     OW 8932   4.121   1.800   3.197
 2678SOL    HW1 8933   4.077   1.868   3.255
 2678SOL    HW2 8934   4.206   1.769   3.241
 2679SOL     OW 8935   2.112   3.130   2.571
 2679SOL    HW1 8936   2.126   3.061   2.642
 2679SOL    HW2 8937   2.108   3.086   2.481
 2680SOL     OW 8938   6.067   2.032   6.774
 2680SOL    HW1 8939   6.055   1.940   6.736
 2680SOL    HW2 8940   6.040   2.032   6.870
 2681SOL     OW 8941   1.760   1.994   3.803
 2681SOL    HW1 8942   1.831   1.934   3.841
 2681SOL    HW2 8943   1.796   2.088   3.796
 2682SOL     OW 8944   3.891   4.131   1.369
 2682SOL    HW1 8945   3.812   4.098   1.316
 2682SOL    HW2 8946   3.885   4.094   1.462
 2683SOL     OW 8947   2.307   4.144   2.075
 2683SOL    HW1 8948   2.298   4.140   2.174
 2683SOL    HW2 8949   2.285   4.054   2.036
 2684SOL     OW 8950   6.793   6.749   4.131
 2684SOL    HW1 8951   6.840   6.691   4.198
 2684SOL    HW2 8952   6.780   6.840   4.170
 2685SOL     OW 8953   0.997   5.522   6.284
 2685SOL    HW1 8954   1.042   5.438   6.252
 2685SOL    HW2 8955   0.906   5.529   6.242
 2686SOL     OW 8956   0.688   1.114   5.620
 2686SOL    HW1 8957   0.609   1.158   5.576
 2686SOL    HW2 8958   0.658   1.034   5.670
 2687SOL     OW 8959   3.862   1.951   1.267
 2687SOL    HW1 8960   3.926   1.953   1.344
 2687SOL    HW2 8961   3.818   1.862   1.263
 2688SOL     OW 8962   4.072   2.543   6.350
 2688SOL    HW1 8963   4.072   2.642   6.340
 2688SOL    HW2 8964   3.980   2.512   6.373
 2689SOL     OW 8965   1.475   4.016   3.141
 2689SOL    HW1 8966   1.545   3.945   3.149
 2689SOL    HW2 8967   1.447   4.046   3.232
 2690SOL     OW 8968   4.387   1.512   6.012
 2690SOL    HW1 8969   4.402   1.515   5.913
 2690SOL    HW2 8970   4.355   1.602   6.043
 2691SOL     OW 8971   6.542   3.679   5.235
 2691SOL    HW1 8972   6.548   3.581   5.215
 2691SOL    HW2 8973   6.449   3.711   5.215
 2692SOL     OW 8974   2.512   6.325   2.211
 2692SOL    HW1 8975   2.567   6.283   2.139
 2692SOL    HW2 8976   2.442   6.385   2.170
 2693SOL     OW 8977   1.340   6.112   3.087
 2693SOL    HW1 8978   1.376   6.118   3.180
 2693SOL    HW2 8979   1.318   6.017   3.065
 2694SOL     OW 8980   2.705   0.387   2.679
 2694SOL    HW1 8981   2.761   0.338   2.746
 2694SOL    HW2 8982   2.665   0.321   2.614
 2695SOL     OW 8983   0.199   5.520   3.761
 2695SOL    HW1 8984   0.234   5.517   3.855
 2695SOL    HW2 8985   0.211   5.430   3.719
 2696SOL     OW 8986   5.296   4.785   5.848
 2696SOL    HW1 8987   5.353   4.708   5.820
 2696SOL    HW2 8988   5.226   4.753   5.912
 2697SOL     OW 8989   4.250   2.367   6.471
 2697SOL    HW1 8990   4.260   2.421   6.555
 2697SOL    HW2 8991   4.189   2.414   6.408
 2698SOL     OW 8992   1.588   5.247   5.812
 2698SOL    HW1 8993   1.532   5.330   5.811
 2698SOL    HW2 8994   1.609   5.222   5.907
 2699SOL     OW 8995   2.897   6.416   2.204
 2699SOL    HW1 8996   2.808   6.460   2.190
 2699SOL    HW2 8997   2.965   6.485   2.226
 2700SOL     OW 8998   3.959   1.889   1.842
 2700SOL    HW1 8999   4.029   1.847   1.783
 2700SOL    HW2 9000   3.883   1.921   1.786
 2701SOL     OW 9001   5.234   3.139   5.213
 2701SOL    HW1 9002   5.290   3.187   5.281
 2701SOL    HW2 9003   5.289   3.070   5.166
 2702SOL     OW 9004   2.954   0.980   4.888
 2702SOL    HW1 9005   2.962   1.046   4.813
 2702SOL    HW2 9006   3.041   0.932   4.900
 2703SOL     OW 9007   2.334   6.930   2.547
 2703SOL    HW1 9008   2.415   6.898   2.498
 2703SOL    HW2 9009   2.363   6.983   2.627
 2704SOL     OW 9010   5.582   0.571   3.379
 2704SOL    HW1 9011   5.614   0.489   3.331
 2704SOL    HW2 9012   5.639   0.586   3.460
 2705SOL     OW 9013   0.748   0.563   5.590
 2705SOL    HW1 9014   0.749   0.465   5.570
 2705SOL    HW2 9015   0.762   0.576   5.688
 2706SOL     OW 9016   6.778   3.925   3.671
 2706SOL    HW1 9017   6.777   3.951   3.768
 2706SOL    HW2 9018   6.725   3.841   3.658
 2707SOL     OW 9019   4.541   1.166   3.002
 2707SOL    HW1 9020   4.516   1.117   2.918
 2707SOL    HW2 9021   4.500   1.119   3.080
 2708SOL     OW 9022   5.237   3.648   5.998
 2708SOL    HW1 9023   5.150   3.611   6.029
 2708SOL    HW2 9024   5.309   3.626   6.063
 2709SOL     OW 9025   5.288   1.450   5.567
 2709SOL    HW1 9026   5.367   1.428   5.510
 2709SOL    HW2 9027   5.266   1.547   5.558
 2710SOL     OW 9028   0.346   2.493   4.674
 2710SOL    HW1 9029   0.422   2.476   4.737
 2710SOL    HW2 9030   0.272   2.430   4.693
 2711SOL     OW 9031   3.780   1.153   2.006
 2711SOL    HW1 9032   3.720   1.149   1.926
 2711SOL    HW2 9033   3.852   1.084   1.997
 2712SOL     OW 9034   4.138   6.136   2.493
 2712SOL    HW1 9035   4.197   6.086   2.430
 2712SOL    HW2 9036   4.133   6.089   2.581
 2713SOL     OW 9037   3.771   4.805   5.565
 2713SOL    HW1 9038   3.671   4.792   5.566
 2713SOL    HW2 9039   3.815   4.716   5.558
 2714SOL     OW 9040   3.041   4.804   6.445
 2714SOL    HW1 9041   3.033   4.848   6.535
 2714SOL    HW2 9042   3.119   4.843   6.396
 2715SOL     OW 9043   4.327   0.543   6.769
 2715SOL    HW1 9044   4.340   0.485   6.689
 2715SOL    HW2 9045   4.299   0.635   6.739
 2716SOL     OW 9046   3.697   1.622   2.932
 2716SOL    HW1 9047   3.606   1.590   2.959
 2716SOL    HW2 9048   3.733   1.681   3.004
 2717SOL     OW 9049   0.363   1.380   2.118
 2717SOL    HW1 9050   0.336   1.476   2.129
 2717SOL    HW2 9051   0.417   1.370   2.035
 2718SOL     OW 9052   0.358   0.592   6.081
 2718SOL    HW1 9053   0.450   0.595   6.121
 2718SOL    HW2 9054   0.360   0.632   5.990
 2719SOL     OW 9055   1.314   4.819   2.911
 2719SOL    HW1 9056   1.375   4.815   2.990
 2719SOL    HW2 9057   1.337   4.899   2.856
 2720SOL     OW 9058   2.037   6.098   6.192
 2720SOL    HW1 9059   2.069   6.148   6.272
 2720SOL    HW2 9060   1.937   6.101   6.188
 2721SOL     OW 9061   3.024   6.421   1.593
 2721SOL    HW1 9062   2.956   6.394   1.661
 2721SOL    HW2 9063   3.115   6.391   1.623
 2722SOL     OW 9064   4.246   5.647   6.759
 2722SOL    HW1 9065   4.236   5.730   6.814
 2722SOL    HW2 9066   4.162   5.593   6.767
 2723SOL     OW 9067   3.189   6.090   6.780
 2723SOL    HW1 9068   3.224   6.124   6.692
 2723SOL    HW2 9069   3.114   6.148   6.811
 2724SOL     OW 9070   0.496   6.658   1.148
 2724SOL    HW1 9071   0.525   6.565   1.125
 2724SOL    HW2 9072   0.570   6.705   1.196
 2725SOL     OW 9073   5.864   3.850   4.588
 2725SOL    HW1 9074   5.871   3.936   4.537
 2725SOL    HW2 9075   5.914   3.859   4.675
 2726SOL     OW 9076   6.130   1.652   2.124
 2726SOL    HW1 9077   6.124   1.749   2.151
 2726SOL    HW2 9078   6.226   1.628   2.109
 2727SOL     OW 9079   1.450   5.287   3.688
 2727SOL    HW1 9080   1.456   5.199   3.736
 2727SOL    HW2 9081   1.368   5.336   3.717
 2728SOL     OW 9082   4.483   5.476   5.561
 2728SOL    HW1 9083   4.455   5.450   5.653
 2728SOL    HW2 9084   4.415   5.538   5.521
 2729SOL     OW 9085   5.665   0.204   6.370
 2729SOL    HW1 9086   5.701   0.114   6.348
 2729SOL    HW2 9087   5.708   0.237   6.454
 2730SOL     OW 9088   1.409   5.813   2.019
 2730SOL    HW1 9089   1.370   5.839   2.108
 2730SOL    HW2 9090   1.417   5.713   2.015
 2731SOL     OW 9091   2.946   3.844   4.356
 2731SOL    HW1 9092   2.889   3.911   4.307
 2731SOL    HW2 9093   2.978   3.884   4.441
 2732SOL     OW 9094   5.725   0.527   2.045
 2732SOL    HW1 9095   5.672   0.580   2.111
 2732SOL    HW2 9096   5.664   0.487   1.977
 2733SOL     OW 9097   1.384   6.502   6.912
 2733SOL    HW1 9098   1.325   6.527   6.989
 2733SOL    HW2 9099   1.328   6.466   6.838
 2734SOL     OW 9100   3.466   6.221   2.635
 2734SOL    HW1 9101   3.474   6.129   2.674
 2734SOL    HW2 9102   3.543   6.277   2.666
 2735SOL     OW 9103   0.410   1.318   1.579
 2735SOL    HW1 9104   0.386   1.415   1.578
 2735SOL    HW2 9105   0.357   1.270   1.509
 2736SOL     OW 9106   4.888   4.223   3.150
 2736SOL    HW1 9107   4.940   4.143   3.120
 2736SOL    HW2 9108   4.946   4.281   3.206
 2737SOL     OW 9109   2.890   0.727   5.200
 2737SOL    HW1 9110   2.814   0.761   5.255
 2737SOL    HW2 9111   2.882   0.762   5.107
 2738SOL     OW 9112   5.192   5.963   1.549
 2738SOL    HW1 9113   5.220   5.901   1.475
 2738SOL    HW2 9114   5.273   6.000   1.593
 2739SOL     OW 9115   6.599   5.425   1.623
 2739SOL    HW1 9116   6.689   5.435   1.580
 2739SOL    HW2 9117   6.532   5.478   1.572
 2740SOL     OW 9118   0.167   6.267   3.653
 2740SOL    HW1 9119   0.213   6.211   3.723
 2740SOL    HW2 9120   0.233   6.328   3.610
 2741SOL     OW 9121   1.630   0.553   5.928
 2741SOL    HW1 9122   1.616   0.458   5.957
 2741SOL    HW2 9123   1.573   0.571   5.847
 2742SOL     OW 9124   3.098   5.489   1.960
 2742SOL    HW1 9125   3.069   5.553   1.889
 2742SOL    HW2 9126   3.170   5.430   1.924
 2743SOL     OW 9127   5.379   1.835   1.863
 2743SOL    HW1 9128   5.304   1.769   1.869
 2743SOL    HW2 9129   5.356   1.906   1.796
 2744SOL     OW 9130   3.170   3.837   2.358
 2744SOL    HW1 9131   3.148   3.881   2.272
 2744SOL    HW2 9132   3.268   3.818   2.361
 2745SOL     OW 9133   0.717   6.347   0.855
 2745SOL    HW1 9134   0.739   6.424   0.914
 2745SOL    HW2 9135   0.656   6.284   0.903
 2746SOL     OW 9136   1.284   0.992   3.970
 2746SOL    HW1 9137   1.277   1.092   3.970
 2746SOL    HW2 9138   1.356   0.964   3.907
 2747SOL     OW 9139   3.820   4.800   0.986
 2747SOL    HW1 9140   3.849   4.778   0.893
 2747SOL    HW2 9141   3.880   4.753   1.051
 2748SOL     OW 9142   4.582   0.446   0.756
 2748SOL    HW1 9143   4.583   0.348   0.736
 2748SOL    HW2 9144   4.530   0.494   0.685
 2749SOL     OW 9145   3.403   2.153   0.479
 2749SOL    HW1 9146   3.442   2.135   0.570
 2749SOL    HW2 9147   3.421   2.247   0.453
 2750SOL     OW 9148   3.347   5.707   2.248
 2750SOL    HW1 9149   3.351   5.756   2.161
 2750SOL    HW2 9150   3.257   5.665   2.258
 2751SOL     OW 9151   5.604   4.901   1.132
 2751SOL    HW1 9152   5.659   4.890   1.215
 2751SOL    HW2 9153   5.525   4.959   1.152
 2752SOL     OW 9154   3.712   5.193   6.869
 2752SOL    HW1 9155   3.801   5.232   6.893
 2752SOL    HW2 9156   3.698   5.109   6.921
 2753SOL     OW 9157   6.083   5.448   5.378
 2753SOL    HW1 9158   6.009   5.406   5.431
 2753SOL    HW2 9159   6.171   5.414   5.410
 2754SOL     OW 9160   1.529   6.440   6.153
 2754SOL    HW1 9161   1.507   6.429   6.250
 2754SOL    HW2 9162   1.453   6.405   6.098
 2755SOL     OW 9163   3.250   0.634   2.250
 2755SOL    HW1 9164   3.343   0.637   2.213
 2755SOL    HW2 9165   3.233   0.545   2.292
 2756SOL     OW 9166   4.891   6.032   0.316
 2756SOL    HW1 9167   4.868   6.021   0.219
 2756SOL    HW2 9168   4.987   6.011   0.331
 2757SOL     OW 9169   0.294   5.369   1.612
 2757SOL    HW1 9170   0.379   5.352   1.562
 2757SOL    HW2 9171   0.259   5.459   1.589
 2758SOL     OW 9172   4.147   0.470   6.317
 2758SOL    HW1 9173   4.086   0.521   6.378
 2758SOL    HW2 9174   4.238   0.465   6.357
 2759SOL     OW 9175   5.131   5.789   4.839
 2759SOL    HW1 9176   5.036   5.758   4.831
 2759SOL    HW2 9177   5.164   5.817   4.749
 2760SOL     OW 9178   2.442   5.561   3.915
 2760SOL    HW1 9179   2.513   5.620   3.954
 2760SOL    HW2 9180   2.456   5.467   3.945
 2761SOL     OW 9181   1.980   5.388   3.487
 2761SOL    HW1 9182   2.022   5.303   3.454
 2761SOL    HW2 9183   1.906   5.414   3.425
 2762SOL     OW 9184   1.478   0.013   5.178
 2762SOL    HW1 9185   1.461   0.025   5.276
 2762SOL    HW2 9186   1.394   7.003   5.134
 2763SOL     OW 9187   4.963   1.970   1.865
 2763SOL    HW1 9188   4.967   1.878   1.904
 2763SOL    HW2 9189   4.890   2.021   1.910
 2764SOL     OW 9190   6.446   1.035   1.944
 2764SOL    HW1 9191   6.419   0.940   1.928
 2764SOL    HW2 9192   6.393   1.072   2.020
 2765SOL     OW 9193   5.109   1.600   2.209
 2765SOL    HW1 9194   5.175   1.674   2.200
 2765SOL    HW2 9195   5.135   1.525   2.148
 2766SOL     OW 9196   5.880   0.790   2.811
 2766SOL    HW1 9197   5.841   0.759   2.725
 2766SOL    HW2 9198   5.812   0.842   2.863
 2767SOL     OW 9199   6.414   4.706   5.656
 2767SOL    HW1 9200   6.377   4.720   5.748
 2767SOL    HW2 9201   6.491   4.643   5.660
 2768SOL     OW 9202   6.235   1.555   6.627
 2768SOL    HW1 9203   6.142   1.519   6.643
 2768SOL    HW2 9204   6.302   1.494   6.670
 2769SOL     OW 9205   1.435   4.429   1.527
 2769SOL    HW1 9206   1.450   4.411   1.430
 2769SOL    HW2 9207   1.439   4.527   1.544
 2770SOL     OW 9208   6.476   5.664   1.100
 2770SOL    HW1 9209   6.526   5.577   1.107
 2770SOL    HW2 9210   6.428   5.666   1.012
 2771SOL     OW 9211   4.731   1.018   1.493
 2771SOL    HW1 9212   4.724   1.060   1.403
 2771SOL    HW2 9213   4.690   1.079   1.561
 2772SOL     OW 9214   3.270   2.648   6.112
 2772SOL    HW1 9215   3.207   2.725   6.111
 2772SOL    HW2 9216   3.334   2.655   6.036
 2773SOL     OW 9217   3.592   4.313   6.689
 2773SOL    HW1 9218   3.630   4.228   6.725
 2773SOL    HW2 9219   3.594   4.384   6.759
 2774SOL     OW 9220   5.831   3.476   2.601
 2774SOL    HW1 9221   5.914   3.513   2.559
 2774SOL    HW2 9222   5.827   3.377   2.586
 2775SOL     OW 9223   6.786   6.261   2.107
 2775SOL    HW1 9224   6.842   6.248   2.025
 2775SOL    HW2 9225   6.817   6.344   2.155
 2776SOL     OW 9226   3.198   6.052   6.019
 2776SOL    HW1 9227   3.267   6.060   5.948
 2776SOL    HW2 9228   3.111   6.088   5.986
 2777SOL     OW 9229   3.812   1.488   2.753
 2777SOL    HW1 9230   3.812   1.389   2.765
 2777SOL    HW2 9231   3.760   1.530   2.827
 2778SOL     OW 9232   2.560   1.332   4.878
 2778SOL    HW1 9233   2.476   1.276   4.875
 2778SOL    HW2 9234   2.554   1.404   4.810
 2779SOL     OW 9235   5.823   1.077   0.199
 2779SOL    HW1 9236   5.910   1.075   0.150
 2779SOL    HW2 9237   5.788   1.171   0.202
 2780SOL     OW 9238   5.184   5.177   0.046
 2780SOL    HW1 9239   5.179   5.250   0.115
 2780SOL    HW2 9240   5.251   5.202   6.999
 2781SOL     OW 9241   4.561   4.456   0.358
 2781SOL    HW1 9242   4.500   4.523   0.400
 2781SOL    HW2 9243   4.518   4.366   0.361
 2782SOL     OW 9244   2.926   2.200   6.452
 2782SOL    HW1 9245   2.892   2.173   6.542
 2782SOL    HW2 9246   2.852   2.243   6.400
 2783SOL     OW 9247   0.174   4.625   5.171
 2783SOL    HW1 9248   0.207   4.607   5.264
 2783SOL    HW2 9249   0.115   4.706   5.172
 2784SOL     OW 9250   2.133   2.001   2.130
 2784SOL    HW1 9251   2.214   2.059   2.139
 2784SOL    HW2 9252   2.124   1.972   2.035
 2785SOL     OW 9253   6.035   1.341   1.292
 2785SOL    HW1 9254   6.022   1.431   1.333
 2785SOL    HW2 9255   6.126   1.307   1.315
 2786SOL     OW 9256   3.852   0.139   0.980
 2786SOL    HW1 9257   3.939   0.168   1.019
 2786SOL    HW2 9258   3.828   0.199   0.904
 2787SOL     OW 9259   2.257   2.345   5.280
 2787SOL    HW1 9260   2.254   2.442   5.253
 2787SOL    HW2 9261   2.339   2.328   5.335
 2788SOL     OW 9262   1.124   3.695   0.703
 2788SOL    HW1 9263   1.098   3.734   0.791
 2788SOL    HW2 9264   1.111   3.763   0.630
 2789SOL     OW 9265   6.957   1.760   4.282
 2789SOL    HW1 9266   6.955   1.769   4.382
 2789SOL    HW2 9267   6.923   1.670   4.256
 2790SOL     OW 9268   4.059   5.886   3.345
 2790SOL    HW1 9269   4.136   5.862   3.286
 2790SOL    HW2 9270   4.009   5.964   3.306
 2791SOL     OW 9271   2.067   2.762   3.624
 2791SOL    HW1 9272   2.150   2.800   3.663
 2791SOL    HW2 9273   2.047   2.807   3.536
 2792SOL     OW 9274   1.352   2.088   5.120
 2792SOL    HW1 9275   1.378   1.992   5.110
 2792SOL    HW2 9276   1.254   2.098   5.102
 2793SOL     OW 9277   5.303   1.210   3.639
 2793SOL    HW1 9278   5.385   1.260   3.613
 2793SOL    HW2 9279   5.223   1.249   3.593
 2794SOL     OW 9280   0.886   0.791   1.044
 2794SOL    HW1 9281   0.937   0.870   1.007
 2794SOL    HW2 9282   0.791   0.818   1.061
 2795SOL     OW 9283   2.274   3.933   1.926
 2795SOL    HW1 9284   2.352   3.916   1.865
 2795SOL    HW2 9285   2.227   3.847   1.944
 2796SOL     OW 9286   5.086   4.313   2.863
 2796SOL    HW1 9287   5.129   4.304   2.952
 2796SOL    HW2 9288   5.071   4.410   2.842
 2797SOL     OW 9289   4.461   4.616   4.842
 2797SOL    HW1 9290   4.526   4.681   4.881
 2797SOL    HW2 9291   4.414   4.567   4.915
 2798SOL     OW 9292   1.582   3.622   3.924
 2798SOL    HW1 9293   1.483   3.610   3.934
 2798SOL    HW2 9294   1.614   3.686   3.994
 2799SOL     OW 9295   6.584   5.178   5.535
 2799SOL    HW1 9296   6.548   5.084   5.534
 2799SOL    HW2 9297   6.579   5.216   5.443
 2800SOL     OW 9298   2.782   2.969   6.963
 2800SOL    HW1 9299   2.809   3.038   6.896
 2800SOL    HW2 9300   2.856   2.903   6.974
 2801SOL     OW 9301   4.868   5.524   2.529
 2801SOL    HW1 9302   4.925   5.600   2.500
 2801SOL    HW2 9303   4.804   5.555   2.600
 2802SOL     OW 9304   5.178   0.904   5.900
 2802SOL    HW1 9305   5.218   0.986   5.940
 2802SOL    HW2 9306   5.158   0.838   5.973
 2803SOL     OW 9307   1.938   5.694   6.049
 2803SOL    HW1 9308   1.854   5.734   6.085
 2803SOL    HW2 9309   1.994   5.660   6.124
 2804SOL     OW 9310   0.289   4.093   2.971
 2804SOL    HW1 9311   0.286   4.119   2.874
 2804SOL    HW2 9312   0.229   4.154   3.023
 2805SOL     OW 9313   5.512   4.180   6.818
 2805SOL    HW1 9314   5.575   4.217   6.887
 2805SOL    HW2 9315   5.549   4.093   6.784
 2806SOL     OW 9316   6.930   5.979   3.573
 2806SOL    HW1 9317   6.983   6.063   3.570
 2806SOL    HW2 9318   6.954   5.927   3.655
 2807SOL     OW 9319   4.358   5.367   3.651
 2807SOL    HW1 9320   4.270   5.364   3.602
 2807SOL    HW2 9321   4.347   5.322   3.740
 2808SOL     OW 9322   4.802   6.900   4.068
 2808SOL    HW1 9323   4.879   6.955   4.035
 2808SOL    HW2 9324   4.809   6.807   4.032
 2809SOL     OW 9325   5.197   3.209   0.746
 2809SOL    HW1 9326   5.283   3.255   0.723
 2809SOL    HW2 9327   5.178   3.223   0.844
 2810SOL     OW 9328   1.650   0.345   5.508
 2810SOL    HW1 9329   1.665   0.406   5.430
 2810SOL    HW2 9330   1.629   0.253   5.475
 2811SOL     OW 9331   0.285   0.803   3.570
 2811SOL    HW1 9332   0.363   0.862   3.592
 2811SOL    HW2 9333   0.239   0.838   3.488
 2812SOL     OW 9334   5.111   3.802   2.642
 2812SOL    HW1 9335   5.192   3.853   2.613
 2812SOL    HW2 9336   5.139   3.711   2.673
 2813SOL     OW 9337   5.977   1.382   6.323
 2813SOL    HW1 9338   6.070   1.380   6.287
 2813SOL    HW2 9339   5.950   1.289   6.349
 2814SOL     OW 9340   5.206   3.871   4.862
 2814SOL    HW1 9341   5.203   3.970   4.880
 2814SOL    HW2 9342   5.113   3.835   4.859
 2815SOL     OW 9343   0.344   0.900   5.517
 2815SOL    HW1 9344   0.325   0.928   5.611
 2815SOL    HW2 9345   0.419   0.834   5.516
 2816SOL     OW 9346   5.840   0.181   2.981
 2816SOL    HW1 9347   5.793   0.134   3.055
 2816SOL    HW2 9348   5.793   0.163   2.894
 2817SOL     OW 9349   1.226   2.051   1.206
 2817SOL    HW1 9350   1.282   2.120   1.253
 2817SOL    HW2 9351   1.131   2.082   1.202
 2818SOL     OW 9352   6.968   4.763   5.261
 2818SOL    HW1 9353   7.008   4.803   5.344
 2818SOL    HW2 9354   6.981   4.827   5.185
 2819SOL     OW 9355   6.979   2.744   0.369
 2819SOL    HW1 9356   6.896   2.780   0.410
 2819SOL    HW2 9357   0.034   2.764   0.429
 2820SOL     OW 9358   6.653   2.949   4.444
 2820SOL    HW1 9359   6.746   2.954   4.408
 2820SOL    HW2 9360   6.644   3.010   4.522
 2821SOL     OW 9361   1.600   3.286   4.236
 2821SOL    HW1 9362   1.513   3.297   4.187
 2821SOL    HW2 9363   1.594   3.207   4.297
 2822SOL     OW 9364   3.692   1.720   6.890
 2822SOL    HW1 9365   3.755   1.756   6.822
 2822SOL    HW2 9366   3.619   1.786   6.906
 2823SOL     OW 9367   1.494   6.474   3.317
 2823SOL    HW1 9368   1.559   6.528   3.265
 2823SOL    HW2 9369   1.536   6.387   3.344
 2824SOL     OW 9370   3.258   1.567   4.765
 2824SOL    HW1 9371   3.246   1.535   4.859
 2824SOL    HW2 9372   3.234   1.664   4.759
 2825SOL     OW 9373   6.271   5.732   0.903
 2825SOL    HW1 9374   6.299   5.813   0.852
 2825SOL    HW2 9375   6.205   5.758   0.973
 2826SOL     OW 9376   4.738   2.109   4.535
 2826SOL    HW1 9377   4.679   2.167   4.590
 2826SOL    HW2 9378   4.705   2.014   4.539
 2827SOL     OW 9379   5.992   0.643   5.368
 2827SOL    HW1 9380   6.053   0.591   5.308
 2827SOL    HW2 9381   5.928   0.580   5.412
 2828SOL     OW 9382   3.570   1.703   5.686
 2828SOL    HW1 9383   3.498   1.702   5.617
 2828SOL    HW2 9384   3.586   1.797   5.716
 2829SOL     OW 9385   1.888   6.474   6.615
 2829SOL    HW1 9386   1.904   6.376   6.608
 2829SOL    HW2 9387   1.959   6.515   6.672
 2830SOL     OW 9388   3.476   3.336   6.805
 2830SOL    HW1 9389   3.460   3.276   6.727
 2830SOL    HW2 9390   3.567   3.319   6.843
 2831SOL     OW 9391   5.910   5.865   4.359
 2831SOL    HW1 9392   5.993   5.893   4.311
 2831SOL    HW2 9393   5.895   5.925   4.438
 2832SOL     OW 9394   0.470   0.890   1.563
 2832SOL    HW1 9395   0.452   0.870   1.467
 2832SOL    HW2 9396   0.545   0.832   1.596
 2833SOL     OW 9397   6.002   3.029   1.963
 2833SOL    HW1 9398   5.928   3.085   1.925
 2833SOL    HW2 9399   5.969   2.980   2.044
 2834SOL     OW 9400   3.480   1.052   5.824
 2834SOL    HW1 9401   3.394   1.001   5.819
 2834SOL    HW2 9402   3.461   1.147   5.846
 2835SOL     OW 9403   0.898   6.191   2.488
 2835SOL    HW1 9404   0.967   6.262   2.499
 2835SOL    HW2 9405   0.839   6.190   2.568
 2836SOL     OW 9406   6.653   0.991   0.810
 2836SOL    HW1 9407   6.658   1.073   0.753
 2836SOL    HW2 9408   6.735   0.935   0.795
 2837SOL     OW 9409   6.006   3.316   3.750
 2837SOL    HW1 9410   6.047   3.373   3.821
 2837SOL    HW2 9411   5.907   3.329   3.751
 2838SOL     OW 9412   3.057   4.821   3.042
 2838SOL    HW1 9413   3.128   4.768   2.997
 2838SOL    HW2 9414   3.073   4.919   3.028
 2839SOL     OW 9415   5.087   1.793   0.839
 2839SOL    HW1 9416   5.160   1.788   0.907
 2839SOL    HW2 9417   5.098   1.719   0.773
 2840SOL     OW 9418   6.825   1.937   5.386
 2840SOL    HW1 9419   6.767   1.966   5.310
 2840SOL    HW2 9420   6.898   2.003   5.399
 2841SOL     OW 9421   0.828   5.895   1.471
 2841SOL    HW1 9422   0.880   5.849   1.542
 2841SOL    HW2 9423   0.842   5.994   1.477
 2842SOL     OW 9424   6.485   3.177   3.306
 2842SOL    HW1 9425   6.560   3.127   3.349
 2842SOL    HW2 9426   6.455   3.127   3.224
 2843SOL     OW 9427   3.897   1.855   4.988
 2843SOL    HW1 9428   3.932   1.942   5.022
 2843SOL    HW2 9429   3.968   1.785   4.992
 2844SOL     OW 9430   6.519   3.873   6.017
 2844SOL    HW1 9431   6.441   3.901   5.960
 2844SOL    HW2 9432   6.603   3.911   5.979
 2845SOL     OW 9433   6.207   4.095   5.394
 2845SOL    HW1 9434   6.249   4.031   5.459
 2845SOL    HW2 9435   6.178   4.177   5.442
 2846SOL     OW 9436   4.631   1.733   6.528
 2846SOL    HW1 9437   4.642   1.823   6.487
 2846SOL    HW2 9438   4.577   1.675   6.467
 2847SOL     OW 9439   5.071   4.655   4.284
 2847SOL    HW1 9440   5.063   4.751   4.309
 2847SOL    HW2 9441   5.145   4.643   4.218
 2848SOL     OW 9442   0.913   5.724   4.954
 2848SOL    HW1 9443   0.972   5.780   5.012
 2848SOL    HW2 9444   0.968   5.677   4.886
 2849SOL     OW 9445   2.517   2.777   1.455
 2849SOL    HW1 9446   2.437   2.761   1.512
 2849SOL    HW2 9447   2.564   2.691   1.439
 2850SOL     OW 9448   4.130   0.880   0.072
 2850SOL    HW1 9449   4.167   0.874   0.165
 2850SOL    HW2 9450   4.139   0.974   0.039
 2851SOL     OW 9451   1.984   4.448   6.382
 2851SOL    HW1 9452   2.041   4.504   6.442
 2851SOL    HW2 9453   2.032   4.435   6.295
 2852SOL     OW 9454   0.203   3.476   6.123
 2852SOL    HW1 9455   0.170   3.519   6.206
 2852SOL    HW2 9456   0.302   3.460   6.131
 2853SOL     OW 9457   3.093   3.856   1.354
 2853SOL    HW1 9458   3.007   3.826   1.314
 2853SOL    HW2 9459   3.107   3.810   1.442
 2854SOL     OW 9460   2.056   1.479   3.886
 2854SOL    HW1 9461   2.075   1.504   3.791
 2854SOL    HW2 9462   2.132   1.509   3.944
 2855SOL     OW 9463   2.884   1.030   5.262
 2855SOL    HW1 9464   2.857   0.997   5.353
 2855SOL    HW2 9465   2.984   1.037   5.258
 2856SOL     OW 9466   2.723   2.416   4.785
 2856SOL    HW1 9467   2.742   2.319   4.797
 2856SOL    HW2 9468   2.746   2.466   4.869
 2857SOL     OW 9469   3.207   3.432   1.813
 2857SOL    HW1 9470   3.245   3.394   1.898
 2857SOL    HW2 9471   3.108   3.437   1.821
 2858SOL     OW 9472   6.202   3.248   2.443
 2858SOL    HW1 9473   6.235   3.342   2.450
 2858SOL    HW2 9474   6.241   3.193   2.516
 2859SOL     OW 9475   6.208   6.459   0.443
 2859SOL    HW1 9476   6.176   6.551   0.419
 2859SOL    HW2 9477   6.193   6.443   0.541
 2860SOL     OW 9478   4.014   0.993   1.819
 2860SOL    HW1 9479   4.105   1.007   1.858
 2860SOL    HW2 9480   3.960   1.077   1.826
 2861SOL     OW 9481   3.519   6.100   5.511
 2861SOL    HW1 9482   3.501   6.198   5.501
 2861SOL    HW2 9483   3.473   6.050   5.437
 2862SOL     OW 9484   5.500   0.844   4.443
 2862SOL    HW1 9485   5.526   0.761   4.492
 2862SOL    HW2 9486   5.416   0.881   4.482
 2863SOL     OW 9487   6.200   2.171   6.363
 2863SOL    HW1 9488   6.148   2.123   6.433
 2863SOL    HW2 9489   6.195   2.270   6.379
 2864SOL     OW 9490   3.199   1.389   7.004
 2864SOL    HW1 9491   3.213   1.455   0.056
 2864SOL    HW2 9492   3.102   1.383   6.983
 2865SOL     OW 9493   4.644   4.797   4.964
 2865SOL    HW1 9494   4.661   4.888   5.003
 2865SOL    HW2 9495   4.697   4.729   5.014
 2866SOL     OW 9496   0.252   6.442   6.558
 2866SOL    HW1 9497   0.188   6.508   6.599
 2866SOL    HW2 9498   0.346   6.474   6.572
 2867SOL     OW 9499   6.556   4.201   3.956
 2867SOL    HW1 9500   6.591   4.294   3.961
 2867SOL    HW2 9501   6.508   4.179   4.041
 2868SOL     OW 9502   1.750   3.963   5.597
 2868SOL    HW1 9503   1.816   3.999   5.663
 2868SOL    HW2 9504   1.724   4.036   5.533
 2869SOL     OW 9505   6.387   1.433   2.326
 2869SOL    HW1 9506   6.444   1.358   2.292
 2869SOL    HW2 9507   6.303   1.396   2.366
 2870SOL     OW 9508   5.385   1.555   2.468
 2870SOL    HW1 9509   5.413   1.564   2.563
 2870SOL    HW2 9510   5.311   1.619   2.449
 2871SOL     OW 9511   1.599   1.979   5.834
 2871SOL    HW1 9512   1.516   2.030   5.857
 2871SOL    HW2 9513   1.663   1.984   5.911
 2872SOL     OW 9514   2.660   6.674   3.402
 2872SOL    HW1 9515   2.689   6.732   3.478
 2872SOL    HW2 9516   2.715   6.591   3.400
 2873SOL     OW 9517   6.867   5.208   1.670
 2873SOL    HW1 9518   6.815   5.123   1.665
 2873SOL    HW2 9519   6.826   5.275   1.608
 2874SOL     OW 9520   5.906   2.012   2.182
 2874SOL    HW1 9521   5.989   1.989   2.233
 2874SOL    HW2 9522   5.849   1.930   2.173
 2875SOL     OW 9523   3.166   4.887   0.072
 2875SOL    HW1 9524   3.117   4.800   0.068
 2875SOL    HW2 9525   3.248   4.877   0.129
 2876SOL     OW 9526   6.909   1.438   1.977
 2876SOL    HW1 9527   6.841   1.498   1.933
 2876SOL    HW2 9528   6.991   1.433   1.921
 2877SOL     OW 9529   2.878   2.954   5.884
 2877SOL    HW1 9530   2.827   2.885   5.935
 2877SOL    HW2 9531   2.816   3.026   5.853
 2878SOL     OW 9532   2.965   4.555   6.298
 2878SOL    HW1 9533   3.012   4.636   6.333
 2878SOL    HW2 9534   2.956   4.487   6.370
 2879SOL     OW 9535   5.242   4.913   0.051
 2879SOL    HW1 9536   5.231   5.012   0.047
 2879SOL    HW2 9537   5.304   4.883   7.001
 2880SOL     OW 9538   1.126   5.804   1.452
 2880SOL    HW1 9539   1.116   5.755   1.366
 2880SOL    HW2 9540   1.193   5.877   1.441
 2881SOL     OW 9541   6.980   6.993   0.755
 2881SOL    HW1 9542   6.893   6.952   0.729
 2881SOL    HW2 9543   6.972   0.011   0.847
 2882SOL     OW 9544   6.968   2.958   3.184
 2882SOL    HW1 9545   6.939   2.966   3.088
 2882SOL    HW2 9546   7.010   2.869   3.199
 2883SOL     OW 9547   4.106   6.842   2.336
 2883SOL    HW1 9548   4.057   6.914   2.288
 2883SOL    HW2 9549   4.195   6.876   2.366
 2884SOL     OW 9550   1.390   5.962   2.733
 2884SOL    HW1 9551   1.348   6.051   2.716
 2884SOL    HW2 9552   1.490   5.971   2.733
 2885SOL     OW 9553   0.621   2.383   3.272
 2885SOL    HW1 9554   0.549   2.335   3.221
 2885SOL    HW2 9555   0.643   2.333   3.355
 2886SOL     OW 9556   2.261   2.414   5.808
 2886SOL    HW1 9557   2.239   2.375   5.898
 2886SOL    HW2 9558   2.282   2.340   5.744
 2887SOL     OW 9559   1.884   0.628   5.201
 2887SOL    HW1 9560   1.982   0.631   5.183
 2887SOL    HW2 9561   1.839   0.702   5.151
 2888SOL     OW 9562   6.249   5.210   6.703
 2888SOL    HW1 9563   6.176   5.267   6.738
 2888SOL    HW2 9564   6.288   5.252   6.621
 2889SOL     OW 9565   0.242   0.101   2.377
 2889SOL    HW1 9566   0.256   0.030   2.445
 2889SOL    HW2 9567   0.304   0.086   2.300
 2890SOL     OW 9568   3.884   0.141   1.311
 2890SOL    HW1 9569   3.788   0.126   1.288
 2890SOL    HW2 9570   3.917   0.223   1.264
 2891SOL     OW 9571   2.428   4.962   3.893
 2891SOL    HW1 9572   2.407   4.866   3.908
 2891SOL    HW2 9573   2.473   4.999   3.974
 2892SOL     OW 9574   4.679   4.202   5.628
 2892SOL    HW1 9575   4.678   4.296   5.663
 2892SOL    HW2 9576   4.589   4.177   5.594
 2893SOL     OW 9577   2.136   0.390   5.631
 2893SOL    HW1 9578   2.047   0.346   5.623
 2893SOL    HW2 9579   2.127   0.477   5.678
 2894SOL     OW 9580   3.780   3.222   0.356
 2894SOL    HW1 9581   3.780   3.127   0.324
 2894SOL    HW2 9582   3.829   3.280   0.291
 2895SOL     OW 9583   3.402   3.666   6.453
 2895SOL    HW1 9584   3.402   3.654   6.552
 2895SOL    HW2 9585   3.483   3.622   6.414
 2896SOL     OW 9586   2.653   5.045   1.319
 2896SOL    HW1 9587   2.714   4.965   1.325
 2896SOL    HW2 9588   2.670   5.093   1.233
 2897SOL     OW 9589   2.283   6.475   3.570
 2897SOL    HW1 9590   2.207   6.415   3.547
 2897SOL    HW2 9591   2.266   6.518   3.659
 2898SOL     OW 9592   3.058   5.600   2.204
 2898SOL    HW1 9593   3.082   5.552   2.119
 2898SOL    HW2 9594   2.988   5.669   2.184
 2899SOL     OW 9595   0.065   6.796   0.208
 2899SOL    HW1 9596   7.015   6.738   0.170
 2899SOL    HW2 9597   0.071   6.781   0.307
 2900SOL     OW 9598   1.961   5.163   5.421
 2900SOL    HW1 9599   1.965   5.119   5.510
 2900SOL    HW2 9600   1.866   5.172   5.391
 2901SOL     OW 9601   2.913   1.240   1.733
 2901SOL    HW1 9602   2.975   1.318   1.734
 2901SOL    HW2 9603   2.840   1.257   1.667
 2902SOL     OW 9604   5.578   5.987   1.840
 2902SOL    HW1 9605   5.574   5.888   1.826
 2902SOL    HW2 9606   5.582   6.006   1.938
 2903SOL     OW 9607   2.598   2.006   2.157
 2903SOL    HW1 9608   2.644   1.927   2.198
 2903SOL    HW2 9609   2.509   2.019   2.200
 2904SOL     OW 9610   1.723   2.894   4.784
 2904SOL    HW1 9611   1.819   2.886   4.761
 2904SOL    HW2 9612   1.669   2.907   4.700
 2905SOL     OW 9613   1.859   2.493   1.912
 2905SOL    HW1 9614   1.942   2.519   1.862
 2905SOL    HW2 9615   1.857   2.394   1.923
 2906SOL     OW 9616   5.538   5.642   2.295
 2906SOL    HW1 9617   5.609   5.576   2.273
 2906SOL    HW2 9618   5.570   5.701   2.369
 2907SOL     OW 9619   6.308   1.281   4.246
 2907SOL    HW1 9620   6.344   1.194   4.212
 2907SOL    HW2 9621   6.270   1.333   4.169
 2908SOL     OW 9622   3.931   6.326   4.843
 2908SOL    HW1 9623   3.996   6.251   4.835
 2908SOL    HW2 9624   3.839   6.289   4.861
 2909SOL     OW 9625   1.598   5.777   4.750
 2909SOL    HW1 9626   1.588   5.877   4.747
 2909SOL    HW2 9627   1.675   5.753   4.808
 2910SOL     OW 9628   5.535   6.231   6.351
 2910SOL    HW1 9629   5.517   6.316   6.400
 2910SOL    HW2 9630   5.620   6.240   6.298
 2911SOL     OW 9631   1.903   4.048   3.203
 2911SOL    HW1 9632   1.959   4.128   3.181
 2911SOL    HW2 9633   1.958   3.965   3.195
 2912SOL     OW 9634   2.422   5.676   0.701
 2912SOL    HW1 9635   2.357   5.745   0.669
 2912SOL    HW2 9636   2.424   5.677   0.801
 2913SOL     OW 9637   1.434   3.311   3.084
 2913SOL    HW1 9638   1.375   3.391   3.089
 2913SOL    HW2 9639   1.529   3.338   3.100
 2914SOL     OW 9640   5.709   5.374   5.920
 2914SOL    HW1 9641   5.777   5.311   5.882
 2914SOL    HW2 9642   5.623   5.325   5.933
 2915SOL     OW 9643   4.865   1.177   4.178
 2915SOL    HW1 9644   4.797   1.240   4.142
 2915SOL    HW2 9645   4.825   1.085   4.185
 2916SOL     OW 9646   5.167   5.679   4.508
 2916SOL    HW1 9647   5.201   5.680   4.414
 2916SOL    HW2 9648   5.155   5.584   4.537
 2917SOL     OW 9649   4.460   0.395   2.425
 2917SOL    HW1 9650   4.478   0.467   2.492
 2917SOL    HW2 9651   4.365   0.366   2.433
 2918SOL     OW 9652   6.888   4.137   3.521
 2918SOL    HW1 9653   6.845   4.055   3.559
 2918SOL    HW2 9654   6.830   4.217   3.539
 2919SOL     OW 9655   6.235   6.015   0.298
 2919SOL    HW1 9656   6.236   6.092   0.234
 2919SOL    HW2 9657   6.274   6.045   0.386
 2920SOL     OW 9658   4.420   2.398   3.597
 2920SOL    HW1 9659   4.400   2.424   3.503
 2920SOL    HW2 9660   4.353   2.330   3.628
 2921SOL     OW 9661   0.781   6.858   2.071
 2921SOL    HW1 9662   0.862   6.870   2.128
 2921SOL    HW2 9663   0.756   6.761   2.068
 2922SOL     OW 9664   4.366   6.316   5.370
 2922SOL    HW1 9665   4.320   6.230   5.390
 2922SOL    HW2 9666   4.326   6.389   5.425
 2923SOL     OW 9667   6.466   4.300   1.875
 2923SOL    HW1 9668   6.392   4.255   1.924
 2923SOL    HW2 9669   6.436   4.389   1.842
 2924SOL     OW 9670   6.857   0.950   5.383
 2924SOL    HW1 9671   6.811   1.038   5.371
 2924SOL    HW2 9672   6.815   0.882   5.322
 2925SOL     OW 9673   5.326   4.001   1.197
 2925SOL    HW1 9674   5.354   3.985   1.102
 2925SOL    HW2 9675   5.362   4.090   1.228
 2926SOL     OW 9676   6.945   1.215   4.606
 2926SOL    HW1 9677   6.893   1.274   4.668
 2926SOL    HW2 9678   6.983   1.271   4.532
 2927SOL     OW 9679   0.544   2.430   2.930
 2927SOL    HW1 9680   0.557   2.522   2.892
 2927SOL    HW2 9681   0.621   2.408   2.990
 2928SOL     OW 9682   6.528   6.412   0.842
 2928SOL    HW1 9683   6.504   6.331   0.894
 2928SOL    HW2 9684   6.598   6.388   0.774
 2929SOL     OW 9685   0.771   6.629   6.423
 2929SOL    HW1 9686   0.708   6.706   6.429
 2929SOL    HW2 9687   0.753   6.578   6.338
 2930SOL     OW 9688   3.665   6.531   4.870
 2930SOL    HW1 9689   3.681   6.432   4.870
 2930SOL    HW2 9690   3.623   6.558   4.956
 2931SOL     OW 9691   3.944   6.105   5.559
 2931SOL    HW1 9692   3.927   6.203   5.548
 2931SOL    HW2 9693   3.982   6.089   5.650
 2932SOL     OW 9694   1.108   5.038   1.597
 2932SOL    HW1 9695   1.085   4.975   1.523
 2932SOL    HW2 9696   1.024   5.064   1.646
 2933SOL     OW 9697   5.055   2.151   3.104
 2933SOL    HW1 9698   5.108   2.124   3.185
 2933SOL    HW2 9699   5.065   2.249   3.089
 2934SOL     OW 9700   2.475   0.438   0.112
 2934SOL    HW1 9701   2.535   0.485   0.048
 2934SOL    HW2 9702   2.452   0.348   0.076
 2935SOL     OW 9703   5.877   2.583   1.171
 2935SOL    HW1 9704   5.951   2.516   1.176
 2935SOL    HW2 9705   5.819   2.574   1.252
 2936SOL     OW 9706   4.376   5.958   0.563
 2936SOL    HW1 9707   4.425   6.006   0.636
 2936SOL    HW2 9708   4.437   5.944   0.485
 2937SOL     OW 9709   3.207   4.439   0.291
 2937SOL    HW1 9710   3.143   4.488   0.351
 2937SOL    HW2 9711   3.233   4.498   0.214
 2938SOL     OW 9712   4.745   5.659   5.553
 2938SOL    HW1 9713   4.794   5.648   5.467
 2938SOL    HW2 9714   4.652   5.623   5.544
 2939SOL     OW 9715   0.634   6.305   5.676
 2939SOL    HW1 9716   0.575   6.270   5.603
 2939SOL    HW2 9717   0.706   6.239   5.696
 2940SOL     OW 9718   4.580   6.942   5.548
 2940SOL    HW1 9719   4.582   6.899   5.639
 2940SOL    HW2 9720   4.668   6.984   5.529
 2941SOL     OW 9721   1.855   1.720   5.204
 2941SOL    HW1 9722   1.763   1.750   5.178
 2941SOL    HW2 9723   1.851   1.671   5.291
 2942SOL     OW 9724   3.513   6.264   3.920
 2942SOL    HW1 9725   3.592   6.295   3.974
 2942SOL    HW2 9726   3.544   6.199   3.851
 2943SOL     OW 9727   6.086   4.037   3.286
 2943SOL    HW1 9728   6.103   3.938   3.280
 2943SOL    HW2 9729   6.167   4.083   3.321
 2944SOL     OW 9730   4.139   5.673   6.378
 2944SOL    HW1 9731   4.177   5.732   6.308
 2944SOL    HW2 9732   4.044   5.700   6.397
 2945SOL     OW 9733   3.031   3.080   3.307
 2945SOL    HW1 9734   3.003   3.175   3.292
 2945SOL    HW2 9735   2.974   3.020   3.251
 2946SOL     OW 9736   6.736   6.153   6.221
 2946SOL    HW1 9737   6.772   6.239   6.186
 2946SOL    HW2 9738   6.812   6.093   6.245
 2947SOL     OW 9739   6.586   4.814   0.046
 2947SOL    HW1 9740   6.644   4.736   0.070
 2947SOL    HW2 9741   6.642   4.896   0.035
 2948SOL     OW 9742   5.953   4.514   5.035
 2948SOL    HW1 9743   5.999   4.576   5.099
 2948SOL    HW2 9744   5.882   4.564   4.985
 2949SOL     OW 9745   1.464   6.731   0.217
 2949SOL    HW1 9746   1.562   6.724   0.199
 2949SOL    HW2 9747   1.447   6.721   0.315
 2950SOL     OW 9748   4.989   3.435   4.540
 2950SOL    HW1 9749   5.087   3.451   4.528
 2950SOL    HW2 9750   4.965   3.450   4.636
 2951SOL     OW 9751   6.739   1.536   1.400
 2951SOL    HW1 9752   6.716   1.559   1.306
 2951SOL    HW2 9753   6.713   1.441   1.419
 2952SOL     OW 9754   1.706   3.539   2.185
 2952SOL    HW1 9755   1.751   3.533   2.274
 2952SOL    HW2 9756   1.771   3.511   2.114
 2953SOL     OW 9757   4.783   1.131   2.714
 2953SOL    HW1 9758   4.817   1.144   2.807
 2953SOL    HW2 9759   4.751   1.219   2.678
 2954SOL     OW 9760   5.963   6.771   2.216
 2954SOL    HW1 9761   5.985   6.854   2.164
 2954SOL    HW2 9762   5.924   6.798   2.305
 2955SOL     OW 9763   7.010   2.898   0.661
 2955SOL    HW1 9764   0.076   2.942   0.678
 2955SOL    HW2 9765   6.961   2.949   0.590
 2956SOL     OW 9766   6.405   5.849   2.800
 2956SOL    HW1 9767   6.465   5.825   2.877
 2956SOL    HW2 9768   6.334   5.779   2.791
 2957SOL     OW 9769   0.992   3.940   1.410
 2957SOL    HW1 9770   1.062   3.888   1.460
 2957SOL    HW2 9771   1.022   3.955   1.316
 2958SOL     OW 9772   2.331   4.964   5.622
 2958SOL    HW1 9773   2.300   5.049   5.580
 2958SOL    HW2 9774   2.283   4.949   5.708
 2959SOL     OW 9775   3.717   5.388   6.609
 2959SOL    HW1 9776   3.660   5.338   6.674
 2959SOL    HW2 9777   3.705   5.486   6.622
 2960SOL     OW 9778   2.270   1.704   0.260
 2960SOL    HW1 9779   2.260   1.609   0.288
 2960SOL    HW2 9780   2.208   1.761   0.314
 2961SOL     OW 9781   6.001   2.939   3.888
 2961SOL    HW1 9782   5.960   2.971   3.803
 2961SOL    HW2 9783   6.008   2.839   3.887
 2962SOL     OW 9784   4.312   1.126   3.668
 2962SOL    HW1 9785   4.363   1.209   3.646
 2962SOL    HW2 9786   4.375   1.048   3.674
 2963SOL     OW 9787   2.189   2.975   4.484
 2963SOL    HW1 9788   2.237   2.899   4.441
 2963SOL    HW2 9789   2.176   2.955   4.581
 2964SOL     OW 9790   3.547   6.355   0.756
 2964SOL    HW1 9791   3.496   6.393   0.833
 2964SOL    HW2 9792   3.492   6.284   0.711
 2965SOL     OW 9793   0.664   2.152   6.154
 2965SOL    HW1 9794   0.717   2.139   6.070
 2965SOL    HW2 9795   0.724   2.187   6.226
 2966SOL     OW 9796   4.424   4.509   4.199
 2966SOL    HW1 9797   4.423   4.451   4.281
 2966SOL    HW2 9798   4.393   4.601   4.224
 2967SOL     OW 9799   5.757   2.346   3.962
 2967SOL    HW1 9800   5.702   2.423   3.993
 2967SOL    HW2 9801   5.697   2.276   3.922
 2968SOL     OW 9802   0.365   4.024   3.343
 2968SOL    HW1 9803   0.374   3.933   3.382
 2968SOL    HW2 9804   0.270   4.040   3.314
 2969SOL     OW 9805   4.610   1.614   5.051
 2969SOL    HW1 9806   4.610   1.514   5.052
 2969SOL    HW2 9807   4.632   1.648   5.142
 2970SOL     OW 9808   0.927   4.538   6.400
 2970SOL    HW1 9809   0.911   4.598   6.322
 2970SOL    HW2 9810   0.860   4.557   6.472
 2971SOL     OW 9811   5.259   2.981   2.867
 2971SOL    HW1 9812   5.348   2.951   2.834
 2971SOL    HW2 9813   5.265   3.003   2.964
 2972SOL     OW 9814   0.350   3.841   5.702
 2972SOL    HW1 9815   0.431   3.894   5.680
 2972SOL    HW2 9816   0.330   3.849   5.800
 2973SOL     OW 9817   5.189   6.177   4.304
 2973SOL    HW1 9818   5.107   6.193   4.250
 2973SOL    HW2 9819   5.225   6.086   4.283
 2974SOL     OW 9820   0.255   3.664   2.292
 2974SOL    HW1 9821   0.248   3.763   2.295
 2974SOL    HW2 9822   0.344   3.638   2.254
 2975SOL     OW 9823   0.576   0.977   5.182
 2975SOL    HW1 9824   0.615   1.066   5.156
 2975SOL    HW2 9825   0.637   0.932   5.248
 2976SOL     OW 9826   3.826   0.519   2.379
 2976SOL    HW1 9827   3.730   0.546   2.368
 2976SOL    HW2 9828   3.865   0.568   2.458
 2977SOL     OW 9829   3.030   6.058   4.042
 2977SOL    HW1 9830   3.024   6.140   4.099
 2977SOL    HW2 9831   2.989   6.076   3.953
 2978SOL     OW 9832   4.922   5.535   6.926
 2978SOL    HW1 9833   4.875   5.585   6.999
 2978SOL    HW2 9834   5.019   5.557   6.928
 2979SOL     OW 9835   3.605   1.258   3.216
 2979SOL    HW1 9836   3.613   1.278   3.118
 2979SOL    HW2 9837   3.632   1.163   3.233
 2980SOL     OW 9838   0.185   6.562   4.355
 2980SOL    HW1 9839   0.136   6.490   4.403
 2980SOL    HW2 9840   0.221   6.527   4.268
 2981SOL     OW 9841   2.551   0.706   5.952
 2981SOL    HW1 9842   2.637   0.713   5.900
 2981SOL    HW2 9843   2.571   0.680   6.046
 2982SOL     OW 9844   4.581   6.516   2.304
 2982SOL    HW1 9845   4.588   6.420   2.330
 2982SOL    HW2 9846   4.505   6.558   2.354
 2983SOL     OW 9847   6.388   0.706   4.018
 2983SOL    HW1 9848   6.392   0.775   4.090
 2983SOL    HW2 9849   6.462   0.720   3.953
 2984SOL     OW 9850   5.015   5.012   2.143
 2984SOL    HW1 9851   5.045   5.019   2.238
 2984SOL    HW2 9852   4.987   4.917   2.124
 2985SOL     OW 9853   6.001   2.391   2.732
 2985SOL    HW1 9854   6.003   2.343   2.819
 2985SOL    HW2 9855   5.929   2.353   2.674
 2986SOL     OW 9856   2.130   4.119   5.238
 2986SOL    HW1 9857   2.194   4.079   5.172
 2986SOL    HW2 9858   2.169   4.204   5.275
 2987SOL     OW 9859   4.347   2.305   4.582
 2987SOL    HW1 9860   4.287   2.354   4.646
 2987SOL    HW2 9861   4.301   2.223   4.548
 2988SOL     OW 9862   0.603   0.444   2.417
 2988SOL    HW1 9863   0.524   0.460   2.476
 2988SOL    HW2 9864   0.651   0.362   2.447
 2989SOL     OW 9865   6.573   4.886   1.315
 2989SOL    HW1 9866   6.566   4.850   1.408
 2989SOL    HW2 9867   6.669   4.892   1.288
 2990SOL     OW 9868   3.480   0.674   1.026
 2990SOL    HW1 9869   3.403   0.640   1.080
 2990SOL    HW2 9870   3.446   0.716   0.942
 2991SOL     OW 9871   6.412   4.125   6.996
 2991SOL    HW1 9872   6.333   4.101   0.030
 2991SOL    HW2 9873   6.389   4.205   6.940
 2992SOL     OW 9874   3.947   4.506   6.340
 2992SOL    HW1 9875   3.919   4.435   6.405
 2992SOL    HW2 9876   3.908   4.485   6.250
 2993SOL     OW 9877   1.861   5.233   1.407
 2993SOL    HW1 9878   1.922   5.167   1.363
 2993SOL    HW2 9879   1.871   5.225   1.506
 2994SOL     OW 9880   4.300   6.706   7.016
 2994SOL    HW1 9881   4.350   6.630   6.975
 2994SOL    HW2 9882   4.206   6.707   6.981
 2995SOL     OW 9883   2.504   1.769   6.201
 2995SOL    HW1 9884   2.442   1.709   6.150
 2995SOL    HW2 9885   2.549   1.718   6.274
 2996SOL     OW 9886   3.993   5.798   5.645
 2996SOL    HW1 9887   3.904   5.826   5.609
 2996SOL    HW2 9888   3.980   5.719   5.705
 2997SOL     OW 9889   5.638   6.660   0.590
 2997SOL    HW1 9890   5.624   6.563   0.612
 2997SOL    HW2 9891   5.551   6.700   0.564
 2998SOL     OW 9892   6.517   5.812   5.230
 2998SOL    HW1 9893   6.461   5.791   5.311
 2998SOL    HW2 9894   6.457   5.825   5.151
 2999SOL     OW 9895   3.171   6.744   2.633
 2999SOL    HW1 9896   3.190   6.665   2.574
 2999SOL    HW2 9897   3.083   6.784   2.608
 3000SOL     OW 9898   1.220   3.096   4.820
 3000SOL    HW1 9899   1.281   3.041   4.877
 3000SOL    HW2 9900   1.244   3.192   4.829
 3001SOL     OW 9901   4.585   0.267   6.012
 3001SOL    HW1 9902   4.518   0.321   6.063
 3001SOL    HW2 9903   4.539   0.190   5.968
 3002SOL     OW 9904   4.224   0.245   5.568
 3002SOL    HW1 9905   4.272   0.164   5.535
 3002SOL    HW2 9906   4.125   0.233   5.553
 3003SOL     OW 9907   2.313   0.098   6.631
 3003SOL    HW1 9908   2.341   0.157   6.555
 3003SOL    HW2 9909   2.347   0.005   6.616
 3004SOL     OW 9910   6.088   3.086   4.472
 3004SOL    HW1 9911   6.141   3.166   4.444
 3004SOL    HW2 9912   6.134   3.040   4.548
 3005SOL     OW 9913   4.478   2.460   1.490
 3005SOL    HW1 9914   4.532   2.468   1.406
 3005SOL    HW2 9915   4.449   2.551   1.520
 3006SOL     OW 9916   5.903   0.665   1.660
 3006SOL    HW1 9917   5.868   0.746   1.613
 3006SOL    HW2 9918   5.907   0.683   1.758
 3007SOL     OW 9919   6.440   5.432   2.614
 3007SOL    HW1 9920   6.530   5.442   2.571
 3007SOL    HW2 9921   6.447   5.457   2.711
 3008SOL     OW 9922   3.302   5.830   6.168
 3008SOL    HW1 9923   3.306   5.746   6.113
 3008SOL    HW2 9924   3.235   5.892   6.129
 3009SOL     OW 9925   2.142   0.733   3.494
 3009SOL    HW1 9926   2.095   0.757   3.409
 3009SOL    HW2 9927   2.175   0.639   3.488
 3010SOL     OW 9928   3.947   6.602   1.818
 3010SOL    HW1 9929   3.922   6.637   1.908
 3010SOL    HW2 9930   3.984   6.676   1.762
 3011SOL     OW 9931   5.416   0.784   0.152
 3011SOL    HW1 9932   5.395   0.870   0.108
 3011SOL    HW2 9933   5.514   0.780   0.173
 3012SOL     OW 9934   6.973   3.651   2.958
 3012SOL    HW1 9935   6.894   3.626   2.902
 3012SOL    HW2 9936   7.012   3.568   2.999
 3013SOL     OW 9937   5.904   4.607   2.430
 3013SOL    HW1 9938   5.900   4.685   2.367
 3013SOL    HW2 9939   5.851   4.628   2.512
 3014SOL     OW 9940   4.625   0.951   5.080
 3014SOL    HW1 9941   4.529   0.923   5.086
 3014SOL    HW2 9942   4.644   0.981   4.987
 3015SOL     OW 9943   2.790   2.460   0.135
 3015SOL    HW1 9944   2.866   2.433   0.194
 3015SOL    HW2 9945   2.756   2.550   0.163
 3016SOL     OW 9946   4.176   6.690   3.693
 3016SOL    HW1 9947   4.113   6.768   3.695
 3016SOL    HW2 9948   4.268   6.723   3.671
 3017SOL     OW 9949   0.356   5.663   1.173
 3017SOL    HW1 9950   0.300   5.683   1.254
 3017SOL    HW2 9951   0.353   5.565   1.154
 3018SOL     OW 9952   3.526   6.557   0.193
 3018SOL    HW1 9953   3.570   6.469   0.173
 3018SOL    HW2 9954   3.555   6.625   0.126
 3019SOL     OW 9955   4.576   6.952   1.844
 3019SOL    HW1 9956   4.563   6.989   1.937
 3019SOL    HW2 9957   4.544   7.019   1.777
 3020SOL     OW 9958   1.811   2.335   0.676
 3020SOL    HW1 9959   1.899   2.309   0.636
 3020SOL    HW2 9960   1.809   2.311   0.773
 3021SOL     OW 9961   2.990   1.423   6.401
 3021SOL    HW1 9962   2.911   1.473   6.365
 3021SOL    HW2 9963   2.998   1.441   6.499
 3022SOL     OW 9964   4.753   0.047   3.382
 3022SOL    HW1 9965   4.681   0.085   3.441
 3022SOL    HW2 9966   4.728   6.976   3.355
 3023SOL     OW 9967   4.855   6.417   2.072
 3023SOL    HW1 9968   4.804   6.398   2.156
 3023SOL    HW2 9969   4.822   6.358   1.998
 3024SOL     OW 9970   3.168   6.656   6.870
 3024SOL    HW1 9971   3.078   6.665   6.827
 3024SOL    HW2 9972   3.209   6.569   6.843
 3025SOL     OW 9973   2.051   2.473   1.375
 3025SOL    HW1 9974   2.070   2.431   1.464
 3025SOL    HW2 9975   2.064   2.405   1.303
 3026SOL     OW 9976   2.181   4.071   1.092
 3026SOL    HW1 9977   2.170   4.110   1.000
 3026SOL    HW2 9978   2.150   4.137   1.160
 3027SOL     OW 9979   0.922   2.000   3.650
 3027SOL    HW1 9980   0.995   1.931   3.660
 3027SOL    HW2 9981   0.962   2.091   3.654
 3028SOL     OW 9982   1.680   6.760   5.140
 3028SOL    HW1 9983   1.611   6.829   5.119
 3028SOL    HW2 9984   1.725   6.730   5.056
 3029SOL     OW 9985   5.337   6.403   5.518
 3029SOL    HW1 9986   5.369   6.351   5.597
 3029SOL    HW2 9987   5.300   6.340   5.449
 3030SOL     OW 9988   1.022   2.604   5.108
 3030SOL    HW1 9989   0.974   2.648   5.032
 3030SOL    HW2 9990   1.042   2.673   5.178
 3031SOL     OW 9991   1.018   4.971   6.657
 3031SOL    HW1 9992   1.058   4.891   6.612
 3031SOL    HW2 9993   0.918   4.959   6.661
 3032SOL     OW 9994   4.916   0.357   6.119
 3032SOL    HW1 9995   4.991   0.403   6.073
 3032SOL    HW2 9996   4.879   0.284   6.060
 3033SOL     OW 9997   5.689   3.712   6.402
 3033SOL    HW1 9998   5.765   3.652   6.378
 3033SOL    HW2 9999   5.725   3.802   6.427
 3034SOL     OW10000   2.013   0.195   4.708
 3034SOL    HW110001   2.015   0.150   4.618
 3034SOL    HW210002   2.099   0.243   4.724
 3035SOL     OW10003   6.220   0.357   0.046
 3035SOL    HW110004   6.131   0.374   0.088
 3035SOL    HW210005   6.276   0.303   0.109
 3036SOL     OW10006   1.166   4.479   6.373
 3036SOL    HW110007   1.215   4.560   6.405
 3036SOL    HW210008   1.067   4.496   6.378
 3037SOL     OW10009   6.480   6.509   5.801
 3037SOL    HW110010   6.510   6.597   5.838
 3037SOL    HW210011   6.391   6.486   5.841
 3038SOL     OW10012   5.277   6.773   5.869
 3038SOL    HW110013   5.241   6.855   5.824
 3038SOL    HW210014   5.298   6.704   5.800
 3039SOL     OW10015   0.838   4.841   1.214
 3039SOL    HW110016   0.918   4.900   1.229
 3039SOL    HW210017   0.808   4.804   1.302
 3040SOL     OW10018   2.621   3.468   6.663
 3040SOL    HW110019   2.530   3.490   6.698
 3040SOL    HW210020   2.616   3.383   6.610
 3041SOL     OW10021   1.865   2.207   5.741
 3041SOL    HW110022   1.812   2.127   5.710
 3041SOL    HW210023   1.880   2.200   5.840
 3042SOL     OW10024   4.361   0.459   1.806
 3042SOL    HW110025   4.397   0.515   1.731
 3042SOL    HW210026   4.355   0.515   1.889
 3043SOL     OW10027   0.164   5.421   0.397
 3043SOL    HW110028   0.245   5.423   0.456
 3043SOL    HW210029   0.161   5.333   0.348
 3044SOL     OW10030   3.354   4.149   6.181
 3044SOL    HW110031   3.387   4.142   6.087
 3044SOL    HW210032   3.291   4.074   6.200
 3045SOL     OW10033   5.680   2.573   2.949
 3045SOL    HW110034   5.673   2.558   3.047
 3045SOL    HW210035   5.632   2.500   2.900
 3046SOL     OW10036   2.222   2.948   5.495
 3046SOL    HW110037   2.305   2.899   5.470
 3046SOL    HW210038   2.172   2.972   5.411
 3047SOL     OW10039   6.459   4.791   2.388
 3047SOL    HW110040   6.387   4.729   2.419
 3047SOL    HW210041   6.545   4.740   2.380
 3048SOL     OW10042   3.343   2.603   1.698
 3048SOL    HW110043   3.440   2.594   1.720
 3048SOL    HW210044   3.305   2.679   1.749
 3049SOL     OW10045   0.655   0.181   2.483
 3049SOL    HW110046   0.743   0.206   2.523
 3049SOL    HW210047   0.667   0.104   2.421
 3050SOL     OW10048   4.298   5.986   4.100
 3050SOL    HW110049   4.203   5.997   4.128
 3050SOL    HW210050   4.331   6.071   4.059
 3051SOL     OW10051   2.206   4.451   6.170
 3051SOL    HW110052   2.279   4.472   6.234
 3051SOL    HW210053   2.211   4.512   6.091
 3052SOL     OW10054   4.294   6.464   2.673
 3052SOL    HW110055   4.214   6.445   2.730
 3052SOL    HW210056   4.347   6.381   2.661
 3053SOL     OW10057   5.345   6.686   0.115
 3053SOL    HW110058   5.396   6.663   0.199
 3053SOL    HW210059   5.340   6.785   0.105
 3054SOL     OW10060   0.995   3.180   6.281
 3054SOL    HW110061   0.920   3.244   6.298
 3054SOL    HW210062   1.083   3.227   6.294
 3055SOL     OW10063   6.405   6.423   3.401
 3055SOL    HW110064   6.411   6.346   3.465
 3055SOL    HW210065   6.328   6.409   3.339
 3056SOL     OW10066   6.893   0.851   0.769
 3056SOL    HW110067   6.879   0.806   0.681
 3056SOL    HW210068   6.970   0.808   0.816
 3057SOL     OW10069   6.125   5.334   2.817
 3057SOL    HW110070   6.094   5.246   2.852
 3057SOL    HW210071   6.225   5.337   2.820
 3058SOL     OW10072   6.594   5.030   1.667
 3058SOL    HW110073   6.580   5.100   1.737
 3058SOL    HW210074   6.584   4.939   1.709
 3059SOL     OW10075   1.908   2.976   4.545
 3059SOL    HW110076   1.861   3.060   4.570
 3059SOL    HW210077   1.989   2.998   4.490
 3060SOL     OW10078   6.715   6.906   0.663
 3060SOL    HW110079   6.730   6.811   0.634
 3060SOL    HW210080   6.691   6.962   0.583
 3061SOL     OW10081   0.133   0.173   6.290
 3061SOL    HW110082   0.121   0.266   6.255
 3061SOL    HW210083   0.214   0.132   6.247
 3062SOL     OW10084   3.206   6.409   0.065
 3062SOL    HW110085   3.239   6.391   6.995
 3062SOL    HW210086   3.118   6.363   0.079
 3063SOL     OW10087   2.051   4.711   1.259
 3063SOL    HW110088   2.130   4.658   1.288
 3063SOL    HW210089   2.012   4.671   1.176
 3064SOL     OW10090   5.903   3.588   3.509
 3064SOL    HW110091   5.912   3.533   3.426
 3064SOL    HW210092   5.994   3.600   3.551
 3065SOL     OW10093   1.947   0.877   0.180
 3065SOL    HW110094   2.040   0.856   0.149
 3065SOL    HW210095   1.906   0.944   0.118
 3066SOL     OW10096   5.923   4.927   1.567
 3066SOL    HW110097   5.954   4.902   1.659
 3066SOL    HW210098   5.948   5.023   1.548
 3067SOL     OW10099   5.254   7.008   3.960
 3067SOL    HW110100   5.346   0.014   3.986
 3067SOL    HW210101   5.216   6.949   4.032
 3068SOL     OW10102   5.885   4.785   0.223
 3068SOL    HW110103   5.882   4.758   0.319
 3068SOL    HW210104   5.952   4.859   0.211
 3069SOL     OW10105   0.707   5.904   2.718
 3069SOL    HW110106   0.623   5.916   2.771
 3069SOL    HW210107   0.728   5.988   2.669
 3070SOL     OW10108   4.348   0.977   4.432
 3070SOL    HW110109   4.254   1.005   4.414
 3070SOL    HW210110   4.384   1.026   4.511
 3071SOL     OW10111   6.239   6.157   3.593
 3071SOL    HW110112   6.330   6.137   3.631
 3071SOL    HW210113   6.238   6.131   3.496
 3072SOL     OW10114   0.551   0.450   2.715
 3072SOL    HW110115   0.582   0.385   2.783
 3072SOL    HW210116   0.455   0.474   2.732
 3073SOL     OW10117   0.957   3.186   5.497
 3073SOL    HW110118   1.003   3.153   5.579
 3073SOL    HW210119   1.003   3.150   5.416
 3074SOL     OW10120   4.765   3.072   5.684
 3074SOL    HW110121   4.825   3.064   5.764
 3074SOL    HW210122   4.758   2.983   5.639
 3075SOL     OW10123   2.222   5.908   1.748
 3075SOL    HW110124   2.319   5.885   1.736
 3075SOL    HW210125   2.205   6.000   1.712
 3076SOL     OW10126   0.619   0.628   4.989
 3076SOL    HW110127   0.628   0.537   5.029
 3076SOL    HW210128   0.532   0.668   5.017
 3077SOL     OW10129   5.126   5.183   3.901
 3077SOL    HW110130   5.101   5.278   3.921
 3077SOL    HW210131   5.046   5.125   3.911
 3078SOL     OW10132   1.702   3.533   1.570
 3078SOL    HW110133   1.666   3.535   1.663
 3078SOL    HW210134   1.764   3.456   1.560
 3079SOL     OW10135   0.029   2.219   5.545
 3079SOL    HW110136   7.010   2.199   5.457
 3079SOL    HW210137   0.108   2.160   5.559
 3080SOL     OW10138   6.507   5.378   0.671
 3080SOL    HW110139   6.425   5.409   0.719
 3080SOL    HW210140   6.506   5.279   0.664
 3081SOL     OW10141   0.052   5.170   5.692
 3081SOL    HW110142   0.063   5.195   5.596
 3081SOL    HW210143   6.983   5.132   5.706
 3082SOL     OW10144   2.984   0.376   2.604
 3082SOL    HW110145   3.025   0.466   2.616
 3082SOL    HW210146   2.911   0.381   2.537
 3083SOL     OW10147   3.226   0.535   1.665
 3083SOL    HW110148   3.233   0.562   1.761
 3083SOL    HW210149   3.155   0.466   1.655
 3084SOL     OW10150   5.339   6.048   4.738
 3084SOL    HW110151   5.243   6.074   4.740
 3084SOL    HW210152   5.396   6.130   4.741
 3085SOL     OW10153   0.613   5.446   2.278
 3085SOL    HW110154   0.605   5.427   2.376
 3085SOL    HW210155   0.709   5.458   2.254
 3086SOL     OW10156   5.142   1.158   3.867
 3086SOL    HW110157   5.193   1.151   3.781
 3086SOL    HW210158   5.179   1.233   3.922
 3087SOL     OW10159   6.703   3.058   3.037
 3087SOL    HW110160   6.681   3.155   3.047
 3087SOL    HW210161   6.619   3.006   3.026
 3088SOL     OW10162   3.021   5.015   5.734
 3088SOL    HW110163   3.051   4.956   5.809
 3088SOL    HW210164   3.101   5.055   5.689
 3089SOL     OW10165   1.882   2.534   0.253
 3089SOL    HW110166   1.924   2.459   0.203
 3089SOL    HW210167   1.811   2.497   0.314
 3090SOL     OW10168   1.448   1.947   0.798
 3090SOL    HW110169   1.426   1.926   0.703
 3090SOL    HW210170   1.518   2.018   0.802
 3091SOL     OW10171   2.946   6.944   0.352
 3091SOL    HW110172   2.961   6.863   0.408
 3091SOL    HW210173   3.024   6.956   0.290
 3092SOL     OW10174   4.939   6.442   0.504
 3092SOL    HW110175   4.848   6.479   0.491
 3092SOL    HW210176   4.934   6.342   0.511
 3093SOL     OW10177   5.228   5.929   4.186
 3093SOL    HW110178   5.252   5.984   4.106
 3093SOL    HW210179   5.247   5.832   4.168
 3094SOL     OW10180   2.593   5.947   5.743
 3094SOL    HW110181   2.656   5.948   5.666
 3094SOL    HW210182   2.498   5.947   5.709
 3095SOL     OW10183   3.136   4.816   5.095
 3095SOL    HW110184   3.176   4.853   5.179
 3095SOL    HW210185   3.062   4.753   5.118
 3096SOL     OW10186   1.350   0.508   6.115
 3096SOL    HW110187   1.307   0.526   6.203
 3096SOL    HW210188   1.448   0.529   6.120
 3097SOL     OW10189   1.622   3.147   6.988
 3097SOL    HW110190   1.677   3.097   6.921
 3097SOL    HW210191   1.541   3.094   7.012
 3098SOL     OW10192   3.552   2.488   0.720
 3098SOL    HW110193   3.629   2.450   0.669
 3098SOL    HW210194   3.474   2.501   0.659
 3099SOL     OW10195   0.875   5.780   5.571
 3099SOL    HW110196   0.843   5.698   5.524
 3099SOL    HW210197   0.890   5.759   5.668
 3100SOL     OW10198   0.102   0.031   0.113
 3100SOL    HW110199   0.127   6.959   0.134
 3100SOL    HW210200   0.076   0.038   0.017
 3101SOL     OW10201   4.809   6.994   0.809
 3101SOL    HW110202   4.893   0.007   0.767
 3101SOL    HW210203   4.827   6.972   0.905
 3102SOL     OW10204   1.919   4.722   1.493
 3102SOL    HW110205   1.833   4.772   1.502
 3102SOL    HW210206   1.950   4.725   1.398
 3103SOL     OW10207   3.975   3.114   2.111
 3103SOL    HW110208   3.969   3.213   2.125
 3103SOL    HW210209   4.012   3.071   2.193
 3104SOL     OW10210   6.588   5.757   4.118
 3104SOL    HW110211   6.607   5.762   4.216
 3104SOL    HW210212   6.490   5.743   4.103
 3105SOL     OW10213   6.112   6.187   3.958
 3105SOL    HW110214   6.188   6.129   3.929
 3105SOL    HW210215   6.085   6.247   3.883
 3106SOL     OW10216   6.921   2.320   4.186
 3106SOL    HW110217   6.854   2.246   4.173
 3106SOL    HW210218   6.909   2.388   4.113
 3107SOL     OW10219   2.901   0.398   4.258
 3107SOL    HW110220   2.939   0.383   4.166
 3107SOL    HW210221   2.909   0.495   4.282
 3108SOL     OW10222   3.443   0.543   3.381
 3108SOL    HW110223   3.523   0.589   3.422
 3108SOL    HW210224   3.447   0.446   3.403
 3109SOL     OW10225   4.468   5.619   3.599
 3109SOL    HW110226   4.398   5.557   3.634
 3109SOL    HW210227   4.441   5.714   3.619
 3110SOL     OW10228   0.599   2.663   2.473
 3110SOL    HW110229   0.588   2.564   2.472
 3110SOL    HW210230   0.696   2.686   2.483
 3111SOL     OW10231   0.104   4.479   3.625
 3111SOL    HW110232   0.068   4.509   3.536
 3111SOL    HW210233   0.199   4.509   3.633
 3112SOL     OW10234   3.946   3.827   6.529
 3112SOL    HW110235   3.970   3.737   6.566
 3112SOL    HW210236   4.000   3.897   6.576
 3113SOL     OW10237   3.029   6.751   4.015
 3113SOL    HW110238   3.029   6.652   4.000
 3113SOL    HW210239   3.124   6.784   4.019
 3114SOL     OW10240   5.749   5.680   1.264
 3114SOL    HW110241   5.772   5.641   1.174
 3114SOL    HW210242   5.660   5.726   1.259
 3115SOL     OW10243   2.495   3.691   1.424
 3115SOL    HW110244   2.537   3.779   1.406
 3115SOL    HW210245   2.566   3.622   1.436
 3116SOL     OW10246   0.196   1.880   6.962
 3116SOL    HW110247   0.181   1.899   0.036
 3116SOL    HW210248   0.108   1.885   6.913
 3117SOL     OW10249   4.083   3.631   5.139
 3117SOL    HW110250   4.046   3.599   5.226
 3117SOL    HW210251   4.140   3.559   5.099
 3118SOL     OW10252   5.775   4.237   0.354
 3118SOL    HW110253   5.721   4.175   0.411
 3118SOL    HW210254   5.722   4.265   0.274
 3119SOL     OW10255   1.471   4.296   5.423
 3119SOL    HW110256   1.497   4.387   5.455
 3119SOL    HW210257   1.422   4.304   5.335
 3120SOL     OW10258   3.234   5.573   5.397
 3120SOL    HW110259   3.296   5.514   5.344
 3120SOL    HW210260   3.288   5.633   5.455
 3121SOL     OW10261   0.150   6.487   2.364
 3121SOL    HW110262   0.163   6.586   2.364
 3121SOL    HW210263   0.096   6.459   2.443
 3122SOL     OW10264   2.948   5.339   0.874
 3122SOL    HW110265   2.849   5.346   0.862
 3122SOL    HW210266   2.980   5.253   0.836
 3123SOL     OW10267   3.622   6.507   4.245
 3123SOL    HW110268   3.622   6.576   4.174
 3123SOL    HW210269   3.646   6.418   4.206
 3124SOL     OW10270   4.042   0.710   6.602
 3124SOL    HW110271   4.047   0.751   6.511
 3124SOL    HW210272   3.971   0.757   6.655
 3125SOL     OW10273   0.122   2.105   5.856
 3125SOL    HW110274   0.166   2.077   5.942
 3125SOL    HW210275   0.114   2.026   5.795
 3126SOL     OW10276   4.540   5.957   0.324
 3126SOL    HW110277   4.576   6.050   0.336
 3126SOL    HW210278   4.499   5.950   0.233
 3127SOL     OW10279   0.628   1.283   3.814
 3127SOL    HW110280   0.619   1.229   3.898
 3127SOL    HW210281   0.601   1.378   3.832
 3128SOL     OW10282   1.447   1.992   0.530
 3128SOL    HW110283   1.375   1.985   0.461
 3128SOL    HW210284   1.479   2.087   0.535
 3129SOL     OW10285   0.762   3.291   4.684
 3129SOL    HW110286   0.676   3.243   4.663
 3129SOL    HW210287   0.756   3.331   4.776
 3130SOL     OW10288   1.572   5.632   3.149
 3130SOL    HW110289   1.499   5.692   3.115
 3130SOL    HW210290   1.532   5.544   3.176
 3131SOL     OW10291   6.745   3.589   3.385
 3131SOL    HW110292   6.761   3.491   3.379
 3131SOL    HW210293   6.827   3.639   3.355
 3132SOL     OW10294   5.710   5.971   5.820
 3132SOL    HW110295   5.646   5.986   5.896
 3132SOL    HW210296   5.795   6.019   5.839
 3133SOL     OW10297   2.713   1.787   3.339
 3133SOL    HW110298   2.737   1.717   3.407
 3133SOL    HW210299   2.632   1.757   3.288
 3134SOL     OW10300   4.874   3.007   2.267
 3134SOL    HW110301   4.828   2.990   2.353
 3134SOL    HW210302   4.806   3.022   2.195
 3135SOL     OW10303   3.223   1.796   3.408
 3135SOL    HW110304   3.170   1.880   3.403
 3135SOL    HW210305   3.169   1.720   3.372
 3136SOL     OW10306   5.658   6.337   5.278
 3136SOL    HW110307   5.727   6.336   5.351
 3136SOL    HW210308   5.612   6.426   5.278
 3137SOL     OW10309   5.969   2.000   4.098
 3137SOL    HW110310   5.947   1.902   4.096
 3137SOL    HW210311   6.058   2.013   4.140
 3138SOL     OW10312   5.581   1.135   5.310
 3138SOL    HW110313   5.499   1.089   5.277
 3138SOL    HW210314   5.623   1.187   5.236
 3139SOL     OW10315   4.902   6.479   5.385
 3139SOL    HW110316   4.983   6.476   5.445
 3139SOL    HW210317   4.823   6.443   5.435
 3140SOL     OW10318   6.378   6.322   6.621
 3140SOL    HW110319   6.313   6.285   6.555
 3140SOL    HW210320   6.336   6.323   6.712
 3141SOL     OW10321   1.130   5.053   0.331
 3141SOL    HW110322   1.043   5.092   0.361
 3141SOL    HW210323   1.154   4.976   0.390
 3142SOL     OW10324   4.139   6.657   0.371
 3142SOL    HW110325   4.234   6.628   0.360
 3142SOL    HW210326   4.137   6.740   0.427
 3143SOL     OW10327   6.367   1.638   0.602
 3143SOL    HW110328   6.361   1.596   0.511
 3143SOL    HW210329   6.463   1.643   0.630
 3144SOL     OW10330   1.625   3.784   6.142
 3144SOL    HW110331   1.588   3.691   6.145
 3144SOL    HW210332   1.614   3.828   6.231
 3145SOL     OW10333   3.252   6.294   3.874
 3145SOL    HW110334   3.349   6.274   3.888
 3145SOL    HW210335   3.214   6.228   3.809
 3146SOL     OW10336   2.185   0.443   3.797
 3146SOL    HW110337   2.193   0.359   3.851
 3146SOL    HW210338   2.106   0.495   3.828
 3147SOL     OW10339   4.223   4.108   0.289
 3147SOL    HW110340   4.187   4.015   0.301
 3147SOL    HW210341   4.228   4.129   0.191
 3148SOL     OW10342   3.369   5.697   4.575
 3148SOL    HW110343   3.301   5.631   4.606
 3148SOL    HW210344   3.458   5.674   4.614
 3149SOL     OW10345   3.316   6.730   5.611
 3149SOL    HW110346   3.330   6.635   5.583
 3149SOL    HW210347   3.219   6.745   5.630
 3150SOL     OW10348   6.302   0.315   4.824
 3150SOL    HW110349   6.361   0.382   4.779
 3150SOL    HW210350   6.301   0.230   4.771
 3151SOL     OW10351   4.062   0.810   6.373
 3151SOL    HW110352   4.127   0.834   6.300
 3151SOL    HW210353   3.971   0.796   6.334
 3152SOL     OW10354   1.447   5.084   0.859
 3152SOL    HW110355   1.391   5.035   0.926
 3152SOL    HW210356   1.392   5.106   0.779
 3153SOL     OW10357   0.017   4.103   2.527
 3153SOL    HW110358   0.022   4.003   2.529
 3153SOL    HW210359   0.062   4.137   2.444
 3154SOL     OW10360   5.641   2.535   6.397
 3154SOL    HW110361   5.579   2.469   6.440
 3154SOL    HW210362   5.716   2.486   6.354
 3155SOL     OW10363   5.129   5.998   0.388
 3155SOL    HW110364   5.160   6.068   0.451
 3155SOL    HW210365   5.207   5.946   0.354
 3156SOL     OW10366   3.442   4.166   3.484
 3156SOL    HW110367   3.397   4.077   3.495
 3156SOL    HW210368   3.417   4.226   3.560
 3157SOL     OW10369   2.071   3.150   4.276
 3157SOL    HW110370   2.137   3.118   4.208
 3157SOL    HW210371   2.103   3.126   4.367
 3158SOL     OW10372   4.615   6.387   0.508
 3158SOL    HW110373   4.651   6.376   0.600
 3158SOL    HW210374   4.643   6.476   0.471
 3159SOL     OW10375   5.231   5.026   0.604
 3159SOL    HW110376   5.146   4.981   0.629
 3159SOL    HW210377   5.215   5.087   0.526
 3160SOL     OW10378   5.721   4.275   7.012
 3160SOL    HW110379   5.764   4.364   6.997
 3160SOL    HW210380   5.653   4.284   0.062
 3161SOL     OW10381   0.924   1.745   2.766
 3161SOL    HW110382   0.919   1.681   2.690
 3161SOL    HW210383   1.012   1.792   2.765
 3162SOL     OW10384   7.011   6.020   6.284
 3162SOL    HW110385   6.978   5.942   6.230
 3162SOL    HW210386   7.021   5.992   6.379
 3163SOL     OW10387   2.357   4.118   5.616
 3163SOL    HW110388   2.292   4.168   5.673
 3163SOL    HW210389   2.356   4.155   5.524
 3164SOL     OW10390   5.434   5.189   6.130
 3164SOL    HW110391   5.377   5.153   6.203
 3164SOL    HW210392   5.398   5.277   6.099
 3165SOL     OW10393   0.079   2.557   1.562
 3165SOL    HW110394   0.003   2.494   1.576
 3165SOL    HW210395   0.141   2.520   1.494
 3166SOL     OW10396   5.100   2.797   5.736
 3166SOL    HW110397   5.135   2.857   5.808
 3166SOL    HW210398   5.081   2.851   5.654
 3167SOL     OW10399   0.835   4.583   2.201
 3167SOL    HW110400   0.828   4.495   2.154
 3167SOL    HW210401   0.752   4.637   2.183
 3168SOL     OW10402   5.628   3.304   0.870
 3168SOL    HW110403   5.611   3.252   0.954
 3168SOL    HW210404   5.683   3.385   0.892
 3169SOL     OW10405   1.457   1.905   5.431
 3169SOL    HW110406   1.431   1.813   5.458
 3169SOL    HW210407   1.401   1.972   5.479
 3170SOL     OW10408   4.479   0.868   6.449
 3170SOL    HW110409   4.441   0.957   6.426
 3170SOL    HW210410   4.435   0.834   6.532
 3171SOL     OW10411   6.388   6.994   3.436
 3171SOL    HW110412   6.333   6.988   3.519
 3171SOL    HW210413   6.351   6.933   3.366
 3172SOL     OW10414   6.143   6.848   5.822
 3172SOL    HW110415   6.156   6.911   5.746
 3172SOL    HW210416   6.117   6.900   5.904
 3173SOL     OW10417   1.802   1.574   1.021
 3173SOL    HW110418   1.821   1.639   0.947
 3173SOL    HW210419   1.734   1.613   1.082
 3174SOL     OW10420   2.170   3.645   5.634
 3174SOL    HW110421   2.231   3.717   5.668
 3174SOL    HW210422   2.156   3.657   5.536
 3175SOL     OW10423   0.264   6.319   0.900
 3175SOL    HW110424   0.164   6.327   0.900
 3175SOL    HW210425   0.303   6.406   0.932
 3176SOL     OW10426   0.564   4.910   6.601
 3176SOL    HW110427   0.489   4.964   6.639
 3176SOL    HW210428   0.644   4.968   6.587
 3177SOL     OW10429   6.967   0.118   5.144
 3177SOL    HW110430   6.867   0.127   5.151
 3177SOL    HW210431   6.995   0.130   5.048
 3178SOL     OW10432   1.554   3.088   1.566
 3178SOL    HW110433   1.643   3.078   1.611
 3178SOL    HW210434   1.522   3.182   1.576
 3179SOL     OW10435   1.712   2.014   3.130
 3179SOL    HW110436   1.704   2.049   3.037
 3179SOL    HW210437   1.743   1.919   3.127
 3180SOL     OW10438   5.762   1.039   5.953
 3180SOL    HW110439   5.681   1.047   5.896
 3180SOL    HW210440   5.835   1.097   5.916
 3181SOL     OW10441   0.498   1.732   3.105
 3181SOL    HW110442   0.581   1.735   3.050
 3181SOL    HW210443   0.421   1.763   3.049
 3182SOL     OW10444   1.421   4.644   5.194
 3182SOL    HW110445   1.341   4.696   5.221
 3182SOL    HW210446   1.395   4.549   5.177
 3183SOL     OW10447   3.945   3.446   1.222
 3183SOL    HW110448   4.036   3.466   1.187
 3183SOL    HW210449   3.919   3.515   1.290
 3184SOL     OW10450   2.635   1.112   3.019
 3184SOL    HW110451   2.730   1.138   3.032
 3184SOL    HW210452   2.631   1.020   2.978
 3185SOL     OW10453   6.893   6.713   5.878
 3185SOL    HW110454   6.951   6.687   5.955
 3185SOL    HW210455   6.927   6.669   5.795
 3186SOL     OW10456   3.383   0.628   1.464
 3186SOL    HW110457   3.303   0.600   1.517
 3186SOL    HW210458   3.466   0.603   1.513
 3187SOL     OW10459   3.055   4.640   0.006
 3187SOL    HW110460   3.084   4.685   6.945
 3187SOL    HW210461   3.073   4.541   7.022
 3188SOL     OW10462   4.146   6.832   3.039
 3188SOL    HW110463   4.122   6.754   3.097
 3188SOL    HW210464   4.213   6.803   2.971
 3189SOL     OW10465   0.991   0.168   1.932
 3189SOL    HW110466   0.983   0.068   1.923
 3189SOL    HW210467   0.901   0.209   1.932
 3190SOL     OW10468   0.756   6.536   2.088
 3190SOL    HW110469   0.853   6.524   2.107
 3190SOL    HW210470   0.733   6.490   2.001
 3191SOL     OW10471   3.238   0.422   0.765
 3191SOL    HW110472   3.257   0.372   0.850
 3191SOL    HW210473   3.282   0.511   0.768
 3192SOL     OW10474   6.414   2.545   2.999
 3192SOL    HW110475   6.363   2.615   3.050
 3192SOL    HW210476   6.510   2.573   2.992
 3193SOL     OW10477   4.891   3.890   0.243
 3193SOL    HW110478   4.856   3.940   0.164
 3193SOL    HW210479   4.915   3.797   0.216
 3194SOL     OW10480   1.224   3.903   5.852
 3194SOL    HW110481   1.207   3.810   5.820
 3194SOL    HW210482   1.159   3.966   5.809
 3195SOL     OW10483   0.482   3.731   3.193
 3195SOL    HW110484   0.581   3.728   3.177
 3195SOL    HW210485   0.464   3.730   3.291
 3196SOL     OW10486   0.353   6.977   5.531
 3196SOL    HW110487   0.352   6.886   5.572
 3196SOL    HW210488   0.385   0.021   5.598
 3197SOL     OW10489   1.035   4.274   3.970
 3197SOL    HW110490   0.974   4.228   3.906
 3197SOL    HW210491   1.098   4.332   3.920
 3198SOL     OW10492   6.953   1.289   0.247
 3198SOL    HW110493   6.979   1.375   0.202
 3198SOL    HW210494   6.936   1.306   0.344
 3199SOL     OW10495   3.683   2.071   3.030
 3199SOL    HW110496   3.712   1.975   3.023
 3199SOL    HW210497   3.584   2.075   3.038
 3200SOL     OW10498   6.870   2.357   0.841
 3200SOL    HW110499   6.879   2.418   0.763
 3200SOL    HW210500   6.938   2.380   0.910
 3201SOL     OW10501   4.684   4.351   3.020
 3201SOL    HW110502   4.759   4.287   3.034
 3201SOL    HW210503   4.630   4.360   3.104
 3202SOL     OW10504   2.094   5.812   1.252
 3202SOL    HW110505   2.035   5.847   1.325
 3202SOL    HW210506   2.049   5.734   1.207
 3203SOL     OW10507   6.574   0.256   1.895
 3203SOL    HW110508   6.562   0.298   1.805
 3203SOL    HW210509   6.574   0.327   1.965
 3204SOL     OW10510   5.793   5.671   1.961
 3204SOL    HW110511   5.832   5.702   1.875
 3204SOL    HW210512   5.694   5.685   1.959
 3205SOL     OW10513   1.639   3.929   2.840
 3205SOL    HW110514   1.619   3.833   2.859
 3205SOL    HW210515   1.731   3.951   2.872
 3206SOL     OW10516   1.801   6.787   0.480
 3206SOL    HW110517   1.785   6.883   0.457
 3206SOL    HW210518   1.786   6.730   0.399
 3207SOL     OW10519   0.811   0.941   3.843
 3207SOL    HW110520   0.814   0.916   3.940
 3207SOL    HW210521   0.853   1.031   3.831
 3208SOL     OW10522   6.189   0.358   5.629
 3208SOL    HW110523   6.105   0.412   5.619
 3208SOL    HW210524   6.268   0.416   5.613
 3209SOL     OW10525   2.617   0.493   3.167
 3209SOL    HW110526   2.684   0.420   3.155
 3209SOL    HW210527   2.572   0.484   3.256
 3210SOL     OW10528   0.000   4.593   3.396
 3210SOL    HW110529   0.013   4.692   3.404
 3210SOL    HW210530   6.928   4.574   3.372
 3211SOL     OW10531   1.297   4.324   2.089
 3211SOL    HW110532   1.270   4.418   2.071
 3211SOL    HW210533   1.368   4.297   2.025
 3212SOL     OW10534   4.886   2.606   5.667
 3212SOL    HW110535   4.950   2.651   5.730
 3212SOL    HW210536   4.834   2.676   5.618
 3213SOL     OW10537   5.442   6.108   1.635
 3213SOL    HW110538   5.467   6.089   1.730
 3213SOL    HW210539   5.463   6.204   1.614
 3214SOL     OW10540   3.810   4.735   6.215
 3214SOL    HW110541   3.772   4.796   6.285
 3214SOL    HW210542   3.904   4.710   6.240
 3215SOL     OW10543   5.949   1.771   0.301
 3215SOL    HW110544   6.040   1.788   0.338
 3215SOL    HW210545   5.928   1.839   0.230
 3216SOL     OW10546   5.572   6.992   4.754
 3216SOL    HW110547   5.658   0.011   4.726
 3216SOL    HW210548   5.520   6.965   4.673
 3217SOL     OW10549   6.781   4.125   0.586
 3217SOL    HW110550   6.721   4.127   0.666
 3217SOL    HW210551   6.786   4.031   0.551
 3218SOL     OW10552   3.102   0.910   1.966
 3218SOL    HW110553   3.165   0.938   1.894
 3218SOL    HW210554   3.052   0.989   2.000
 3219SOL     OW10555   6.863   6.779   3.879
 3219SOL    HW110556   6.868   6.683   3.850
 3219SOL    HW210557   6.827   6.784   3.972
 3220SOL     OW10558   5.965   3.007   5.074
 3220SOL    HW110559   5.983   2.989   5.171
 3220SOL    HW210560   5.873   2.977   5.051
 3221SOL     OW10561   3.586   6.956   2.315
 3221SOL    HW110562   3.638   6.984   2.235
 3221SOL    HW210563   3.619   7.005   2.396
 3222SOL     OW10564   6.054   3.151   2.942
 3222SOL    HW110565   5.999   3.227   2.977
 3222SOL    HW210566   6.067   3.161   2.844
 3223SOL     OW10567   2.338   4.682   4.672
 3223SOL    HW110568   2.364   4.593   4.708
 3223SOL    HW210569   2.417   4.744   4.675
 3224SOL     OW10570   4.041   5.409   1.143
 3224SOL    HW110571   4.011   5.332   1.200
 3224SOL    HW210572   3.986   5.490   1.164
 3225SOL     OW10573   1.932   2.695   1.316
 3225SOL    HW110574   1.967   2.604   1.339
 3225SOL    HW210575   1.952   2.715   1.220
 3226SOL     OW10576   0.274   0.804   4.466
 3226SOL    HW110577   0.282   0.814   4.367
 3226SOL    HW210578   0.221   0.722   4.487
 3227SOL     OW10579   2.332   1.207   5.418
 3227SOL    HW110580   2.327   1.172   5.325
 3227SOL    HW210581   2.411   1.267   5.427
 3228SOL     OW10582   5.318   3.219   4.794
 3228SOL    HW110583   5.386   3.175   4.853
 3228SOL    HW210584   5.339   3.197   4.698
 3229SOL     OW10585   3.678   2.105   4.984
 3229SOL    HW110586   3.764   2.139   5.022
 3229SOL    HW210587   3.674   2.125   4.886
 3230SOL     OW10588   1.504   0.353   4.115
 3230SOL    HW110589   1.446   0.291   4.169
 3230SOL    HW210590   1.446   0.416   4.064
 3231SOL     OW10591   5.581   5.545   0.611
 3231SOL    HW110592   5.504   5.483   0.595
 3231SOL    HW210593   5.656   5.519   0.550
 3232SOL     OW10594   2.225   4.347   3.377
 3232SOL    HW110595   2.309   4.393   3.349
 3232SOL    HW210596   2.244   4.286   3.453
 3233SOL     OW10597   1.625   4.541   1.317
 3233SOL    HW110598   1.578   4.473   1.262
 3233SOL    HW210599   1.607   4.632   1.279
 3234SOL     OW10600   6.369   1.874   4.639
 3234SOL    HW110601   6.456   1.846   4.599
 3234SOL    HW210602   6.328   1.796   4.687
 3235SOL     OW10603   5.650   0.909   2.902
 3235SOL    HW110604   5.685   0.960   2.980
 3235SOL    HW210605   5.567   0.860   2.928
 3236SOL     OW10606   0.557   2.826   2.069
 3236SOL    HW110607   0.518   2.741   2.103
 3236SOL    HW210608   0.605   2.807   1.983
 3237SOL     OW10609   3.421   6.555   4.452
 3237SOL    HW110610   3.441   6.538   4.549
 3237SOL    HW210611   3.504   6.546   4.399
 3238SOL     OW10612   5.891   6.415   6.626
 3238SOL    HW110613   5.910   6.330   6.578
 3238SOL    HW210614   5.812   6.460   6.584
 3239SOL     OW10615   0.442   6.453   5.899
 3239SOL    HW110616   0.374   6.456   5.826
 3239SOL    HW210617   0.505   6.377   5.882
 3240SOL     OW10618   0.358   1.339   4.783
 3240SOL    HW110619   0.292   1.265   4.771
 3240SOL    HW210620   0.451   1.303   4.771
 3241SOL     OW10621   4.928   0.921   5.306
 3241SOL    HW110622   4.909   0.876   5.218
 3241SOL    HW210623   4.856   0.988   5.325
 3242SOL     OW10624   3.104   6.512   0.539
 3242SOL    HW110625   3.176   6.465   0.489
 3242SOL    HW210626   3.115   6.495   0.637
 3243SOL     OW10627   3.774   5.427   0.260
 3243SOL    HW110628   3.752   5.332   0.279
 3243SOL    HW210629   3.867   5.447   0.291
 3244SOL     OW10630   1.739   6.176   5.562
 3244SOL    HW110631   1.673   6.119   5.513
 3244SOL    HW210632   1.698   6.264   5.583
 3245SOL     OW10633   2.796   2.133   5.902
 3245SOL    HW110634   2.849   2.152   5.820
 3245SOL    HW210635   2.816   2.041   5.934
 3246SOL     OW10636   5.264   6.491   3.818
 3246SOL    HW110637   5.325   6.515   3.743
 3246SOL    HW210638   5.185   6.553   3.818
 3247SOL     OW10639   6.568   1.740   4.869
 3247SOL    HW110640   6.633   1.699   4.934
 3247SOL    HW210641   6.494   1.674   4.852
 3248SOL     OW10642   5.376   3.893   2.582
 3248SOL    HW110643   5.434   3.821   2.545
 3248SOL    HW210644   5.425   3.942   2.655
 3249SOL     OW10645   3.224   4.453   5.448
 3249SOL    HW110646   3.149   4.424   5.507
 3249SOL    HW210647   3.239   4.385   5.377
 3250SOL     OW10648   4.417   6.228   1.418
 3250SOL    HW110649   4.452   6.171   1.344
 3250SOL    HW210650   4.454   6.320   1.411
 3251SOL     OW10651   3.688   1.224   3.901
 3251SOL    HW110652   3.648   1.207   3.811
 3251SOL    HW210653   3.766   1.286   3.891
 3252SOL     OW10654   3.064   2.002   3.542
 3252SOL    HW110655   2.997   1.987   3.469
 3252SOL    HW210656   3.017   2.007   3.630
 3253SOL     OW10657   4.153   3.840   0.964
 3253SOL    HW110658   4.232   3.901   0.969
 3253SOL    HW210659   4.111   3.832   1.055
 3254SOL     OW10660   4.743   4.906   2.644
 3254SOL    HW110661   4.751   4.852   2.560
 3254SOL    HW210662   4.777   4.999   2.626
 3255SOL     OW10663   3.951   4.630   1.176
 3255SOL    HW110664   3.916   4.551   1.226
 3255SOL    HW210665   4.045   4.649   1.204
 3256SOL     OW10666   6.028   6.636   6.201
 3256SOL    HW110667   6.065   6.545   6.219
 3256SOL    HW210668   6.084   6.681   6.131
 3257SOL     OW10669   2.276   2.097   1.077
 3257SOL    HW110670   2.287   2.056   0.987
 3257SOL    HW210671   2.363   2.094   1.127
 3258SOL     OW10672   5.945   0.058   1.398
 3258SOL    HW110673   6.039   0.044   1.430
 3258SOL    HW210674   5.920   0.154   1.409
 3259SOL     OW10675   5.939   6.616   3.715
 3259SOL    HW110676   5.874   6.651   3.648
 3259SOL    HW210677   5.938   6.516   3.714
 3260SOL     OW10678   1.359   3.182   0.227
 3260SOL    HW110679   1.397   3.095   0.261
 3260SOL    HW210680   1.305   3.225   0.298
 3261SOL     OW10681   4.392   7.008   3.810
 3261SOL    HW110682   4.442   0.034   3.881
 3261SOL    HW210683   4.377   6.914   3.839
 3262SOL     OW10684   4.140   1.339   4.451
 3262SOL    HW110685   4.155   1.283   4.370
 3262SOL    HW210686   4.080   1.291   4.514
 3263SOL     OW10687   3.747   5.437   2.636
 3263SOL    HW110688   3.757   5.408   2.731
 3263SOL    HW210689   3.714   5.531   2.633
 3264SOL     OW10690   4.504   4.487   5.645
 3264SOL    HW110691   4.405   4.483   5.658
 3264SOL    HW210692   4.550   4.483   5.733
 3265SOL     OW10693   5.387   0.690   6.713
 3265SOL    HW110694   5.470   0.664   6.762
 3265SOL    HW210695   5.387   0.648   6.622
 3266SOL     OW10696   0.372   2.068   6.727
 3266SOL    HW110697   0.315   2.105   6.654
 3266SOL    HW210698   0.348   1.972   6.743
 3267SOL     OW10699   4.903   2.534   1.163
 3267SOL    HW110700   4.924   2.621   1.208
 3267SOL    HW210701   4.974   2.467   1.184
 3268SOL     OW10702   1.339   4.691   6.500
 3268SOL    HW110703   1.391   4.616   6.541
 3268SOL    HW210704   1.265   4.718   6.562
 3269SOL     OW10705   4.554   3.757   0.938
 3269SOL    HW110706   4.634   3.790   0.988
 3269SOL    HW210707   4.500   3.699   0.998
 3270SOL     OW10708   0.545   5.411   4.349
 3270SOL    HW110709   0.490   5.469   4.409
 3270SOL    HW210710   0.520   5.315   4.364
 3271SOL     OW10711   5.186   0.970   1.904
 3271SOL    HW110712   5.164   1.039   1.836
 3271SOL    HW210713   5.208   1.015   1.991
 3272SOL     OW10714   4.800   0.184   0.074
 3272SOL    HW110715   4.883   0.141   0.110
 3272SOL    HW210716   4.793   0.277   0.110
 3273SOL     OW10717   0.846   6.948   3.463
 3273SOL    HW110718   0.816   0.004   3.518
 3273SOL    HW210719   0.921   6.976   3.403
 3274SOL     OW10720   3.576   1.881   6.614
 3274SOL    HW110721   3.507   1.816   6.647
 3274SOL    HW210722   3.665   1.859   6.656
 3275SOL     OW10723   4.262   0.730   0.585
 3275SOL    HW110724   4.165   0.708   0.595
 3275SOL    HW210725   4.274   0.802   0.517
 3276SOL     OW10726   2.075   6.265   0.444
 3276SOL    HW110727   2.151   6.292   0.502
 3276SOL    HW210728   2.063   6.165   0.448
 3277SOL     OW10729   0.101   6.048   5.522
 3277SOL    HW110730   0.090   6.096   5.434
 3277SOL    HW210731   0.176   6.090   5.573
 3278SOL     OW10732   1.417   1.070   0.361
 3278SOL    HW110733   1.372   1.081   0.449
 3278SOL    HW210734   1.353   1.030   0.295
 3279SOL     OW10735   2.323   6.144   1.225
 3279SOL    HW110736   2.259   6.138   1.301
 3279SOL    HW210737   2.416   6.153   1.261
 3280SOL     OW10738   2.353   5.436   5.063
 3280SOL    HW110739   2.274   5.389   5.102
 3280SOL    HW210740   2.369   5.522   5.113
 3281SOL     OW10741   2.411   6.144   0.544
 3281SOL    HW110742   2.491   6.204   0.539
 3281SOL    HW210743   2.332   6.197   0.573
 3282SOL     OW10744   2.193   6.004   2.456
 3282SOL    HW110745   2.128   5.961   2.519
 3282SOL    HW210746   2.197   5.952   2.371
 3283SOL     OW10747   1.901   0.279   4.101
 3283SOL    HW110748   1.947   0.205   4.054
 3283SOL    HW210749   1.927   0.279   4.198
 3284SOL     OW10750   1.047   4.263   5.997
 3284SOL    HW110751   1.124   4.311   6.040
 3284SOL    HW210752   1.079   4.217   5.914
 3285SOL     OW10753   0.336   2.148   4.651
 3285SOL    HW110754   0.428   2.132   4.685
 3285SOL    HW210755   0.324   2.101   4.564
 3286SOL     OW10756   4.149   4.906   5.606
 3286SOL    HW110757   4.081   4.910   5.679
 3286SOL    HW210758   4.163   4.998   5.568
 3287SOL     OW10759   0.336   4.311   1.635
 3287SOL    HW110760   0.245   4.336   1.604
 3287SOL    HW210761   0.348   4.339   1.730
 3288SOL     OW10762   1.552   6.269   6.710
 3288SOL    HW110763   1.616   6.346   6.710
 3288SOL    HW210764   1.458   6.304   6.704
 3289SOL     OW10765   1.069   5.245   4.530
 3289SOL    HW110766   1.005   5.319   4.509
 3289SOL    HW210767   1.019   5.167   4.568
 3290SOL     OW10768   6.912   4.485   3.075
 3290SOL    HW110769   6.874   4.503   3.166
 3290SOL    HW210770   7.005   4.523   3.070
 3291SOL     OW10771   1.966   6.821   1.740
 3291SOL    HW110772   2.009   6.846   1.653
 3291SOL    HW210773   1.927   6.729   1.732
 3292SOL     OW10774   0.289   5.316   5.068
 3292SOL    HW110775   0.301   5.218   5.048
 3292SOL    HW210776   0.340   5.339   5.151
 3293SOL     OW10777   6.165   0.670   2.557
 3293SOL    HW110778   6.126   0.579   2.568
 3293SOL    HW210779   6.177   0.689   2.459
 3294SOL     OW10780   0.968   0.273   1.009
 3294SOL    HW110781   0.998   0.259   0.915
 3294SOL    HW210782   0.894   0.341   1.011
 3295SOL     OW10783   1.588   2.183   6.222
 3295SOL    HW110784   1.632   2.271   6.238
 3295SOL    HW210785   1.649   2.123   6.170
 3296SOL     OW10786   1.011   6.539   2.289
 3296SOL    HW110787   1.001   6.463   2.225
 3296SOL    HW210788   1.106   6.546   2.317
 3297SOL     OW10789   2.729   1.551   5.914
 3297SOL    HW110790   2.676   1.634   5.934
 3297SOL    HW210791   2.802   1.574   5.849
 3298SOL     OW10792   6.522   3.709   2.981
 3298SOL    HW110793   6.538   3.613   2.958
 3298SOL    HW210794   6.523   3.720   3.081
 3299SOL     OW10795   0.955   1.046   5.269
 3299SOL    HW110796   0.937   1.080   5.177
 3299SOL    HW210797   0.965   0.947   5.267
 3300SOL     OW10798   0.219   0.353   5.116
 3300SOL    HW110799   0.196   0.343   5.213
 3300SOL    HW210800   0.147   0.403   5.069
 3301SOL     OW10801   0.279   3.538   2.536
 3301SOL    HW110802   0.223   3.583   2.606
 3301SOL    HW210803   0.258   3.578   2.447
 3302SOL     OW10804   1.008   5.576   4.771
 3302SOL    HW110805   0.943   5.519   4.720
 3302SOL    HW210806   1.068   5.624   4.707
 3303SOL     OW10807   3.108   3.966   3.747
 3303SOL    HW110808   3.056   4.002   3.824
 3303SOL    HW210809   3.046   3.918   3.684
 3304SOL     OW10810   1.744   0.794   3.581
 3304SOL    HW110811   1.728   0.766   3.487
 3304SOL    HW210812   1.720   0.890   3.592
 3305SOL     OW10813   0.739   2.139   0.942
 3305SOL    HW110814   0.643   2.119   0.923
 3305SOL    HW210815   0.765   2.223   0.894
 3306SOL     OW10816   0.887   3.278   2.156
 3306SOL    HW110817   0.958   3.344   2.181
 3306SOL    HW210818   0.832   3.315   2.081
 3307SOL     OW10819   0.993   6.168   0.973
 3307SOL    HW110820   0.978   6.143   0.877
 3307SOL    HW210821   1.052   6.099   1.016
 3308SOL     OW10822   5.902   6.669   0.635
 3308SOL    HW110823   5.805   6.693   0.638
 3308SOL    HW210824   5.939   6.688   0.544
 3309SOL     OW10825   1.520   5.565   2.034
 3309SOL    HW110826   1.510   5.467   2.054
 3309SOL    HW210827   1.562   5.577   1.944
 3310SOL     OW10828   1.559   6.411   2.377
 3310SOL    HW110829   1.566   6.508   2.355
 3310SOL    HW210830   1.617   6.359   2.313
 3311SOL     OW10831   3.859   6.293   1.189
 3311SOL    HW110832   3.908   6.365   1.140
 3311SOL    HW210833   3.843   6.323   1.284
 3312SOL     OW10834   1.928   3.334   6.665
 3312SOL    HW110835   1.884   3.388   6.737
 3312SOL    HW210836   1.871   3.255   6.643
 3313SOL     OW10837   6.376   6.185   5.153
 3313SOL    HW110838   6.349   6.116   5.087
 3313SOL    HW210839   6.362   6.276   5.113
 3314SOL     OW10840   0.085   3.649   6.902
 3314SOL    HW110841   0.171   3.612   6.937
 3314SOL    HW210842   0.055   3.594   6.823
 3315SOL     OW10843   6.173   3.785   3.158
 3315SOL    HW110844   6.219   3.736   3.232
 3315SOL    HW210845   6.236   3.798   3.081
 3316SOL     OW10846   4.574   1.339   0.413
 3316SOL    HW110847   4.505   1.412   0.406
 3316SOL    HW210848   4.624   1.349   0.499
 3317SOL     OW10849   4.069   2.879   1.730
 3317SOL    HW110850   4.104   2.935   1.655
 3317SOL    HW210851   4.093   2.783   1.714
 3318SOL     OW10852   2.551   5.070   4.829
 3318SOL    HW110853   2.543   5.032   4.737
 3318SOL    HW210854   2.571   5.168   4.823
 3319SOL     OW10855   6.813   5.886   6.677
 3319SOL    HW110856   6.805   5.964   6.739
 3319SOL    HW210857   6.869   5.815   6.720
 3320SOL     OW10858   0.851   1.203   6.398
 3320SOL    HW110859   0.889   1.240   6.482
 3320SOL    HW210860   0.911   1.225   6.321
 3321SOL     OW10861   3.767   3.846   4.179
 3321SOL    HW110862   3.696   3.795   4.227
 3321SOL    HW210863   3.736   3.865   4.085
 3322SOL     OW10864   4.308   2.843   1.352
 3322SOL    HW110865   4.263   2.912   1.408
 3322SOL    HW210866   4.255   2.829   1.268
 3323SOL     OW10867   2.701   4.853   6.770
 3323SOL    HW110868   2.650   4.927   6.814
 3323SOL    HW210869   2.657   4.830   6.683
 3324SOL     OW10870   6.242   3.260   1.589
 3324SOL    HW110871   6.181   3.202   1.642
 3324SOL    HW210872   6.332   3.216   1.582
 3325SOL     OW10873   0.863   3.473   6.295
 3325SOL    HW110874   0.851   3.504   6.200
 3325SOL    HW210875   0.959   3.483   6.321
 3326SOL     OW10876   6.717   0.813   1.534
 3326SOL    HW110877   6.785   0.856   1.474
 3326SOL    HW210878   6.756   0.730   1.574
 3327SOL     OW10879   4.027   6.119   1.577
 3327SOL    HW110880   3.973   6.202   1.568
 3327SOL    HW210881   3.966   6.040   1.581
 3328SOL     OW10882   5.311   0.372   3.682
 3328SOL    HW110883   5.281   0.407   3.771
 3328SOL    HW210884   5.399   0.325   3.693
 3329SOL     OW10885   5.477   0.749   6.272
 3329SOL    HW110886   5.485   0.728   6.175
 3329SOL    HW210887   5.425   0.676   6.318
 3330SOL     OW10888   0.046   6.279   3.385
 3330SOL    HW110889   0.098   6.291   3.469
 3330SOL    HW210890   0.010   6.368   3.355
 3331SOL     OW10891   1.598   3.650   2.916
 3331SOL    HW110892   1.524   3.636   2.982
 3331SOL    HW210893   1.594   3.578   2.846
 3332SOL     OW10894   2.989   4.913   0.356
 3332SOL    HW110895   3.020   4.818   0.360
 3332SOL    HW210896   2.956   4.934   0.264
 3333SOL     OW10897   2.393   3.223   1.726
 3333SOL    HW110898   2.400   3.307   1.781
 3333SOL    HW210899   2.485   3.191   1.702
 3334SOL     OW10900   1.816   2.180   1.919
 3334SOL    HW110901   1.835   2.184   2.017
 3334SOL    HW210902   1.717   2.180   1.903
 3335SOL     OW10903   3.838   4.126   4.995
 3335SOL    HW110904   3.908   4.161   4.933
 3335SOL    HW210905   3.752   4.114   4.946
 3336SOL     OW10906   4.568   5.992   5.266
 3336SOL    HW110907   4.638   5.962   5.201
 3336SOL    HW210908   4.533   6.081   5.238
 3337SOL     OW10909   3.701   2.871   2.794
 3337SOL    HW110910   3.646   2.853   2.712
 3337SOL    HW210911   3.791   2.906   2.766
 3338SOL     OW10912   2.740   3.562   1.302
 3338SOL    HW110913   2.799   3.482   1.299
 3338SOL    HW210914   2.794   3.643   1.279
 3339SOL     OW10915   1.798   0.208   6.529
 3339SOL    HW110916   1.771   0.261   6.609
 3339SOL    HW210917   1.891   0.232   6.503
 3340SOL     OW10918   3.815   1.093   5.531
 3340SOL    HW110919   3.879   1.029   5.489
 3340SOL    HW210920   3.842   1.109   5.626
 3341SOL     OW10921   1.256   4.480   1.771
 3341SOL    HW110922   1.334   4.506   1.828
 3341SOL    HW210923   1.289   4.446   1.683
 3342SOL     OW10924   6.526   0.922   2.652
 3342SOL    HW110925   6.588   0.843   2.661
 3342SOL    HW210926   6.577   1.001   2.621
 3343SOL     OW10927   4.442   5.653   0.245
 3343SOL    HW110928   4.356   5.699   0.221
 3343SOL    HW210929   4.515   5.686   0.185
 3344SOL     OW10930   1.036   3.374   1.803
 3344SOL    HW110931   1.087   3.295   1.839
 3344SOL    HW210932   1.076   3.458   1.839
 3345SOL     OW10933   5.803   5.134   1.332
 3345SOL    HW110934   5.774   5.172   1.244
 3345SOL    HW210935   5.818   5.035   1.322
 3346SOL     OW10936   1.872   0.421   7.008
 3346SOL    HW110937   1.951   0.477   6.982
 3346SOL    HW210938   1.877   0.401   0.083
 3347SOL     OW10939   0.771   3.925   5.539
 3347SOL    HW110940   0.769   3.829   5.565
 3347SOL    HW210941   0.695   3.973   5.583
 3348SOL     OW10942   3.490   4.118   5.943
 3348SOL    HW110943   3.436   4.061   5.882
 3348SOL    HW210944   3.587   4.104   5.926
 3349SOL     OW10945   2.384   5.687   2.425
 3349SOL    HW110946   2.345   5.695   2.516
 3349SOL    HW210947   2.334   5.746   2.362
 3350SOL     OW10948   1.589   5.311   4.304
 3350SOL    HW110949   1.551   5.404   4.310
 3350SOL    HW210950   1.530   5.255   4.246
 3351SOL     OW10951   5.619   0.919   2.019
 3351SOL    HW110952   5.697   0.891   1.964
 3351SOL    HW210953   5.636   0.894   2.115
 3352SOL     OW10954   5.517   1.483   6.704
 3352SOL    HW110955   5.582   1.419   6.746
 3352SOL    HW210956   5.435   1.489   6.760
 3353SOL     OW10957   3.959   0.289   0.233
 3353SOL    HW110958   3.877   0.249   0.275
 3353SOL    HW210959   3.933   0.370   0.180
 3354SOL     OW10960   2.894   3.852   6.853
 3354SOL    HW110961   2.908   3.932   6.795
 3354SOL    HW210962   2.795   3.838   6.866
 3355SOL     OW10963   1.325   0.222   4.918
 3355SOL    HW110964   1.420   0.253   4.910
 3355SOL    HW210965   1.265   0.284   4.868
 3356SOL     OW10966   2.252   0.560   6.754
 3356SOL    HW110967   2.202   0.572   6.669
 3356SOL    HW210968   2.323   0.491   6.743
 3357SOL     OW10969   3.353   3.042   2.876
 3357SOL    HW110970   3.329   3.045   2.973
 3357SOL    HW210971   3.450   3.067   2.866
 3358SOL     OW10972   0.125   0.794   1.609
 3358SOL    HW110973   0.223   0.799   1.627
 3358SOL    HW210974   0.101   0.858   1.536
 3359SOL     OW10975   0.914   6.344   5.027
 3359SOL    HW110976   0.847   6.414   5.004
 3359SOL    HW210977   0.996   6.387   5.064
 3360SOL     OW10978   1.855   4.998   4.092
 3360SOL    HW110979   1.831   4.905   4.117
 3360SOL    HW210980   1.950   5.000   4.061
 3361SOL     OW10981   6.500   6.848   5.445
 3361SOL    HW110982   6.406   6.872   5.423
 3361SOL    HW210983   6.522   6.879   5.538
 3362SOL     OW10984   3.836   0.410   3.895
 3362SOL    HW110985   3.874   0.405   3.987
 3362SOL    HW210986   3.779   0.492   3.886
 3363SOL     OW10987   5.503   4.296   0.165
 3363SOL    HW110988   5.412   4.329   0.141
 3363SOL    HW210989   5.499   4.199   0.187
 3364SOL     OW10990   1.508   3.306   2.183
 3364SOL    HW110991   1.469   3.302   2.090
 3364SOL    HW210992   1.563   3.388   2.192
 3365SOL     OW10993   1.038   3.519   3.190
 3365SOL    HW110994   0.993   3.608   3.184
 3365SOL    HW210995   1.029   3.472   3.102
 3366SOL     OW10996   5.909   3.198   4.645
 3366SOL    HW110997   5.969   3.168   4.571
 3366SOL    HW210998   5.874   3.289   4.624
 3367SOL     OW10999   3.294   2.937   3.565
 3367SOL    HW111000   3.277   2.947   3.663
 3367SOL    HW211001   3.239   3.003   3.514
 3368SOL     OW11002   3.271   0.774   2.682
 3368SOL    HW111003   3.319   0.739   2.763
 3368SOL    HW211004   3.250   0.871   2.695
 3369SOL     OW11005   4.839   2.582   0.908
 3369SOL    HW111006   4.893   2.513   0.859
 3369SOL    HW211007   4.846   2.566   1.006
 3370SOL     OW11008   0.279   5.329   2.764
 3370SOL    HW111009   0.211   5.272   2.811
 3370SOL    HW211010   0.284   5.302   2.668
 3371SOL     OW11011   2.059   3.077   1.599
 3371SOL    HW111012   2.110   3.031   1.672
 3371SOL    HW211013   2.072   3.027   1.513
 3372SOL     OW11014   5.586   3.580   3.299
 3372SOL    HW111015   5.524   3.567   3.222
 3372SOL    HW211016   5.625   3.492   3.325
 3373SOL     OW11017   0.154   4.063   1.768
 3373SOL    HW111018   0.084   3.999   1.735
 3373SOL    HW211019   0.221   4.078   1.695
 3374SOL     OW11020   0.904   6.216   3.898
 3374SOL    HW111021   0.898   6.122   3.863
 3374SOL    HW211022   0.966   6.269   3.839
 3375SOL     OW11023   0.371   5.684   6.053
 3375SOL    HW111024   0.304   5.614   6.028
 3375SOL    HW211025   0.332   5.775   6.038
 3376SOL     OW11026   3.493   3.036   4.368
 3376SOL    HW111027   3.538   2.951   4.342
 3376SOL    HW211028   3.406   3.016   4.412
 3377SOL     OW11029   6.970   5.318   4.432
 3377SOL    HW111030   0.012   5.252   4.392
 3377SOL    HW211031   6.889   5.270   4.464
 3378SOL     OW11032   1.496   5.860   1.186
 3378SOL    HW111033   1.536   5.914   1.113
 3378SOL    HW211034   1.537   5.769   1.187
 3379SOL     OW11035   6.148   3.945   4.412
 3379SOL    HW111036   6.160   3.939   4.313
 3379SOL    HW211037   6.067   4.000   4.433
 3380SOL     OW11038   2.420   4.624   0.862
 3380SOL    HW111039   2.498   4.674   0.898
 3380SOL    HW211040   2.392   4.554   0.927
 3381SOL     OW11041   2.562   3.806   5.967
 3381SOL    HW111042   2.657   3.836   5.961
 3381SOL    HW211043   2.501   3.885   5.961
 3382SOL     OW11044   6.682   4.174   6.869
 3382SOL    HW111045   6.758   4.161   6.932
 3382SOL    HW211046   6.596   4.168   6.920
 3383SOL     OW11047   4.255   5.473   0.086
 3383SOL    HW111048   4.342   5.520   0.100
 3383SOL    HW211049   4.203   5.520   0.014
 3384SOL     OW11050   2.613   3.236   6.523
 3384SOL    HW111051   2.708   3.233   6.493
 3384SOL    HW211052   2.553   3.234   6.442
 3385SOL     OW11053   6.348   2.311   4.289
 3385SOL    HW111054   6.401   2.340   4.209
 3385SOL    HW211055   6.350   2.211   4.295
 3386SOL     OW11056   0.058   6.116   4.473
 3386SOL    HW111057   0.047   6.062   4.557
 3386SOL    HW211058   0.155   6.123   4.450
 3387SOL     OW11059   6.106   1.110   3.393
 3387SOL    HW111060   6.121   1.024   3.343
 3387SOL    HW211061   6.054   1.173   3.335
 3388SOL     OW11062   6.776   4.149   0.973
 3388SOL    HW111063   6.795   4.058   1.010
 3388SOL    HW211064   6.698   4.143   0.910
 3389SOL     OW11065   5.760   5.413   6.452
 3389SOL    HW111066   5.812   5.343   6.501
 3389SOL    HW211067   5.774   5.403   6.354
 3390SOL     OW11068   2.804   5.470   6.922
 3390SOL    HW111069   2.746   5.459   6.841
 3390SOL    HW211070   2.812   5.383   6.969
 3391SOL     OW11071   4.826   4.101   4.945
 3391SOL    HW111072   4.874   4.017   4.970
 3391SOL    HW211073   4.785   4.091   4.854
 3392SOL     OW11074   4.310   6.487   6.184
 3392SOL    HW111075   4.237   6.545   6.221
 3392SOL    HW211076   4.397   6.513   6.224
 3393SOL     OW11077   3.617   5.855   0.714
 3393SOL    HW111078   3.660   5.941   0.687
 3393SOL    HW211079   3.545   5.833   0.648
 3394SOL     OW11080   3.296   5.325   1.867
 3394SOL    HW111081   3.267   5.235   1.834
 3394SOL    HW211082   3.391   5.321   1.896
 3395SOL     OW11083   1.842   6.900   2.942
 3395SOL    HW111084   1.894   6.877   3.024
 3395SOL    HW211085   1.790   6.983   2.958
 3396SOL     OW11086   4.572   0.032   4.064
 3396SOL    HW111087   4.657   7.002   4.063
 3396SOL    HW211088   4.510   7.017   4.132
 3397SOL     OW11089   2.303   5.604   6.712
 3397SOL    HW111090   2.210   5.639   6.698
 3397SOL    HW211091   2.367   5.681   6.715
 3398SOL     OW11092   0.069   1.840   5.770
 3398SOL    HW111093   0.143   1.773   5.770
 3398SOL    HW211094   0.017   1.832   5.686
 3399SOL     OW11095   6.517   6.133   2.433
 3399SOL    HW111096   6.432   6.181   2.413
 3399SOL    HW211097   6.566   6.116   2.348
 3400SOL     OW11098   3.710   3.230   5.597
 3400SOL    HW111099   3.686   3.148   5.544
 3400SOL    HW211100   3.630   3.289   5.605
 3401SOL     OW11101   0.034   3.602   4.144
 3401SOL    HW111102   0.012   3.622   4.240
 3401SOL    HW211103   0.130   3.626   4.127
 3402SOL     OW11104   6.324   3.853   0.877
 3402SOL    HW111105   6.321   3.761   0.838
 3402SOL    HW211106   6.340   3.919   0.804
 3403SOL     OW11107   5.072   6.958   6.545
 3403SOL    HW111108   5.043   6.943   6.639
 3403SOL    HW211109   4.992   6.955   6.485
 3404SOL     OW11110   5.036   5.509   3.818
 3404SOL    HW111111   4.953   5.562   3.834
 3404SOL    HW211112   5.040   5.481   3.722
 3405SOL     OW11113   4.241   5.856   6.923
 3405SOL    HW111114   4.326   5.905   6.941
 3405SOL    HW211115   4.206   5.819   7.009
 3406SOL     OW11116   3.327   5.576   1.398
 3406SOL    HW111117   3.245   5.578   1.341
 3406SOL    HW211118   3.304   5.538   1.488
 3407SOL     OW11119   1.157   3.799   6.634
 3407SOL    HW111120   1.122   3.891   6.616
 3407SOL    HW211121   1.140   3.774   6.730
 3408SOL     OW11122   4.562   0.044   3.562
 3408SOL    HW111123   4.509   0.047   3.477
 3408SOL    HW211124   4.500   0.032   3.639
 3409SOL     OW11125   3.899   1.246   6.931
 3409SOL    HW111126   3.906   1.344   6.946
 3409SOL    HW211127   3.980   1.201   6.970
 3410SOL     OW11128   6.308   0.507   2.900
 3410SOL    HW111129   6.303   0.540   2.995
 3410SOL    HW211130   6.265   0.573   2.840
 3411SOL     OW11131   6.070   3.061   5.616
 3411SOL    HW111132   6.168   3.053   5.632
 3411SOL    HW211133   6.041   3.156   5.632
 3412SOL     OW11134   5.528   3.607   2.606
 3412SOL    HW111135   5.461   3.533   2.603
 3412SOL    HW211136   5.606   3.583   2.548
 3413SOL     OW11137   6.844   1.966   0.386
 3413SOL    HW111138   6.913   2.003   0.324
 3413SOL    HW211139   6.890   1.923   0.464
 3414SOL     OW11140   3.684   3.512   1.974
 3414SOL    HW111141   3.648   3.422   1.950
 3414SOL    HW211142   3.772   3.526   1.928
 3415SOL     OW11143   2.167   1.809   5.517
 3415SOL    HW111144   2.139   1.887   5.573
 3415SOL    HW211145   2.205   1.737   5.576
 3416SOL     OW11146   6.427   6.895   6.615
 3416SOL    HW111147   6.459   6.956   6.688
 3416SOL    HW211148   6.407   6.805   6.654
 3417SOL     OW11149   6.258   0.110   2.833
 3417SOL    HW111150   6.195   0.066   2.769
 3417SOL    HW211151   6.291   0.195   2.793
 3418SOL     OW11152   4.158   5.369   0.542
 3418SOL    HW111153   4.244   5.406   0.577
 3418SOL    HW211154   4.083   5.398   0.601
 3419SOL     OW11155   2.428   4.692   5.036
 3419SOL    HW111156   2.451   4.635   5.114
 3419SOL    HW211157   2.406   4.785   5.067
 3420SOL     OW11158   4.721   1.526   2.348
 3420SOL    HW111159   4.720   1.516   2.448
 3420SOL    HW211160   4.764   1.613   2.324
 3421SOL     OW11161   0.151   1.973   5.286
 3421SOL    HW111162   0.227   1.908   5.280
 3421SOL    HW211163   0.167   2.038   5.361
 3422SOL     OW11164   2.938   6.466   1.009
 3422SOL    HW111165   2.925   6.544   1.070
 3422SOL    HW211166   2.983   6.495   0.925
 3423SOL     OW11167   2.746   4.300   5.519
 3423SOL    HW111168   2.667   4.352   5.550
 3423SOL    HW211169   2.719   4.239   5.445
 3424SOL     OW11170   5.231   0.569   2.324
 3424SOL    HW111171   5.252   0.637   2.395
 3424SOL    HW211172   5.147   0.521   2.348
 3425SOL     OW11173   6.399   3.459   6.061
 3425SOL    HW111174   6.388   3.522   5.984
 3425SOL    HW211175   6.353   3.373   6.041
 3426SOL     OW11176   6.135   4.338   0.059
 3426SOL    HW111177   6.067   4.411   0.064
 3426SOL    HW211178   6.184   4.345   6.994
 3427SOL     OW11179   1.693   1.731   6.749
 3427SOL    HW111180   1.699   1.642   6.794
 3427SOL    HW211181   1.714   1.803   6.814
 3428SOL     OW11182   5.091   6.933   5.116
 3428SOL    HW111183   5.145   7.015   5.099
 3428SOL    HW211184   5.131   6.856   5.067
 3429SOL     OW11185   4.435   6.964   0.950
 3429SOL    HW111186   4.417   6.868   0.927
 3429SOL    HW211187   4.499   7.002   0.883
 3430SOL     OW11188   2.659   4.012   6.139
 3430SOL    HW111189   2.584   3.947   6.150
 3430SOL    HW211190   2.630   4.087   6.080
 3431SOL     OW11191   0.936   4.562   2.477
 3431SOL    HW111192   0.908   4.532   2.386
 3431SOL    HW211193   0.897   4.502   2.546
 3432SOL     OW11194   0.674   4.739   0.418
 3432SOL    HW111195   0.748   4.712   0.357
 3432SOL    HW211196   0.666   4.672   0.492
 3433SOL     OW11197   1.511   0.799   0.184
 3433SOL    HW111198   1.522   0.889   0.141
 3433SOL    HW211199   1.586   0.785   0.249
 3434SOL     OW11200   3.609   2.616   1.720
 3434SOL    HW111201   3.668   2.670   1.660
 3434SOL    HW211202   3.666   2.561   1.782
 3435SOL     OW11203   1.810   2.162   1.101
 3435SOL    HW111204   1.740   2.223   1.138
 3435SOL    HW211205   1.840   2.099   1.172
 3436SOL     OW11206   3.647   6.830   6.321
 3436SOL    HW111207   3.636   6.769   6.399
 3436SOL    HW211208   3.619   6.922   6.346
 3437SOL     OW11209   1.445   6.880   6.991
 3437SOL    HW111210   1.420   6.828   0.050
 3437SOL    HW211211   1.403   6.837   6.911
 3438SOL     OW11212   2.524   4.096   0.696
 3438SOL    HW111213   2.437   4.085   0.648
 3438SOL    HW211214   2.517   4.173   0.760
 3439SOL     OW11215   2.926   6.285   0.631
 3439SOL    HW111216   2.955   6.356   0.568
 3439SOL    HW211217   2.897   6.204   0.580
 3440SOL     OW11218   3.369   3.532   5.352
 3440SOL    HW111219   3.355   3.434   5.366
 3440SOL    HW211220   3.384   3.577   5.440
 3441SOL     OW11221   6.469   4.944   4.713
 3441SOL    HW111222   6.404   4.875   4.685
 3441SOL    HW211223   6.490   4.933   4.811
 3442SOL     OW11224   1.927   2.858   1.093
 3442SOL    HW111225   2.010   2.914   1.088
 3442SOL    HW211226   1.904   2.824   1.002
 3443SOL     OW11227   0.569   5.759   2.367
 3443SOL    HW111228   0.621   5.793   2.289
 3443SOL    HW211229   0.617   5.681   2.408
 3444SOL     OW11230   6.666   3.596   5.678
 3444SOL    HW111231   6.627   3.672   5.625
 3444SOL    HW211232   6.759   3.619   5.706
 3445SOL     OW11233   6.198   4.510   4.533
 3445SOL    HW111234   6.224   4.606   4.541
 3445SOL    HW211235   6.145   4.483   4.613
 3446SOL     OW11236   4.731   1.414   0.639
 3446SOL    HW111237   4.683   1.482   0.694
 3446SOL    HW211238   4.747   1.332   0.693
 3447SOL     OW11239   5.820   0.932   6.544
 3447SOL    HW111240   5.885   0.909   6.617
 3447SOL    HW211241   5.823   0.860   6.474
 3448SOL     OW11242   0.786   4.516   5.119
 3448SOL    HW111243   0.843   4.588   5.079
 3448SOL    HW211244   0.691   4.529   5.091
 3449SOL     OW11245   0.243   4.130   5.433
 3449SOL    HW111246   0.203   4.039   5.423
 3449SOL    HW211247   0.287   4.156   5.347
 3450SOL     OW11248   2.534   0.159   2.029
 3450SOL    HW111249   2.516   0.061   2.035
 3450SOL    HW211250   2.546   0.185   1.933
 3451SOL     OW11251   1.979   2.322   0.958
 3451SOL    HW111252   2.041   2.268   0.902
 3451SOL    HW211253   1.923   2.261   1.014
 3452SOL     OW11254   4.340   1.437   5.594
 3452SOL    HW111255   4.402   1.481   5.659
 3452SOL    HW211256   4.367   1.459   5.501
 3453SOL     OW11257   4.177   6.681   6.339
 3453SOL    HW111258   4.214   6.749   6.400
 3453SOL    HW211259   4.117   6.619   6.390
 3454SOL     OW11260   0.243   3.287   2.388
 3454SOL    HW111261   0.182   3.310   2.312
 3454SOL    HW211262   0.267   3.369   2.439
 3455SOL     OW11263   0.430   3.751   6.174
 3455SOL    HW111264   0.485   3.669   6.189
 3455SOL    HW211265   0.389   3.780   6.261
 3456SOL     OW11266   4.612   5.571   3.851
 3456SOL    HW111267   4.557   5.561   3.769
 3456SOL    HW211268   4.694   5.624   3.831
 3457SOL     OW11269   3.800   4.629   6.953
 3457SOL    HW111270   3.860   4.707   6.941
 3457SOL    HW211271   3.767   4.625   0.024
 3458SOL     OW11272   4.134   1.439   2.180
 3458SOL    HW111273   4.035   1.427   2.190
 3458SOL    HW211274   4.154   1.480   2.091
 3459SOL     OW11275   5.347   5.990   2.062
 3459SOL    HW111276   5.443   6.019   2.065
 3459SOL    HW211277   5.336   5.904   2.112
 3460SOL     OW11278   3.857   1.571   4.874
 3460SOL    HW111279   3.802   1.603   4.951
 3460SOL    HW211280   3.899   1.650   4.828
 3461SOL     OW11281   4.691   5.349   4.015
 3461SOL    HW111282   4.680   5.425   3.951
 3461SOL    HW211283   4.640   5.270   3.981
 3462SOL     OW11284   0.839   4.016   6.233
 3462SOL    HW111285   0.837   3.955   6.313
 3462SOL    HW211286   0.758   4.001   6.177
 3463SOL     OW11287   5.484   3.718   0.431
 3463SOL    HW111288   5.531   3.768   0.358
 3463SOL    HW211289   5.387   3.739   0.429
 3464SOL     OW11290   0.385   4.493   3.924
 3464SOL    HW111291   0.403   4.493   4.023
 3464SOL    HW211292   0.387   4.587   3.890
 3465SOL     OW11293   0.803   2.217   2.404
 3465SOL    HW111294   0.810   2.236   2.502
 3465SOL    HW211295   0.759   2.129   2.389
 3466SOL     OW11296   0.078   3.382   4.499
 3466SOL    HW111297   7.018   3.429   4.466
 3466SOL    HW211298   0.066   3.284   4.489
 3467SOL     OW11299   1.989   2.364   5.423
 3467SOL    HW111300   2.083   2.347   5.393
 3467SOL    HW211301   1.965   2.459   5.406
 3468SOL     OW11302   4.504   6.480   1.943
 3468SOL    HW111303   4.569   6.528   2.002
 3468SOL    HW211304   4.541   6.477   1.850
 3469SOL     OW11305   5.439   3.955   0.942
 3469SOL    HW111306   5.399   3.871   0.905
 3469SOL    HW211307   5.539   3.947   0.940
 3470SOL     OW11308   6.758   5.329   1.286
 3470SOL    HW111309   6.849   5.287   1.286
 3470SOL    HW211310   6.695   5.274   1.340
 3471SOL     OW11311   3.937   6.811   4.749
 3471SOL    HW111312   4.002   6.885   4.767
 3471SOL    HW211313   3.962   6.765   4.664
 3472SOL     OW11314   4.203   0.993   4.909
 3472SOL    HW111315   4.184   1.074   4.964
 3472SOL    HW211316   4.190   0.911   4.964
 3473SOL     OW11317   3.969   0.141   3.851
 3473SOL    HW111318   3.930   0.231   3.872
 3473SOL    HW211319   4.063   0.152   3.819
 3474SOL     OW11320   4.921   4.651   0.960
 3474SOL    HW111321   4.899   4.553   0.950
 3474SOL    HW211322   5.012   4.668   0.924
 3475SOL     OW11323   1.856   5.976   4.720
 3475SOL    HW111324   1.935   6.013   4.671
 3475SOL    HW211325   1.807   6.050   4.766
 3476SOL     OW11326   4.467   1.631   4.820
 3476SOL    HW111327   4.439   1.536   4.811
 3476SOL    HW211328   4.530   1.640   4.897
 3477SOL     OW11329   4.357   5.475   1.589
 3477SOL    HW111330   4.414   5.519   1.659
 3477SOL    HW211331   4.285   5.537   1.560
 3478SOL     OW11332   3.996   4.080   6.887
 3478SOL    HW111333   4.025   4.138   6.962
 3478SOL    HW211334   4.039   4.112   6.802
 3479SOL     OW11335   1.248   0.432   1.557
 3479SOL    HW111336   1.179   0.455   1.488
 3479SOL    HW211337   1.224   0.346   1.601
 3480SOL     OW11338   1.215   6.795   4.012
 3480SOL    HW111339   1.210   6.696   4.026
 3480SOL    HW211340   1.198   6.842   4.098
 3481SOL     OW11341   1.688   6.179   6.971
 3481SOL    HW111342   1.654   6.143   6.884
 3481SOL    HW211343   1.711   6.276   6.959
 3482SOL     OW11344   0.801   2.314   2.163
 3482SOL    HW111345   0.819   2.412   2.161
 3482SOL    HW211346   0.783   2.285   2.257
 3483SOL     OW11347   3.552   1.737   0.661
 3483SOL    HW111348   3.618   1.747   0.586
 3483SOL    HW211349   3.584   1.665   0.723
 3484SOL     OW11350   4.069   3.587   3.821
 3484SOL    HW111351   4.070   3.610   3.724
 3484SOL    HW211352   4.067   3.487   3.831
 3485SOL     OW11353   6.264   1.994   5.091
 3485SOL    HW111354   6.171   2.028   5.100
 3485SOL    HW211355   6.298   2.012   4.999
 3486SOL     OW11356   4.953   0.740   2.738
 3486SOL    HW111357   4.875   0.704   2.790
 3486SOL    HW211358   5.022   0.669   2.727
 3487SOL     OW11359   0.784   0.884   0.657
 3487SOL    HW111360   0.874   0.849   0.681
 3487SOL    HW211361   0.766   0.867   0.560
 3488SOL     OW11362   6.490   3.591   4.068
 3488SOL    HW111363   6.495   3.588   3.968
 3488SOL    HW211364   6.540   3.671   4.102
 3489SOL     OW11365   2.363   5.527   0.261
 3489SOL    HW111366   2.396   5.446   0.309
 3489SOL    HW211367   2.352   5.507   0.164
 3490SOL     OW11368   4.189   3.225   1.140
 3490SOL    HW111369   4.108   3.180   1.104
 3490SOL    HW211370   4.268   3.203   1.083
 3491SOL     OW11371   6.940   3.278   5.499
 3491SOL    HW111372   6.864   3.213   5.495
 3491SOL    HW211373   6.977   3.279   5.592
 3492SOL     OW11374   6.044   4.598   6.846
 3492SOL    HW111375   6.092   4.549   6.773
 3492SOL    HW211376   6.073   4.694   6.846
 3493SOL     OW11377   6.845   4.797   1.617
 3493SOL    HW111378   6.830   4.810   1.715
 3493SOL    HW211379   6.757   4.795   1.570
 3494SOL     OW11380   2.699   6.810   1.050
 3494SOL    HW111381   2.767   6.870   1.007
 3494SOL    HW211382   2.717   6.804   1.148
 3495SOL     OW11383   5.643   3.944   6.719
 3495SOL    HW111384   5.625   3.858   6.766
 3495SOL    HW211385   5.656   3.927   6.622
 3496SOL     OW11386   0.575   4.779   0.726
 3496SOL    HW111387   0.599   4.798   0.821
 3496SOL    HW211388   0.644   4.719   0.685
 3497SOL     OW11389   4.078   6.455   4.659
 3497SOL    HW111390   3.994   6.402   4.671
 3497SOL    HW211391   4.148   6.419   4.721
 3498SOL     OW11392   1.086   1.915   0.752
 3498SOL    HW111393   1.076   2.014   0.741
 3498SOL    HW211394   1.145   1.895   0.829
 3499SOL     OW11395   0.363   4.228   4.410
 3499SOL    HW111396   0.333   4.319   4.437
 3499SOL    HW211397   0.446   4.204   4.461
 3500SOL     OW11398   6.208   3.601   0.675
 3500SOL    HW111399   6.139   3.529   0.673
 3500SOL    HW211400   6.289   3.569   0.724
 3501SOL     OW11401   0.902   3.932   2.843
 3501SOL    HW111402   0.943   3.849   2.807
 3501SOL    HW211403   0.971   3.986   2.890
 3502SOL     OW11404   0.730   5.049   2.072
 3502SOL    HW111405   0.781   5.133   2.093
 3502SOL    HW211406   0.794   4.974   2.056
 3503SOL     OW11407   3.568   0.109   3.795
 3503SOL    HW111408   3.622   0.169   3.736
 3503SOL    HW211409   3.580   0.136   3.890
 3504SOL     OW11410   2.357   2.748   3.093
 3504SOL    HW111411   2.268   2.733   3.135
 3504SOL    HW211412   2.426   2.692   3.139
 3505SOL     OW11413   4.138   6.133   4.838
 3505SOL    HW111414   4.119   6.058   4.774
 3505SOL    HW211415   4.237   6.147   4.845
 3506SOL     OW11416   5.952   5.222   2.411
 3506SOL    HW111417   5.957   5.236   2.312
 3506SOL    HW211418   6.018   5.282   2.457
 3507SOL     OW11419   0.161   0.411   6.145
 3507SOL    HW111420   0.244   0.460   6.116
 3507SOL    HW211421   0.096   0.477   6.182
 3508SOL     OW11422   5.885   4.060   6.917
 3508SOL    HW111423   5.827   4.001   6.861
 3508SOL    HW211424   5.828   4.121   6.972
 3509SOL     OW11425   5.732   0.625   0.252
 3509SOL    HW111426   5.739   0.716   0.293
 3509SOL    HW211427   5.681   0.564   0.313
 3510SOL     OW11428   2.170   2.464   2.324
 3510SOL    HW111429   2.252   2.520   2.337
 3510SOL    HW211430   2.176   2.383   2.382
 3511SOL     OW11431   0.670   1.222   5.104
 3511SOL    HW111432   0.637   1.291   5.041
 3511SOL    HW211433   0.760   1.188   5.073
 3512SOL     OW11434   3.232   2.981   1.371
 3512SOL    HW111435   3.219   2.957   1.275
 3512SOL    HW211436   3.156   2.945   1.425
 3513SOL     OW11437   5.196   4.417   1.149
 3513SOL    HW111438   5.288   4.413   1.190
 3513SOL    HW211439   5.139   4.347   1.192
 3514SOL     OW11440   1.739   6.815   2.055
 3514SOL    HW111441   1.701   6.808   1.963
 3514SOL    HW211442   1.769   6.909   2.071
 3515SOL     OW11443   3.841   6.248   3.790
 3515SOL    HW111444   3.767   6.185   3.767
 3515SOL    HW211445   3.894   6.268   3.708
 3516SOL     OW11446   2.232   1.523   0.539
 3516SOL    HW111447   2.155   1.586   0.528
 3516SOL    HW211448   2.210   1.455   0.609
 3517SOL     OW11449   0.690   0.677   6.534
 3517SOL    HW111450   0.692   0.774   6.512
 3517SOL    HW211451   0.616   0.633   6.484
 3518SOL     OW11452   4.576   3.725   5.646
 3518SOL    HW111453   4.562   3.765   5.555
 3518SOL    HW211454   4.536   3.785   5.715
 3519SOL     OW11455   3.361   6.641   0.658
 3519SOL    HW111456   3.420   6.689   0.723
 3519SOL    HW211457   3.318   6.707   0.597
 3520SOL     OW11458   4.091   4.757   1.549
 3520SOL    HW111459   4.022   4.814   1.595
 3520SOL    HW211460   4.170   4.814   1.525
 3521SOL     OW11461   6.213   2.446   6.394
 3521SOL    HW111462   6.165   2.523   6.352
 3521SOL    HW211463   6.198   2.448   6.493
 3522SOL     OW11464   2.861   0.823   0.372
 3522SOL    HW111465   2.828   0.730   0.385
 3522SOL    HW211466   2.814   0.865   0.294
 3523SOL     OW11467   2.743   4.528   5.321
 3523SOL    HW111468   2.774   4.466   5.393
 3523SOL    HW211469   2.814   4.536   5.251
 3524SOL     OW11470   2.106   0.258   2.102
 3524SOL    HW111471   2.136   0.193   2.033
 3524SOL    HW211472   2.168   0.337   2.102
 3525SOL     OW11473   1.403   4.025   2.792
 3525SOL    HW111474   1.423   4.043   2.695
 3525SOL    HW211475   1.482   3.982   2.834
 3526SOL     OW11476   4.181   6.928   3.445
 3526SOL    HW111477   4.093   6.880   3.457
 3526SOL    HW211478   4.167   0.004   3.454
 3527SOL     OW11479   5.344   2.839   6.433
 3527SOL    HW111480   5.403   2.875   6.360
 3527SOL    HW211481   5.371   2.744   6.454
 3528SOL     OW11482   1.412   6.898   4.601
 3528SOL    HW111483   1.439   6.990   4.627
 3528SOL    HW211484   1.486   6.853   4.552
 3529SOL     OW11485   3.822   6.498   6.967
 3529SOL    HW111486   3.833   6.537   0.036
 3529SOL    HW211487   3.783   6.406   6.974
 3530SOL     OW11488   2.169   6.790   2.954
 3530SOL    HW111489   2.097   6.741   2.906
 3530SOL    HW211490   2.258   6.752   2.929
 3531SOL     OW11491   5.266   4.421   6.914
 3531SOL    HW111492   5.246   4.323   6.915
 3531SOL    HW211493   5.196   4.469   6.861
 3532SOL     OW11494   1.854   6.434   0.536
 3532SOL    HW111495   1.943   6.417   0.493
 3532SOL    HW211496   1.861   6.513   0.597
 3533SOL     OW11497   1.550   1.184   4.073
 3533SOL    HW111498   1.476   1.209   4.010
 3533SOL    HW211499   1.546   1.243   4.153
 3534SOL     OW11500   5.126   0.673   5.100
 3534SOL    HW111501   5.141   0.579   5.070
 3534SOL    HW211502   5.029   0.688   5.116
 3535SOL     OW11503   4.998   6.504   6.623
 3535SOL    HW111504   4.989   6.474   6.528
 3535SOL    HW211505   4.935   6.452   6.681
 3536SOL     OW11506   0.775   3.632   2.427
 3536SOL    HW111507   0.689   3.616   2.477
 3536SOL    HW211508   0.842   3.562   2.453
 3537SOL     OW11509   2.744   4.211   1.166
 3537SOL    HW111510   2.705   4.194   1.257
 3537SOL    HW211511   2.800   4.294   1.169
 3538SOL     OW11512   4.124   1.127   3.474
 3538SOL    HW111513   4.179   1.126   3.390
 3538SOL    HW211514   4.183   1.152   3.551
 3539SOL     OW11515   5.547   5.748   6.257
 3539SOL    HW111516   5.463   5.701   6.287
 3539SOL    HW211517   5.610   5.756   6.335
 3540SOL     OW11518   2.740   4.686   5.845
 3540SOL    HW111519   2.814   4.695   5.911
 3540SOL    HW211520   2.705   4.776   5.821
 3541SOL     OW11521   1.273   2.558   1.809
 3541SOL    HW111522   1.311   2.644   1.843
 3541SOL    HW211523   1.341   2.511   1.753
 3542SOL     OW11524   6.277   1.801   6.490
 3542SOL    HW111525   6.275   1.716   6.544
 3542SOL    HW211526   6.254   1.878   6.549
 3543SOL     OW11527   0.463   2.025   3.772
 3543SOL    HW111528   0.561   2.008   3.785
 3543SOL    HW211529   0.448   2.122   3.753
 3544SOL     OW11530   2.924   4.017   0.110
 3544SOL    HW111531   3.008   4.070   0.114
 3544SOL    HW211532   2.891   4.015   0.015
 3545SOL     OW11533   4.143   6.981   0.842
 3545SOL    HW111534   4.070   0.023   0.864
 3545SOL    HW211535   4.231   7.022   0.864
 3546SOL     OW11536   6.556   4.213   1.548
 3546SOL    HW111537   6.653   4.237   1.547
 3546SOL    HW211538   6.521   4.213   1.454
 3547SOL     OW11539   1.052   4.003   4.827
 3547SOL    HW111540   1.077   3.916   4.869
 3547SOL    HW211541   1.128   4.037   4.772
 3548SOL     OW11542   5.953   0.070   6.280
 3548SOL    HW111543   5.931   0.130   6.203
 3548SOL    HW211544   6.001   0.123   6.350
 3549SOL     OW11545   2.396   6.200   6.616
 3549SOL    HW111546   2.494   6.184   6.605
 3549SOL    HW211547   2.367   6.169   6.706
 3550SOL     OW11548   5.713   1.072   5.530
 3550SOL    HW111549   5.686   1.146   5.591
 3550SOL    HW211550   5.663   1.080   5.444
 3551SOL     OW11551   5.200   1.873   4.890
 3551SOL    HW111552   5.135   1.867   4.966
 3551SOL    HW211553   5.279   1.928   4.918
 3552SOL     OW11554   6.391   0.184   3.943
 3552SOL    HW111555   6.352   0.248   4.009
 3552SOL    HW211556   6.376   0.220   3.850
 3553SOL     OW11557   5.856   5.975   6.736
 3553SOL    HW111558   5.950   5.993   6.709
 3553SOL    HW211559   5.794   6.001   6.662
 3554SOL     OW11560   4.767   4.304   0.203
 3554SOL    HW111561   4.700   4.348   0.264
 3554SOL    HW211562   4.817   4.375   0.153
 3555SOL     OW11563   2.811   1.454   5.087
 3555SOL    HW111564   2.801   1.355   5.075
 3555SOL    HW211565   2.825   1.474   5.183
 3556SOL     OW11566   5.563   1.022   0.711
 3556SOL    HW111567   5.473   1.010   0.670
 3556SOL    HW211568   5.565   0.981   0.802
 3557SOL     OW11569   5.877   6.760   1.831
 3557SOL    HW111570   5.904   6.730   1.739
 3557SOL    HW211571   5.849   6.680   1.885
 3558SOL     OW11572   3.705   5.686   2.311
 3558SOL    HW111573   3.720   5.587   2.301
 3558SOL    HW211574   3.681   5.706   2.406
 3559SOL     OW11575   4.147   6.309   6.688
 3559SOL    HW111576   4.089   6.348   6.616
 3559SOL    HW211577   4.091   6.257   6.752
 3560SOL     OW11578   1.399   5.514   4.002
 3560SOL    HW111579   1.332   5.499   4.075
 3560SOL    HW211580   1.482   5.554   4.040
 3561SOL     OW11581   4.571   3.479   5.558
 3561SOL    HW111582   4.573   3.572   5.596
 3561SOL    HW211583   4.510   3.478   5.478
 3562SOL     OW11584   2.903   1.528   0.487
 3562SOL    HW111585   2.956   1.512   0.404
 3562SOL    HW211586   2.924   1.618   0.524
 3563SOL     OW11587   6.533   2.417   6.366
 3563SOL    HW111588   6.436   2.419   6.387
 3563SOL    HW211589   6.554   2.489   6.299
 3564SOL     OW11590   6.226   3.556   2.589
 3564SOL    HW111591   6.323   3.540   2.572
 3564SOL    HW211592   6.193   3.627   2.527
 3565SOL     OW11593   4.841   5.985   6.080
 3565SOL    HW111594   4.859   6.028   6.169
 3565SOL    HW211595   4.807   5.892   6.095
 3566SOL     OW11596   1.288   1.100   5.305
 3566SOL    HW111597   1.267   1.090   5.402
 3566SOL    HW211598   1.376   1.145   5.294
 3567SOL     OW11599   6.896   3.823   6.929
 3567SOL    HW111600   6.851   3.849   7.014
 3567SOL    HW211601   6.951   3.741   6.943
 3568SOL     OW11602   5.425   3.646   6.211
 3568SOL    HW111603   5.494   3.718   6.205
 3568SOL    HW211604   5.466   3.558   6.189
 3569SOL     OW11605   1.567   0.285   3.641
 3569SOL    HW111606   1.536   0.359   3.700
 3569SOL    HW211607   1.653   0.248   3.675
 3570SOL     OW11608   5.695   1.567   4.528
 3570SOL    HW111609   5.756   1.550   4.605
 3570SOL    HW211610   5.620   1.501   4.530
 3571SOL     OW11611   6.625   6.523   5.102
 3571SOL    HW111612   6.568   6.562   5.173
 3571SOL    HW211613   6.719   6.513   5.135
 3572SOL     OW11614   6.130   6.433   5.801
 3572SOL    HW111615   6.039   6.440   5.760
 3572SOL    HW211616   6.166   6.341   5.787
 3573SOL     OW11617   0.449   2.168   1.883
 3573SOL    HW111618   0.530   2.151   1.939
 3573SOL    HW211619   0.475   2.216   1.800
 3574SOL     OW11620   6.308   3.800   0.530
 3574SOL    HW111621   6.269   3.722   0.580
 3574SOL    HW211622   6.272   3.800   0.437
 3575SOL     OW11623   6.330   5.616   1.867
 3575SOL    HW111624   6.312   5.652   1.958
 3575SOL    HW211625   6.284   5.673   1.799
 3576SOL     OW11626   0.236   1.102   6.591
 3576SOL    HW111627   0.282   1.119   6.678
 3576SOL    HW211628   0.137   1.103   6.606
 3577SOL     OW11629   2.646   4.027   6.518
 3577SOL    HW111630   2.611   4.046   6.610
 3577SOL    HW211631   2.570   4.001   6.459
 3578SOL     OW11632   3.618   4.442   1.629
 3578SOL    HW111633   3.677   4.503   1.576
 3578SOL    HW211634   3.582   4.490   1.709
 3579SOL     OW11635   1.645   4.586   4.816
 3579SOL    HW111636   1.614   4.662   4.874
 3579SOL    HW211637   1.601   4.502   4.847
 3580SOL     OW11638   6.948   2.986   1.568
 3580SOL    HW111639   6.940   2.976   1.469
 3580SOL    HW211640   6.926   2.899   1.613
 3581SOL     OW11641   5.947   1.323   3.277
 3581SOL    HW111642   5.982   1.389   3.343
 3581SOL    HW211643   5.847   1.324   3.278
 3582SOL     OW11644   0.124   0.453   5.399
 3582SOL    HW111645   0.155   0.491   5.486
 3582SOL    HW211646   0.108   0.355   5.408
 3583SOL     OW11647   1.792   5.253   1.685
 3583SOL    HW111648   1.717   5.190   1.668
 3583SOL    HW211649   1.817   5.252   1.781
 3584SOL     OW11650   5.732   0.237   5.792
 3584SOL    HW111651   5.709   0.190   5.877
 3584SOL    HW211652   5.794   0.313   5.811
 3585SOL     OW11653   2.345   4.725   3.974
 3585SOL    HW111654   2.371   4.637   3.933
 3585SOL    HW211655   2.324   4.711   4.071
 3586SOL     OW11656   0.960   1.259   6.148
 3586SOL    HW111657   1.002   1.348   6.134
 3586SOL    HW211658   1.027   1.187   6.131
 3587SOL     OW11659   3.606   6.855   7.007
 3587SOL    HW111660   3.694   6.885   6.971
 3587SOL    HW211661   3.554   6.934   0.015
 3588SOL     OW11662   2.060   1.357   5.399
 3588SOL    HW111663   2.158   1.338   5.399
 3588SOL    HW211664   2.010   1.270   5.401
 3589SOL     OW11665   3.267   0.417   4.801
 3589SOL    HW111666   3.201   0.415   4.726
 3589SOL    HW211667   3.356   0.447   4.766
 3590SOL     OW11668   1.183   5.090   6.820
 3590SOL    HW111669   1.126   5.145   6.881
 3590SOL    HW211670   1.124   5.037   6.759
 3591SOL     OW11671   5.452   2.527   5.830
 3591SOL    HW111672   5.492   2.584   5.759
 3591SOL    HW211673   5.476   2.564   5.920
 3592SOL     OW11674   5.486   2.311   1.903
 3592SOL    HW111675   5.395   2.306   1.944
 3592SOL    HW211676   5.523   2.403   1.914
 3593SOL     OW11677   0.619   5.008   4.206
 3593SOL    HW111678   0.528   5.036   4.177
 3593SOL    HW211679   0.643   4.922   4.160
 3594SOL     OW11680   4.145   1.378   4.887
 3594SOL    HW111681   4.050   1.408   4.890
 3594SOL    HW211682   4.190   1.401   4.974
 3595SOL     OW11683   1.747   6.058   6.227
 3595SOL    HW111684   1.719   6.121   6.299
 3595SOL    HW211685   1.686   6.068   6.148
 3596SOL     OW11686   0.455   3.777   3.469
 3596SOL    HW111687   0.462   3.825   3.556
 3596SOL    HW211688   0.451   3.678   3.486
 3597SOL     OW11689   3.941   6.515   3.829
 3597SOL    HW111690   3.895   6.599   3.802
 3597SOL    HW211691   3.873   6.442   3.839
 3598SOL     OW11692   1.687   0.392   0.666
 3598SOL    HW111693   1.689   0.372   0.568
 3598SOL    HW211694   1.706   0.308   0.718
 3599SOL     OW11695   6.681   1.356   4.169
 3599SOL    HW111696   6.622   1.334   4.092
 3599SOL    HW211697   6.680   1.280   4.234
 3600SOL     OW11698   6.970   0.808   1.227
 3600SOL    HW111699   6.898   0.795   1.159
 3600SOL    HW211700   6.997   0.719   1.264
 3601SOL     OW11701   6.127   3.339   5.230
 3601SOL    HW111702   6.184   3.295   5.161
 3601SOL    HW211703   6.044   3.285   5.245
 3602SOL     OW11704   2.679   2.024   0.998
 3602SOL    HW111705   2.753   1.967   0.962
 3602SOL    HW211706   2.687   2.116   0.960
 3603SOL     OW11707   4.371   5.268   4.566
 3603SOL    HW111708   4.401   5.357   4.599
 3603SOL    HW211709   4.301   5.280   4.495
 3604SOL     OW11710   0.114   4.089   3.591
 3604SOL    HW111711   0.019   4.113   3.609
 3604SOL    HW211712   0.137   4.111   3.496
 3605SOL     OW11713   6.116   2.975   6.390
 3605SOL    HW111714   6.041   3.038   6.413
 3605SOL    HW211715   6.107   2.892   6.445
 3606SOL     OW11716   1.906   4.326   3.791
 3606SOL    HW111717   1.948   4.268   3.860
 3606SOL    HW211718   1.884   4.271   3.711
 3607SOL     OW11719   4.246   6.979   0.170
 3607SOL    HW111720   4.155   6.953   0.202
 3607SOL    HW211721   4.287   0.019   0.236
 3608SOL     OW11722   0.482   2.801   2.664
 3608SOL    HW111723   0.454   2.887   2.621
 3608SOL    HW211724   0.522   2.741   2.594
 3609SOL     OW11725   6.681   0.090   5.140
 3609SOL    HW111726   6.635   0.161   5.087
 3609SOL    HW211727   6.621   0.011   5.151
 3610SOL     OW11728   1.602   5.616   5.250
 3610SOL    HW111729   1.679   5.652   5.302
 3610SOL    HW211730   1.534   5.688   5.236
 3611SOL     OW11731   4.166   5.160   5.508
 3611SOL    HW111732   4.209   5.161   5.418
 3611SOL    HW211733   4.122   5.248   5.526
 3612SOL     OW11734   1.777   6.172   0.656
 3612SOL    HW111735   1.692   6.199   0.703
 3612SOL    HW211736   1.816   6.252   0.610
 3613SOL     OW11737   5.017   4.922   6.055
 3613SOL    HW111738   4.953   4.917   6.131
 3613SOL    HW211739   5.111   4.921   6.090
 3614SOL     OW11740   4.061   3.807   4.212
 3614SOL    HW111741   3.961   3.799   4.219
 3614SOL    HW211742   4.100   3.718   4.191
 3615SOL     OW11743   6.523   6.003   6.360
 3615SOL    HW111744   6.606   6.051   6.331
 3615SOL    HW211745   6.486   5.951   6.283
 3616SOL     OW11746   6.483   0.888   5.075
 3616SOL    HW111747   6.434   0.813   5.029
 3616SOL    HW211748   6.569   0.852   5.113
 3617SOL     OW11749   6.867   0.477   0.067
 3617SOL    HW111750   6.802   0.512   7.022
 3617SOL    HW211751   6.837   0.505   0.159
 3618SOL     OW11752   2.717   0.128   6.110
 3618SOL    HW111753   2.655   0.158   6.182
 3618SOL    HW211754   2.790   0.194   6.098
 3619SOL     OW11755   5.383   4.007   3.829
 3619SOL    HW111756   5.317   3.950   3.878
 3619SOL    HW211757   5.473   3.964   3.833
 3620SOL     OW11758   6.167   0.968   5.085
 3620SOL    HW111759   6.142   0.965   4.989
 3620SOL    HW211760   6.267   0.967   5.094
 3621SOL     OW11761   1.286   3.343   5.938
 3621SOL    HW111762   1.364   3.403   5.919
 3621SOL    HW211763   1.317   3.248   5.943
 3622SOL     OW11764   0.277   3.204   0.938
 3622SOL    HW111765   0.264   3.264   0.859
 3622SOL    HW211766   0.368   3.165   0.936
 3623SOL     OW11767   0.103   5.623   4.296
 3623SOL    HW111768   0.140   5.580   4.379
 3623SOL    HW211769   0.159   5.701   4.271
 3624SOL     OW11770   1.796   1.275   1.866
 3624SOL    HW111771   1.711   1.223   1.871
 3624SOL    HW211772   1.793   1.338   1.788
 3625SOL     OW11773   0.560   3.094   4.617
 3625SOL    HW111774   0.521   3.138   4.536
 3625SOL    HW211775   0.488   3.048   4.668
 3626SOL     OW11776   2.605   3.901   5.303
 3626SOL    HW111777   2.534   3.959   5.264
 3626SOL    HW211778   2.564   3.831   5.360
 3627SOL     OW11779   2.957   3.292   3.588
 3627SOL    HW111780   3.056   3.289   3.576
 3627SOL    HW211781   2.912   3.265   3.503
 3628SOL     OW11782   3.072   5.398   3.263
 3628SOL    HW111783   3.115   5.462   3.326
 3628SOL    HW211784   3.018   5.331   3.314
 3629SOL     OW11785   5.750   2.210   5.130
 3629SOL    HW111786   5.793   2.230   5.041
 3629SOL    HW211787   5.652   2.200   5.117
 3630SOL     OW11788   5.581   1.812   4.461
 3630SOL    HW111789   5.611   1.724   4.496
 3630SOL    HW211790   5.659   1.875   4.454
 3631SOL     OW11791   2.179   0.566   4.266
 3631SOL    HW111792   2.154   0.531   4.356
 3631SOL    HW211793   2.096   0.584   4.213
 3632SOL     OW11794   3.841   6.946   6.884
 3632SOL    HW111795   3.866   7.022   6.945
 3632SOL    HW211796   3.923   6.900   6.851
 3633SOL     OW11797   2.072   3.049   5.945
 3633SOL    HW111798   2.049   3.009   5.856
 3633SOL    HW211799   2.144   2.995   5.989
 3634SOL     OW11800   3.012   5.918   5.691
 3634SOL    HW111801   3.075   5.855   5.646
 3634SOL    HW211802   2.919   5.902   5.656
 3635SOL     OW11803   2.064   0.914   5.040
 3635SOL    HW111804   2.044   0.904   4.943
 3635SOL    HW211805   2.115   0.834   5.072
 3636SOL     OW11806   1.474   5.472   6.229
 3636SOL    HW111807   1.438   5.401   6.288
 3636SOL    HW211808   1.506   5.431   6.143
 3637SOL     OW11809   5.158   1.404   1.993
 3637SOL    HW111810   5.094   1.447   1.929
 3637SOL    HW211811   5.251   1.437   1.975
 3638SOL     OW11812   6.238   4.571   3.813
 3638SOL    HW111813   6.203   4.553   3.905
 3638SOL    HW211814   6.292   4.656   3.814
 3639SOL     OW11815   2.549   5.309   0.291
 3639SOL    HW111816   2.517   5.271   0.204
 3639SOL    HW211817   2.547   5.238   0.361
 3640SOL     OW11818   2.959   6.018   1.298
 3640SOL    HW111819   2.936   5.950   1.367
 3640SOL    HW211820   3.054   6.006   1.269
 3641SOL     OW11821   2.349   6.895   4.516
 3641SOL    HW111822   2.356   6.834   4.595
 3641SOL    HW211823   2.425   6.961   4.518
 3642SOL     OW11824   6.141   6.961   3.163
 3642SOL    HW111825   6.171   6.909   3.083
 3642SOL    HW211826   6.195   0.023   3.170
 3643SOL     OW11827   3.083   4.401   5.933
 3643SOL    HW111828   3.006   4.402   5.996
 3643SOL    HW211829   3.115   4.308   5.920
 3644SOL     OW11830   0.002   0.874   0.115
 3644SOL    HW111831   0.066   0.804   0.084
 3644SOL    HW211832   6.942   0.871   0.058
 3645SOL     OW11833   3.468   6.644   2.570
 3645SOL    HW111834   3.439   6.706   2.497
 3645SOL    HW211835   3.412   6.561   2.567
 3646SOL     OW11836   6.496   5.697   4.402
 3646SOL    HW111837   6.524   5.792   4.413
 3646SOL    HW211838   6.542   5.641   4.472
 3647SOL     OW11839   2.134   2.546   1.841
 3647SOL    HW111840   2.207   2.509   1.783
 3647SOL    HW211841   2.167   2.629   1.886
 3648SOL     OW11842   2.867   5.725   3.401
 3648SOL    HW111843   2.811   5.663   3.346
 3648SOL    HW211844   2.808   5.788   3.451
 3649SOL     OW11845   3.114   3.555   2.253
 3649SOL    HW111846   3.102   3.600   2.341
 3649SOL    HW211847   3.036   3.575   2.194
 3650SOL     OW11848   6.599   6.772   1.419
 3650SOL    HW111849   6.571   6.735   1.330
 3650SOL    HW211850   6.691   6.811   1.411
 3651SOL     OW11851   1.658   5.957   2.753
 3651SOL    HW111852   1.652   5.953   2.853
 3651SOL    HW211853   1.699   5.872   2.720
 3652SOL     OW11854   4.426   5.014   3.069
 3652SOL    HW111855   4.493   4.971   3.130
 3652SOL    HW211856   4.454   4.999   2.974
 3653SOL     OW11857   0.420   2.676   4.122
 3653SOL    HW111858   0.371   2.593   4.150
 3653SOL    HW211859   0.473   2.710   4.199
 3654SOL     OW11860   1.450   6.386   1.375
 3654SOL    HW111861   1.519   6.354   1.310
 3654SOL    HW211862   1.475   6.477   1.408
 3655SOL     OW11863   1.088   0.312   4.029
 3655SOL    HW111864   1.125   0.398   3.995
 3655SOL    HW211865   1.048   0.260   3.953
 3656SOL     OW11866   2.407   1.748   2.330
 3656SOL    HW111867   2.491   1.801   2.342
 3656SOL    HW211868   2.333   1.791   2.382
 3657SOL     OW11869   3.807   5.429   1.556
 3657SOL    HW111870   3.757   5.342   1.558
 3657SOL    HW211871   3.860   5.439   1.640
 3658SOL     OW11872   1.469   5.495   5.778
 3658SOL    HW111873   1.447   5.508   5.682
 3658SOL    HW211874   1.397   5.534   5.835
 3659SOL     OW11875   1.164   4.550   0.353
 3659SOL    HW111876   1.211   4.493   0.420
 3659SOL    HW211877   1.197   4.528   0.261
 3660SOL     OW11878   4.642   5.604   1.032
 3660SOL    HW111879   4.575   5.532   1.017
 3660SOL    HW211880   4.682   5.631   0.944
 3661SOL     OW11881   5.374   1.371   0.761
 3661SOL    HW111882   5.394   1.466   0.785
 3661SOL    HW211883   5.358   1.318   0.844
 3662SOL     OW11884   3.052   6.412   5.381
 3662SOL    HW111885   3.073   6.509   5.372
 3662SOL    HW211886   2.996   6.397   5.463
 3663SOL     OW11887   0.960   3.692   6.002
 3663SOL    HW111888   0.889   3.760   5.985
 3663SOL    HW211889   1.038   3.736   6.047
 3664SOL     OW11890   3.806   1.201   0.936
 3664SOL    HW111891   3.856   1.144   0.871
 3664SOL    HW211892   3.842   1.294   0.936
 3665SOL     OW11893   1.030   6.528   5.780
 3665SOL    HW111894   1.016   6.627   5.781
 3665SOL    HW211895   1.010   6.492   5.689
 3666SOL     OW11896   0.661   5.562   3.674
 3666SOL    HW111897   0.726   5.615   3.620
 3666SOL    HW211898   0.572   5.608   3.674
 3667SOL     OW11899   6.802   1.737   6.328
 3667SOL    HW111900   6.805   1.732   6.428
 3667SOL    HW211901   6.714   1.777   6.300
 3668SOL     OW11902   1.531   5.998   1.858
 3668SOL    HW111903   1.495   5.926   1.916
 3668SOL    HW211904   1.475   6.006   1.776
 3669SOL     OW11905   6.550   2.161   3.216
 3669SOL    HW111906   6.507   2.072   3.232
 3669SOL    HW211907   6.481   2.226   3.184
 3670SOL     OW11908   1.867   5.294   5.776
 3670SOL    HW111909   1.870   5.243   5.862
 3670SOL    HW211910   1.772   5.310   5.749
 3671SOL     OW11911   0.904   0.926   3.583
 3671SOL    HW111912   0.869   0.933   3.676
 3671SOL    HW211913   0.973   0.853   3.579
 3672SOL     OW11914   6.966   0.064   0.993
 3672SOL    HW111915   0.036   0.044   1.024
 3672SOL    HW211916   6.934   0.149   1.037
 3673SOL     OW11917   4.508   0.282   6.828
 3673SOL    HW111918   4.446   0.354   6.859
 3673SOL    HW211919   4.481   0.252   6.737
 3674SOL     OW11920   1.218   6.538   1.282
 3674SOL    HW111921   1.281   6.465   1.309
 3674SOL    HW211922   1.267   6.607   1.230
 3675SOL     OW11923   1.818   1.799   4.794
 3675SOL    HW111924   1.725   1.817   4.829
 3675SOL    HW211925   1.879   1.873   4.823
 3676SOL     OW11926   2.406   5.416   2.776
 3676SOL    HW111927   2.312   5.397   2.746
 3676SOL    HW211928   2.470   5.365   2.719
 3677SOL     OW11929   6.262   6.593   4.203
 3677SOL    HW111930   6.206   6.676   4.202
 3677SOL    HW211931   6.318   6.590   4.121
 3678SOL     OW11932   1.329   1.757   3.631
 3678SOL    HW111933   1.399   1.690   3.656
 3678SOL    HW211934   1.319   1.824   3.704
 3679SOL     OW11935   0.202   1.238   1.387
 3679SOL    HW111936   0.152   1.162   1.430
 3679SOL    HW211937   0.139   1.312   1.365
 3680SOL     OW11938   6.779   3.635   4.689
 3680SOL    HW111939   6.861   3.579   4.702
 3680SOL    HW211940   6.770   3.659   4.593
 3681SOL     OW11941   5.924   6.248   4.662
 3681SOL    HW111942   5.912   6.269   4.565
 3681SOL    HW211943   5.849   6.289   4.714
 3682SOL     OW11944   0.888   2.306   6.317
 3682SOL    HW111945   0.959   2.239   6.301
 3682SOL    HW211946   0.928   2.388   6.358
 3683SOL     OW11947   5.351   5.994   3.566
 3683SOL    HW111948   5.368   6.092   3.557
 3683SOL    HW211949   5.437   5.947   3.581
 3684SOL     OW11950   1.811   3.269   0.613
 3684SOL    HW111951   1.718   3.304   0.624
 3684SOL    HW211952   1.808   3.169   0.607
 3685SOL     OW11953   6.338   6.626   6.668
 3685SOL    HW111954   6.243   6.606   6.647
 3685SOL    HW211955   6.397   6.558   6.625
 3686SOL     OW11956   5.890   4.458   1.085
 3686SOL    HW111957   5.877   4.521   1.009
 3686SOL    HW211958   5.981   4.468   1.124
 3687SOL     OW11959   2.962   1.367   6.901
 3687SOL    HW111960   2.872   1.361   6.944
 3687SOL    HW211961   2.967   1.452   6.848
 3688SOL     OW11962   0.583   3.264   6.952
 3688SOL    HW111963   0.560   3.260   6.855
 3688SOL    HW211964   0.645   3.189   6.975
 3689SOL     OW11965   2.610   0.800   3.470
 3689SOL    HW111966   2.666   0.876   3.436
 3689SOL    HW211967   2.515   0.815   3.445
 3690SOL     OW11968   5.582   5.985   5.465
 3690SOL    HW111969   5.581   5.888   5.442
 3690SOL    HW211970   5.654   6.030   5.413
 3691SOL     OW11971   3.524   2.594   0.149
 3691SOL    HW111972   3.433   2.553   0.139
 3691SOL    HW211973   3.522   2.661   0.223
 3692SOL     OW11974   2.112   0.318   6.308
 3692SOL    HW111975   2.054   0.327   6.227
 3692SOL    HW211976   2.167   0.235   6.299
 3693SOL     OW11977   2.660   2.261   3.072
 3693SOL    HW111978   2.748   2.215   3.061
 3693SOL    HW211979   2.646   2.286   3.168
 3694SOL     OW11980   2.257   5.867   2.874
 3694SOL    HW111981   2.161   5.851   2.897
 3694SOL    HW211982   2.262   5.927   2.795
 3695SOL     OW11983   1.537   2.085   2.055
 3695SOL    HW111984   1.563   2.172   2.014
 3695SOL    HW211985   1.521   2.017   1.983
 3696SOL     OW11986   2.984   6.582   5.870
 3696SOL    HW111987   2.971   6.679   5.892
 3696SOL    HW211988   3.075   6.554   5.899
 3697SOL     OW11989   5.598   6.886   4.190
 3697SOL    HW111990   5.556   6.836   4.114
 3697SOL    HW211991   5.694   6.860   4.199
 3698SOL     OW11992   2.884   0.086   5.668
 3698SOL    HW111993   2.914   0.050   5.579
 3698SOL    HW211994   2.866   0.184   5.660
 3699SOL     OW11995   1.081   3.840   2.187
 3699SOL    HW111996   0.990   3.800   2.203
 3699SOL    HW211997   1.140   3.819   2.265
 3700SOL     OW11998   0.505   6.924   4.296
 3700SOL    HW111999   0.600   6.953   4.286
 3700SOL    HW212000   0.469   6.894   4.207
 3701SOL     OW12001   5.762   0.587   3.605
 3701SOL    HW112002   5.702   0.601   3.684
 3701SOL    HW212003   5.785   0.490   3.597
 3702SOL     OW12004   3.920   0.842   0.291
 3702SOL    HW112005   3.883   0.927   0.254
 3702SOL    HW212006   3.971   0.861   0.375
 3703SOL     OW12007   4.382   4.700   6.278
 3703SOL    HW112008   4.284   4.710   6.293
 3703SOL    HW212009   4.432   4.756   6.344
 3704SOL     OW12010   2.556   0.488   1.714
 3704SOL    HW112011   2.582   0.539   1.795
 3704SOL    HW212012   2.588   0.536   1.632
 3705SOL     OW12013   5.687   0.956   4.160
 3705SOL    HW112014   5.629   0.985   4.084
 3705SOL    HW212015   5.714   1.037   4.213
 3706SOL     OW12016   1.922   1.794   3.880
 3706SOL    HW112017   1.905   1.722   3.947
 3706SOL    HW212018   1.961   1.754   3.797
 3707SOL     OW12019   4.325   2.724   5.302
 3707SOL    HW112020   4.246   2.666   5.282
 3707SOL    HW212021   4.293   2.812   5.337
 3708SOL     OW12022   6.032   6.948   6.061
 3708SOL    HW112023   6.081   0.008   6.033
 3708SOL    HW212024   6.014   6.951   6.159
 3709SOL     OW12025   4.859   0.497   0.484
 3709SOL    HW112026   4.783   0.562   0.482
 3709SOL    HW212027   4.925   0.521   0.414
 3710SOL     OW12028   7.005   5.231   1.231
 3710SOL    HW112029   0.027   5.145   1.255
 3710SOL    HW212030   6.986   5.232   1.133
 3711SOL     OW12031   6.579   5.086   3.058
 3711SOL    HW112032   6.614   5.105   3.150
 3711SOL    HW212033   6.630   5.141   2.992
 3712SOL     OW12034   2.280   0.085   0.749
 3712SOL    HW112035   2.192   0.078   0.701
 3712SOL    HW212036   2.324   0.172   0.725
 3713SOL     OW12037   3.837   5.643   6.077
 3713SOL    HW112038   3.847   5.741   6.058
 3713SOL    HW212039   3.749   5.626   6.120
 3714SOL     OW12040   3.777   0.961   4.982
 3714SOL    HW112041   3.793   1.042   5.039
 3714SOL    HW212042   3.840   0.962   4.905
 3715SOL     OW12043   5.415   3.744   4.165
 3715SOL    HW112044   5.505   3.714   4.197
 3715SOL    HW212045   5.383   3.820   4.222
 3716SOL     OW12046   0.364   1.300   4.117
 3716SOL    HW112047   0.275   1.255   4.107
 3716SOL    HW212048   0.354   1.398   4.099
 3717SOL     OW12049   5.214   6.971   0.102
 3717SOL    HW112050   5.139   0.007   0.136
 3717SOL    HW212051   5.226   6.988   0.004
 3718SOL     OW12052   0.265   5.785   0.332
 3718SOL    HW112053   0.259   5.883   0.312
 3718SOL    HW212054   0.237   5.769   0.427
 3719SOL     OW12055   3.844   4.976   5.311
 3719SOL    HW112056   3.840   4.936   5.402
 3719SOL    HW212057   3.775   4.933   5.253
 3720SOL     OW12058   0.376   1.847   5.597
 3720SOL    HW112059   0.347   1.769   5.652
 3720SOL    HW212060   0.388   1.819   5.502
 3721SOL     OW12061   4.181   3.511   1.131
 3721SOL    HW112062   4.249   3.584   1.133
 3721SOL    HW212063   4.227   3.423   1.117
 3722SOL     OW12064   6.041   5.922   2.146
 3722SOL    HW112065   6.121   5.917   2.087
 3722SOL    HW212066   5.998   5.832   2.152
 3723SOL     OW12067   4.275   1.234   0.672
 3723SOL    HW112068   4.371   1.217   0.651
 3723SOL    HW212069   4.249   1.182   0.753
 3724SOL     OW12070   0.268   5.450   5.406
 3724SOL    HW112071   0.169   5.443   5.417
 3724SOL    HW212072   0.301   5.533   5.452
 3725SOL     OW12073   6.668   0.077   0.882
 3725SOL    HW112074   6.684   0.019   0.802
 3725SOL    HW212075   6.675   0.022   0.965
 3726SOL     OW12076   5.421   3.095   1.618
 3726SOL    HW112077   5.476   3.090   1.534
 3726SOL    HW212078   5.359   3.173   1.613
 3727SOL     OW12079   2.421   3.169   5.436
 3727SOL    HW112080   2.342   3.111   5.415
 3727SOL    HW212081   2.483   3.170   5.357
 3728SOL     OW12082   0.574   3.320   6.663
 3728SOL    HW112083   0.556   3.225   6.638
 3728SOL    HW212084   0.664   3.347   6.627
 3729SOL     OW12085   0.504   2.915   3.332
 3729SOL    HW112086   0.485   3.002   3.377
 3729SOL    HW212087   0.529   2.846   3.401
 3730SOL     OW12088   2.500   0.677   0.268
 3730SOL    HW112089   2.516   0.632   0.356
 3730SOL    HW212090   2.491   0.608   0.196
 3731SOL     OW12091   3.659   6.538   6.455
 3731SOL    HW112092   3.759   6.532   6.463
 3731SOL    HW212093   3.617   6.502   6.538
 3732SOL     OW12094   2.133   3.780   4.915
 3732SOL    HW112095   2.194   3.706   4.946
 3732SOL    HW212096   2.169   3.867   4.947
 3733SOL     OW12097   2.270   3.549   1.196
 3733SOL    HW112098   2.218   3.546   1.111
 3733SOL    HW212099   2.368   3.542   1.176
 3734SOL     OW12100   5.238   0.298   2.891
 3734SOL    HW112101   5.283   0.265   2.808
 3734SOL    HW212102   5.294   0.370   2.933
 3735SOL     OW12103   3.472   1.595   1.806
 3735SOL    HW112104   3.435   1.504   1.826
 3735SOL    HW212105   3.475   1.648   1.891
 3736SOL     OW12106   5.315   1.202   6.782
 3736SOL    HW112107   5.314   1.116   6.732
 3736SOL    HW212108   5.222   1.231   6.803
 3737SOL     OW12109   4.393   0.052   3.353
 3737SOL    HW112110   4.301   0.013   3.363
 3737SOL    HW212111   4.439   0.008   3.276
 3738SOL     OW12112   0.165   6.989   4.042
 3738SOL    HW112113   0.263   7.008   4.034
 3738SOL    HW212114   0.152   6.899   4.084
 3739SOL     OW12115   0.578   3.804   2.013
 3739SOL    HW112116   0.621   3.840   1.930
 3739SOL    HW212117   0.491   3.761   1.990
 3740SOL     OW12118   5.122   1.330   6.903
 3740SOL    HW112119   5.065   1.302   6.981
 3740SOL    HW212120   5.076   1.403   6.853
 3741SOL     OW12121   3.825   2.252   6.604
 3741SOL    HW112122   3.915   2.236   6.564
 3741SOL    HW212123   3.754   2.217   6.543
 3742SOL     OW12124   3.022   3.622   5.498
 3742SOL    HW112125   2.930   3.660   5.508
 3742SOL    HW212126   3.016   3.531   5.455
 3743SOL     OW12127   0.481   5.537   6.254
 3743SOL    HW112128   0.447   5.584   6.336
 3743SOL    HW212129   0.448   5.585   6.172
 3744SOL     OW12130   6.921   5.866   3.321
 3744SOL    HW112131   6.921   5.900   3.415
 3744SOL    HW212132   6.903   5.941   3.258
 3745SOL     OW12133   4.926   5.866   1.824
 3745SOL    HW112134   4.889   5.836   1.912
 3745SOL    HW212135   5.008   5.921   1.840
 3746SOL     OW12136   4.223   1.858   2.527
 3746SOL    HW112137   4.310   1.833   2.568
 3746SOL    HW212138   4.211   1.958   2.534
 3747SOL     OW12139   2.545   0.089   0.515
 3747SOL    HW112140   2.477   0.028   0.556
 3747SOL    HW212141   2.597   0.040   0.445
 3748SOL     OW12142   5.896   0.844   2.515
 3748SOL    HW112143   5.967   0.905   2.550
 3748SOL    HW212144   5.903   0.838   2.416
 3749SOL     OW12145   1.329   0.298   5.437
 3749SOL    HW112146   1.236   0.335   5.435
 3749SOL    HW212147   1.380   0.332   5.358
 3750SOL     OW12148   0.534   4.194   6.465
 3750SOL    HW112149   0.571   4.156   6.550
 3750SOL    HW212150   0.609   4.218   6.403
 3751SOL     OW12151   1.397   3.948   1.860
 3751SOL    HW112152   1.299   3.927   1.859
 3751SOL    HW212153   1.439   3.906   1.941
 3752SOL     OW12154   5.521   6.754   6.815
 3752SOL    HW112155   5.538   6.814   6.737
 3752SOL    HW212156   5.434   6.705   6.801
 3753SOL     OW12157   0.007   0.550   3.758
 3753SOL    HW112158   6.994   0.457   3.769
 3753SOL    HW212159   6.963   0.616   3.792
 3754SOL     OW12160   2.842   1.621   0.875
 3754SOL    HW112161   2.782   1.549   0.840
 3754SOL    HW212162   2.840   1.622   0.974
 3755SOL     OW12163   3.189   4.954   4.099
 3755SOL    HW112164   3.130   5.014   4.153
 3755SOL    HW212165   3.133   4.882   4.056
 3756SOL     OW12166   1.707   6.067   0.228
 3756SOL    HW112167   1.734   6.099   0.137
 3756SOL    HW212168   1.711   6.144   0.292
 3757SOL     OW12169   6.872   4.559   1.289
 3757SOL    HW112170   6.864   4.510   1.376
 3757SOL    HW212171   6.836   4.652   1.300
 3758SOL     OW12172   2.202   6.837   3.881
 3758SOL    HW112173   2.108   6.834   3.913
 3758SOL    HW212174   2.263   6.852   3.959
 3759SOL     OW12175   5.315   0.222   4.255
 3759SOL    HW112176   5.226   0.192   4.220
 3759SOL    HW212177   5.302   0.271   4.341
 3760SOL     OW12178   1.193   1.076   3.429
 3760SOL    HW112179   1.190   1.157   3.370
 3760SOL    HW212180   1.135   1.005   3.390
 3761SOL     OW12181   5.024   0.960   4.822
 3761SOL    HW112182   4.975   0.957   4.909
 3761SOL    HW212183   5.008   0.876   4.771
 3762SOL     OW12184   0.087   3.056   3.618
 3762SOL    HW112185   0.098   3.102   3.530
 3762SOL    HW212186   7.013   3.033   3.632
 3763SOL     OW12187   0.731   4.356   0.031
 3763SOL    HW112188   0.731   4.357   0.131
 3763SOL    HW212189   0.730   4.261   7.022
 3764SOL     OW12190   2.746   0.575   2.885
 3764SOL    HW112191   2.816   0.624   2.834
 3764SOL    HW212192   2.716   0.495   2.832
 3765SOL     OW12193   5.579   3.010   2.848
 3765SOL    HW112194   5.669   2.972   2.827
 3765SOL    HW212195   5.588   3.075   2.923
 3766SOL     OW12196   1.223   3.740   2.386
 3766SOL    HW112197   1.243   3.731   2.483
 3766SOL    HW212198   1.298   3.701   2.332
 3767SOL     OW12199   1.306   5.324   6.010
 3767SOL    HW112200   1.282   5.244   5.956
 3767SOL    HW212201   1.288   5.305   6.107
 3768SOL     OW12202   1.320   0.095   2.751
 3768SOL    HW112203   1.287   0.149   2.674
 3768SOL    HW212204   1.286   0.001   2.743
 3769SOL     OW12205   5.755   5.531   4.105
 3769SOL    HW112206   5.764   5.474   4.187
 3769SOL    HW212207   5.773   5.626   4.130
 3770SOL     OW12208   2.002   1.079   1.693
 3770SOL    HW112209   1.938   1.145   1.653
 3770SOL    HW212210   2.076   1.061   1.629
 3771SOL     OW12211   6.636   5.520   5.201
 3771SOL    HW112212   6.550   5.571   5.188
 3771SOL    HW212213   6.694   5.569   5.265
 3772SOL     OW12214   1.314   5.969   1.355
 3772SOL    HW112215   1.401   5.947   1.313
 3772SOL    HW212216   1.272   6.047   1.308
 3773SOL     OW12217   5.046   4.879   6.540
 3773SOL    HW112218   5.080   4.889   6.446
 3773SOL    HW212219   4.973   4.945   6.556
 3774SOL     OW12220   6.532   5.218   1.852
 3774SOL    HW112221   6.575   5.278   1.785
 3774SOL    HW212222   6.602   5.170   1.904
 3775SOL     OW12223   4.581   5.243   4.993
 3775SOL    HW112224   4.656   5.299   5.029
 3775SOL    HW212225   4.600   5.218   4.899
 3776SOL     OW12226   3.762   2.798   5.906
 3776SOL    HW112227   3.792   2.884   5.866
 3776SOL    HW212228   3.699   2.816   5.982
 3777SOL     OW12229   2.911   5.111   4.682
 3777SOL    HW112230   2.902   5.109   4.583
 3777SOL    HW212231   2.898   5.019   4.719
 3778SOL     OW12232   3.092   5.444   6.714
 3778SOL    HW112233   3.122   5.377   6.647
 3778SOL    HW212234   3.009   5.489   6.682
 3779SOL     OW12235   0.000   4.683   0.119
 3779SOL    HW112236   0.012   4.594   0.075
 3779SOL    HW212237   0.088   4.730   0.122
 3780SOL     OW12238   5.453   4.114   1.549
 3780SOL    HW112239   5.537   4.060   1.562
 3780SOL    HW212240   5.376   4.064   1.588
 3781SOL     OW12241   2.658   6.047   4.628
 3781SOL    HW112242   2.606   6.093   4.700
 3781SOL    HW212243   2.745   6.095   4.615
 3782SOL     OW12244   4.517   4.971   1.218
 3782SOL    HW112245   4.589   4.905   1.236
 3782SOL    HW212246   4.554   5.063   1.222
 3783SOL     OW12247   4.907   5.335   4.649
 3783SOL    HW112248   4.962   5.387   4.583
 3783SOL    HW212249   4.966   5.305   4.724
 3784SOL     OW12250   5.758   2.490   4.442
 3784SOL    HW112251   5.756   2.547   4.524
 3784SOL    HW212252   5.726   2.544   4.364
 3785SOL     OW12253   1.470   2.927   3.398
 3785SOL    HW112254   1.479   2.996   3.470
 3785SOL    HW212255   1.379   2.888   3.400
 3786SOL     OW12256   2.160   3.264   4.578
 3786SOL    HW112257   2.101   3.199   4.627
 3786SOL    HW212258   2.256   3.239   4.591
 3787SOL     OW12259   4.958   6.824   4.315
 3787SOL    HW112260   4.890   6.758   4.285
 3787SOL    HW212261   4.996   6.795   4.403
 3788SOL     OW12262   5.276   2.491   5.394
 3788SOL    HW112263   5.257   2.485   5.296
 3788SOL    HW212264   5.200   2.453   5.446
 3789SOL     OW12265   2.206   3.018   2.093
 3789SOL    HW112266   2.149   3.015   2.175
 3789SOL    HW212267   2.269   2.940   2.093
 3790SOL     OW12268   0.309   6.386   2.047
 3790SOL    HW112269   0.379   6.316   2.034
 3790SOL    HW212270   0.228   6.345   2.089
 3791SOL     OW12271   5.317   1.377   6.171
 3791SOL    HW112272   5.300   1.295   6.227
 3791SOL    HW212273   5.230   1.425   6.157
 3792SOL     OW12274   6.888   0.271   4.624
 3792SOL    HW112275   6.819   0.320   4.571
 3792SOL    HW212276   6.946   0.217   4.562
 3793SOL     OW12277   3.982   4.837   6.912
 3793SOL    HW112278   3.992   4.908   6.842
 3793SOL    HW212279   4.073   4.804   6.939
 3794SOL     OW12280   0.551   4.464   6.253
 3794SOL    HW112281   0.465   4.464   6.303
 3794SOL    HW212282   0.604   4.382   6.278
 3795SOL     OW12283   2.843   5.831   1.447
 3795SOL    HW112284   2.758   5.806   1.493
 3795SOL    HW212285   2.888   5.748   1.413
 3796SOL     OW12286   4.210   1.570   0.232
 3796SOL    HW112287   4.273   1.601   0.161
 3796SOL    HW212288   4.121   1.614   0.221
 3797SOL     OW12289   0.811   4.434   1.923
 3797SOL    HW112290   0.716   4.409   1.943
 3797SOL    HW212291   0.865   4.351   1.912
 3798SOL     OW12292   1.760   5.609   3.613
 3798SOL    HW112293   1.847   5.579   3.653
 3798SOL    HW212294   1.759   5.709   3.606
 3799SOL     OW12295   6.975   0.907   3.197
 3799SOL    HW112296   6.971   0.958   3.111
 3799SOL    HW212297   6.883   0.876   3.222
 3800SOL     OW12298   5.438   2.481   2.825
 3800SOL    HW112299   5.466   2.537   2.747
 3800SOL    HW212300   5.371   2.530   2.880
 3801SOL     OW12301   5.801   1.866   1.152
 3801SOL    HW112302   5.765   1.790   1.099
 3801SOL    HW212303   5.778   1.952   1.106
 3802SOL     OW12304   6.175   3.275   1.859
 3802SOL    HW112305   6.187   3.235   1.951
 3802SOL    HW212306   6.264   3.301   1.823
 3803SOL     OW12307   3.447   3.484   4.475
 3803SOL    HW112308   3.380   3.425   4.430
 3803SOL    HW212309   3.406   3.525   4.557
 3804SOL     OW12310   4.126   6.138   3.617
 3804SOL    HW112311   4.178   6.175   3.540
 3804SOL    HW212312   4.029   6.144   3.597
 3805SOL     OW12313   2.616   2.550   6.818
 3805SOL    HW112314   2.677   2.612   6.768
 3805SOL    HW212315   2.586   2.476   6.757
 3806SOL     OW12316   2.797   4.816   1.445
 3806SOL    HW112317   2.873   4.820   1.509
 3806SOL    HW212318   2.748   4.730   1.455
 3807SOL     OW12319   1.867   4.045   4.207
 3807SOL    HW112320   1.933   3.991   4.260
 3807SOL    HW212321   1.819   4.108   4.267
 3808SOL     OW12322   2.638   6.472   6.442
 3808SOL    HW112323   2.697   6.525   6.382
 3808SOL    HW212324   2.690   6.439   6.520
 3809SOL     OW12325   5.075   2.002   1.326
 3809SOL    HW112326   5.121   2.088   1.306
 3809SOL    HW212327   5.125   1.952   1.397
 3810SOL     OW12328   5.384   2.118   2.425
 3810SOL    HW112329   5.288   2.105   2.398
 3810SOL    HW212330   5.423   2.196   2.376
 3811SOL     OW12331   0.390   5.677   5.492
 3811SOL    HW112332   0.447   5.622   5.554
 3811SOL    HW212333   0.448   5.724   5.426
 3812SOL     OW12334   4.740   5.876   0.591
 3812SOL    HW112335   4.699   5.949   0.646
 3812SOL    HW212336   4.706   5.881   0.497
 3813SOL     OW12337   6.310   4.360   6.853
 3813SOL    HW112338   6.281   4.388   6.762
 3813SOL    HW212339   6.393   4.409   6.879
 3814SOL     OW12340   0.143   0.922   5.313
 3814SOL    HW112341   0.057   0.927   5.364
 3814SOL    HW212342   0.217   0.894   5.374
 3815SOL     OW12343   6.345   3.582   5.479
 3815SOL    HW112344   6.385   3.584   5.571
 3815SOL    HW212345   6.408   3.625   5.414
 3816SOL     OW12346   6.561   5.943   1.154
 3816SOL    HW112347   6.508   5.860   1.137
 3816SOL    HW212348   6.654   5.918   1.184
 3817SOL     OW12349   4.939   3.897   1.834
 3817SOL    HW112350   4.884   3.973   1.801
 3817SOL    HW212351   4.940   3.898   1.934
 3818SOL     OW12352   5.594   6.342   2.755
 3818SOL    HW112353   5.616   6.327   2.659
 3818SOL    HW212354   5.678   6.363   2.805
 3819SOL     OW12355   6.087   4.220   3.843
 3819SOL    HW112356   6.184   4.218   3.819
 3819SOL    HW212357   6.038   4.284   3.784
 3820SOL     OW12358   2.600   6.158   4.882
 3820SOL    HW112359   2.571   6.242   4.836
 3820SOL    HW212360   2.690   6.172   4.923
 3821SOL     OW12361   1.625   0.311   0.376
 3821SOL    HW112362   1.527   0.295   0.364
 3821SOL    HW212363   1.655   0.384   0.315
 3822SOL     OW12364   4.483   0.300   2.152
 3822SOL    HW112365   4.575   0.270   2.127
 3822SOL    HW212366   4.488   0.349   2.240
 3823SOL     OW12367   5.689   6.066   6.526
 3823SOL    HW112368   5.633   6.091   6.447
 3823SOL    HW212369   5.654   6.111   6.608
 3824SOL     OW12370   2.329   3.186   0.129
 3824SOL    HW112371   2.312   3.174   0.031
 3824SOL    HW212372   2.256   3.141   0.181
 3825SOL     OW12373   0.860   4.620   5.403
 3825SOL    HW112374   0.941   4.571   5.435
 3825SOL    HW212375   0.840   4.593   5.308
 3826SOL     OW12376   5.509   4.669   4.000
 3826SOL    HW112377   5.576   4.743   3.985
 3826SOL    HW212378   5.550   4.601   4.061
 3827SOL     OW12379   0.637   1.879   0.482
 3827SOL    HW112380   0.598   1.930   0.405
 3827SOL    HW212381   0.714   1.929   0.520
 3828SOL     OW12382   3.514   3.440   3.682
 3828SOL    HW112383   3.488   3.379   3.757
 3828SOL    HW212384   3.537   3.530   3.719
 3829SOL     OW12385   1.111   3.440   2.200
 3829SOL    HW112386   1.078   3.471   2.289
 3829SOL    HW212387   1.205   3.470   2.187
 3830SOL     OW12388   5.629   0.746   3.808
 3830SOL    HW112389   5.688   0.771   3.885
 3830SOL    HW212390   5.624   0.822   3.744
 3831SOL     OW12391   5.174   2.077   3.898
 3831SOL    HW112392   5.074   2.082   3.892
 3831SOL    HW212393   5.214   2.159   3.858
 3832SOL     OW12394   6.678   0.978   3.267
 3832SOL    HW112395   6.656   1.014   3.176
 3832SOL    HW212396   6.601   0.924   3.301
 3833SOL     OW12397   1.927   1.580   5.459
 3833SOL    HW112398   1.931   1.587   5.559
 3833SOL    HW212399   1.989   1.508   5.428
 3834SOL     OW12400   4.964   3.797   0.757
 3834SOL    HW112401   4.910   3.869   0.799
 3834SOL    HW212402   4.998   3.735   0.827
 3835SOL     OW12403   3.794   5.589   4.943
 3835SOL    HW112404   3.754   5.533   5.016
 3835SOL    HW212405   3.834   5.671   4.983
 3836SOL     OW12406   0.258   6.433   5.705
 3836SOL    HW112407   0.286   6.338   5.696
 3836SOL    HW212408   0.165   6.444   5.671
 3837SOL     OW12409   4.385   4.809   5.654
 3837SOL    HW112410   4.301   4.856   5.628
 3837SOL    HW212411   4.372   4.710   5.648
 3838SOL     OW12412   0.968   1.315   4.107
 3838SOL    HW112413   1.047   1.375   4.090
 3838SOL    HW212414   0.885   1.361   4.078
 3839SOL     OW12415   4.935   0.740   3.623
 3839SOL    HW112416   4.910   0.830   3.589
 3839SOL    HW212417   5.008   0.748   3.691
 3840SOL     OW12418   2.795   1.721   6.743
 3840SOL    HW112419   2.840   1.789   6.801
 3840SOL    HW212420   2.711   1.760   6.705
 3841SOL     OW12421   6.048   4.323   4.315
 3841SOL    HW112422   6.003   4.393   4.259
 3841SOL    HW212423   6.119   4.366   4.370
 3842SOL     OW12424   1.216   3.650   5.199
 3842SOL    HW112425   1.146   3.589   5.237
 3842SOL    HW212426   1.281   3.675   5.270
 3843SOL     OW12427   5.014   2.459   0.172
 3843SOL    HW112428   4.920   2.424   0.181
 3843SOL    HW212429   5.074   2.386   0.139
 3844SOL     OW12430   0.296   0.189   1.562
 3844SOL    HW112431   0.270   0.239   1.644
 3844SOL    HW212432   0.218   0.136   1.529
 3845SOL     OW12433   2.130   5.404   0.680
 3845SOL    HW112434   2.122   5.497   0.718
 3845SOL    HW212435   2.100   5.404   0.585
 3846SOL     OW12436   0.939   2.892   2.708
 3846SOL    HW112437   0.919   2.825   2.780
 3846SOL    HW212438   0.898   2.980   2.732
 3847SOL     OW12439   6.782   1.971   6.570
 3847SOL    HW112440   6.783   2.041   6.643
 3847SOL    HW212441   6.697   1.981   6.517
 3848SOL     OW12442   5.613   3.714   2.844
 3848SOL    HW112443   5.705   3.678   2.856
 3848SOL    HW212444   5.574   3.679   2.759
 3849SOL     OW12445   6.834   4.880   6.573
 3849SOL    HW112446   6.824   4.893   6.672
 3849SOL    HW212447   6.808   4.787   6.549
 3850SOL     OW12448   2.891   2.347   1.561
 3850SOL    HW112449   2.818   2.283   1.588
 3850SOL    HW212450   2.956   2.301   1.501
 3851SOL     OW12451   0.373   5.569   2.173
 3851SOL    HW112452   0.333   5.641   2.230
 3851SOL    HW212453   0.451   5.529   2.220
 3852SOL     OW12454   2.279   6.467   5.480
 3852SOL    HW112455   2.180   6.480   5.473
 3852SOL    HW212456   2.304   6.457   5.577
 3853SOL     OW12457   2.554   0.075   3.298
 3853SOL    HW112458   2.579   0.001   3.236
 3853SOL    HW212459   2.635   0.130   3.321
 3854SOL     OW12460   1.669   2.000   2.299
 3854SOL    HW112461   1.609   2.027   2.224
 3854SOL    HW212462   1.660   1.902   2.317
 3855SOL     OW12463   3.543   6.705   0.426
 3855SOL    HW112464   3.543   6.645   0.347
 3855SOL    HW212465   3.471   6.774   0.415
 3856SOL     OW12466   0.455   2.278   6.890
 3856SOL    HW112467   0.408   2.204   6.842
 3856SOL    HW212468   0.544   2.246   6.922
 3857SOL     OW12469   2.250   0.291   5.996
 3857SOL    HW112470   2.245   0.227   6.073
 3857SOL    HW212471   2.324   0.356   6.012
 3858SOL     OW12472   4.175   0.430   4.447
 3858SOL    HW112473   4.239   0.476   4.508
 3858SOL    HW212474   4.190   0.331   4.451
 3859SOL     OW12475   6.647   6.935   2.263
 3859SOL    HW112476   6.624   6.855   2.207
 3859SOL    HW212477   6.654   6.908   2.359
 3860SOL     OW12478   1.195   6.518   4.062
 3860SOL    HW112479   1.211   6.466   3.978
 3860SOL    HW212480   1.097   6.529   4.077
 3861SOL     OW12481   2.906   5.845   1.845
 3861SOL    HW112482   2.810   5.852   1.871
 3861SOL    HW212483   2.930   5.922   1.786
 3862SOL     OW12484   2.029   0.521   4.008
 3862SOL    HW112485   1.975   0.603   3.990
 3862SOL    HW212486   1.968   0.443   4.022
 3863SOL     OW12487   3.853   0.437   0.577
 3863SOL    HW112488   3.948   0.439   0.547
 3863SOL    HW212489   3.793   0.463   0.501
 3864SOL     OW12490   2.608   0.070   4.872
 3864SOL    HW112491   2.517   0.089   4.836
 3864SOL    HW212492   2.676   0.116   4.815
 3865SOL     OW12493   3.630   0.907   0.653
 3865SOL    HW112494   3.661   0.868   0.740
 3865SOL    HW212495   3.546   0.861   0.624
 3866SOL     OW12496   2.574   2.413   6.579
 3866SOL    HW112497   2.657   2.359   6.562
 3866SOL    HW212498   2.570   2.488   6.513
 3867SOL     OW12499   0.607   3.544   1.826
 3867SOL    HW112500   0.681   3.512   1.885
 3867SOL    HW212501   0.522   3.548   1.879
 3868SOL     OW12502   4.471   0.566   0.551
 3868SOL    HW112503   4.467   0.548   0.453
 3868SOL    HW212504   4.413   0.645   0.573
 3869SOL     OW12505   6.214   2.452   3.399
 3869SOL    HW112506   6.189   2.394   3.477
 3869SOL    HW212507   6.233   2.544   3.431
 3870SOL     OW12508   0.473   0.268   4.194
 3870SOL    HW112509   0.484   0.242   4.290
 3870SOL    HW212510   0.414   0.349   4.188
 3871SOL     OW12511   2.853   4.778   4.405
 3871SOL    HW112512   2.791   4.729   4.467
 3871SOL    HW212513   2.833   4.752   4.310
 3872SOL     OW12514   2.806   3.751   5.541
 3872SOL    HW112515   2.827   3.841   5.579
 3872SOL    HW212516   2.711   3.749   5.510
 3873SOL     OW12517   4.669   1.800   0.344
 3873SOL    HW112518   4.729   1.876   0.371
 3873SOL    HW212519   4.623   1.763   0.424
 3874SOL     OW12520   3.086   0.928   6.815
 3874SOL    HW112521   3.031   0.992   6.762
 3874SOL    HW212522   3.135   0.977   6.888
 3875SOL     OW12523   1.534   2.320   5.877
 3875SOL    HW112524   1.465   2.384   5.843
 3875SOL    HW212525   1.489   2.238   5.913
 3876SOL     OW12526   4.219   5.115   1.337
 3876SOL    HW112527   4.209   5.048   1.411
 3876SOL    HW212528   4.290   5.181   1.360
 3877SOL     OW12529   6.633   1.850   6.981
 3877SOL    HW112530   6.611   1.843   0.056
 3877SOL    HW212531   6.561   1.806   6.928
 3878SOL     OW12532   4.495   0.330   4.325
 3878SOL    HW112533   4.486   0.346   4.227
 3878SOL    HW212534   4.487   0.417   4.374
 3879SOL     OW12535   5.463   5.259   0.255
 3879SOL    HW112536   5.471   5.338   0.194
 3879SOL    HW212537   5.533   5.192   0.231
 3880SOL     OW12538   4.493   4.467   3.946
 3880SOL    HW112539   4.586   4.450   3.978
 3880SOL    HW212540   4.429   4.461   4.023
 3881SOL     OW12541   0.876   4.356   0.577
 3881SOL    HW112542   0.959   4.383   0.625
 3881SOL    HW212543   0.849   4.264   0.605
 3882SOL     OW12544   0.845   1.701   0.141
 3882SOL    HW112545   0.912   1.682   0.069
 3882SOL    HW212546   0.878   1.666   0.228
 3883SOL     OW12547   5.167   6.304   3.095
 3883SOL    HW112548   5.084   6.352   3.068
 3883SOL    HW212549   5.237   6.317   3.025
 3884SOL     OW12550   0.895   4.845   2.010
 3884SOL    HW112551   0.911   4.773   1.943
 3884SOL    HW212552   0.981   4.868   2.055
 3885SOL     OW12553   5.418   6.240   3.277
 3885SOL    HW112554   5.391   6.225   3.372
 3885SOL    HW212555   5.345   6.288   3.228
 3886SOL     OW12556   3.877   6.542   5.942
 3886SOL    HW112557   3.881   6.518   6.039
 3886SOL    HW212558   3.792   6.506   5.903
 3887SOL     OW12559   0.264   6.239   2.389
 3887SOL    HW112560   0.363   6.247   2.374
 3887SOL    HW212561   0.223   6.330   2.396
 3888SOL     OW12562   6.307   5.753   4.062
 3888SOL    HW112563   6.288   5.832   4.003
 3888SOL    HW212564   6.279   5.774   4.156
 3889SOL     OW12565   5.260   3.652   6.701
 3889SOL    HW112566   5.278   3.688   6.609
 3889SOL    HW212567   5.178   3.695   6.739
 3890SOL     OW12568   5.464   3.049   4.149
 3890SOL    HW112569   5.552   3.046   4.103
 3890SOL    HW212570   5.477   3.060   4.248
 3891SOL     OW12571   6.228   5.400   3.422
 3891SOL    HW112572   6.155   5.464   3.448
 3891SOL    HW212573   6.253   5.345   3.502
 3892SOL     OW12574   0.027   2.192   1.571
 3892SOL    HW112575   7.001   2.235   1.495
 3892SOL    HW212576   6.991   2.122   1.612
 3893SOL     OW12577   3.898   3.615   1.457
 3893SOL    HW112578   3.865   3.664   1.537
 3893SOL    HW212579   3.951   3.535   1.486
 3894SOL     OW12580   4.435   0.558   6.402
 3894SOL    HW112581   4.480   0.523   6.320
 3894SOL    HW212582   4.468   0.651   6.420
 3895SOL     OW12583   1.742   6.941   4.217
 3895SOL    HW112584   1.715   6.972   4.308
 3895SOL    HW212585   1.669   6.885   4.178
 3896SOL     OW12586   1.574   1.047   0.011
 3896SOL    HW112587   1.569   1.010   6.940
 3896SOL    HW212588   1.546   1.143   0.009
 3897SOL     OW12589   4.490   6.109   1.898
 3897SOL    HW112590   4.463   6.157   1.981
 3897SOL    HW212591   4.421   6.123   1.827
 3898SOL     OW12592   4.226   2.786   6.658
 3898SOL    HW112593   4.221   2.861   6.723
 3898SOL    HW212594   4.198   2.818   6.567
 3899SOL     OW12595   3.860   6.280   6.494
 3899SOL    HW112596   3.815   6.273   6.404
 3899SOL    HW212597   3.886   6.188   6.525
 3900SOL     OW12598   5.288   4.056   3.240
 3900SOL    HW112599   5.378   4.034   3.278
 3900SOL    HW212600   5.222   4.066   3.314
 3901SOL     OW12601   2.709   0.270   0.026
 3901SOL    HW112602   2.731   0.174   0.010
 3901SOL    HW212603   2.793   0.319   0.048
 3902SOL     OW12604   6.318   2.968   2.799
 3902SOL    HW112605   6.311   2.883   2.748
 3902SOL    HW212606   6.253   3.034   2.763
 3903SOL     OW12607   3.392   5.487   6.759
 3903SOL    HW112608   3.301   5.522   6.734
 3903SOL    HW212609   3.386   5.390   6.780
 3904SOL     OW12610   1.319   0.287   0.375
 3904SOL    HW112611   1.230   0.327   0.400
 3904SOL    HW212612   1.305   0.194   0.341
 3905SOL     OW12613   6.852   5.977   5.525
 3905SOL    HW112614   6.950   5.990   5.538
 3905SOL    HW212615   6.816   5.919   5.598
 3906SOL     OW12616   5.900   6.709   5.716
 3906SOL    HW112617   5.980   6.757   5.751
 3906SOL    HW212618   5.854   6.661   5.791
 3907SOL     OW12619   5.854   1.542   4.310
 3907SOL    HW112620   5.813   1.571   4.396
 3907SOL    HW212621   5.781   1.520   4.245
 3908SOL     OW12622   1.728   2.251   5.366
 3908SOL    HW112623   1.738   2.152   5.374
 3908SOL    HW212624   1.818   2.294   5.375
 3909SOL     OW12625   6.065   5.417   3.978
 3909SOL    HW112626   6.081   5.499   3.923
 3909SOL    HW212627   6.009   5.441   4.057
 3910SOL     OW12628   3.496   3.725   3.033
 3910SOL    HW112629   3.580   3.678   3.057
 3910SOL    HW212630   3.473   3.792   3.104
 3911SOL     OW12631   6.055   1.742   5.579
 3911SOL    HW112632   6.011   1.791   5.504
 3911SOL    HW212633   6.019   1.776   5.666
 3912SOL     OW12634   5.489   2.140   5.896
 3912SOL    HW112635   5.584   2.137   5.928
 3912SOL    HW212636   5.485   2.109   5.801
 3913SOL     OW12637   1.070   6.758   0.736
 3913SOL    HW112638   1.112   6.796   0.653
 3913SOL    HW212639   1.101   6.664   0.749
 3914SOL     OW12640   3.220   6.280   6.503
 3914SOL    HW112641   3.262   6.371   6.503
 3914SOL    HW212642   3.279   6.216   6.455
 3915SOL     OW12643   5.730   5.256   1.802
 3915SOL    HW112644   5.693   5.254   1.709
 3915SOL    HW212645   5.827   5.280   1.799
 3916SOL     OW12646   1.350   0.114   3.322
 3916SOL    HW112647   1.358   0.211   3.346
 3916SOL    HW212648   1.278   0.102   3.254
 3917SOL     OW12649   2.039   6.937   0.031
 3917SOL    HW112650   1.980   7.012   0.001
 3917SOL    HW212651   2.096   6.907   6.978
 3918SOL     OW12652   5.172   4.618   2.027
 3918SOL    HW112653   5.147   4.541   1.969
 3918SOL    HW212654   5.206   4.693   1.971
 3919SOL     OW12655   3.306   6.890   0.437
 3919SOL    HW112656   3.250   6.948   0.496
 3919SOL    HW212657   3.353   6.948   0.369
 3920SOL     OW12658   2.186   2.235   6.877
 3920SOL    HW112659   2.282   2.239   6.848
 3920SOL    HW212660   2.149   2.328   6.882
 3921SOL     OW12661   1.174   3.612   1.856
 3921SOL    HW112662   1.250   3.659   1.812
 3921SOL    HW212663   1.104   3.679   1.882
 3922SOL     OW12664   1.172   4.547   1.175
 3922SOL    HW112665   1.192   4.618   1.107
 3922SOL    HW212666   1.132   4.590   1.256
 3923SOL     OW12667   0.309   0.453   7.020
 3923SOL    HW112668   0.406   0.443   7.000
 3923SOL    HW212669   0.280   0.377   0.056
 3924SOL     OW12670   6.673   4.322   4.384
 3924SOL    HW112671   6.707   4.325   4.478
 3924SOL    HW212672   6.610   4.398   4.368
 3925SOL     OW12673   1.934   5.387   2.187
 3925SOL    HW112674   2.021   5.417   2.227
 3925SOL    HW212675   1.861   5.447   2.219
 3926SOL     OW12676   4.681   4.323   2.386
 3926SOL    HW112677   4.628   4.355   2.465
 3926SOL    HW212678   4.620   4.306   2.309
 3927SOL     OW12679   0.431   3.281   6.169
 3927SOL    HW112680   0.529   3.264   6.162
 3927SOL    HW212681   0.384   3.234   6.095
 3928SOL     OW12682   5.542   5.424   6.648
 3928SOL    HW112683   5.573   5.506   6.697
 3928SOL    HW212684   5.592   5.416   6.562
 3929SOL     OW12685   0.898   1.479   5.248
 3929SOL    HW112686   0.831   1.446   5.314
 3929SOL    HW212687   0.852   1.534   5.178
 3930SOL     OW12688   2.206   1.497   3.585
 3930SOL    HW112689   2.227   1.453   3.498
 3930SOL    HW212690   2.291   1.532   3.625
 3931SOL     OW12691   5.771   2.130   1.001
 3931SOL    HW112692   5.802   2.181   1.081
 3931SOL    HW212693   5.839   2.138   0.928
 3932SOL     OW12694   0.960   2.276   4.561
 3932SOL    HW112695   0.922   2.324   4.482
 3932SOL    HW212696   0.967   2.178   4.541
 3933SOL     OW12697   1.235   6.730   6.359
 3933SOL    HW112698   1.206   6.680   6.278
 3933SOL    HW212699   1.296   6.673   6.414
 3934SOL     OW12700   5.786   0.620   6.087
 3934SOL    HW112701   5.866   0.618   6.027
 3934SOL    HW212702   5.714   0.675   6.045
 3935SOL     OW12703   4.893   0.721   1.022
 3935SOL    HW112704   4.795   0.714   1.040
 3935SOL    HW212705   4.931   0.629   1.011
 3936SOL     OW12706   6.673   5.400   3.718
 3936SOL    HW112707   6.598   5.446   3.671
 3936SOL    HW212708   6.697   5.452   3.801
 3937SOL     OW12709   0.697   1.186   2.823
 3937SOL    HW112710   0.707   1.182   2.723
 3937SOL    HW212711   0.731   1.274   2.856
 3938SOL     OW12712   0.146   1.348   2.868
 3938SOL    HW112713   0.157   1.352   2.768
 3938SOL    HW212714   0.235   1.352   2.912
 3939SOL     OW12715   2.931   1.829   2.151
 3939SOL    HW112716   2.902   1.901   2.087
 3939SOL    HW212717   2.874   1.748   2.138
 3940SOL     OW12718   3.508   3.786   1.143
 3940SOL    HW112719   3.584   3.762   1.204
 3940SOL    HW212720   3.446   3.707   1.135
 3941SOL     OW12721   4.053   4.201   6.074
 3941SOL    HW112722   3.960   4.166   6.086
 3941SOL    HW212723   4.050   4.301   6.066
 3942SOL     OW12724   6.570   6.545   6.493
 3942SOL    HW112725   6.608   6.454   6.473
 3942SOL    HW212726   6.643   6.606   6.522
 3943SOL     OW12727   0.745   3.793   4.658
 3943SOL    HW112728   0.696   3.758   4.739
 3943SOL    HW212729   0.803   3.721   4.621
 3944SOL     OW12730   5.106   2.517   4.752
 3944SOL    HW112731   5.026   2.569   4.725
 3944SOL    HW212732   5.099   2.493   4.849
 3945SOL     OW12733   6.780   1.260   1.378
 3945SOL    HW112734   6.725   1.196   1.324
 3945SOL    HW212735   6.833   1.319   1.316
 3946SOL     OW12736   4.405   4.691   3.242
 3946SOL    HW112737   4.477   4.751   3.205
 3946SOL    HW212738   4.345   4.661   3.168
 3947SOL     OW12739   5.461   5.805   0.281
 3947SOL    HW112740   5.531   5.876   0.289
 3947SOL    HW212741   5.450   5.760   0.370
 3948SOL     OW12742   5.778   4.860   1.344
 3948SOL    HW112743   5.713   4.784   1.335
 3948SOL    HW212744   5.822   4.857   1.433
 3949SOL     OW12745   4.543   6.080   3.528
 3949SOL    HW112746   4.532   6.180   3.534
 3949SOL    HW212747   4.598   6.058   3.448
 3950SOL     OW12748   1.903   5.614   1.142
 3950SOL    HW112749   1.959   5.623   1.060
 3950SOL    HW212750   1.868   5.520   1.148
 3951SOL     OW12751   5.595   0.315   1.670
 3951SOL    HW112752   5.531   0.387   1.641
 3951SOL    HW212753   5.584   0.298   1.768
 3952SOL     OW12754   6.762   3.012   0.795
 3952SOL    HW112755   6.764   3.023   0.895
 3952SOL    HW212756   6.848   2.972   0.765
 3953SOL     OW12757   3.819   4.062   2.073
 3953SOL    HW112758   3.844   4.086   2.166
 3953SOL    HW212759   3.758   3.983   2.074
 3954SOL     OW12760   4.004   4.655   5.773
 3954SOL    HW112761   4.000   4.749   5.807
 3954SOL    HW212762   3.946   4.646   5.693
 3955SOL     OW12763   3.368   0.599   5.370
 3955SOL    HW112764   3.269   0.604   5.361
 3955SOL    HW212765   3.404   0.534   5.303
 3956SOL     OW12766   1.188   0.901   2.144
 3956SOL    HW112767   1.241   0.820   2.171
 3956SOL    HW212768   1.225   0.982   2.189
 3957SOL     OW12769   3.621   0.254   4.510
 3957SOL    HW112770   3.529   0.217   4.500
 3957SOL    HW212771   3.687   0.179   4.510
 3958SOL     OW12772   6.246   1.702   5.062
 3958SOL    HW112773   6.263   1.800   5.052
 3958SOL    HW212774   6.333   1.654   5.069
 3959SOL     OW12775   4.795   5.223   0.484
 3959SOL    HW112776   4.821   5.319   0.472
 3959SOL    HW212777   4.791   5.179   0.395
 3960SOL     OW12778   5.454   2.055   4.963
 3960SOL    HW112779   5.536   2.051   4.906
 3960SOL    HW212780   5.453   2.141   5.014
 3961SOL     OW12781   5.680   6.609   3.366
 3961SOL    HW112782   5.675   6.638   3.462
 3961SOL    HW212783   5.644   6.516   3.358
 3962SOL     OW12784   0.006   5.410   5.450
 3962SOL    HW112785   6.968   5.475   5.497
 3962SOL    HW212786   6.978   5.326   5.430
 3963SOL     OW12787   4.968   6.593   1.888
 3963SOL    HW112788   4.912   6.615   1.808
 3963SOL    HW212789   4.913   6.540   1.953
 3964SOL     OW12790   4.983   3.757   3.302
 3964SOL    HW112791   5.083   3.761   3.305
 3964SOL    HW212792   4.945   3.821   3.368
 3965SOL     OW12793   5.134   3.694   4.209
 3965SOL    HW112794   5.231   3.703   4.186
 3965SOL    HW212795   5.104   3.600   4.192
 3966SOL     OW12796   2.732   5.773   6.672
 3966SOL    HW112797   2.796   5.837   6.714
 3966SOL    HW212798   2.721   5.794   6.575
 3967SOL     OW12799   2.321   4.893   2.771
 3967SOL    HW112800   2.334   4.967   2.837
 3967SOL    HW212801   2.409   4.861   2.739
 3968SOL     OW12802   4.514   0.751   0.958
 3968SOL    HW112803   4.492   0.818   0.888
 3968SOL    HW212804   4.508   0.793   1.048
 3969SOL     OW12805   2.020   6.045   2.009
 3969SOL    HW112806   1.942   6.075   1.954
 3969SOL    HW212807   2.029   5.946   2.003
 3970SOL     OW12808   5.328   6.504   2.366
 3970SOL    HW112809   5.385   6.423   2.348
 3970SOL    HW212810   5.263   6.515   2.291
 3971SOL     OW12811   2.870   5.574   4.129
 3971SOL    HW112812   2.772   5.571   4.112
 3971SOL    HW212813   2.902   5.668   4.126
 3972SOL     OW12814   2.234   4.232   0.001
 3972SOL    HW112815   2.275   4.159   0.057
 3972SOL    HW212816   2.305   4.298   6.998
 3973SOL     OW12817   1.163   5.766   0.694
 3973SOL    HW112818   1.123   5.800   0.609
 3973SOL    HW212819   1.132   5.673   0.711
 3974SOL     OW12820   2.464   0.440   6.099
 3974SOL    HW112821   2.501   0.520   6.145
 3974SOL    HW212822   2.537   0.375   6.081
 3975SOL     OW12823   5.186   2.266   6.451
 3975SOL    HW112824   5.166   2.251   6.355
 3975SOL    HW212825   5.113   2.320   6.493
 3976SOL     OW12826   1.931   5.710   2.314
 3976SOL    HW112827   2.016   5.681   2.270
 3976SOL    HW212828   1.853   5.670   2.268
 3977SOL     OW12829   0.650   3.687   6.566
 3977SOL    HW112830   0.700   3.600   6.571
 3977SOL    HW212831   0.580   3.681   6.495
 3978SOL     OW12832   6.663   4.436   3.997
 3978SOL    HW112833   6.706   4.463   3.911
 3978SOL    HW212834   6.729   4.446   4.072
 3979SOL     OW12835   3.426   0.271   6.192
 3979SOL    HW112836   3.524   0.289   6.186
 3979SOL    HW212837   3.393   0.236   6.104
 3980SOL     OW12838   5.820   6.243   6.294
 3980SOL    HW112839   5.853   6.221   6.386
 3980SOL    HW212840   5.892   6.288   6.242
 3981SOL     OW12841   4.808   6.796   0.621
 3981SOL    HW112842   4.871   6.739   0.673
 3981SOL    HW212843   4.799   6.885   0.666
 3982SOL     OW12844   2.785   0.001   2.552
 3982SOL    HW112845   2.728   0.082   2.539
 3982SOL    HW212846   2.804   7.011   2.650
 3983SOL     OW12847   4.316   5.920   3.633
 3983SOL    HW112848   4.237   5.976   3.608
 3983SOL    HW212849   4.400   5.974   3.623
 3984SOL     OW12850   6.274   2.089   2.817
 3984SOL    HW112851   6.260   2.107   2.719
 3984SOL    HW212852   6.355   2.138   2.848
 3985SOL     OW12853   3.230   5.581   6.003
 3985SOL    HW112854   3.151   5.563   6.061
 3985SOL    HW212855   3.200   5.604   5.911
 3986SOL     OW12856   5.197   1.143   2.108
 3986SOL    HW112857   5.272   1.172   2.167
 3986SOL    HW212858   5.159   1.223   2.060
 3987SOL     OW12859   3.162   5.017   5.353
 3987SOL    HW112860   3.100   4.949   5.391
 3987SOL    HW212861   3.125   5.052   5.267
 3988SOL     OW12862   4.797   5.559   0.156
 3988SOL    HW112863   4.737   5.637   0.141
 3988SOL    HW212864   4.753   5.495   0.219
 3989SOL     OW12865   6.771   2.129   6.799
 3989SOL    HW112866   6.722   2.132   6.886
 3989SOL    HW212867   6.844   2.197   6.799
 3990SOL     OW12868   5.170   2.562   1.862
 3990SOL    HW112869   5.083   2.590   1.900
 3990SOL    HW212870   5.233   2.640   1.861
 3991SOL     OW12871   0.282   0.505   3.174
 3991SOL    HW112872   0.328   0.466   3.254
 3991SOL    HW212873   0.349   0.524   3.102
 3992SOL     OW12874   3.060   2.850   1.531
 3992SOL    HW112875   2.994   2.802   1.474
 3992SOL    HW212876   3.066   2.805   1.620
 3993SOL     OW12877   1.355   3.386   1.968
 3993SOL    HW112878   1.295   3.306   1.969
 3993SOL    HW212879   1.304   3.466   1.937
 3994SOL     OW12880   2.887   6.990   5.380
 3994SOL    HW112881   2.906   6.954   5.289
 3994SOL    HW212882   2.874   0.066   5.375
 3995SOL     OW12883   1.309   2.632   4.961
 3995SOL    HW112884   1.335   2.626   4.865
 3995SOL    HW212885   1.257   2.551   4.987
 3996SOL     OW12886   0.444   6.644   4.980
 3996SOL    HW112887   0.439   6.544   4.985
 3996SOL    HW212888   0.490   6.679   5.062
 3997SOL     OW12889   5.568   0.630   4.620
 3997SOL    HW112890   5.644   0.576   4.583
 3997SOL    HW212891   5.604   0.697   4.685
 3998SOL     OW12892   4.239   2.194   3.688
 3998SOL    HW112893   4.282   2.230   3.771
 3998SOL    HW212894   4.171   2.125   3.713
 3999SOL     OW12895   6.039   2.183   4.929
 3999SOL    HW112896   6.100   2.202   4.853
 3999SOL    HW212897   5.969   2.118   4.901
 4000SOL     OW12898   4.070   0.172   3.452
 4000SOL    HW112899   4.116   0.160   3.540
 4000SOL    HW212900   4.120   0.238   3.397
 4001SOL     OW12901   1.120   2.673   3.020
 4001SOL    HW112902   1.156   2.585   3.049
 4001SOL    HW212903   1.027   2.662   2.985
 4002SOL     OW12904   1.919   3.434   2.033
 4002SOL    HW112905   1.890   3.339   2.018
 4002SOL    HW212906   2.018   3.441   2.023
 4003SOL     OW12907   3.520   0.683   4.521
 4003SOL    HW112908   3.580   0.699   4.443
 4003SOL    HW212909   3.439   0.634   4.490
 4004SOL     OW12910   6.638   1.859   5.188
 4004SOL    HW112911   6.676   1.767   5.191
 4004SOL    HW212912   6.550   1.861   5.236
 4005SOL     OW12913   5.602   4.926   5.923
 4005SOL    HW112914   5.680   4.981   5.893
 4005SOL    HW212915   5.518   4.980   5.914
 4006SOL     OW12916   3.658   5.784   2.047
 4006SOL    HW112917   3.662   5.785   2.147
 4006SOL    HW212918   3.689   5.695   2.013
 4007SOL     OW12919   6.804   2.310   6.425
 4007SOL    HW112920   6.772   2.215   6.435
 4007SOL    HW212921   6.726   2.369   6.408
 4008SOL     OW12922   2.509   2.416   5.397
 4008SOL    HW112923   2.495   2.504   5.441
 4008SOL    HW212924   2.597   2.378   5.423
 4009SOL     OW12925   4.037   3.606   2.508
 4009SOL    HW112926   4.091   3.538   2.558
 4009SOL    HW212927   3.940   3.585   2.516
 4010SOL     OW12928   1.954   3.079   7.001
 4010SOL    HW112929   1.907   3.142   0.040
 4010SOL    HW212930   2.047   3.063   0.011
 4011SOL     OW12931   0.986   2.198   1.125
 4011SOL    HW112932   0.958   2.272   1.185
 4011SOL    HW212933   0.907   2.163   1.075
 4012SOL     OW12934   6.405   3.683   3.694
 4012SOL    HW112935   6.417   3.760   3.757
 4012SOL    HW212936   6.495   3.648   3.668
 4013SOL     OW12937   4.798   2.753   3.493
 4013SOL    HW112938   4.729   2.704   3.547
 4013SOL    HW212939   4.771   2.752   3.397
 4014SOL     OW12940   5.443   5.842   2.727
 4014SOL    HW112941   5.357   5.803   2.693
 4014SOL    HW212942   5.425   5.896   2.809
 4015SOL     OW12943   4.993   3.860   6.270
 4015SOL    HW112944   4.906   3.878   6.225
 4015SOL    HW212945   5.068   3.894   6.214
 4016SOL     OW12946   3.109   6.730   5.339
 4016SOL    HW112947   3.067   6.743   5.429
 4016SOL    HW212948   3.083   6.806   5.279
 4017SOL     OW12949   6.426   6.100   6.894
 4017SOL    HW112950   6.414   6.060   6.803
 4017SOL    HW212951   6.360   6.174   6.906
 4018SOL     OW12952   2.796   5.638   0.837
 4018SOL    HW112953   2.814   5.666   0.931
 4018SOL    HW212954   2.773   5.540   0.835
 4019SOL     OW12955   5.486   5.069   3.703
 4019SOL    HW112956   5.418   5.108   3.641
 4019SOL    HW212957   5.486   5.121   3.789
 4020SOL     OW12958   5.239   1.836   5.269
 4020SOL    HW112959   5.325   1.786   5.277
 4020SOL    HW212960   5.258   1.931   5.246
 4021SOL     OW12961   3.615   4.236   6.255
 4021SOL    HW112962   3.523   4.224   6.218
 4021SOL    HW212963   3.612   4.232   6.355
 4022SOL     OW12964   5.286   0.204   1.389
 4022SOL    HW112965   5.240   0.156   1.315
 4022SOL    HW212966   5.376   0.163   1.405
 4023SOL     OW12967   6.612   0.485   6.011
 4023SOL    HW112968   6.709   0.462   6.007
 4023SOL    HW212969   6.558   0.405   5.984
 4024SOL     OW12970   3.525   4.957   4.334
 4024SOL    HW112971   3.429   4.977   4.353
 4024SOL    HW212972   3.574   4.945   4.421
 4025SOL     OW12973   1.749   4.572   2.495
 4025SOL    HW112974   1.747   4.539   2.400
 4025SOL    HW212975   1.735   4.496   2.557
 4026SOL     OW12976   5.285   6.528   4.099
 4026SOL    HW112977   5.344   6.476   4.161
 4026SOL    HW212978   5.289   6.489   4.007
 4027SOL     OW12979   4.468   5.275   1.446
 4027SOL    HW112980   4.447   5.364   1.487
 4027SOL    HW212981   4.546   5.234   1.493
 4028SOL     OW12982   2.764   6.849   3.601
 4028SOL    HW112983   2.685   6.909   3.584
 4028SOL    HW212984   2.810   6.879   3.684
 4029SOL     OW12985   2.204   4.085   4.409
 4029SOL    HW112986   2.143   4.023   4.359
 4029SOL    HW212987   2.232   4.042   4.495
 4030SOL     OW12988   1.064   1.518   6.193
 4030SOL    HW112989   1.017   1.537   6.279
 4030SOL    HW212990   1.039   1.587   6.125
 4031SOL     OW12991   4.577   5.546   4.765
 4031SOL    HW112992   4.597   5.449   4.761
 4031SOL    HW212993   4.643   5.596   4.708
 4032SOL     OW12994   4.957   6.846   4.766
 4032SOL    HW112995   5.020   6.922   4.752
 4032SOL    HW212996   4.865   6.881   4.786
 4033SOL     OW12997   3.172   3.799   5.303
 4033SOL    HW112998   3.238   3.726   5.285
 4033SOL    HW212999   3.082   3.759   5.322
 4034SOL     OW13000   6.474   2.186   3.846
 4034SOL    HW113001   6.469   2.183   3.746
 4034SOL    HW213002   6.509   2.098   3.879
 4035SOL     OW13003   0.358   5.487   0.576
 4035SOL    HW113004   0.444   5.527   0.544
 4035SOL    HW213005   0.367   5.461   0.672
 4036SOL     OW13006   6.636   6.481   3.285
 4036SOL    HW113007   6.546   6.465   3.326
 4036SOL    HW213008   6.624   6.519   3.193
 4037SOL     OW13009   6.738   4.174   6.151
 4037SOL    HW113010   6.688   4.179   6.238
 4037SOL    HW213011   6.836   4.180   6.169
 4038SOL     OW13012   6.526   4.706   4.058
 4038SOL    HW113013   6.581   4.790   4.054
 4038SOL    HW213014   6.580   4.630   4.021
 4039SOL     OW13015   4.610   5.923   0.950
 4039SOL    HW113016   4.682   5.854   0.958
 4039SOL    HW213017   4.521   5.881   0.969
 4040SOL     OW13018   3.858   6.016   1.162
 4040SOL    HW113019   3.809   5.965   1.233
 4040SOL    HW213020   3.846   6.114   1.178
 4041SOL     OW13021   1.359   0.046   3.587
 4041SOL    HW113022   1.379   0.138   3.620
 4041SOL    HW213023   1.391   0.037   3.493
 4042SOL     OW13024   6.193   4.967   2.414
 4042SOL    HW113025   6.209   5.065   2.425
 4042SOL    HW213026   6.281   4.920   2.405
 4043SOL     OW13027   6.397   3.444   1.811
 4043SOL    HW113028   6.404   3.396   1.724
 4043SOL    HW213029   6.448   3.530   1.806
 4044SOL     OW13030   6.805   6.252   3.752
 4044SOL    HW113031   6.777   6.285   3.662
 4044SOL    HW213032   6.725   6.250   3.813
 4045SOL     OW13033   1.973   4.992   5.680
 4045SOL    HW113034   1.907   5.061   5.710
 4045SOL    HW213035   2.040   4.977   5.752
 4046SOL     OW13036   0.932   2.876   0.906
 4046SOL    HW113037   0.983   2.923   0.979
 4046SOL    HW213038   0.890   2.793   0.944
 4047SOL     OW13039   2.987   4.091   1.437
 4047SOL    HW113040   3.063   4.116   1.497
 4047SOL    HW213041   3.005   4.001   1.396
 4048SOL     OW13042   4.814   1.790   0.947
 4048SOL    HW113043   4.904   1.794   0.904
 4048SOL    HW213044   4.806   1.865   1.013
 4049SOL     OW13045   6.889   0.965   5.886
 4049SOL    HW113046   6.985   0.980   5.907
 4049SOL    HW213047   6.872   0.988   5.791
 4050SOL     OW13048   2.141   0.583   1.555
 4050SOL    HW113049   2.180   0.498   1.591
 4050SOL    HW213050   2.212   0.653   1.549
 4051SOL     OW13051   1.656   4.351   0.887
 4051SOL    HW113052   1.709   4.436   0.892
 4051SOL    HW213053   1.718   4.273   0.890
 4052SOL     OW13054   1.478   6.274   1.620
 4052SOL    HW113055   1.494   6.177   1.600
 4052SOL    HW213056   1.471   6.325   1.534
 4053SOL     OW13057   2.812   4.825   3.169
 4053SOL    HW113058   2.817   4.887   3.247
 4053SOL    HW213059   2.897   4.829   3.117
 4054SOL     OW13060   4.931   1.714   6.991
 4054SOL    HW113061   4.898   1.697   0.061
 4054SOL    HW213062   4.965   1.807   6.984
 4055SOL     OW13063   4.171   2.594   0.396
 4055SOL    HW113064   4.235   2.522   0.368
 4055SOL    HW213065   4.194   2.678   0.347
 4056SOL     OW13066   3.938   3.120   1.062
 4056SOL    HW113067   3.906   3.203   1.016
 4056SOL    HW213068   3.862   3.077   1.111
 4057SOL     OW13069   6.565   2.431   6.942
 4057SOL    HW113070   6.480   2.422   6.993
 4057SOL    HW213071   6.639   2.387   6.993
 4058SOL     OW13072   1.660   0.814   5.075
 4058SOL    HW113073   1.653   0.729   5.023
 4058SOL    HW213074   1.667   0.892   5.012
 4059SOL     OW13075   6.282   1.328   5.034
 4059SOL    HW113076   6.308   1.274   4.953
 4059SOL    HW213077   6.190   1.364   5.021
 4060SOL     OW13078   3.677   6.345   4.527
 4060SOL    HW113079   3.753   6.404   4.502
 4060SOL    HW213080   3.690   6.311   4.620
 4061SOL     OW13081   2.628   3.040   1.677
 4061SOL    HW113082   2.653   2.945   1.693
 4061SOL    HW213083   2.657   3.068   1.585
 4062SOL     OW13084   3.664   6.452   3.084
 4062SOL    HW113085   3.568   6.476   3.069
 4062SOL    HW213086   3.720   6.491   3.011
 4063SOL     OW13087   2.413   5.525   5.864
 4063SOL    HW113088   2.470   5.598   5.899
 4063SOL    HW213089   2.317   5.553   5.867
 4064SOL     OW13090   6.026   0.273   4.474
 4064SOL    HW113091   6.109   0.327   4.486
 4064SOL    HW213092   5.974   0.307   4.395
 4065SOL     OW13093   6.047   4.980   0.113
 4065SOL    HW113094   6.026   5.075   0.135
 4065SOL    HW213095   6.147   4.968   0.108
 4066SOL     OW13096   6.334   4.702   2.049
 4066SOL    HW113097   6.372   4.658   2.130
 4066SOL    HW213098   6.254   4.757   2.076
 4067SOL     OW13099   6.200   0.864   1.714
 4067SOL    HW113100   6.158   0.955   1.713
 4067SOL    HW213101   6.292   0.870   1.676
 4068SOL     OW13102   5.777   1.143   4.611
 4068SOL    HW113103   5.762   1.157   4.513
 4068SOL    HW213104   5.695   1.171   4.661
 4069SOL     OW13105   6.805   5.863   1.229
 4069SOL    HW113106   6.875   5.876   1.300
 4069SOL    HW213107   6.846   5.823   1.148
 4070SOL     OW13108   0.524   3.822   2.758
 4070SOL    HW113109   0.502   3.909   2.713
 4070SOL    HW213110   0.486   3.823   2.851
 4071SOL     OW13111   2.528   0.516   3.424
 4071SOL    HW113112   2.528   0.616   3.426
 4071SOL    HW213113   2.598   0.481   3.486
 4072SOL     OW13114   0.798   0.400   4.183
 4072SOL    HW113115   0.849   0.314   4.187
 4072SOL    HW213116   0.742   0.401   4.100
 4073SOL     OW13117   3.077   5.202   1.431
 4073SOL    HW113118   3.107   5.282   1.482
 4073SOL    HW213119   3.118   5.120   1.471
 4074SOL     OW13120   0.858   2.733   0.605
 4074SOL    HW113121   0.783   2.667   0.608
 4074SOL    HW213122   0.945   2.684   0.608
 4075SOL     OW13123   5.093   0.914   3.775
 4075SOL    HW113124   5.176   0.867   3.803
 4075SOL    HW213125   5.095   1.009   3.805
 4076SOL     OW13126   1.228   2.490   3.372
 4076SOL    HW113127   1.228   2.524   3.466
 4076SOL    HW213128   1.203   2.393   3.371
 4077SOL     OW13129   2.971   1.403   1.058
 4077SOL    HW113130   3.029   1.437   0.984
 4077SOL    HW213131   2.935   1.479   1.111
 4078SOL     OW13132   5.347   4.126   2.440
 4078SOL    HW113133   5.341   4.033   2.475
 4078SOL    HW213134   5.291   4.187   2.497
 4079SOL     OW13135   6.417   0.800   4.339
 4079SOL    HW113136   6.399   0.883   4.287
 4079SOL    HW213137   6.401   0.818   4.436
 4080SOL     OW13138   3.594   2.862   2.510
 4080SOL    HW113139   3.608   2.822   2.419
 4080SOL    HW213140   3.496   2.863   2.530
 4081SOL     OW13141   2.550   2.518   6.283
 4081SOL    HW113142   2.584   2.526   6.190
 4081SOL    HW213143   2.459   2.558   6.290
 4082SOL     OW13144   1.584   2.276   5.594
 4082SOL    HW113145   1.607   2.262   5.691
 4082SOL    HW213146   1.668   2.274   5.539
 4083SOL     OW13147   6.040   5.593   2.916
 4083SOL    HW113148   6.056   5.498   2.891
 4083SOL    HW213149   6.091   5.615   2.999
 4084SOL     OW13150   4.582   0.328   2.837
 4084SOL    HW113151   4.544   0.354   2.926
 4084SOL    HW213152   4.568   0.403   2.772
 4085SOL     OW13153   3.078   5.085   2.316
 4085SOL    HW113154   3.066   5.111   2.220
 4085SOL    HW213155   3.104   5.164   2.370
 4086SOL     OW13156   6.262   4.792   4.959
 4086SOL    HW113157   6.173   4.834   4.979
 4086SOL    HW213158   6.320   4.796   5.040
 4087SOL     OW13159   1.816   0.330   2.160
 4087SOL    HW113160   1.903   0.324   2.112
 4087SOL    HW213161   1.794   0.426   2.178
 4088SOL     OW13162   0.271   2.107   5.516
 4088SOL    HW113163   0.322   2.041   5.572
 4088SOL    HW213164   0.325   2.190   5.506
 4089SOL     OW13165   1.016   0.933   2.680
 4089SOL    HW113166   1.012   0.834   2.690
 4089SOL    HW213167   1.094   0.969   2.731
 4090SOL     OW13168   2.704   2.358   5.710
 4090SOL    HW113169   2.701   2.289   5.637
 4090SOL    HW213170   2.720   2.313   5.798
 4091SOL     OW13171   3.454   5.619   1.842
 4091SOL    HW113172   3.542   5.575   1.862
 4091SOL    HW213173   3.412   5.575   1.763
 4092SOL     OW13174   4.579   2.570   5.898
 4092SOL    HW113175   4.541   2.567   5.805
 4092SOL    HW213176   4.594   2.477   5.930
 4093SOL     OW13177   5.475   4.513   3.521
 4093SOL    HW113178   5.395   4.474   3.475
 4093SOL    HW213179   5.453   4.534   3.616
 4094SOL     OW13180   0.388   5.956   6.927
 4094SOL    HW113181   0.440   6.029   6.972
 4094SOL    HW213182   0.410   5.868   6.969
 4095SOL     OW13183   1.043   5.222   0.743
 4095SOL    HW113184   0.968   5.248   0.682
 4095SOL    HW213185   1.007   5.200   0.834
 4096SOL     OW13186   0.836   0.410   6.651
 4096SOL    HW113187   0.910   0.476   6.662
 4096SOL    HW213188   0.778   0.437   6.574
 4097SOL     OW13189   6.606   3.944   4.940
 4097SOL    HW113190   6.583   3.932   4.843
 4097SOL    HW213191   6.621   3.855   4.982
 4098SOL     OW13192   0.910   5.307   2.046
 4098SOL    HW113193   0.902   5.329   2.144
 4098SOL    HW213194   0.910   5.391   1.993
 4099SOL     OW13195   5.755   4.144   5.529
 4099SOL    HW113196   5.667   4.155   5.482
 4099SOL    HW213197   5.808   4.228   5.519
 4100SOL     OW13198   1.960   1.882   3.015
 4100SOL    HW113199   1.904   1.847   3.090
 4100SOL    HW213200   2.003   1.968   3.043
 4101SOL     OW13201   6.492   5.700   0.110
 4101SOL    HW113202   6.538   5.657   0.187
 4101SOL    HW213203   6.559   5.727   0.041
 4102SOL     OW13204   1.360   6.032   0.675
 4102SOL    HW113205   1.351   5.935   0.655
 4102SOL    HW213206   1.405   6.078   0.599
 4103SOL     OW13207   1.975   6.805   3.145
 4103SOL    HW113208   2.042   6.807   3.071
 4103SOL    HW213209   2.021   6.814   3.233
 4104SOL     OW13210   2.003   5.944   5.087
 4104SOL    HW113211   2.012   5.907   5.180
 4104SOL    HW213212   2.089   5.986   5.059
 4105SOL     OW13213   3.911   0.612   2.623
 4105SOL    HW113214   3.819   0.642   2.646
 4105SOL    HW213215   3.929   0.524   2.668
 4106SOL     OW13216   1.215   0.682   2.779
 4106SOL    HW113217   1.230   0.600   2.834
 4106SOL    HW213218   1.131   0.671   2.725
 4107SOL     OW13219   1.648   0.909   1.195
 4107SOL    HW113220   1.696   0.823   1.174
 4107SOL    HW213221   1.577   0.891   1.263
 4108SOL     OW13222   6.399   6.035   5.704
 4108SOL    HW113223   6.398   6.060   5.607
 4108SOL    HW213224   6.493   6.021   5.735
 4109SOL     OW13225   5.348   6.047   3.952
 4109SOL    HW113226   5.289   6.035   3.873
 4109SOL    HW213227   5.381   6.142   3.954
 4110SOL     OW13228   5.153   2.775   0.510
 4110SOL    HW113229   5.079   2.720   0.472
 4110SOL    HW213230   5.233   2.768   0.450
 4111SOL     OW13231   5.786   4.634   4.367
 4111SOL    HW113232   5.750   4.727   4.382
 4111SOL    HW213233   5.791   4.586   4.455
 4112SOL     OW13234   4.046   6.072   4.323
 4112SOL    HW113235   4.131   6.067   4.376
 4112SOL    HW213236   3.983   6.002   4.356
 4113SOL     OW13237   4.341   5.091   4.757
 4113SOL    HW113238   4.351   5.170   4.696
 4113SOL    HW213239   4.425   5.037   4.756
 4114SOL     OW13240   0.059   0.997   1.439
 4114SOL    HW113241   7.008   1.052   1.477
 4114SOL    HW213242   0.025   0.946   1.360
 4115SOL     OW13243   4.632   5.908   3.706
 4115SOL    HW113244   4.600   5.977   3.641
 4115SOL    HW213245   4.572   5.905   3.785
 4116SOL     OW13246   4.979   3.352   2.899
 4116SOL    HW113247   5.069   3.313   2.878
 4116SOL    HW213248   4.940   3.392   2.816
 4117SOL     OW13249   1.297   1.254   3.940
 4117SOL    HW113250   1.266   1.237   3.846
 4117SOL    HW213251   1.265   1.344   3.970
 4118SOL     OW13252   0.890   6.765   0.480
 4118SOL    HW113253   0.925   6.779   0.572
 4118SOL    HW213254   0.825   6.689   0.480
 4119SOL     OW13255   0.708   0.556   4.382
 4119SOL    HW113256   0.658   0.506   4.453
 4119SOL    HW213257   0.736   0.493   4.309
 4120SOL     OW13258   2.482   1.487   6.377
 4120SOL    HW113259   2.575   1.522   6.384
 4120SOL    HW213260   2.444   1.476   6.469
 4121SOL     OW13261   6.803   0.140   2.376
 4121SOL    HW113262   6.803   0.192   2.461
 4121SOL    HW213263   6.710   0.108   2.357
 4122SOL     OW13264   0.651   4.717   2.917
 4122SOL    HW113265   0.733   4.759   2.878
 4122SOL    HW213266   0.665   4.701   3.015
 4123SOL     OW13267   5.158   4.708   1.164
 4123SOL    HW113268   5.154   4.623   1.111
 4123SOL    HW213269   5.074   4.760   1.151
 4124SOL     OW13270   6.617   6.131   0.067
 4124SOL    HW113271   6.622   6.060   0.137
 4124SOL    HW213272   6.548   6.106   7.022
 4125SOL     OW13273   6.425   2.686   0.214
 4125SOL    HW113274   6.351   2.649   0.157
 4125SOL    HW213275   6.512   2.678   0.165
 4126SOL     OW13276   0.714   3.488   3.779
 4126SOL    HW113277   0.759   3.426   3.843
 4126SOL    HW213278   0.710   3.445   3.689
 4127SOL     OW13279   4.595   2.504   3.927
 4127SOL    HW113280   4.619   2.409   3.946
 4127SOL    HW213281   4.541   2.541   4.002
 4128SOL     OW13282   6.799   2.893   6.497
 4128SOL    HW113283   6.731   2.967   6.505
 4128SOL    HW213284   6.792   2.833   6.576
 4129SOL     OW13285   3.160   1.829   1.263
 4129SOL    HW113286   3.202   1.896   1.325
 4129SOL    HW213287   3.155   1.740   1.309
 4130SOL     OW13288   6.020   3.113   0.395
 4130SOL    HW113289   5.958   3.170   0.449
 4130SOL    HW213290   6.036   3.027   0.443
 4131SOL     OW13291   5.420   0.178   3.175
 4131SOL    HW113292   5.444   0.156   3.080
 4131SOL    HW213293   5.399   0.093   3.224
 4132SOL     OW13294   6.698   5.133   3.326
 4132SOL    HW113295   6.786   5.180   3.323
 4132SOL    HW213296   6.687   5.089   3.415
 4133SOL     OW13297   5.814   6.554   2.782
 4133SOL    HW113298   5.731   6.608   2.777
 4133SOL    HW213299   5.862   6.573   2.868
 4134SOL     OW13300   1.577   3.496   1.138
 4134SOL    HW113301   1.570   3.426   1.209
 4134SOL    HW213302   1.622   3.458   1.057
 4135SOL     OW13303   6.300   1.267   1.348
 4135SOL    HW113304   6.294   1.167   1.345
 4135SOL    HW213305   6.338   1.300   1.262
 4136SOL     OW13306   0.653   4.832   1.024
 4136SOL    HW113307   0.734   4.833   1.082
 4136SOL    HW213308   0.574   4.865   1.076
 4137SOL     OW13309   0.973   2.552   6.384
 4137SOL    HW113310   0.877   2.577   6.367
 4137SOL    HW213311   1.032   2.621   6.342
 4138SOL     OW13312   4.169   0.204   6.648
 4138SOL    HW113313   4.144   0.203   6.744
 4138SOL    HW213314   4.255   0.254   6.636
 4139SOL     OW13315   2.184   3.927   2.912
 4139SOL    HW113316   2.197   3.832   2.885
 4139SOL    HW213317   2.185   3.986   2.831
 4140SOL     OW13318   2.669   0.418   6.672
 4140SOL    HW113319   2.621   0.440   6.587
 4140SOL    HW213320   2.756   0.467   6.676
 4141SOL     OW13321   5.425   1.031   6.284
 4141SOL    HW113322   5.509   1.076   6.254
 4141SOL    HW213323   5.448   0.949   6.336
 4142SOL     OW13324   6.611   4.951   2.537
 4142SOL    HW113325   6.587   4.932   2.632
 4142SOL    HW213326   6.547   4.904   2.476
 4143SOL     OW13327   6.299   3.867   6.449
 4143SOL    HW113328   6.275   3.910   6.361
 4143SOL    HW213329   6.335   3.775   6.432
 4144SOL     OW13330   4.759   1.642   1.418
 4144SOL    HW113331   4.714   1.727   1.447
 4144SOL    HW213332   4.833   1.664   1.354
 4145SOL     OW13333   6.881   0.337   1.677
 4145SOL    HW113334   6.869   0.272   1.751
 4145SOL    HW213335   6.913   0.424   1.713
 4146SOL     OW13336   5.186   6.706   1.451
 4146SOL    HW113337   5.163   6.802   1.434
 4146SOL    HW213338   5.244   6.699   1.532
 4147SOL     OW13339   4.634   4.823   6.635
 4147SOL    HW113340   4.565   4.870   6.579
 4147SOL    HW213341   4.623   4.851   6.730
 4148SOL     OW13342   3.097   1.277   5.179
 4148SOL    HW113343   3.023   1.255   5.115
 4148SOL    HW213344   3.058   1.303   5.267
 4149SOL     OW13345   1.515   3.843   6.387
 4149SOL    HW113346   1.454   3.893   6.326
 4149SOL    HW213347   1.460   3.790   6.452
 4150SOL     OW13348   5.534   1.431   0.169
 4150SOL    HW113349   5.527   1.372   0.088
 4150SOL    HW213350   5.449   1.483   0.179
 4151SOL     OW13351   2.574   5.731   4.622
 4151SOL    HW113352   2.549   5.676   4.542
 4151SOL    HW213353   2.529   5.820   4.618
 4152SOL     OW13354   2.268   4.408   1.440
 4152SOL    HW113355   2.170   4.428   1.448
 4152SOL    HW213356   2.280   4.309   1.427
 4153SOL     OW13357   6.537   5.978   2.015
 4153SOL    HW113358   6.595   5.953   2.093
 4153SOL    HW213359   6.587   5.963   1.930
 4154SOL     OW13360   0.934   6.560   4.195
 4154SOL    HW113361   0.989   6.577   4.277
 4154SOL    HW213362   0.915   6.647   4.149
 4155SOL     OW13363   0.283   0.644   1.788
 4155SOL    HW113364   0.301   0.558   1.835
 4155SOL    HW213365   0.275   0.718   1.855
 4156SOL     OW13366   0.202   5.070   5.902
 4156SOL    HW113367   0.176   4.979   5.935
 4156SOL    HW213368   0.132   5.104   5.839
 4157SOL     OW13369   5.517   5.477   1.363
 4157SOL    HW113370   5.580   5.424   1.420
 4157SOL    HW213371   5.471   5.546   1.419
 4158SOL     OW13372   1.045   3.041   1.106
 4158SOL    HW113373   1.052   3.134   1.069
 4158SOL    HW213374   1.029   3.046   1.205
 4159SOL     OW13375   2.678   0.691   4.548
 4159SOL    HW113376   2.662   0.729   4.457
 4159SOL    HW213377   2.671   0.764   4.616
 4160SOL     OW13378   0.665   6.880   6.295
 4160SOL    HW113379   0.693   6.864   6.200
 4160SOL    HW213380   0.710   6.962   6.329
 4161SOL     OW13381   3.442   3.413   2.948
 4161SOL    HW113382   3.491   3.333   2.912
 4161SOL    HW213383   3.358   3.383   2.992
 4162SOL     OW13384   5.192   5.386   1.609
 4162SOL    HW113385   5.223   5.377   1.704
 4162SOL    HW213386   5.264   5.352   1.548
 4163SOL     OW13387   4.005   6.083   2.093
 4163SOL    HW113388   3.936   6.057   2.025
 4163SOL    HW213389   4.071   6.145   2.050
 4164SOL     OW13390   6.991   1.266   5.984
 4164SOL    HW113391   6.895   1.276   5.961
 4164SOL    HW213392   7.002   1.197   6.055
 4165SOL     OW13393   3.805   0.798   4.434
 4165SOL    HW113394   3.877   0.866   4.422
 4165SOL    HW213395   3.802   0.769   4.530
 4166SOL     OW13396   5.621   2.373   1.157
 4166SOL    HW113397   5.584   2.464   1.136
 4166SOL    HW213398   5.721   2.378   1.160
 4167SOL     OW13399   3.838   5.210   4.687
 4167SOL    HW113400   3.919   5.154   4.674
 4167SOL    HW213401   3.807   5.203   4.782
 4168SOL     OW13402   5.073   4.049   0.363
 4168SOL    HW113403   5.130   4.013   0.436
 4168SOL    HW213404   5.002   3.982   0.340
 4169SOL     OW13405   5.371   3.115   6.054
 4169SOL    HW113406   5.351   3.206   6.091
 4169SOL    HW213407   5.289   3.059   6.056
 4170SOL     OW13408   0.588   2.147   4.773
 4170SOL    HW113409   0.589   2.244   4.795
 4170SOL    HW213410   0.675   2.121   4.730
 4171SOL     OW13411   0.918   1.834   6.812
 4171SOL    HW113412   0.952   1.888   6.889
 4171SOL    HW213413   0.819   1.843   6.805
 4172SOL     OW13414   2.690   3.229   0.776
 4172SOL    HW113415   2.731   3.285   0.848
 4172SOL    HW213416   2.596   3.259   0.759
 4173SOL     OW13417   4.980   1.874   6.457
 4173SOL    HW113418   4.942   1.951   6.509
 4173SOL    HW213419   4.943   1.788   6.492
 4174SOL     OW13420   4.186   6.898   4.861
 4174SOL    HW113421   4.248   6.822   4.844
 4174SOL    HW213422   4.182   6.956   4.779
 4175SOL     OW13423   1.063   4.260   6.512
 4175SOL    HW113424   1.123   4.296   6.441
 4175SOL    HW213425   1.029   4.335   6.569
 4176SOL     OW13426   5.495   6.441   6.544
 4176SOL    HW113427   5.409   6.492   6.543
 4176SOL    HW213428   5.571   6.504   6.565
 4177SOL     OW13429   4.266   4.668   2.708
 4177SOL    HW113430   4.337   4.641   2.643
 4177SOL    HW213431   4.177   4.666   2.662
 4178SOL     OW13432   4.279   6.094   1.141
 4178SOL    HW113433   4.369   6.138   1.150
 4178SOL    HW213434   4.207   6.162   1.156
 4179SOL     OW13435   4.562   2.948   6.834
 4179SOL    HW113436   4.565   2.849   6.819
 4179SOL    HW213437   4.574   2.967   6.931
 4180SOL     OW13438   4.149   3.548   0.609
 4180SOL    HW113439   4.160   3.633   0.660
 4180SOL    HW213440   4.239   3.516   0.578
 4181SOL     OW13441   5.037   6.873   5.736
 4181SOL    HW113442   5.077   6.826   5.657
 4181SOL    HW213443   5.027   6.970   5.715
 4182SOL     OW13444   0.783   6.310   4.773
 4182SOL    HW113445   0.862   6.298   4.833
 4182SOL    HW213446   0.712   6.243   4.797
 4183SOL     OW13447   4.409   1.926   0.824
 4183SOL    HW113448   4.413   1.956   0.919
 4183SOL    HW213449   4.375   1.832   0.820
 4184SOL     OW13450   3.854   5.500   3.949
 4184SOL    HW113451   3.798   5.420   3.966
 4184SOL    HW213452   3.931   5.475   3.890
 4185SOL     OW13453   4.891   3.437   3.605
 4185SOL    HW113454   4.959   3.370   3.575
 4185SOL    HW213455   4.854   3.485   3.525
 4186SOL     OW13456   1.856   5.829   0.324
 4186SOL    HW113457   1.819   5.910   0.280
 4186SOL    HW213458   1.796   5.801   0.399
 4187SOL     OW13459   1.572   3.314   6.654
 4187SOL    HW113460   1.613   3.393   6.699
 4187SOL    HW213461   1.645   3.255   6.618
 4188SOL     OW13462   4.540   0.097   0.013
 4188SOL    HW113463   4.617   0.113   0.074
 4188SOL    HW213464   4.541   0.164   6.962
 4189SOL     OW13465   4.543   5.322   3.457
 4189SOL    HW113466   4.477   5.347   3.528
 4189SOL    HW213467   4.495   5.287   3.377
 4190SOL     OW13468   6.472   6.178   1.042
 4190SOL    HW113469   6.498   6.086   1.071
 4190SOL    HW213470   6.505   6.244   1.109
 4191SOL     OW13471   4.760   3.393   6.461
 4191SOL    HW113472   4.721   3.414   6.372
 4191SOL    HW213473   4.711   3.315   6.501
 4192SOL     OW13474   1.411   3.367   0.022
 4192SOL    HW113475   1.489   3.324   6.999
 4192SOL    HW213476   1.390   3.317   0.106
 4193SOL     OW13477   0.535   0.124   0.511
 4193SOL    HW113478   0.587   0.093   0.431
 4193SOL    HW213479   0.484   0.047   0.549
 4194SOL     OW13480   5.519   1.769   5.772
 4194SOL    HW113481   5.497   1.760   5.869
 4194SOL    HW213482   5.583   1.697   5.745
 4195SOL     OW13483   3.927   0.401   0.860
 4195SOL    HW113484   3.829   0.384   0.859
 4195SOL    HW213485   3.962   0.401   0.766
 4196SOL     OW13486   6.023   2.672   2.411
 4196SOL    HW113487   6.014   2.688   2.510
 4196SOL    HW213488   6.046   2.576   2.395
 4197SOL     OW13489   3.787   0.792   6.748
 4197SOL    HW113490   3.783   0.866   6.681
 4197SOL    HW213491   3.695   0.771   6.780
 4198SOL     OW13492   6.377   2.460   2.310
 4198SOL    HW113493   6.321   2.447   2.227
 4198SOL    HW213494   6.316   2.474   2.388
 4199SOL     OW13495   0.153   4.062   6.404
 4199SOL    HW113496   0.122   4.154   6.427
 4199SOL    HW213497   0.078   3.997   6.419
 4200SOL     OW13498   4.435   1.369   3.876
 4200SOL    HW113499   4.441   1.464   3.846
 4200SOL    HW213500   4.503   1.315   3.827
 4201SOL     OW13501   5.769   0.122   3.945
 4201SOL    HW113502   5.675   0.096   3.968
 4201SOL    HW213503   5.775   0.222   3.940
 4202SOL     OW13504   4.691   3.883   1.305
 4202SOL    HW113505   4.596   3.904   1.325
 4202SOL    HW213506   4.749   3.914   1.380
 4203SOL     OW13507   6.297   4.445   5.078
 4203SOL    HW113508   6.313   4.350   5.106
 4203SOL    HW213509   6.314   4.455   4.980
 4204SOL     OW13510   1.848   3.833   6.506
 4204SOL    HW113511   1.851   3.910   6.442
 4204SOL    HW213512   1.874   3.865   6.598
 4205SOL     OW13513   4.308   6.997   6.250
 4205SOL    HW113514   4.264   0.036   6.184
 4205SOL    HW213515   4.319   6.907   6.209
 4206SOL     OW13516   2.217   2.028   4.536
 4206SOL    HW113517   2.275   1.948   4.521
 4206SOL    HW213518   2.216   2.084   4.453
 4207SOL     OW13519   0.327   1.677   2.172
 4207SOL    HW113520   0.393   1.699   2.100
 4207SOL    HW213521   0.252   1.744   2.169
 4208SOL     OW13522   2.157   2.515   3.798
 4208SOL    HW113523   2.210   2.597   3.777
 4208SOL    HW213524   2.095   2.495   3.722
 4209SOL     OW13525   5.903   6.295   1.901
 4209SOL    HW113526   5.921   6.212   1.848
 4209SOL    HW213527   5.921   6.277   1.998
 4210SOL     OW13528   3.149   3.945   4.903
 4210SOL    HW113529   3.178   3.985   4.990
 4210SOL    HW213530   3.125   3.849   4.916
 4211SOL     OW13531   3.939   2.667   5.340
 4211SOL    HW113532   4.019   2.641   5.287
 4211SOL    HW213533   3.968   2.709   5.426
 4212SOL     OW13534   0.022   1.668   3.368
 4212SOL    HW113535   0.088   1.606   3.410
 4212SOL    HW213536   6.977   1.695   3.436
 4213SOL     OW13537   2.907   0.633   4.384
 4213SOL    HW113538   2.987   0.679   4.423
 4213SOL    HW213539   2.829   0.645   4.445
 4214SOL     OW13540   6.925   6.184   3.136
 4214SOL    HW113541   6.830   6.212   3.123
 4214SOL    HW213542   6.963   6.231   3.216
 4215SOL     OW13543   5.513   6.932   5.677
 4215SOL    HW113544   5.588   6.916   5.741
 4215SOL    HW213545   5.461   7.012   5.707
 4216SOL     OW13546   2.544   5.678   1.978
 4216SOL    HW113547   2.500   5.768   1.975
 4216SOL    HW213548   2.474   5.607   1.968
 4217SOL     OW13549   1.241   0.732   3.081
 4217SOL    HW113550   1.260   0.830   3.069
 4217SOL    HW213551   1.146   0.714   3.056
 4218SOL     OW13552   3.042   1.469   0.251
 4218SOL    HW113553   3.140   1.488   0.242
 4218SOL    HW213554   3.024   1.373   0.230
 4219SOL     OW13555   4.045   5.596   2.843
 4219SOL    HW113556   4.031   5.551   2.755
 4219SOL    HW213557   3.959   5.636   2.874
 4220SOL     OW13558   5.408   1.574   1.479
 4220SOL    HW113559   5.444   1.617   1.397
 4220SOL    HW213560   5.378   1.481   1.458
 4221SOL     OW13561   1.565   6.277   0.833
 4221SOL    HW113562   1.599   6.370   0.815
 4221SOL    HW213563   1.468   6.272   0.810
 4222SOL     OW13564   5.357   2.892   3.916
 4222SOL    HW113565   5.294   2.924   3.986
 4222SOL    HW213566   5.306   2.842   3.846
 4223SOL     OW13567   3.786   3.769   2.231
 4223SOL    HW113568   3.742   3.692   2.277
 4223SOL    HW213569   3.855   3.808   2.291
 4224SOL     OW13570   4.705   5.085   4.519
 4224SOL    HW113571   4.782   5.149   4.529
 4224SOL    HW213572   4.734   5.007   4.463
 4225SOL     OW13573   1.023   1.730   6.011
 4225SOL    HW113574   1.112   1.776   6.004
 4225SOL    HW213575   1.005   1.678   5.928
 4226SOL     OW13576   0.398   5.902   4.748
 4226SOL    HW113577   0.489   5.907   4.706
 4226SOL    HW213578   0.338   5.845   4.691
 4227SOL     OW13579   4.252   5.754   2.008
 4227SOL    HW113580   4.168   5.793   2.047
 4227SOL    HW213581   4.242   5.655   1.998
 4228SOL     OW13582   1.183   5.412   3.870
 4228SOL    HW113583   1.147   5.429   3.779
 4228SOL    HW213584   1.227   5.495   3.905
 4229SOL     OW13585   6.598   5.320   5.752
 4229SOL    HW113586   6.631   5.275   5.835
 4229SOL    HW213587   6.601   5.256   5.676
 4230SOL     OW13588   6.878   0.645   1.933
 4230SOL    HW113589   6.931   0.730   1.924
 4230SOL    HW213590   6.875   0.617   2.029
 4231SOL     OW13591   6.686   1.476   6.284
 4231SOL    HW113592   6.596   1.515   6.303
 4231SOL    HW213593   6.755   1.548   6.287
 4232SOL     OW13594   1.747   5.341   3.983
 4232SOL    HW113595   1.690   5.283   4.041
 4232SOL    HW213596   1.721   5.437   3.998
 4233SOL     OW13597   4.340   5.587   2.350
 4233SOL    HW113598   4.249   5.614   2.383
 4233SOL    HW213599   4.402   5.665   2.355
 4234SOL     OW13600   3.077   5.241   5.962
 4234SOL    HW113601   3.064   5.261   5.865
 4234SOL    HW213602   3.159   5.185   5.974
 4235SOL     OW13603   6.986   6.010   5.827
 4235SOL    HW113604   0.054   6.043   5.853
 4235SOL    HW213605   6.928   6.088   5.801
 4236SOL     OW13606   0.499   4.915   2.740
 4236SOL    HW113607   0.405   4.921   2.775
 4236SOL    HW213608   0.555   4.861   2.803
 4237SOL     OW13609   0.396   4.786   3.899
 4237SOL    HW113610   0.448   4.776   3.814
 4237SOL    HW213611   0.455   4.827   3.969
 4238SOL     OW13612   3.705   6.733   2.442
 4238SOL    HW113613   3.645   6.700   2.515
 4238SOL    HW213614   3.669   6.820   2.407
 4239SOL     OW13615   4.088   1.145   3.806
 4239SOL    HW113616   4.094   1.230   3.859
 4239SOL    HW213617   4.175   1.129   3.759
 4240SOL     OW13618   6.217   6.375   2.098
 4240SOL    HW113619   6.290   6.438   2.072
 4240SOL    HW213620   6.169   6.411   2.178
 4241SOL     OW13621   6.082   4.027   0.389
 4241SOL    HW113622   6.045   4.008   0.481
 4241SOL    HW213623   6.121   4.119   0.387
 4242SOL     OW13624   2.811   1.663   3.583
 4242SOL    HW113625   2.863   1.716   3.650
 4242SOL    HW213626   2.768   1.584   3.628
 4243SOL     OW13627   4.841   0.817   3.024
 4243SOL    HW113628   4.916   0.780   3.078
 4243SOL    HW213629   4.861   0.913   3.001
 4244SOL     OW13630   3.598   2.948   3.717
 4244SOL    HW113631   3.515   2.931   3.663
 4244SOL    HW213632   3.670   2.983   3.656
 4245SOL     OW13633   5.920   1.116   6.376
 4245SOL    HW113634   5.850   1.150   6.313
 4245SOL    HW213635   5.879   1.050   6.439
 4246SOL     OW13636   0.571   3.372   0.470
 4246SOL    HW113637   0.498   3.392   0.404
 4246SOL    HW213638   0.538   3.306   0.537
 4247SOL     OW13639   7.022   5.692   5.154
 4247SOL    HW113640   6.969   5.622   5.106
 4247SOL    HW213641   0.095   5.688   5.124
 4248SOL     OW13642   1.765   3.121   5.391
 4248SOL    HW113643   1.742   3.058   5.317
 4248SOL    HW213644   1.836   3.184   5.360
 4249SOL     OW13645   5.582   4.144   5.987
 4249SOL    HW113646   5.646   4.214   6.020
 4249SOL    HW213647   5.559   4.162   5.892
 4250SOL     OW13648   0.793   4.447   2.698
 4250SOL    HW113649   0.707   4.452   2.749
 4250SOL    HW213650   0.868   4.425   2.760
 4251SOL     OW13651   5.618   3.708   0.666
 4251SOL    HW113652   5.585   3.680   0.576
 4251SOL    HW213653   5.639   3.806   0.665
 4252SOL     OW13654   0.635   5.978   5.734
 4252SOL    HW113655   0.681   5.981   5.645
 4252SOL    HW213656   0.639   5.886   5.771
 4253SOL     OW13657   4.068   5.981   3.000
 4253SOL    HW113658   4.009   6.029   3.064
 4253SOL    HW213659   4.117   5.908   3.048
 4254SOL     OW13660   2.541   4.272   0.972
 4254SOL    HW113661   2.594   4.278   1.057
 4254SOL    HW213662   2.604   4.267   0.894
 4255SOL     OW13663   0.241   2.027   4.419
 4255SOL    HW113664   0.256   2.036   4.321
 4255SOL    HW213665   0.146   2.051   4.441
 4256SOL     OW13666   1.724   0.864   1.977
 4256SOL    HW113667   1.748   0.894   2.070
 4256SOL    HW213668   1.807   0.843   1.927
 4257SOL     OW13669   3.985   2.187   4.700
 4257SOL    HW113670   4.009   2.249   4.775
 4257SOL    HW213671   4.060   2.185   4.634
 4258SOL     OW13672   5.383   6.675   2.554
 4258SOL    HW113673   5.369   6.605   2.484
 4258SOL    HW213674   5.298   6.690   2.604
 4259SOL     OW13675   2.015   2.955   0.310
 4259SOL    HW113676   2.073   2.927   0.233
 4259SOL    HW213677   1.923   2.977   0.276
 4260SOL     OW13678   4.720   5.593   3.258
 4260SOL    HW113679   4.792   5.662   3.267
 4260SOL    HW213680   4.756   5.515   3.208
 4261SOL     OW13681   2.009   1.043   2.663
 4261SOL    HW113682   2.025   1.126   2.715
 4261SOL    HW213683   1.929   0.996   2.699
 4262SOL     OW13684   0.062   5.745   6.555
 4262SOL    HW113685   0.009   5.710   6.633
 4262SOL    HW213686   0.076   5.844   6.566
 4263SOL     OW13687   3.516   5.243   5.885
 4263SOL    HW113688   3.488   5.332   5.919
 4263SOL    HW213689   3.616   5.236   5.888
 4264SOL     OW13690   6.931   0.303   0.771
 4264SOL    HW113691   6.939   0.308   0.671
 4264SOL    HW213692   6.934   0.207   0.800
 4265SOL     OW13693   6.933   2.430   0.346
 4265SOL    HW113694   7.021   2.442   0.393
 4265SOL    HW213695   6.876   2.511   0.360
 4266SOL     OW13696   3.070   4.666   0.920
 4266SOL    HW113697   2.996   4.599   0.915
 4266SOL    HW213698   3.121   4.652   1.005
 4267SOL     OW13699   1.823   4.225   5.763
 4267SOL    HW113700   1.865   4.240   5.674
 4267SOL    HW213701   1.726   4.200   5.751
 4268SOL     OW13702   1.599   1.198   0.775
 4268SOL    HW113703   1.610   1.112   0.725
 4268SOL    HW213704   1.653   1.269   0.731
 4269SOL     OW13705   3.366   3.414   0.469
 4269SOL    HW113706   3.413   3.499   0.445
 4269SOL    HW213707   3.272   3.417   0.434
 4270SOL     OW13708   3.679   2.759   5.635
 4270SOL    HW113709   3.718   2.751   5.727
 4270SOL    HW213710   3.681   2.670   5.590
 4271SOL     OW13711   1.223   0.038   0.337
 4271SOL    HW113712   1.189   7.008   0.259
 4271SOL    HW213713   1.270   7.000   0.401
 4272SOL     OW13714   0.059   4.335   4.013
 4272SOL    HW113715   0.108   4.304   3.932
 4272SOL    HW213716   0.094   4.287   4.093
 4273SOL     OW13717   6.085   6.082   5.109
 4273SOL    HW113718   6.095   6.182   5.107
 4273SOL    HW213719   5.991   6.057   5.088
 4274SOL     OW13720   2.230   0.292   4.067
 4274SOL    HW113721   2.199   0.230   4.139
 4274SOL    HW213722   2.166   0.368   4.058
 4275SOL     OW13723   1.117   6.969   6.687
 4275SOL    HW113724   1.200   0.000   6.668
 4275SOL    HW213725   1.078   6.997   6.774
 4276SOL     OW13726   1.941   4.024   2.055
 4276SOL    HW113727   1.848   4.008   2.023
 4276SOL    HW213728   1.997   4.057   1.979
 4277SOL     OW13729   0.392   5.189   3.964
 4277SOL    HW113730   0.324   5.256   3.995
 4277SOL    HW213731   0.366   5.154   3.874
 4278SOL     OW13732   0.514   6.164   5.469
 4278SOL    HW113733   0.586   6.175   5.400
 4278SOL    HW213734   0.429   6.205   5.436
 4279SOL     OW13735   3.553   5.549   4.170
 4279SOL    HW113736   3.456   5.541   4.194
 4279SOL    HW213737   3.571   5.503   4.083
 4280SOL     OW13738   4.904   3.258   3.876
 4280SOL    HW113739   4.916   3.350   3.914
 4280SOL    HW213740   4.842   3.263   3.798
 4281SOL     OW13741   2.308   3.824   5.344
 4281SOL    HW113742   2.335   3.892   5.276
 4281SOL    HW213743   2.221   3.850   5.385
 4282SOL     OW13744   1.521   2.411   1.041
 4282SOL    HW113745   1.437   2.358   1.028
 4282SOL    HW213746   1.498   2.507   1.054
 4283SOL     OW13747   1.838   0.529   4.518
 4283SOL    HW113748   1.827   0.530   4.617
 4283SOL    HW213749   1.752   0.505   4.474
 4284SOL     OW13750   6.232   2.119   2.544
 4284SOL    HW113751   6.329   2.145   2.538
 4284SOL    HW213752   6.217   2.036   2.490
 4285SOL     OW13753   0.865   5.949   6.208
 4285SOL    HW113754   0.859   5.924   6.304
 4285SOL    HW213755   0.951   5.916   6.170
 4286SOL     OW13756   5.404   5.209   6.902
 4286SOL    HW113757   5.489   5.165   6.931
 4286SOL    HW213758   5.424   5.282   6.837
 4287SOL     OW13759   4.841   6.604   5.160
 4287SOL    HW113760   4.868   6.554   5.242
 4287SOL    HW213761   4.873   6.556   5.078
 4288SOL     OW13762   1.625   0.024   2.701
 4288SOL    HW113763   1.706   0.065   2.658
 4288SOL    HW213764   1.617   0.055   2.795
 4289SOL     OW13765   5.742   3.556   0.871
 4289SOL    HW113766   5.687   3.568   0.789
 4289SOL    HW213767   5.811   3.629   0.875
 4290SOL     OW13768   2.194   0.867   1.961
 4290SOL    HW113769   2.255   0.854   1.882
 4290SOL    HW213770   2.218   0.951   2.008
 4291SOL     OW13771   6.203   4.739   1.049
 4291SOL    HW113772   6.301   4.757   1.037
 4291SOL    HW213773   6.189   4.643   1.072
 4292SOL     OW13774   6.206   5.483   6.578
 4292SOL    HW113775   6.145   5.477   6.657
 4292SOL    HW213776   6.208   5.577   6.545
 4293SOL     OW13777   7.003   2.625   6.966
 4293SOL    HW113778   0.016   2.553   0.003
 4293SOL    HW213779   0.043   2.638   6.889
 4294SOL     OW13780   5.020   2.170   5.720
 4294SOL    HW113781   5.088   2.141   5.788
 4294SOL    HW213782   4.988   2.262   5.743
 4295SOL     OW13783   4.008   6.578   4.931
 4295SOL    HW113784   3.964   6.505   4.879
 4295SOL    HW213785   4.011   6.661   4.874
 4296SOL     OW13786   2.366   1.709   0.914
 4296SOL    HW113787   2.390   1.702   1.011
 4296SOL    HW213788   2.268   1.694   0.903
 4297SOL     OW13789   5.836   0.738   5.769
 4297SOL    HW113790   5.875   0.755   5.678
 4297SOL    HW213791   5.807   0.825   5.809
 4298SOL     OW13792   3.094   5.428   1.256
 4298SOL    HW113793   3.161   5.424   1.182
 4298SOL    HW213794   3.075   5.336   1.289
 4299SOL     OW13795   0.573   3.994   6.690
 4299SOL    HW113796   0.602   3.898   6.689
 4299SOL    HW213797   0.477   4.000   6.664
 4300SOL     OW13798   5.856   0.421   6.778
 4300SOL    HW113799   5.908   0.500   6.743
 4300SOL    HW213800   5.867   0.415   6.877
 4301SOL     OW13801   3.012   1.714   0.036
 4301SOL    HW113802   3.024   1.656   0.116
 4301SOL    HW213803   3.102   1.740   7.023
 4302SOL     OW13804   0.623   6.528   0.226
 4302SOL    HW113805   0.619   6.530   0.326
 4302SOL    HW213806   0.712   6.495   0.197
 4303SOL     OW13807   6.859   3.217   2.250
 4303SOL    HW113808   6.897   3.309   2.238
 4303SOL    HW213809   6.931   3.157   2.284
 4304SOL     OW13810   3.376   2.903   4.077
 4304SOL    HW113811   3.381   2.996   4.112
 4304SOL    HW213812   3.469   2.868   4.060
 4305SOL     OW13813   6.318   1.800   3.841
 4305SOL    HW113814   6.313   1.712   3.888
 4305SOL    HW213815   6.227   1.842   3.839
 4306SOL     OW13816   6.532   5.517   5.579
 4306SOL    HW113817   6.547   5.450   5.651
 4306SOL    HW213818   6.460   5.483   5.517
 4307SOL     OW13819   5.104   3.197   6.240
 4307SOL    HW113820   5.173   3.266   6.259
 4307SOL    HW213821   5.021   3.242   6.207
 4308SOL     OW13822   5.104   6.374   4.720
 4308SOL    HW113823   5.110   6.396   4.623
 4308SOL    HW213824   5.056   6.288   4.732
 4309SOL     OW13825   1.600   1.469   0.667
 4309SOL    HW113826   1.548   1.529   0.728
 4309SOL    HW213827   1.536   1.414   0.613
 4310SOL     OW13828   1.115   0.945   2.420
 4310SOL    HW113829   1.049   0.936   2.495
 4310SOL    HW213830   1.075   0.908   2.336
 4311SOL     OW13831   1.685   6.225   3.707
 4311SOL    HW113832   1.647   6.302   3.759
 4311SOL    HW213833   1.644   6.140   3.738
 4312SOL     OW13834   2.429   5.165   1.881
 4312SOL    HW113835   2.375   5.198   1.959
 4312SOL    HW213836   2.440   5.239   1.815
 4313SOL     OW13837   4.962   0.451   2.251
 4313SOL    HW113838   4.864   0.460   2.237
 4313SOL    HW213839   5.009   0.448   2.163
 4314SOL     OW13840   4.958   3.046   2.902
 4314SOL    HW113841   4.960   3.144   2.880
 4314SOL    HW213842   5.006   2.995   2.830
 4315SOL     OW13843   2.669   1.691   2.082
 4315SOL    HW113844   2.604   1.625   2.120
 4315SOL    HW213845   2.618   1.769   2.045
 4316SOL     OW13846   6.631   6.819   2.497
 4316SOL    HW113847   6.655   6.843   2.591
 4316SOL    HW213848   6.581   6.732   2.496
 4317SOL     OW13849   4.206   1.360   2.926
 4317SOL    HW113850   4.125   1.416   2.943
 4317SOL    HW213851   4.190   1.268   2.961
 4318SOL     OW13852   0.243   2.411   4.264
 4318SOL    HW113853   0.161   2.365   4.229
 4318SOL    HW213854   0.299   2.345   4.315
 4319SOL     OW13855   2.438   3.571   5.731
 4319SOL    HW113856   2.342   3.564   5.702
 4319SOL    HW213857   2.441   3.583   5.830
 4320SOL     OW13858   0.028   5.790   2.763
 4320SOL    HW113859   7.003   5.862   2.813
 4320SOL    HW213860   6.992   5.753   2.691
 4321SOL     OW13861   0.898   0.123   5.241
 4321SOL    HW113862   0.905   0.139   5.143
 4321SOL    HW213863   0.801   0.119   5.268
 4322SOL     OW13864   6.103   0.824   0.489
 4322SOL    HW113865   6.025   0.795   0.545
 4322SOL    HW213866   6.147   0.902   0.531
 4323SOL     OW13867   6.722   2.421   3.658
 4323SOL    HW113868   6.644   2.446   3.716
 4323SOL    HW213869   6.807   2.454   3.701
 4324SOL     OW13870   6.345   4.297   5.678
 4324SOL    HW113871   6.251   4.266   5.685
 4324SOL    HW213872   6.368   4.354   5.757
 4325SOL     OW13873   1.852   2.007   6.321
 4325SOL    HW113874   1.808   1.964   6.400
 4325SOL    HW213875   1.936   1.957   6.299
 4326SOL     OW13876   6.449   2.222   5.624
 4326SOL    HW113877   6.444   2.289   5.549
 4326SOL    HW213878   6.370   2.161   5.618
 4327SOL     OW13879   5.871   6.881   2.703
 4327SOL    HW113880   5.823   6.964   2.730
 4327SOL    HW213881   5.891   6.826   2.784
 4328SOL     OW13882   5.250   5.237   0.426
 4328SOL    HW113883   5.302   5.234   0.340
 4328SOL    HW213884   5.153   5.253   0.406
 4329SOL     OW13885   3.226   1.493   5.905
 4329SOL    HW113886   3.177   1.438   5.973
 4329SOL    HW213887   3.218   1.590   5.928
 4330SOL     OW13888   1.279   0.531   6.382
 4330SOL    HW113889   1.202   0.583   6.420
 4330SOL    HW213890   1.353   0.527   6.450
 4331SOL     OW13891   6.199   2.676   0.046
 4331SOL    HW113892   6.177   2.745   7.000
 4331SOL    HW213893   6.128   2.676   0.116
 4332SOL     OW13894   5.235   3.503   1.142
 4332SOL    HW113895   5.180   3.564   1.085
 4332SOL    HW213896   5.320   3.548   1.167
 4333SOL     OW13897   5.357   1.139   5.551
 4333SOL    HW113898   5.334   1.043   5.566
 4333SOL    HW213899   5.273   1.193   5.546
 4334SOL     OW13900   4.532   0.964   1.806
 4334SOL    HW113901   4.592   0.892   1.840
 4334SOL    HW213902   4.587   1.044   1.782
 4335SOL     OW13903   3.538   4.095   5.371
 4335SOL    HW113904   3.535   4.151   5.289
 4335SOL    HW213905   3.592   4.013   5.353
 4336SOL     OW13906   1.342   6.027   4.170
 4336SOL    HW113907   1.383   6.063   4.086
 4336SOL    HW213908   1.259   5.976   4.148
 4337SOL     OW13909   7.019   4.996   0.940
 4337SOL    HW113910   6.924   5.013   0.913
 4337SOL    HW213911   0.009   4.899   0.956
 4338SOL     OW13912   6.454   6.580   4.019
 4338SOL    HW113913   6.518   6.503   4.029
 4338SOL    HW213914   6.474   6.629   3.934
 4339SOL     OW13915   6.417   1.244   6.398
 4339SOL    HW113916   6.388   1.337   6.377
 4339SOL    HW213917   6.514   1.233   6.375
 4340SOL     OW13918   4.750   3.390   1.734
 4340SOL    HW113919   4.789   3.366   1.823
 4340SOL    HW213920   4.804   3.348   1.661
 4341SOL     OW13921   0.515   4.537   0.874
 4341SOL    HW113922   0.525   4.469   0.802
 4341SOL    HW213923   0.451   4.607   0.845
 4342SOL     OW13924   0.218   3.015   3.041
 4342SOL    HW113925   0.168   3.056   3.117
 4342SOL    HW213926   0.153   2.977   2.975
 4343SOL     OW13927   2.389   1.609   1.165
 4343SOL    HW113928   2.427   1.635   1.254
 4343SOL    HW213929   2.338   1.524   1.174
 4344SOL     OW13930   2.066   4.400   2.946
 4344SOL    HW113931   2.016   4.362   2.868
 4344SOL    HW213932   2.107   4.488   2.920
 4345SOL     OW13933   2.076   2.033   5.659
 4345SOL    HW113934   1.982   2.001   5.646
 4345SOL    HW213935   2.079   2.133   5.648
 4346SOL     OW13936   1.130   2.854   1.661
 4346SOL    HW113937   1.204   2.896   1.713
 4346SOL    HW213938   1.160   2.840   1.566
 4347SOL     OW13939   6.412   6.361   2.699
 4347SOL    HW113940   6.333   6.338   2.642
 4347SOL    HW213941   6.465   6.278   2.717
 4348SOL     OW13942   0.828   3.691   6.831
 4348SOL    HW113943   0.811   3.605   6.880
 4348SOL    HW213944   0.772   3.693   6.747
 4349SOL     OW13945   6.735   0.493   3.979
 4349SOL    HW113946   6.685   0.557   3.920
 4349SOL    HW213947   6.790   0.432   3.922
 4350SOL     OW13948   4.775   1.711   3.695
 4350SOL    HW113949   4.730   1.624   3.673
 4350SOL    HW213950   4.748   1.740   3.787
 4351SOL     OW13951   2.910   6.164   0.994
 4351SOL    HW113952   2.902   6.260   1.022
 4351SOL    HW213953   2.981   6.119   1.048
 4352SOL     OW13954   6.441   1.278   1.839
 4352SOL    HW113955   6.462   1.191   1.885
 4352SOL    HW213956   6.398   1.259   1.751
 4353SOL     OW13957   4.175   5.777   0.163
 4353SOL    HW113958   4.082   5.746   0.144
 4353SOL    HW213959   4.172   5.872   0.196
 4354SOL     OW13960   2.032   0.578   1.210
 4354SOL    HW113961   1.941   0.618   1.225
 4354SOL    HW213962   2.022   0.484   1.178
 4355SOL     OW13963   5.595   0.634   0.913
 4355SOL    HW113964   5.591   0.639   0.813
 4355SOL    HW213965   5.503   0.625   0.950
 4356SOL     OW13966   3.666   4.395   0.359
 4356SOL    HW113967   3.578   4.393   0.405
 4356SOL    HW213968   3.736   4.357   0.420
 4357SOL     OW13969   6.396   0.819   6.920
 4357SOL    HW113970   6.364   0.894   6.862
 4357SOL    HW213971   6.316   0.773   6.960
 4358SOL     OW13972   0.658   0.484   1.840
 4358SOL    HW113973   0.625   0.560   1.897
 4358SOL    HW213974   0.658   0.512   1.744
 4359SOL     OW13975   6.240   2.193   4.012
 4359SOL    HW113976   6.210   2.105   4.051
 4359SOL    HW213977   6.307   2.176   3.940
 4360SOL     OW13978   1.663   3.026   1.175
 4360SOL    HW113979   1.729   3.066   1.110
 4360SOL    HW213980   1.699   2.940   1.210
 4361SOL     OW13981   4.972   1.722   1.990
 4361SOL    HW113982   5.011   1.669   2.065
 4361SOL    HW213983   4.872   1.715   1.993
 4362SOL     OW13984   5.586   4.468   4.247
 4362SOL    HW113985   5.594   4.377   4.207
 4362SOL    HW213986   5.674   4.495   4.285
 4363SOL     OW13987   4.849   1.807   5.989
 4363SOL    HW113988   4.891   1.825   5.901
 4363SOL    HW213989   4.905   1.846   6.062
 4364SOL     OW13990   3.578   4.088   4.885
 4364SOL    HW113991   3.546   3.993   4.881
 4364SOL    HW213992   3.525   4.144   4.820
 4365SOL     OW13993   3.166   1.211   1.520
 4365SOL    HW113994   3.161   1.262   1.606
 4365SOL    HW213995   3.113   1.127   1.528
 4366SOL     OW13996   5.320   4.911   1.259
 4366SOL    HW113997   5.267   4.834   1.222
 4366SOL    HW213998   5.343   4.894   1.355
 4367SOL     OW13999   0.814   6.347   6.806
 4367SOL    HW114000   0.822   6.248   6.809
 4367SOL    HW214001   0.788   6.375   6.714
 4368SOL     OW14002   5.298   3.748   1.776
 4368SOL    HW114003   5.380   3.803   1.788
 4368SOL    HW214004   5.256   3.731   1.865
 4369SOL     OW14005   3.489   5.979   1.771
 4369SOL    HW114006   3.431   5.926   1.709
 4369SOL    HW214007   3.458   5.967   1.865
 4370SOL     OW14008   5.769   5.456   2.999
 4370SOL    HW114009   5.745   5.540   2.949
 4370SOL    HW214010   5.752   5.377   2.940
 4371SOL     OW14011   6.606   1.958   2.516
 4371SOL    HW114012   6.578   1.864   2.536
 4371SOL    HW214013   6.647   1.999   2.597
 4372SOL     OW14014   4.715   6.772   3.348
 4372SOL    HW114015   4.635   6.713   3.338
 4372SOL    HW214016   4.774   6.736   3.420
 4373SOL     OW14017   0.503   1.948   6.064
 4373SOL    HW114018   0.427   1.988   6.012
 4373SOL    HW214019   0.553   2.020   6.113
 4374SOL     OW14020   2.934   2.572   1.199
 4374SOL    HW114021   2.913   2.658   1.247
 4374SOL    HW214022   3.024   2.539   1.227
 4375SOL     OW14023   2.741   6.656   4.160
 4375SOL    HW114024   2.762   6.561   4.138
 4375SOL    HW214025   2.701   6.701   4.080
 4376SOL     OW14026   6.145   1.651   3.557
 4376SOL    HW114027   6.211   1.723   3.539
 4376SOL    HW214028   6.106   1.618   3.471
 4377SOL     OW14029   5.622   5.117   6.418
 4377SOL    HW114030   5.619   5.201   6.365
 4377SOL    HW214031   5.542   5.111   6.477
 4378SOL     OW14032   2.123   1.167   3.656
 4378SOL    HW114033   2.183   1.135   3.729
 4378SOL    HW214034   2.094   1.261   3.675
 4379SOL     OW14035   3.058   1.825   5.275
 4379SOL    HW114036   3.051   1.767   5.357
 4379SOL    HW214037   3.048   1.921   5.301
 4380SOL     OW14038   0.343   1.111   1.990
 4380SOL    HW114039   0.388   1.098   1.901
 4380SOL    HW214040   0.345   1.208   2.014
 4381SOL     OW14041   1.418   5.884   6.425
 4381SOL    HW114042   1.508   5.869   6.467
 4381SOL    HW214043   1.431   5.922   6.333
 4382SOL     OW14044   6.962   3.806   4.811
 4382SOL    HW114045   6.876   3.774   4.772
 4382SOL    HW214046   6.943   3.872   4.884
 4383SOL     OW14047   6.339   3.338   6.684
 4383SOL    HW114048   6.408   3.363   6.616
 4383SOL    HW214049   6.260   3.399   6.677
 4384SOL     OW14050   5.800   6.913   3.749
 4384SOL    HW114051   5.753   6.999   3.730
 4384SOL    HW214052   5.897   6.924   3.728
 4385SOL     OW14053   4.584   1.321   5.081
 4385SOL    HW114054   4.644   1.316   5.161
 4385SOL    HW214055   4.500   1.270   5.100
 4386SOL     OW14056   1.306   3.350   4.789
 4386SOL    HW114057   1.350   3.373   4.703
 4386SOL    HW214058   1.368   3.369   4.865
 4387SOL     OW14059   6.772   2.032   0.682
 4387SOL    HW114060   6.809   2.115   0.725
 4387SOL    HW214061   6.719   2.057   0.601
 4388SOL     OW14062   5.227   3.354   7.003
 4388SOL    HW114063   5.204   3.314   0.069
 4388SOL    HW214064   5.228   3.282   6.934
 4389SOL     OW14065   0.846   3.413   0.949
 4389SOL    HW114066   0.905   3.334   0.967
 4389SOL    HW214067   0.750   3.386   0.953
 4390SOL     OW14068   6.539   1.603   0.954
 4390SOL    HW114069   6.609   1.563   1.014
 4390SOL    HW214070   6.522   1.697   0.983
 4391SOL     OW14071   1.818   5.998   1.127
 4391SOL    HW114072   1.894   5.944   1.089
 4391SOL    HW214073   1.734   5.978   1.077
 4392SOL     OW14074   1.654   2.600   5.181
 4392SOL    HW114075   1.673   2.648   5.095
 4392SOL    HW214076   1.617   2.509   5.161
 4393SOL     OW14077   4.704   0.588   2.171
 4393SOL    HW114078   4.706   0.650   2.093
 4393SOL    HW214079   4.678   0.637   2.254
 4394SOL     OW14080   1.219   0.452   2.278
 4394SOL    HW114081   1.232   0.360   2.241
 4394SOL    HW214082   1.173   0.509   2.211
 4395SOL     OW14083   2.920   4.958   1.894
 4395SOL    HW114084   2.913   4.991   1.988
 4395SOL    HW214085   2.830   4.964   1.850
 4396SOL     OW14086   3.071   0.836   3.242
 4396SOL    HW114087   3.042   0.751   3.197
 4396SOL    HW214088   3.020   0.913   3.204
 4397SOL     OW14089   3.625   1.359   4.460
 4397SOL    HW114090   3.681   1.387   4.382
 4397SOL    HW214091   3.669   1.282   4.507
 4398SOL     OW14092   1.706   2.545   4.826
 4398SOL    HW114093   1.656   2.508   4.749
 4398SOL    HW214094   1.799   2.569   4.797
 4399SOL     OW14095   3.029   6.803   1.752
 4399SOL    HW114096   3.118   6.758   1.765
 4399SOL    HW214097   2.956   6.741   1.781
 4400SOL     OW14098   2.113   5.521   4.852
 4400SOL    HW114099   2.068   5.597   4.804
 4400SOL    HW214100   2.177   5.558   4.919
 4401SOL     OW14101   3.296   6.896   6.786
 4401SOL    HW114102   3.276   6.815   6.841
 4401SOL    HW214103   3.345   6.869   6.703
 4402SOL     OW14104   1.526   0.566   3.910
 4402SOL    HW114105   1.593   0.543   3.840
 4402SOL    HW214106   1.569   0.626   3.978
 4403SOL     OW14107   1.320   4.947   1.950
 4403SOL    HW114108   1.278   5.035   1.932
 4403SOL    HW214109   1.313   4.889   1.869
 4404SOL     OW14110   0.520   6.917   5.959
 4404SOL    HW114111   0.438   6.860   5.954
 4404SOL    HW214112   0.600   6.860   5.977
 4405SOL     OW14113   1.723   5.591   2.916
 4405SOL    HW114114   1.678   5.600   3.005
 4405SOL    HW214115   1.815   5.554   2.930
 4406SOL     OW14116   6.365   3.689   2.217
 4406SOL    HW114117   6.415   3.607   2.246
 4406SOL    HW214118   6.307   3.721   2.293
 4407SOL     OW14119   5.504   6.309   2.228
 4407SOL    HW114120   5.494   6.226   2.283
 4407SOL    HW214121   5.464   6.294   2.138
 4408SOL     OW14122   4.466   1.069   0.324
 4408SOL    HW114123   4.497   1.150   0.373
 4408SOL    HW214124   4.473   1.083   0.226
 4409SOL     OW14125   2.833   0.291   3.136
 4409SOL    HW114126   2.809   0.257   3.227
 4409SOL    HW214127   2.932   0.304   3.131
 4410SOL     OW14128   0.718   6.566   1.017
 4410SOL    HW114129   0.749   6.652   0.974
 4410SOL    HW214130   0.789   6.533   1.080
 4411SOL     OW14131   3.631   4.390   5.351
 4411SOL    HW114132   3.715   4.346   5.319
 4411SOL    HW214133   3.557   4.371   5.286
 4412SOL     OW14134   4.582   6.279   2.864
 4412SOL    HW114135   4.521   6.274   2.784
 4412SOL    HW214136   4.600   6.187   2.898
 4413SOL     OW14137   4.539   6.677   4.145
 4413SOL    HW114138   4.629   6.645   4.176
 4413SOL    HW214139   4.487   6.710   4.223
 4414SOL     OW14140   4.877   3.942   1.514
 4414SOL    HW114141   4.879   3.864   1.578
 4414SOL    HW214142   4.966   3.987   1.514
 4415SOL     OW14143   2.274   2.787   1.582
 4415SOL    HW114144   2.291   2.842   1.663
 4415SOL    HW214145   2.211   2.835   1.521
 4416SOL     OW14146   4.636   2.592   3.672
 4416SOL    HW114147   4.640   2.579   3.771
 4416SOL    HW214148   4.544   2.573   3.639
 4417SOL     OW14149   0.106   3.837   2.551
 4417SOL    HW114150   0.141   3.814   2.641
 4417SOL    HW214151   0.038   3.769   2.523
 4418SOL     OW14152   6.242   6.647   5.966
 4418SOL    HW114153   6.194   6.567   5.929
 4418SOL    HW214154   6.218   6.728   5.912
 4419SOL     OW14155   5.824   5.258   6.879
 4419SOL    HW114156   5.803   5.346   6.920
 4419SOL    HW214157   5.753   5.191   6.902
 4420SOL     OW14158   3.206   2.527   0.915
 4420SOL    HW114159   3.293   2.477   0.920
 4420SOL    HW214160   3.163   2.528   1.005
 4421SOL     OW14161   1.710   2.304   6.750
 4421SOL    HW114162   1.650   2.225   6.742
 4421SOL    HW214163   1.709   2.338   6.843
 4422SOL     OW14164   6.196   3.714   5.913
 4422SOL    HW114165   6.136   3.708   5.834
 4422SOL    HW214166   6.143   3.706   5.997
 4423SOL     OW14167   5.722   4.062   4.834
 4423SOL    HW114168   5.745   3.966   4.851
 4423SOL    HW214169   5.623   4.074   4.841
 4424SOL     OW14170   4.660   6.025   2.944
 4424SOL    HW114171   4.646   5.970   3.026
 4424SOL    HW214172   4.755   6.056   2.940
 4425SOL     OW14173   1.580   5.106   1.698
 4425SOL    HW114174   1.545   5.135   1.787
 4425SOL    HW214175   1.504   5.094   1.634
 4426SOL     OW14176   0.801   0.565   4.808
 4426SOL    HW114177   0.789   0.647   4.751
 4426SOL    HW214178   0.748   0.576   4.893
 4427SOL     OW14179   2.336   6.081   2.682
 4427SOL    HW114180   2.292   6.093   2.593
 4427SOL    HW214181   2.422   6.032   2.671
 4428SOL     OW14182   5.320   6.257   3.525
 4428SOL    HW114183   5.359   6.348   3.523
 4428SOL    HW214184   5.222   6.263   3.546
 4429SOL     OW14185   3.103   6.065   2.928
 4429SOL    HW114186   3.122   6.096   3.021
 4429SOL    HW214187   3.033   6.124   2.887
 4430SOL     OW14188   5.045   4.002   5.577
 4430SOL    HW114189   5.085   4.091   5.558
 4430SOL    HW214190   5.025   3.954   5.492
 4431SOL     OW14191   3.113   6.498   4.037
 4431SOL    HW114192   3.177   6.430   4.000
 4431SOL    HW214193   3.116   6.495   4.137
 4432SOL     OW14194   0.780   3.853   5.899
 4432SOL    HW114195   0.736   3.903   5.974
 4432SOL    HW214196   0.713   3.794   5.854
 4433SOL     OW14197   0.908   0.956   5.785
 4433SOL    HW114198   0.821   0.908   5.770
 4433SOL    HW214199   0.890   1.052   5.803
 4434SOL     OW14200   0.405   0.749   2.934
 4434SOL    HW114201   0.473   0.818   2.956
 4434SOL    HW214202   0.323   0.763   2.989
 4435SOL     OW14203   2.475   4.397   6.874
 4435SOL    HW114204   2.543   4.463   6.905
 4435SOL    HW214205   2.517   4.306   6.871
 4436SOL     OW14206   4.236   1.564   1.915
 4436SOL    HW114207   4.195   1.638   1.968
 4436SOL    HW214208   4.335   1.564   1.929
 4437SOL     OW14209   6.626   4.140   0.148
 4437SOL    HW114210   6.548   4.151   0.086
 4437SOL    HW214211   6.608   4.190   0.233
 4438SOL     OW14212   3.911   0.526   5.504
 4438SOL    HW114213   3.950   0.570   5.584
 4438SOL    HW214214   3.845   0.457   5.532
 4439SOL     OW14215   2.821   6.931   2.808
 4439SOL    HW114216   2.852   6.952   2.900
 4439SOL    HW214217   2.786   6.837   2.805
 4440SOL     OW14218   1.444   4.927   6.802
 4440SOL    HW114219   1.362   4.984   6.788
 4440SOL    HW214220   1.419   4.845   6.852
 4441SOL     OW14221   6.945   1.821   0.720
 4441SOL    HW114222   0.008   1.872   0.730
 4441SOL    HW214223   6.869   1.886   0.706
 4442SOL     OW14224   1.947   5.108   6.661
 4442SOL    HW114225   1.960   5.050   6.580
 4442SOL    HW214226   1.888   5.061   6.727
 4443SOL     OW14227   0.944   5.300   6.096
 4443SOL    HW114228   0.852   5.337   6.110
 4443SOL    HW214229   0.973   5.317   6.001
 4444SOL     OW14230   5.801   4.849   6.727
 4444SOL    HW114231   5.743   4.899   6.792
 4444SOL    HW214232   5.895   4.848   6.760
 4445SOL     OW14233   0.467   4.922   0.410
 4445SOL    HW114234   0.484   5.019   0.428
 4445SOL    HW214235   0.554   4.875   0.398
 4446SOL     OW14236   4.660   1.646   1.169
 4446SOL    HW114237   4.669   1.735   1.123
 4446SOL    HW214238   4.682   1.657   1.266
 4447SOL     OW14239   4.733   5.728   5.816
 4447SOL    HW114240   4.644   5.761   5.847
 4447SOL    HW214241   4.728   5.709   5.718
 4448SOL     OW14242   3.600   5.902   1.280
 4448SOL    HW114243   3.552   5.897   1.193
 4448SOL    HW214244   3.607   5.998   1.309
 4449SOL     OW14245   3.417   1.214   5.569
 4449SOL    HW114246   3.397   1.228   5.666
 4449SOL    HW214247   3.449   1.121   5.554
 4450SOL     OW14248   3.059   0.037   6.807
 4450SOL    HW114249   3.004   6.990   6.852
 4450SOL    HW214250   3.155   0.009   6.807
 4451SOL     OW14251   5.029   5.141   3.296
 4451SOL    HW114252   5.116   5.189   3.303
 4451SOL    HW214253   5.045   5.049   3.261
 4452SOL     OW14254   4.677   6.460   4.851
 4452SOL    HW114255   4.695   6.385   4.788
 4452SOL    HW214256   4.607   6.520   4.812
 4453SOL     OW14257   6.382   4.387   0.175
 4453SOL    HW114258   6.321   4.458   0.140
 4453SOL    HW214259   6.336   4.298   0.167
 4454SOL     OW14260   1.519   3.036   0.388
 4454SOL    HW114261   1.536   3.065   0.482
 4454SOL    HW214262   1.510   2.937   0.385
 4455SOL     OW14263   0.913   6.407   5.544
 4455SOL    HW114264   0.943   6.452   5.461
 4455SOL    HW214265   0.813   6.399   5.544
 4456SOL     OW14266   2.586   0.044   4.519
 4456SOL    HW114267   2.583   0.124   4.578
 4456SOL    HW214268   2.593   0.073   4.423
 4457SOL     OW14269   1.718   1.786   4.488
 4457SOL    HW114270   1.809   1.816   4.459
 4457SOL    HW214271   1.726   1.720   4.562
 4458SOL     OW14272   1.639   3.606   6.556
 4458SOL    HW114273   1.540   3.611   6.568
 4458SOL    HW214274   1.670   3.679   6.495
 4459SOL     OW14275   0.876   2.603   2.917
 4459SOL    HW114276   0.943   2.558   2.858
 4459SOL    HW214277   0.822   2.533   2.965
 4460SOL     OW14278   6.780   2.285   4.595
 4460SOL    HW114279   6.688   2.313   4.565
 4460SOL    HW214280   6.844   2.360   4.581
 4461SOL     OW14281   2.067   0.992   0.996
 4461SOL    HW114282   2.097   1.076   1.042
 4461SOL    HW214283   1.968   0.995   0.982
 4462SOL     OW14284   6.630   3.907   3.211
 4462SOL    HW114285   6.693   3.849   3.159
 4462SOL    HW214286   6.593   3.855   3.288
 4463SOL     OW14287   5.836   1.957   0.088
 4463SOL    HW114288   5.746   1.999   0.097
 4463SOL    HW214289   5.829   1.874   0.031
 4464SOL     OW14290   0.064   4.980   1.266
 4464SOL    HW114291   0.062   4.946   1.360
 4464SOL    HW214292   0.143   4.941   1.218
 4465SOL     OW14293   3.786   5.663   1.413
 4465SOL    HW114294   3.802   5.584   1.472
 4465SOL    HW214295   3.818   5.643   1.320
 4466SOL     OW14296   1.891   2.339   2.573
 4466SOL    HW114297   1.849   2.265   2.626
 4466SOL    HW214298   1.932   2.405   2.636
 4467SOL     OW14299   5.102   6.021   3.083
 4467SOL    HW114300   5.140   5.975   3.164
 4467SOL    HW214301   5.120   6.119   3.088
 4468SOL     OW14302   1.822   3.028   1.715
 4468SOL    HW114303   1.909   3.046   1.669
 4468SOL    HW214304   1.839   2.969   1.794
 4469SOL     OW14305   2.650   6.333   1.168
 4469SOL    HW114306   2.592   6.356   1.245
 4469SOL    HW214307   2.654   6.234   1.156
 4470SOL     OW14308   2.401   0.026   2.845
 4470SOL    HW114309   2.321   0.085   2.855
 4470SOL    HW214310   2.435   0.001   2.936
 4471SOL     OW14311   1.115   0.441   6.735
 4471SOL    HW114312   1.133   0.521   6.793
 4471SOL    HW214313   1.173   0.445   6.654
 4472SOL     OW14314   1.911   2.730   0.817
 4472SOL    HW114315   2.006   2.712   0.842
 4472SOL    HW214316   1.851   2.683   0.881
 4473SOL     OW14317   0.129   2.325   4.671
 4473SOL    HW114318   0.077   2.316   4.586
 4473SOL    HW214319   0.209   2.266   4.667
 4474SOL     OW14320   3.139   5.721   1.174
 4474SOL    HW114321   3.186   5.688   1.092
 4474SOL    HW214322   3.054   5.767   1.148
 4475SOL     OW14323   1.106   4.014   1.169
 4475SOL    HW114324   1.061   4.102   1.156
 4475SOL    HW214325   1.112   3.966   1.081
 4476SOL     OW14326   5.574   0.993   3.712
 4476SOL    HW114327   5.531   1.019   3.625
 4476SOL    HW214328   5.504   0.986   3.782
 4477SOL     OW14329   1.186   0.997   5.049
 4477SOL    HW114330   1.088   1.007   5.061
 4477SOL    HW214331   1.234   1.053   5.117
 4478SOL     OW14332   1.851   0.092   1.252
 4478SOL    HW114333   1.849   7.017   1.229
 4478SOL    HW214334   1.763   0.133   1.228
 4479SOL     OW14335   1.739   1.936   6.943
 4479SOL    HW114336   1.838   1.949   6.950
 4479SOL    HW214337   1.700   1.932   0.013
 4480SOL     OW14338   1.266   6.395   3.782
 4480SOL    HW114339   1.329   6.405   3.705
 4480SOL    HW214340   1.173   6.413   3.751
 4481SOL     OW14341   2.141   3.866   5.905
 4481SOL    HW114342   2.177   3.816   5.984
 4481SOL    HW214343   2.177   3.826   5.821
 4482SOL     OW14344   2.420   6.793   1.195
 4482SOL    HW114345   2.448   6.841   1.279
 4482SOL    HW214346   2.480   6.820   1.120
 4483SOL     OW14347   1.279   3.727   0.430
 4483SOL    HW114348   1.350   3.739   0.500
 4483SOL    HW214349   1.208   3.797   0.443
 4484SOL     OW14350   2.329   1.011   6.913
 4484SOL    HW114351   2.344   0.917   6.885
 4484SOL    HW214352   2.373   1.073   6.849
 4485SOL     OW14353   6.686   2.594   5.181
 4485SOL    HW114354   6.601   2.635   5.212
 4485SOL    HW214355   6.762   2.631   5.235
 4486SOL     OW14356   4.855   5.000   4.870
 4486SOL    HW114357   4.920   5.072   4.892
 4486SOL    HW214358   4.903   4.913   4.862
 4487SOL     OW14359   0.701   2.598   6.435
 4487SOL    HW114360   0.637   2.659   6.389
 4487SOL    HW214361   0.674   2.503   6.419
 4488SOL     OW14362   0.512   4.168   3.625
 4488SOL    HW114363   0.467   4.081   3.644
 4488SOL    HW214364   0.546   4.206   3.711
 4489SOL     OW14365   3.903   5.996   6.419
 4489SOL    HW114366   3.979   6.045   6.377
 4489SOL    HW214367   3.912   5.898   6.401
 4490SOL     OW14368   4.974   1.486   1.808
 4490SOL    HW114369   4.954   1.480   1.710
 4490SOL    HW214370   4.976   1.582   1.836
 4491SOL     OW14371   1.197   3.054   3.198
 4491SOL    HW114372   1.203   3.126   3.267
 4491SOL    HW214373   1.125   3.077   3.132
 4492SOL     OW14374   6.655   0.638   2.394
 4492SOL    HW114375   6.642   0.735   2.372
 4492SOL    HW214376   6.712   0.595   2.323
 4493SOL     OW14377   5.638   1.594   5.504
 4493SOL    HW114378   5.728   1.591   5.461
 4493SOL    HW214379   5.647   1.573   5.601
 4494SOL     OW14380   1.370   0.803   1.804
 4494SOL    HW114381   1.381   0.752   1.718
 4494SOL    HW214382   1.395   0.744   1.881
 4495SOL     OW14383   4.387   6.390   0.840
 4495SOL    HW114384   4.333   6.306   0.829
 4495SOL    HW214385   4.403   6.407   0.937
 4496SOL     OW14386   3.369   6.460   6.377
 4496SOL    HW114387   3.330   6.428   6.291
 4496SOL    HW214388   3.468   6.470   6.368
 4497SOL     OW14389   3.855   0.809   5.673
 4497SOL    HW114390   3.859   0.848   5.581
 4497SOL    HW214391   3.759   0.794   5.698
 4498SOL     OW14392   0.105   5.277   4.658
 4498SOL    HW114393   0.052   5.270   4.743
 4498SOL    HW214394   0.043   5.300   4.583
 4499SOL     OW14395   5.510   1.701   2.069
 4499SOL    HW114396   5.497   1.603   2.053
 4499SOL    HW214397   5.472   1.753   1.992
 4500SOL     OW14398   4.047   5.495   6.912
 4500SOL    HW114399   4.039   5.415   6.973
 4500SOL    HW214400   4.033   5.466   6.818
 4501SOL     OW14401   6.117   0.401   2.610
 4501SOL    HW114402   6.047   0.401   2.539
 4501SOL    HW214403   6.119   0.311   2.654
 4502SOL     OW14404   6.992   3.479   6.726
 4502SOL    HW114405   0.041   3.463   6.659
 4502SOL    HW214406   6.969   3.392   6.771
 4503SOL     OW14407   3.055   1.360   2.639
 4503SOL    HW114408   3.079   1.425   2.710
 4503SOL    HW214409   3.139   1.326   2.596
 4504SOL     OW14410   0.277   1.665   2.914
 4504SOL    HW114411   0.249   1.606   2.838
 4504SOL    HW214412   0.201   1.674   2.978
 4505SOL     OW14413   5.535   4.371   3.836
 4505SOL    HW114414   5.542   4.307   3.759
 4505SOL    HW214415   5.442   4.408   3.839
 4506SOL     OW14416   5.483   2.947   5.607
 4506SOL    HW114417   5.396   2.986   5.636
 4506SOL    HW214418   5.526   3.006   5.539
 4507SOL     OW14419   6.234   2.109   3.119
 4507SOL    HW114420   6.263   2.192   3.166
 4507SOL    HW214421   6.218   2.129   3.023
 4508SOL     OW14422   6.998   4.702   0.990
 4508SOL    HW114423   0.046   4.645   1.032
 4508SOL    HW214424   6.974   4.664   0.900
 4509SOL     OW14425   4.914   2.609   1.940
 4509SOL    HW114426   4.870   2.617   1.850
 4509SOL    HW214427   4.854   2.645   2.010
 4510SOL     OW14428   4.089   0.998   4.370
 4510SOL    HW114429   4.074   0.987   4.272
 4510SOL    HW214430   4.008   1.039   4.412
 4511SOL     OW14431   0.473   4.480   0.025
 4511SOL    HW114432   0.566   4.443   0.016
 4511SOL    HW214433   0.407   4.410   0.000
 4512SOL     OW14434   3.250   3.335   5.117
 4512SOL    HW114435   3.152   3.343   5.133
 4512SOL    HW214436   3.281   3.412   5.061
 4513SOL     OW14437   0.611   0.025   1.288
 4513SOL    HW114438   0.540   0.024   1.217
 4513SOL    HW214439   0.692   0.071   1.252
 4514SOL     OW14440   3.654   4.677   6.583
 4514SOL    HW114441   3.730   4.613   6.584
 4514SOL    HW214442   3.673   4.754   6.644
 4515SOL     OW14443   3.959   0.721   6.057
 4515SOL    HW114444   3.880   0.682   6.009
 4515SOL    HW214445   3.928   0.794   6.118
 4516SOL     OW14446   2.733   2.226   5.474
 4516SOL    HW114447   2.814   2.261   5.426
 4516SOL    HW214448   2.713   2.134   5.442
 4517SOL     OW14449   3.899   0.828   5.371
 4517SOL    HW114450   3.846   0.791   5.295
 4517SOL    HW214451   3.985   0.778   5.378
 4518SOL     OW14452   0.830   6.326   1.334
 4518SOL    HW114453   0.883   6.392   1.281
 4518SOL    HW214454   0.787   6.260   1.272
 4519SOL     OW14455   4.560   6.821   0.216
 4519SOL    HW114456   4.647   6.855   0.253
 4519SOL    HW214457   4.578   6.768   0.133
 4520SOL     OW14458   4.481   5.812   5.912
 4520SOL    HW114459   4.432   5.888   5.868
 4520SOL    HW214460   4.433   5.727   5.892
 4521SOL     OW14461   4.461   2.350   4.186
 4521SOL    HW114462   4.513   2.265   4.184
 4521SOL    HW214463   4.497   2.409   4.258
 4522SOL     OW14464   5.592   4.225   3.618
 4522SOL    HW114465   5.607   4.126   3.612
 4522SOL    HW214466   5.651   4.271   3.551
 4523SOL     OW14467   0.354   3.328   5.585
 4523SOL    HW114468   0.353   3.428   5.591
 4523SOL    HW214469   0.301   3.299   5.505
 4524SOL     OW14470   1.596   3.439   1.802
 4524SOL    HW114471   1.501   3.411   1.793
 4524SOL    HW214472   1.604   3.509   1.872
 4525SOL     OW14473   3.614   2.487   5.554
 4525SOL    HW114474   3.555   2.411   5.526
 4525SOL    HW214475   3.621   2.489   5.653
 4526SOL     OW14476   0.952   6.788   5.810
 4526SOL    HW114477   1.007   6.820   5.886
 4526SOL    HW214478   0.979   6.835   5.726
 4527SOL     OW14479   0.459   1.267   2.664
 4527SOL    HW114480   0.441   1.242   2.759
 4527SOL    HW214481   0.557   1.278   2.651
 4528SOL     OW14482   4.847   0.713   5.117
 4528SOL    HW114483   4.795   0.667   5.189
 4528SOL    HW214484   4.797   0.703   5.030
 4529SOL     OW14485   2.008   1.007   4.068
 4529SOL    HW114486   1.973   1.013   3.974
 4529SOL    HW214487   2.104   0.980   4.066
 4530SOL     OW14488   4.315   5.853   6.507
 4530SOL    HW114489   4.257   5.781   6.470
 4530SOL    HW214490   4.267   5.901   6.581
 4531SOL     OW14491   1.724   5.855   5.108
 4531SOL    HW114492   1.698   5.765   5.144
 4531SOL    HW214493   1.819   5.854   5.079
 4532SOL     OW14494   5.601   1.358   2.930
 4532SOL    HW114495   5.701   1.358   2.921
 4532SOL    HW214496   5.570   1.268   2.960
 4533SOL     OW14497   2.640   0.551   1.087
 4533SOL    HW114498   2.587   0.481   1.136
 4533SOL    HW214499   2.685   0.612   1.152
 4534SOL     OW14500   4.772   1.415   4.061
 4534SOL    HW114501   4.809   1.410   3.968
 4534SOL    HW214502   4.778   1.510   4.093
 4535SOL     OW14503   2.204   0.734   1.088
 4535SOL    HW114504   2.136   0.676   1.133
 4535SOL    HW214505   2.213   0.821   1.138
 4536SOL     OW14506   3.287   7.016   5.597
 4536SOL    HW114507   3.313   6.921   5.613
 4536SOL    HW214508   3.221   0.022   5.666
 4537SOL     OW14509   2.934   3.577   3.380
 4537SOL    HW114510   3.000   3.581   3.455
 4537SOL    HW214511   2.845   3.548   3.416
 4538SOL     OW14512   0.555   2.074   0.704
 4538SOL    HW114513   0.504   2.016   0.640
 4538SOL    HW214514   0.653   2.067   0.683
 4539SOL     OW14515   1.492   5.943   5.366
 4539SOL    HW114516   1.427   5.870   5.342
 4539SOL    HW214517   1.578   5.903   5.397
 4540SOL     OW14518   1.227   2.225   0.330
 4540SOL    HW114519   1.133   2.193   0.323
 4540SOL    HW214520   1.245   2.294   0.259
 4541SOL     OW14521   3.899   2.943   6.285
 4541SOL    HW114522   3.807   2.914   6.258
 4541SOL    HW214523   3.911   3.040   6.265
 4542SOL     OW14524   0.312   1.799   6.632
 4542SOL    HW114525   0.366   1.779   6.550
 4542SOL    HW214526   0.360   1.765   6.712
 4543SOL     OW14527   3.893   1.953   0.464
 4543SOL    HW114528   3.816   1.982   0.521
 4543SOL    HW214529   3.967   1.921   0.522
 4544SOL     OW14530   5.315   6.514   0.556
 4544SOL    HW114531   5.348   6.557   0.640
 4544SOL    HW214532   5.237   6.567   0.521
 4545SOL     OW14533   2.009   2.844   5.068
 4545SOL    HW114534   2.071   2.911   5.108
 4545SOL    HW214535   1.982   2.777   5.138
 4546SOL     OW14536   3.125   0.736   5.392
 4546SOL    HW114537   3.108   0.829   5.357
 4546SOL    HW214538   3.082   0.670   5.330
 4547SOL     OW14539   6.941   0.047   0.332
 4547SOL    HW114540   6.986   0.006   0.253
 4547SOL    HW214541   7.003   0.044   0.411
 4548SOL     OW14542   2.880   1.691   2.463
 4548SOL    HW114543   2.858   1.594   2.454
 4548SOL    HW214544   2.970   1.702   2.505
 4549SOL     OW14545   0.515   3.505   4.397
 4549SOL    HW114546   0.614   3.505   4.384
 4549SOL    HW214547   0.482   3.599   4.405
 4550SOL     OW14548   2.140   5.224   4.348
 4550SOL    HW114549   2.085   5.140   4.339
 4550SOL    HW214550   2.115   5.272   4.431
 4551SOL     OW14551   2.437   2.181   4.999
 4551SOL    HW114552   2.396   2.192   4.908
 4551SOL    HW214553   2.409   2.092   5.037
 4552SOL     OW14554   5.300   1.229   0.974
 4552SOL    HW114555   5.356   1.225   1.056
 4552SOL    HW214556   5.218   1.173   0.987
 4553SOL     OW14557   0.379   5.709   7.019
 4553SOL    HW114558   0.294   5.671   6.984
 4553SOL    HW214559   0.405   5.660   0.080
 4554SOL     OW14560   6.378   6.576   3.088
 4554SOL    HW114561   6.317   6.570   3.009
 4554SOL    HW214562   6.472   6.593   3.056
 4555SOL     OW14563   1.085   0.950   0.931
 4555SOL    HW114564   1.118   0.874   0.876
 4555SOL    HW214565   1.117   1.036   0.892
 4556SOL     OW14566   5.697   4.920   4.397
 4556SOL    HW114567   5.609   4.965   4.379
 4556SOL    HW214568   5.745   4.968   4.469
 4557SOL     OW14569   0.337   5.045   4.205
 4557SOL    HW114570   0.241   5.029   4.227
 4557SOL    HW214571   0.344   5.094   4.118
 4558SOL     OW14572   1.531   3.858   4.875
 4558SOL    HW114573   1.503   3.848   4.971
 4558SOL    HW214574   1.543   3.767   4.834
 4559SOL     OW14575   0.243   2.935   4.151
 4559SOL    HW114576   0.235   2.991   4.068
 4559SOL    HW214577   0.320   2.872   4.140
 4560SOL     OW14578   5.266   4.035   2.934
 4560SOL    HW114579   5.239   4.041   3.030
 4560SOL    HW214580   5.207   4.094   2.879
 4561SOL     OW14581   4.667   2.252   3.867
 4561SOL    HW114582   4.667   2.272   3.769
 4561SOL    HW214583   4.739   2.186   3.888
 4562SOL     OW14584   3.457   1.147   0.631
 4562SOL    HW114585   3.478   1.181   0.723
 4562SOL    HW214586   3.523   1.077   0.605
 4563SOL     OW14587   0.563   4.273   2.223
 4563SOL    HW114588   0.602   4.294   2.313
 4563SOL    HW214589   0.529   4.180   2.222
 4564SOL     OW14590   2.098   3.585   2.282
 4564SOL    HW114591   2.090   3.679   2.248
 4564SOL    HW214592   2.139   3.527   2.212
 4565SOL     OW14593   1.951   6.216   6.555
 4565SOL    HW114594   2.020   6.147   6.576
 4565SOL    HW214595   1.860   6.178   6.573
 4566SOL     OW14596   0.008   4.315   3.358
 4566SOL    HW114597   6.964   4.243   3.377
 4566SOL    HW214598   7.003   4.399   3.405
 4567SOL     OW14599   0.393   6.921   6.704
 4567SOL    HW114600   0.431   6.978   6.776
 4567SOL    HW214601   0.307   6.960   6.671
 4568SOL     OW14602   1.433   5.166   3.097
 4568SOL    HW114603   1.429   5.237   3.026
 4568SOL    HW214604   1.344   5.159   3.142
 4569SOL     OW14605   1.820   1.152   3.165
 4569SOL    HW114606   1.833   1.210   3.245
 4569SOL    HW214607   1.909   1.126   3.127
 4570SOL     OW14608   5.253   5.622   1.471
 4570SOL    HW114609   5.202   5.544   1.507
 4570SOL    HW214610   5.213   5.650   1.383
 4571SOL     OW14611   2.495   3.111   6.150
 4571SOL    HW114612   2.440   3.094   6.068
 4571SOL    HW214613   2.486   3.206   6.177
 4572SOL     OW14614   3.344   3.196   2.139
 4572SOL    HW114615   3.332   3.259   2.216
 4572SOL    HW214616   3.255   3.160   2.112
 4573SOL     OW14617   3.401   5.224   0.849
 4573SOL    HW114618   3.331   5.265   0.908
 4573SOL    HW214619   3.471   5.293   0.828
 4574SOL     OW14620   4.790   0.595   1.748
 4574SOL    HW114621   4.797   0.661   1.672
 4574SOL    HW214622   4.818   0.505   1.716
 4575SOL     OW14623   0.716   0.015   5.587
 4575SOL    HW114624   0.639   0.031   5.649
 4575SOL    HW214625   0.716   6.941   5.559
 4576SOL     OW14626   2.931   4.715   6.033
 4576SOL    HW114627   2.990   4.791   6.006
 4576SOL    HW214628   2.974   4.664   6.108
 4577SOL     OW14629   0.806   1.758   2.355
 4577SOL    HW114630   0.875   1.774   2.426
 4577SOL    HW214631   0.847   1.773   2.265
 4578SOL     OW14632   1.315   1.884   1.951
 4578SOL    HW114633   1.270   1.965   1.988
 4578SOL    HW214634   1.247   1.813   1.935
 4579SOL     OW14635   4.456   0.588   3.392
 4579SOL    HW114636   4.424   0.497   3.364
 4579SOL    HW214637   4.485   0.586   3.487
 4580SOL     OW14638   0.176   1.565   1.134
 4580SOL    HW114639   0.148   1.650   1.089
 4580SOL    HW214640   0.215   1.502   1.067
 4581SOL     OW14641   3.299   0.911   0.952
 4581SOL    HW114642   3.308   1.005   0.919
 4581SOL    HW214643   3.260   0.912   1.044
 4582SOL     OW14644   6.602   1.238   3.801
 4582SOL    HW114645   6.691   1.234   3.846
 4582SOL    HW214646   6.576   1.147   3.771
 4583SOL     OW14647   1.897   0.555   0.460
 4583SOL    HW114648   1.988   0.560   0.420
 4583SOL    HW214649   1.904   0.557   0.560
 4584SOL     OW14650   0.476   1.644   4.262
 4584SOL    HW114651   0.386   1.669   4.299
 4584SOL    HW214652   0.471   1.638   4.163
 4585SOL     OW14653   1.566   3.081   3.172
 4585SOL    HW114654   1.555   3.012   3.243
 4585SOL    HW214655   1.486   3.141   3.171
 4586SOL     OW14656   5.921   5.103   6.330
 4586SOL    HW114657   5.901   5.014   6.370
 4586SOL    HW214658   5.839   5.140   6.288
 4587SOL     OW14659   3.508   3.378   4.967
 4587SOL    HW114660   3.440   3.387   4.894
 4587SOL    HW214661   3.464   3.347   5.051
 4588SOL     OW14662   3.261   3.889   6.431
 4588SOL    HW114663   3.209   3.890   6.346
 4588SOL    HW214664   3.303   3.799   6.443
 4589SOL     OW14665   5.630   6.555   2.259
 4589SOL    HW114666   5.696   6.571   2.185
 4589SOL    HW214667   5.583   6.468   2.243
 4590SOL     OW14668   3.394   5.208   1.419
 4590SOL    HW114669   3.395   5.186   1.321
 4590SOL    HW214670   3.351   5.134   1.470
 4591SOL     OW14671   2.460   0.237   5.238
 4591SOL    HW114672   2.554   0.239   5.206
 4591SOL    HW214673   2.445   0.156   5.295
 4592SOL     OW14674   1.778   1.593   4.043
 4592SOL    HW114675   1.695   1.598   4.098
 4592SOL    HW214676   1.844   1.531   4.086
 4593SOL     OW14677   1.404   5.516   4.344
 4593SOL    HW114678   1.340   5.454   4.387
 4593SOL    HW214679   1.470   5.549   4.412
 4594SOL     OW14680   2.020   0.091   3.359
 4594SOL    HW114681   2.065   0.054   3.277
 4594SOL    HW214682   2.089   0.130   3.420
 4595SOL     OW14683   5.386   2.073   6.564
 4595SOL    HW114684   5.303   2.124   6.540
 4595SOL    HW214685   5.373   1.976   6.545
 4596SOL     OW14686   6.992   0.595   2.211
 4596SOL    HW114687   6.980   0.522   2.278
 4596SOL    HW214688   0.068   0.611   2.197
 4597SOL     OW14689   2.750   5.929   0.574
 4597SOL    HW114690   2.659   5.897   0.548
 4597SOL    HW214691   2.812   5.851   0.581
 4598SOL     OW14692   0.499   4.329   0.694
 4598SOL    HW114693   0.417   4.274   0.682
 4598SOL    HW214694   0.580   4.270   0.685
 4599SOL     OW14695   3.616   6.276   2.018
 4599SOL    HW114696   3.640   6.295   2.113
 4599SOL    HW214697   3.699   6.275   1.962
 4600SOL     OW14698   0.470   6.184   6.389
 4600SOL    HW114699   0.418   6.225   6.464
 4600SOL    HW214700   0.456   6.236   6.305
 4601SOL     OW14701   1.698   0.569   5.379
 4601SOL    HW114702   1.755   0.593   5.301
 4601SOL    HW214703   1.667   0.653   5.425
 4602SOL     OW14704   3.307   1.912   5.686
 4602SOL    HW114705   3.267   2.001   5.662
 4602SOL    HW214706   3.406   1.922   5.698
 4603SOL     OW14707   4.637   0.045   1.232
 4603SOL    HW114708   4.629   6.968   1.235
 4603SOL    HW214709   4.546   0.085   1.224
 4604SOL     OW14710   6.608   0.068   4.721
 4604SOL    HW114711   6.704   0.088   4.740
 4604SOL    HW214712   6.570   0.013   4.795
 4605SOL     OW14713   3.641   0.178   1.233
 4605SOL    HW114714   3.655   0.124   1.150
 4605SOL    HW214715   3.545   0.205   1.239
 4606SOL     OW14716   0.049   6.528   5.111
 4606SOL    HW114717   7.005   6.586   5.064
 4606SOL    HW214718   0.077   6.572   5.197
 4607SOL     OW14719   2.241   1.989   0.641
 4607SOL    HW114720   2.311   1.964   0.708
 4607SOL    HW214721   2.156   1.943   0.663
 4608SOL     OW14722   6.964   2.452   4.844
 4608SOL    HW114723   6.892   2.393   4.878
 4608SOL    HW214724   0.010   2.396   4.796
 4609SOL     OW14725   5.151   5.138   6.645
 4609SOL    HW114726   5.205   5.222   6.635
 4609SOL    HW214727   5.190   5.066   6.587
 4610SOL     OW14728   5.201   4.690   0.214
 4610SOL    HW114729   5.112   4.685   0.261
 4610SOL    HW214730   5.214   4.782   0.177
 4611SOL     OW14731   0.741   0.972   6.513
 4611SOL    HW114732   0.782   1.052   6.468
 4611SOL    HW214733   0.641   0.980   6.510
 4612SOL     OW14734   2.214   1.791   1.838
 4612SOL    HW114735   2.165   1.878   1.849
 4612SOL    HW214736   2.154   1.724   1.795
 4613SOL     OW14737   1.460   4.697   1.632
 4613SOL    HW114738   1.548   4.704   1.679
 4613SOL    HW214739   1.385   4.708   1.698
 4614SOL     OW14740   6.419   4.099   4.175
 4614SOL    HW114741   6.397   4.189   4.213
 4614SOL    HW214742   6.510   4.071   4.207
 4615SOL     OW14743   1.446   3.562   5.797
 4615SOL    HW114744   1.357   3.578   5.754
 4615SOL    HW214745   1.479   3.647   5.837
 4616SOL     OW14746   0.509   2.732   5.467
 4616SOL    HW114747   0.413   2.706   5.477
 4616SOL    HW214748   0.548   2.751   5.557
 4617SOL     OW14749   0.137   2.595   3.569
 4617SOL    HW114750   0.175   2.505   3.549
 4617SOL    HW214751   0.083   2.590   3.653
 4618SOL     OW14752   2.189   4.279   5.759
 4618SOL    HW114753   2.253   4.356   5.757
 4618SOL    HW214754   2.154   4.267   5.852
 4619SOL     OW14755   4.658   6.451   6.435
 4619SOL    HW114756   4.756   6.451   6.417
 4619SOL    HW214757   4.615   6.371   6.393
 4620SOL     OW14758   0.977   5.175   2.360
 4620SOL    HW114759   0.948   5.114   2.434
 4620SOL    HW214760   1.062   5.141   2.319
 4621SOL     OW14761   3.361   6.808   2.380
 4621SOL    HW114762   3.431   6.873   2.349
 4621SOL    HW214763   3.282   6.859   2.414
 4622SOL     OW14764   5.452   6.603   0.828
 4622SOL    HW114765   5.516   6.537   0.869
 4622SOL    HW214766   5.363   6.594   0.873
 4623SOL     OW14767   2.955   4.528   1.471
 4623SOL    HW114768   2.874   4.557   1.523
 4623SOL    HW214769   3.007   4.462   1.525
 4624SOL     OW14770   4.536   1.319   2.204
 4624SOL    HW114771   4.630   1.287   2.186
 4624SOL    HW214772   4.530   1.352   2.298
 4625SOL     OW14773   1.746   6.504   1.439
 4625SOL    HW114774   1.768   6.407   1.453
 4625SOL    HW214775   1.818   6.547   1.383
 4626SOL     OW14776   4.100   3.464   1.514
 4626SOL    HW114777   4.172   3.397   1.495
 4626SOL    HW214778   4.141   3.553   1.535
 4627SOL     OW14779   5.302   0.254   5.205
 4627SOL    HW114780   5.376   0.186   5.201
 4627SOL    HW214781   5.229   0.221   5.263
 4628SOL     OW14782   5.730   4.696   3.736
 4628SOL    HW114783   5.819   4.661   3.705
 4628SOL    HW214784   5.658   4.633   3.708
 4629SOL     OW14785   2.114   5.528   0.169
 4629SOL    HW114786   2.199   5.572   0.199
 4629SOL    HW214787   2.125   5.493   0.076
 4630SOL     OW14788   1.922   3.337   1.560
 4630SOL    HW114789   1.951   3.405   1.627
 4630SOL    HW214790   1.989   3.262   1.557
 4631SOL     OW14791   0.167   0.762   3.094
 4631SOL    HW114792   0.099   0.825   3.133
 4631SOL    HW214793   0.172   0.680   3.149
 4632SOL     OW14794   3.507   4.880   2.848
 4632SOL    HW114795   3.438   4.834   2.792
 4632SOL    HW214796   3.474   4.970   2.875
 4633SOL     OW14797   4.924   1.351   4.996
 4633SOL    HW114798   5.013   1.325   4.957
 4633SOL    HW214799   4.928   1.446   5.027
 4634SOL     OW14800   3.762   3.927   5.349
 4634SOL    HW114801   3.758   3.836   5.390
 4634SOL    HW214802   3.849   3.971   5.373
 4635SOL     OW14803   4.435   6.548   1.565
 4635SOL    HW114804   4.358   6.500   1.522
 4635SOL    HW214805   4.416   6.647   1.564
 4636SOL     OW14806   1.372   5.362   6.990
 4636SOL    HW114807   1.441   5.367   0.040
 4636SOL    HW214808   1.299   5.301   7.018
 4637SOL     OW14809   3.124   1.462   3.791
 4637SOL    HW114810   3.207   1.408   3.774
 4637SOL    HW214811   3.123   1.541   3.731
 4638SOL     OW14812   3.674   4.881   6.827
 4638SOL    HW114813   3.590   4.834   6.855
 4638SOL    HW214814   3.738   4.882   6.903
 4639SOL     OW14815   3.904   2.342   1.673
 4639SOL    HW114816   3.827   2.350   1.736
 4639SOL    HW214817   3.983   2.392   1.709
 4640SOL     OW14818   6.357   3.701   6.934
 4640SOL    HW114819   6.284   3.739   6.877
 4640SOL    HW214820   6.431   3.667   6.876
 4641SOL     OW14821   1.344   5.947   4.588
 4641SOL    HW114822   1.429   5.955   4.639
 4641SOL    HW214823   1.328   6.030   4.535
 4642SOL     OW14824   6.371   0.780   4.633
 4642SOL    HW114825   6.274   0.765   4.650
 4642SOL    HW214826   6.413   0.821   4.714
 4643SOL     OW14827   0.692   2.212   7.010
 4643SOL    HW114828   0.749   2.132   0.004
 4643SOL    HW214829   0.677   2.261   0.073
 4644SOL     OW14830   1.397   0.618   1.160
 4644SOL    HW114831   1.384   0.691   1.227
 4644SOL    HW214832   1.476   0.639   1.102
 4645SOL     OW14833   6.594   1.740   4.595
 4645SOL    HW114834   6.658   1.664   4.581
 4645SOL    HW214835   6.591   1.764   4.692
 4646SOL     OW14836   2.371   4.378   4.072
 4646SOL    HW114837   2.336   4.287   4.094
 4646SOL    HW214838   2.325   4.446   4.130
 4647SOL     OW14839   1.070   6.674   1.476
 4647SOL    HW114840   1.115   6.624   1.403
 4647SOL    HW214841   1.139   6.713   1.538
 4648SOL     OW14842   2.507   1.395   4.262
 4648SOL    HW114843   2.554   1.481   4.277
 4648SOL    HW214844   2.477   1.357   4.349
 4649SOL     OW14845   6.109   1.726   6.965
 4649SOL    HW114846   6.156   1.727   6.877
 4649SOL    HW214847   6.062   1.639   6.977
 4650SOL     OW14848   4.987   6.188   0.666
 4650SOL    HW114849   4.990   6.091   0.690
 4650SOL    HW214850   5.076   6.217   0.632
 4651SOL     OW14851   6.754   3.373   5.936
 4651SOL    HW114852   6.721   3.465   5.954
 4651SOL    HW214853   6.840   3.358   5.983
 4652SOL     OW14854   0.347   6.360   5.255
 4652SOL    HW114855   0.406   6.368   5.175
 4652SOL    HW214856   0.339   6.448   5.300
 4653SOL     OW14857   6.556   5.273   0.139
 4653SOL    HW114858   6.468   5.314   0.162
 4653SOL    HW214859   6.629   5.333   0.171
 4654SOL     OW14860   1.547   0.275   5.904
 4654SOL    HW114861   1.531   0.215   5.983
 4654SOL    HW214862   1.480   0.256   5.833
 4655SOL     OW14863   5.047   2.888   1.530
 4655SOL    HW114864   4.985   2.866   1.605
 4655SOL    HW214865   5.002   2.952   1.467
 4656SOL     OW14866   6.896   1.221   1.629
 4656SOL    HW114867   6.857   1.248   1.541
 4656SOL    HW214868   6.823   1.183   1.687
 4657SOL     OW14869   3.832   1.233   2.800
 4657SOL    HW114870   3.865   1.206   2.891
 4657SOL    HW214871   3.905   1.220   2.733
 4658SOL     OW14872   1.328   2.511   5.837
 4658SOL    HW114873   1.286   2.536   5.924
 4658SOL    HW214874   1.256   2.499   5.768
 4659SOL     OW14875   1.644   4.224   0.061
 4659SOL    HW114876   1.593   4.203   7.001
 4659SOL    HW214877   1.581   4.229   0.138
 4660SOL     OW14878   0.925   6.135   3.213
 4660SOL    HW114879   0.847   6.075   3.199
 4660SOL    HW214880   0.983   6.133   3.132
 4661SOL     OW14881   0.625   1.470   6.134
 4661SOL    HW114882   0.563   1.545   6.113
 4661SOL    HW214883   0.661   1.432   6.049
 4662SOL     OW14884   2.022   0.329   5.338
 4662SOL    HW114885   2.096   0.397   5.333
 4662SOL    HW214886   1.991   0.321   5.432
 4663SOL     OW14887   1.287   6.848   0.545
 4663SOL    HW114888   1.331   6.759   0.534
 4663SOL    HW214889   1.308   6.884   0.636
 4664SOL     OW14890   6.521   0.096   6.763
 4664SOL    HW114891   6.553   0.152   6.686
 4664SOL    HW214892   6.593   0.090   6.832
 4665SOL     OW14893   1.269   0.312   3.803
 4665SOL    HW114894   1.289   0.404   3.769
 4665SOL    HW214895   1.186   0.277   3.758
 4666SOL     OW14896   2.405   1.527   4.710
 4666SOL    HW114897   2.355   1.502   4.627
 4666SOL    HW214898   2.349   1.507   4.790
 4667SOL     OW14899   6.176   4.483   1.129
 4667SOL    HW114900   6.255   4.503   1.187
 4667SOL    HW214901   6.198   4.407   1.068
 4668SOL     OW14902   4.863   1.587   4.739
 4668SOL    HW114903   4.788   1.629   4.688
 4668SOL    HW214904   4.898   1.509   4.688
 4669SOL     OW14905   5.147   6.736   6.101
 4669SOL    HW114906   5.129   6.826   6.142
 4669SOL    HW214907   5.199   6.747   6.017
 4670SOL     OW14908   0.330   2.947   0.392
 4670SOL    HW114909   0.354   2.857   0.356
 4670SOL    HW214910   0.407   3.009   0.378
 4671SOL     OW14911   0.573   3.380   0.934
 4671SOL    HW114912   0.566   3.313   1.009
 4671SOL    HW214913   0.550   3.336   0.848
 4672SOL     OW14914   2.927   4.369   6.517
 4672SOL    HW114915   2.902   4.272   6.523
 4672SOL    HW214916   2.911   4.413   6.605
 4673SOL     OW14917   6.203   1.348   0.320
 4673SOL    HW114918   6.117   1.398   0.315
 4673SOL    HW214919   6.206   1.295   0.405
 4674SOL     OW14920   0.942   2.459   0.874
 4674SOL    HW114921   1.004   2.491   0.945
 4674SOL    HW214922   0.852   2.502   0.886
 4675SOL     OW14923   1.829   5.522   6.648
 4675SOL    HW114924   1.830   5.441   6.590
 4675SOL    HW214925   1.745   5.574   6.631
 4676SOL     OW14926   0.748   6.384   4.016
 4676SOL    HW114927   0.800   6.314   3.968
 4676SOL    HW214928   0.811   6.446   4.063
 4677SOL     OW14929   3.980   0.064   0.075
 4677SOL    HW114930   3.949   0.136   0.138
 4677SOL    HW214931   3.983   6.999   0.124
 4678SOL     OW14932   2.041   4.638   6.561
 4678SOL    HW114933   2.043   4.572   6.636
 4678SOL    HW214934   2.053   4.730   6.598
 4679SOL     OW14935   2.830   6.548   6.246
 4679SOL    HW114936   2.809   6.554   6.148
 4679SOL    HW214937   2.880   6.630   6.274
 4680SOL     OW14938   1.896   4.407   0.243
 4680SOL    HW114939   1.861   4.326   0.291
 4680SOL    HW214940   1.825   4.442   0.181
 4681SOL     OW14941   6.410   5.923   5.013
 4681SOL    HW114942   6.494   5.893   4.967
 4681SOL    HW214943   6.331   5.898   4.957
 4682SOL     OW14944   3.912   6.459   0.773
 4682SOL    HW114945   3.852   6.414   0.838
 4682SOL    HW214946   3.857   6.504   0.702
 4683SOL     OW14947   6.669   4.370   3.506
 4683SOL    HW114948   6.599   4.299   3.495
 4683SOL    HW214949   6.633   4.443   3.565
 4684SOL     OW14950   1.583   1.241   5.232
 4684SOL    HW114951   1.598   1.160   5.288
 4684SOL    HW214952   1.671   1.273   5.196
 4685SOL     OW14953   5.092   4.191   5.132
 4685SOL    HW114954   5.056   4.102   5.163
 4685SOL    HW214955   5.016   4.254   5.116
 4686SOL     OW14956   5.028   5.887   0.621
 4686SOL    HW114957   5.056   5.915   0.529
 4686SOL    HW214958   4.928   5.878   0.624
 4687SOL     OW14959   5.346   6.640   4.565
 4687SOL    HW114960   5.319   6.563   4.506
 4687SOL    HW214961   5.402   6.606   4.640
 4688SOL     OW14962   1.228   2.387   0.117
 4688SOL    HW114963   1.144   2.440   0.131
 4688SOL    HW214964   1.223   2.340   0.029
 4689SOL     OW14965   1.280   5.236   4.719
 4689SOL    HW114966   1.195   5.226   4.666
 4689SOL    HW214967   1.322   5.324   4.699
 4690SOL     OW14968   1.831   2.634   0.586
 4690SOL    HW114969   1.782   2.553   0.620
 4690SOL    HW214970   1.859   2.690   0.663
 4691SOL     OW14971   3.716   4.653   0.209
 4691SOL    HW114972   3.772   4.716   0.262
 4691SOL    HW214973   3.735   4.559   0.239
 4692SOL     OW14974   0.141   5.690   3.134
 4692SOL    HW114975   0.087   5.635   3.197
 4692SOL    HW214976   0.154   5.640   3.048
 4693SOL     OW14977   0.656   0.711   3.783
 4693SOL    HW114978   0.689   0.805   3.788
 4693SOL    HW214979   0.730   0.649   3.811
 4694SOL     OW14980   1.978   1.051   6.284
 4694SOL    HW114981   1.902   1.106   6.318
 4694SOL    HW214982   2.033   1.107   6.222
 4695SOL     OW14983   3.106   3.063   1.791
 4695SOL    HW114984   3.141   3.126   1.723
 4695SOL    HW214985   3.127   2.969   1.764
 4696SOL     OW14986   6.184   3.361   0.392
 4696SOL    HW114987   6.190   3.381   0.490
 4696SOL    HW214988   6.153   3.266   0.380
 4697SOL     OW14989   0.703   5.108   0.287
 4697SOL    HW114990   0.641   5.169   0.336
 4697SOL    HW214991   0.654   5.065   0.211
 4698SOL     OW14992   5.869   3.506   1.514
 4698SOL    HW114993   5.771   3.514   1.494
 4698SOL    HW214994   5.881   3.445   1.593
 4699SOL     OW14995   6.097   0.265   3.613
 4699SOL    HW114996   6.154   0.255   3.531
 4699SOL    HW214997   6.148   0.317   3.682
 4700SOL     OW14998   6.007   6.728   0.408
 4700SOL    HW114999   5.950   6.739   0.327
 4700SOL    HW215000   6.072   6.804   0.413
 4701SOL     OW15001   0.437   1.136   0.322
 4701SOL    HW115002   0.365   1.086   0.370
 4701SOL    HW215003   0.399   1.184   0.243
 4702SOL     OW15004   2.594   3.477   7.016
 4702SOL    HW115005   2.638   3.428   0.069
 4702SOL    HW215006   2.660   3.491   6.942
 4703SOL     OW15007   1.405   1.353   1.296
 4703SOL    HW115008   1.356   1.344   1.209
 4703SOL    HW215009   1.393   1.270   1.350
 4704SOL     OW15010   4.434   6.920   0.429
 4704SOL    HW115011   4.418   6.847   0.495
 4704SOL    HW215012   4.481   6.883   0.349
 4705SOL     OW15013   3.362   4.103   4.080
 4705SOL    HW115014   3.274   4.069   4.115
 4705SOL    HW215015   3.432   4.091   4.150
 4706SOL     OW15016   4.708   5.203   0.945
 4706SOL    HW115017   4.637   5.263   0.981
 4706SOL    HW215018   4.743   5.145   1.018
 4707SOL     OW15019   3.207   6.090   1.141
 4707SOL    HW115020   3.233   6.018   1.206
 4707SOL    HW215021   3.275   6.095   1.068
 4708SOL     OW15022   1.939   2.590   2.357
 4708SOL    HW115023   1.877   2.512   2.356
 4708SOL    HW215024   2.032   2.558   2.375
 4709SOL     OW15025   3.619   3.777   6.783
 4709SOL    HW115026   3.583   3.864   6.749
 4709SOL    HW215027   3.615   3.776   6.883
 4710SOL     OW15028   5.026   2.347   0.573
 4710SOL    HW115029   5.021   2.271   0.508
 4710SOL    HW215030   5.120   2.382   0.576
 4711SOL     OW15031   3.163   6.580   2.830
 4711SOL    HW115032   3.167   6.650   2.759
 4711SOL    HW215033   3.097   6.607   2.900
 4712SOL     OW15034   1.156   4.798   0.466
 4712SOL    HW115035   1.140   4.712   0.417
 4712SOL    HW215036   1.105   4.796   0.553
 4713SOL     OW15037   2.864   5.848   1.102
 4713SOL    HW115038   2.896   5.938   1.133
 4713SOL    HW215039   2.775   5.829   1.143
 4714SOL     OW15040   3.200   2.735   0.729
 4714SOL    HW115041   3.142   2.811   0.760
 4714SOL    HW215042   3.191   2.658   0.792
 4715SOL     OW15043   5.468   4.148   4.788
 4715SOL    HW115044   5.442   4.134   4.693
 4715SOL    HW215045   5.385   4.163   4.843
 4716SOL     OW15046   2.973   5.742   0.322
 4716SOL    HW115047   2.942   5.679   0.250
 4716SOL    HW215048   2.917   5.728   0.404
 4717SOL     OW15049   0.949   5.634   3.646
 4717SOL    HW115050   0.912   5.641   3.553
 4717SOL    HW215051   0.996   5.546   3.656
 4718SOL     OW15052   5.644   1.161   6.161
 4718SOL    HW115053   5.653   1.260   6.148
 4718SOL    HW215054   5.697   1.113   6.092
 4719SOL     OW15055   4.232   3.043   1.555
 4719SOL    HW115056   4.321   3.065   1.596
 4719SOL    HW215057   4.205   3.117   1.494
 4720SOL     OW15058   3.115   0.655   4.057
 4720SOL    HW115059   3.163   0.679   4.141
 4720SOL    HW215060   3.142   0.717   3.984
 4721SOL     OW15061   1.122   1.642   0.948
 4721SOL    HW115062   1.102   1.739   0.956
 4721SOL    HW215063   1.220   1.628   0.938
 4722SOL     OW15064   2.636   0.247   1.794
 4722SOL    HW115065   2.623   0.344   1.771
 4722SOL    HW215066   2.730   0.233   1.824
 4723SOL     OW15067   3.086   0.307   6.887
 4723SOL    HW115068   3.072   0.213   6.856
 4723SOL    HW215069   3.175   0.339   6.857
 4724SOL     OW15070   3.787   5.213   1.875
 4724SOL    HW115071   3.884   5.217   1.852
 4724SOL    HW215072   3.776   5.161   1.960
 4725SOL     OW15073   6.009   5.568   3.451
 4725SOL    HW115074   5.940   5.558   3.379
 4725SOL    HW215075   6.006   5.660   3.489
 4726SOL     OW15076   0.935   6.118   5.863
 4726SOL    HW115077   1.002   6.137   5.791
 4726SOL    HW215078   0.891   6.030   5.846
 4727SOL     OW15079   0.091   6.664   0.777
 4727SOL    HW115080   0.090   6.698   0.871
 4727SOL    HW215081   0.178   6.686   0.734
 4728SOL     OW15082   0.286   1.421   6.737
 4728SOL    HW115083   0.358   1.415   6.669
 4728SOL    HW215084   0.277   1.334   6.785
 4729SOL     OW15085   3.127   0.478   0.474
 4729SOL    HW115086   3.057   0.537   0.513
 4729SOL    HW215087   3.103   0.382   0.493
 4730SOL     OW15088   2.005   0.014   5.395
 4730SOL    HW115089   1.928   6.974   5.387
 4730SOL    HW215090   2.004   0.078   5.318
 4731SOL     OW15091   5.732   2.055   5.971
 4731SOL    HW115092   5.777   2.006   6.045
 4731SOL    HW215093   5.749   2.008   5.884
 4732SOL     OW15094   0.728   1.679   0.688
 4732SOL    HW115095   0.642   1.647   0.727
 4732SOL    HW215096   0.708   1.741   0.612
 4733SOL     OW15097   6.842   2.986   4.175
 4733SOL    HW115098   6.904   2.960   4.249
 4733SOL    HW215099   6.846   3.085   4.162
 4734SOL     OW15100   4.597   4.504   5.898
 4734SOL    HW115101   4.659   4.580   5.879
 4734SOL    HW215102   4.572   4.505   5.995
 4735SOL     OW15103   0.338   4.612   3.593
 4735SOL    HW115104   0.383   4.545   3.535
 4735SOL    HW215105   0.402   4.684   3.618
 4736SOL     OW15106   1.043   0.896   1.587
 4736SOL    HW115107   1.070   0.817   1.532
 4736SOL    HW215108   1.051   0.873   1.684
 4737SOL     OW15109   3.183   5.423   1.607
 4737SOL    HW115110   3.233   5.364   1.670
 4737SOL    HW215111   3.133   5.493   1.659
 4738SOL     OW15112   6.944   6.002   2.890
 4738SOL    HW115113   6.933   6.063   2.968
 4738SOL    HW215114   6.915   6.049   2.807
 4739SOL     OW15115   4.737   0.755   1.525
 4739SOL    HW115116   4.802   0.734   1.451
 4739SOL    HW215117   4.740   0.854   1.544
 4740SOL     OW15118   0.976   2.388   3.711
 4740SOL    HW115119   0.878   2.396   3.729
 4740SOL    HW215120   1.024   2.364   3.795
 4741SOL     OW15121   3.809   4.424   1.345
 4741SOL    HW115122   3.747   4.378   1.281
 4741SOL    HW215123   3.873   4.357   1.384
 4742SOL     OW15124   3.737   1.058   0.440
 4742SOL    HW115125   3.693   1.000   0.509
 4742SOL    HW215126   3.668   1.090   0.375
 4743SOL     OW15127   1.820   4.854   0.729
 4743SOL    HW115128   1.904   4.883   0.774
 4743SOL    HW215129   1.779   4.932   0.681
 4744SOL     OW15130   2.348   5.771   1.377
 4744SOL    HW115131   2.251   5.756   1.356
 4744SOL    HW215132   2.369   5.730   1.466
 4745SOL     OW15133   0.725   3.849   0.029
 4745SOL    HW115134   0.710   3.946   0.010
 4745SOL    HW215135   0.783   3.809   6.981
 4746SOL     OW15136   4.393   5.616   4.600
 4746SOL    HW115137   4.468   5.595   4.663
 4746SOL    HW215138   4.356   5.707   4.622
 4747SOL     OW15139   2.066   1.087   6.976
 4747SOL    HW115140   2.083   1.183   6.954
 4747SOL    HW215141   2.153   1.037   6.976
 4748SOL     OW15142   1.707   6.361   1.813
 4748SOL    HW115143   1.686   6.434   1.878
 4748SOL    HW215144   1.627   6.344   1.755
 4749SOL     OW15145   2.972   2.290   0.247
 4749SOL    HW115146   3.012   2.217   0.191
 4749SOL    HW215147   2.915   2.249   0.319
 4750SOL     OW15148   5.067   2.856   5.465
 4750SOL    HW115149   5.016   2.921   5.409
 4750SOL    HW215150   5.154   2.834   5.421
 4751SOL     OW15151   4.526   0.494   3.044
 4751SOL    HW115152   4.563   0.443   3.122
 4751SOL    HW215153   4.433   0.526   3.066
 4752SOL     OW15154   4.878   2.080   6.594
 4752SOL    HW115155   4.784   2.067   6.626
 4752SOL    HW215156   4.899   2.177   6.591
 4753SOL     OW15157   2.862   6.246   4.667
 4753SOL    HW115158   2.821   6.337   4.665
 4753SOL    HW215159   2.945   6.246   4.610
 4754SOL     OW15160   4.551   4.430   6.538
 4754SOL    HW115161   4.479   4.471   6.595
 4754SOL    HW215162   4.544   4.331   6.542
 4755SOL     OW15163   0.724   1.128   1.263
 4755SOL    HW115164   0.708   1.202   1.329
 4755SOL    HW215165   0.814   1.087   1.280
 4756SOL     OW15166   6.300   3.880   5.577
 4756SOL    HW115167   6.238   3.834   5.641
 4756SOL    HW215168   6.385   3.827   5.569
 4757SOL     OW15169   1.860   3.904   0.613
 4757SOL    HW115170   1.916   3.826   0.583
 4757SOL    HW215171   1.765   3.875   0.623
 4758SOL     OW15172   2.329   6.033   3.099
 4758SOL    HW115173   2.286   5.970   3.033
 4758SOL    HW215174   2.412   6.071   3.059
 4759SOL     OW15175   6.846   6.451   1.714
 4759SOL    HW115176   6.801   6.369   1.749
 4759SOL    HW215177   6.857   6.444   1.615
 4760SOL     OW15178   1.546   5.686   0.698
 4760SOL    HW115179   1.615   5.742   0.654
 4760SOL    HW215180   1.521   5.726   0.786
 4761SOL     OW15181   5.801   6.562   2.033
 4761SOL    HW115182   5.891   6.591   2.065
 4761SOL    HW215183   5.810   6.476   1.982
 4762SOL     OW15184   2.043   0.705   2.527
 4762SOL    HW115185   1.958   0.733   2.571
 4762SOL    HW215186   2.022   0.666   2.437
 4763SOL     OW15187   5.811   5.516   2.495
 4763SOL    HW115188   5.788   5.471   2.409
 4763SOL    HW215189   5.890   5.470   2.536
 4764SOL     OW15190   4.772   2.329   0.245
 4764SOL    HW115191   4.715   2.363   0.320
 4764SOL    HW215192   4.805   2.237   0.266
 4765SOL     OW15193   3.713   1.499   5.586
 4765SOL    HW115194   3.765   1.478   5.669
 4765SOL    HW215195   3.665   1.585   5.598
 4766SOL     OW15196   0.914   0.318   4.737
 4766SOL    HW115197   0.899   0.249   4.808
 4766SOL    HW215198   0.843   0.388   4.744
 4767SOL     OW15199   2.160   3.945   3.180
 4767SOL    HW115200   2.139   4.037   3.212
 4767SOL    HW215201   2.188   3.948   3.084
 4768SOL     OW15202   4.849   2.941   6.338
 4768SOL    HW115203   4.906   2.948   6.420
 4768SOL    HW215204   4.753   2.956   6.363
 4769SOL     OW15205   1.903   3.518   0.573
 4769SOL    HW115206   1.832   3.578   0.535
 4769SOL    HW215207   1.874   3.423   0.564
 4770SOL     OW15208   0.205   1.531   4.049
 4770SOL    HW115209   0.130   1.482   4.005
 4770SOL    HW215210   0.180   1.628   4.060
 4771SOL     OW15211   1.936   6.870   4.010
 4771SOL    HW115212   1.904   6.914   4.094
 4771SOL    HW215213   1.856   6.837   3.959
 4772SOL     OW15214   3.317   5.544   2.552
 4772SOL    HW115215   3.242   5.606   2.530
 4772SOL    HW215216   3.358   5.569   2.640
 4773SOL     OW15217   2.755   4.915   5.012
 4773SOL    HW115218   2.699   4.962   4.945
 4773SOL    HW215219   2.777   4.823   4.979
 4774SOL     OW15220   1.106   4.445   0.736
 4774SOL    HW115221   1.115   4.352   0.773
 4774SOL    HW215222   1.193   4.474   0.696
 4775SOL     OW15223   6.024   6.398   5.478
 4775SOL    HW115224   5.929   6.405   5.507
 4775SOL    HW215225   6.047   6.302   5.461
 4776SOL     OW15226   0.439   1.165   5.983
 4776SOL    HW115227   0.517   1.184   6.042
 4776SOL    HW215228   0.423   1.244   5.923
 4777SOL     OW15229   2.368   0.325   2.591
 4777SOL    HW115230   2.281   0.317   2.639
 4777SOL    HW215231   2.370   0.412   2.542
 4778SOL     OW15232   1.988   1.349   0.283
 4778SOL    HW115233   1.943   1.283   0.343
 4778SOL    HW215234   2.056   1.302   0.227
 4779SOL     OW15235   5.110   0.209   4.671
 4779SOL    HW115236   5.142   0.154   4.593
 4779SOL    HW215237   5.186   0.225   4.734
 4780SOL     OW15238   5.016   2.605   5.340
 4780SOL    HW115239   4.933   2.552   5.322
 4780SOL    HW215240   4.993   2.688   5.391
 4781SOL     OW15241   1.965   6.021   1.646
 4781SOL    HW115242   1.895   6.048   1.712
 4781SOL    HW215243   2.000   5.930   1.669
 4782SOL     OW15244   6.700   6.894   4.398
 4782SOL    HW115245   6.796   6.906   4.426
 4782SOL    HW215246   6.643   6.885   4.480
 4783SOL     OW15247   0.070   3.676   5.985
 4783SOL    HW115248   0.124   3.600   6.021
 4783SOL    HW215249   0.128   3.757   5.976
 4784SOL     OW15250   5.390   3.592   6.941
 4784SOL    HW115251   5.344   3.611   6.854
 4784SOL    HW215252   5.336   3.525   6.993
 4785SOL     OW15253   0.489   0.144   4.450
 4785SOL    HW115254   0.580   0.119   4.415
 4785SOL    HW215255   0.437   0.061   4.469
 4786SOL     OW15256   1.268   6.251   0.840
 4786SOL    HW115257   1.244   6.213   0.929
 4786SOL    HW215258   1.269   6.178   0.772
 4787SOL     OW15259   4.197   1.344   4.013
 4787SOL    HW115260   4.225   1.277   4.081
 4787SOL    HW215261   4.273   1.359   3.949
 4788SOL     OW15262   7.018   6.234   0.342
 4788SOL    HW115263   6.985   6.197   0.255
 4788SOL    HW215264   0.018   6.158   0.403
 4789SOL     OW15265   5.644   0.939   2.624
 4789SOL    HW115266   5.644   0.935   2.723
 4789SOL    HW215267   5.667   0.849   2.586
 4790SOL     OW15268   6.723   1.952   4.961
 4790SOL    HW115269   6.653   1.896   4.917
 4790SOL    HW215270   6.714   1.944   5.060
 4791SOL     OW15271   1.047   0.139   0.538
 4791SOL    HW115272   1.089   0.118   0.626
 4791SOL    HW215273   1.090   0.084   0.467
 4792SOL     OW15274   1.891   3.424   2.357
 4792SOL    HW115275   1.873   3.357   2.285
 4792SOL    HW215276   1.976   3.472   2.338
 4793SOL     OW15277   1.097   3.667   5.733
 4793SOL    HW115278   1.050   3.690   5.648
 4793SOL    HW215279   1.029   3.649   5.805
 4794SOL     OW15280   4.407   1.898   4.757
 4794SOL    HW115281   4.428   1.803   4.782
 4794SOL    HW215282   4.376   1.901   4.662
 4795SOL     OW15283   6.826   0.829   6.535
 4795SOL    HW115284   6.760   0.901   6.556
 4795SOL    HW215285   6.816   0.755   6.601
 4796SOL     OW15286   4.666   1.321   5.377
 4796SOL    HW115287   4.588   1.266   5.410
 4796SOL    HW215288   4.703   1.374   5.454
 4797SOL     OW15289   1.545   5.119   5.583
 4797SOL    HW115290   1.600   5.039   5.611
 4797SOL    HW215291   1.534   5.180   5.661
 4798SOL     OW15292   3.917   5.703   0.045
 4798SOL    HW115293   3.827   5.684   0.082
 4798SOL    HW215294   3.941   5.633   7.001
 4799SOL     OW15295   4.379   2.683   0.018
 4799SOL    HW115296   4.418   2.620   6.973
 4799SOL    HW215297   4.427   2.674   0.105
 4800SOL     OW15298   0.284   4.273   7.019
 4800SOL    HW115299   0.280   4.195   6.957
 4800SOL    HW215300   0.337   4.249   0.078
 4801SOL     OW15301   5.157   2.235   2.211
 4801SOL    HW115302   5.125   2.141   2.197
 4801SOL    HW215303   5.177   2.277   2.123
 4802SOL     OW15304   6.702   0.455   4.467
 4802SOL    HW115305   6.664   0.420   4.382
 4802SOL    HW215306   6.647   0.533   4.499
 4803SOL     OW15307   4.799   3.803   5.842
 4803SOL    HW115308   4.803   3.903   5.842
 4803SOL    HW215309   4.717   3.772   5.794
 4804SOL     OW15310   5.400   2.211   0.501
 4804SOL    HW115311   5.398   2.117   0.534
 4804SOL    HW215312   5.412   2.273   0.578
 4805SOL     OW15313   6.045   1.768   6.669
 4805SOL    HW115314   6.088   1.686   6.630
 4805SOL    HW215315   5.951   1.774   6.637
 4806SOL     OW15316   1.443   1.504   3.670
 4806SOL    HW115317   1.377   1.493   3.595
 4806SOL    HW215318   1.533   1.476   3.638
 4807SOL     OW15319   0.092   4.332   5.836
 4807SOL    HW115320   0.191   4.349   5.835
 4807SOL    HW215321   0.065   4.287   5.751
 4808SOL     OW15322   4.025   5.704   1.620
 4808SOL    HW115323   3.940   5.753   1.600
 4808SOL    HW215324   4.103   5.757   1.588
 4809SOL     OW15325   2.871   3.461   1.634
 4809SOL    HW115326   2.784   3.412   1.642
 4809SOL    HW215327   2.923   3.426   1.556
 4810SOL     OW15328   1.195   5.442   4.184
 4810SOL    HW115329   1.267   5.409   4.245
 4810SOL    HW215330   1.123   5.373   4.176
 4811SOL     OW15331   3.354   3.626   4.117
 4811SOL    HW115332   3.440   3.581   4.140
 4811SOL    HW215333   3.278   3.564   4.133
 4812SOL     OW15334   1.405   0.303   2.911
 4812SOL    HW115335   1.331   0.340   2.966
 4812SOL    HW215336   1.370   0.228   2.854
 4813SOL     OW15337   0.416   1.513   5.551
 4813SOL    HW115338   0.381   1.528   5.458
 4813SOL    HW215339   0.515   1.504   5.548
 4814SOL     OW15340   6.336   3.838   1.487
 4814SOL    HW115341   6.252   3.876   1.448
 4814SOL    HW215342   6.325   3.827   1.586
 4815SOL     OW15343   6.221   4.615   2.440
 4815SOL    HW115344   6.121   4.609   2.439
 4815SOL    HW215345   6.255   4.595   2.531
 4816SOL     OW15346   3.413   0.911   2.495
 4816SOL    HW115347   3.358   0.835   2.530
 4816SOL    HW215348   3.362   0.960   2.425
 4817SOL     OW15349   3.950   1.453   0.913
 4817SOL    HW115350   3.943   1.532   0.974
 4817SOL    HW215351   4.035   1.404   0.931
 4818SOL     OW15352   4.288   0.148   4.944
 4818SOL    HW115353   4.384   0.155   4.969
 4818SOL    HW215354   4.269   0.056   4.910
 4819SOL     OW15355   2.981   1.159   0.681
 4819SOL    HW115356   2.949   1.249   0.652
 4819SOL    HW215357   2.996   1.101   0.601
 4820SOL     OW15358   5.912   4.278   2.101
 4820SOL    HW115359   5.887   4.269   2.197
 4820SOL    HW215360   5.872   4.201   2.049
 4821SOL     OW15361   0.292   5.635   1.925
 4821SOL    HW115362   0.310   5.609   2.020
 4821SOL    HW215363   0.203   5.599   1.897
 4822SOL     OW15364   0.939   3.760   1.922
 4822SOL    HW115365   0.870   3.811   1.872
 4822SOL    HW215366   0.902   3.732   2.011
 4823SOL     OW15367   1.492   0.956   3.802
 4823SOL    HW115368   1.586   0.973   3.830
 4823SOL    HW215369   1.484   0.970   3.703
 4824SOL     OW15370   5.827   2.809   1.687
 4824SOL    HW115371   5.745   2.762   1.655
 4824SOL    HW215372   5.836   2.896   1.639
 4825SOL     OW15373   0.124   3.277   3.413
 4825SOL    HW115374   0.192   3.286   3.340
 4825SOL    HW215375   0.148   3.337   3.489
 4826SOL     OW15376   6.739   6.120   6.806
 4826SOL    HW115377   6.725   6.218   6.787
 4826SOL    HW215378   6.750   6.106   6.905
 4827SOL     OW15379   5.667   1.138   1.336
 4827SOL    HW115380   5.610   1.121   1.416
 4827SOL    HW215381   5.764   1.130   1.362
 4828SOL     OW15382   4.945   3.365   6.922
 4828SOL    HW115383   5.040   3.390   6.904
 4828SOL    HW215384   4.940   3.267   6.942
 4829SOL     OW15385   3.774   0.222   5.203
 4829SOL    HW115386   3.726   0.243   5.118
 4829SOL    HW215387   3.872   0.209   5.184
 4830SOL     OW15388   4.094   6.100   5.139
 4830SOL    HW115389   4.119   6.006   5.117
 4830SOL    HW215390   4.139   6.163   5.075
 4831SOL     OW15391   6.190   3.255   5.980
 4831SOL    HW115392   6.184   3.304   5.892
 4831SOL    HW215393   6.120   3.184   5.983
 4832SOL     OW15394   2.039   2.835   6.152
 4832SOL    HW115395   2.087   2.747   6.149
 4832SOL    HW215396   2.031   2.865   6.247
 4833SOL     OW15397   5.787   1.584   3.195
 4833SOL    HW115398   5.692   1.558   3.179
 4833SOL    HW215399   5.829   1.612   3.109
 4834SOL     OW15400   5.664   1.231   3.305
 4834SOL    HW115401   5.622   1.147   3.339
 4834SOL    HW215402   5.596   1.304   3.304
 4835SOL     OW15403   1.973   0.685   5.461
 4835SOL    HW115404   1.938   0.636   5.381
 4835SOL    HW215405   1.896   0.724   5.513
 4836SOL     OW15406   5.429   2.804   1.914
 4836SOL    HW115407   5.351   2.807   1.978
 4836SOL    HW215408   5.401   2.843   1.826
 4837SOL     OW15409   0.228   3.828   1.239
 4837SOL    HW115410   0.135   3.848   1.208
 4837SOL    HW215411   0.259   3.901   1.300
 4838SOL     OW15412   2.764   5.580   2.516
 4838SOL    HW115413   2.747   5.488   2.479
 4838SOL    HW215414   2.707   5.595   2.596
 4839SOL     OW15415   0.686   6.916   6.943
 4839SOL    HW115416   0.659   6.820   6.948
 4839SOL    HW215417   0.770   6.930   6.996
 4840SOL     OW15418   6.369   6.746   6.913
 4840SOL    HW115419   6.380   6.711   6.819
 4840SOL    HW215420   6.273   6.740   6.940
 4841SOL     OW15421   2.736   6.164   2.553
 4841SOL    HW115422   2.831   6.150   2.524
 4841SOL    HW215423   2.705   6.253   2.523
 4842SOL     OW15424   3.577   6.173   1.354
 4842SOL    HW115425   3.655   6.193   1.412
 4842SOL    HW215426   3.572   6.240   1.280
 4843SOL     OW15427   1.084   2.775   6.919
 4843SOL    HW115428   1.115   2.848   6.858
 4843SOL    HW215429   0.988   2.752   6.898
 4844SOL     OW15430   0.427   1.380   5.832
 4844SOL    HW115431   0.404   1.382   5.734
 4844SOL    HW215432   0.526   1.387   5.843
 4845SOL     OW15433   5.643   5.141   4.001
 4845SOL    HW115434   5.561   5.196   3.983
 4845SOL    HW215435   5.721   5.181   3.951
 4846SOL     OW15436   0.507   5.202   0.479
 4846SOL    HW115437   0.449   5.282   0.466
 4846SOL    HW215438   0.519   5.184   0.577
 4847SOL     OW15439   4.990   2.424   4.412
 4847SOL    HW115440   4.945   2.497   4.463
 4847SOL    HW215441   5.089   2.434   4.420
 4848SOL     OW15442   2.810   2.072   1.981
 4848SOL    HW115443   2.733   2.040   2.038
 4848SOL    HW215444   2.849   2.154   2.022
 4849SOL     OW15445   1.090   6.710   6.775
 4849SOL    HW115446   1.119   6.797   6.736
 4849SOL    HW215447   1.137   6.635   6.728
 4850SOL     OW15448   3.920   0.793   2.907
 4850SOL    HW115449   3.989   0.851   2.864
 4850SOL    HW215450   3.949   0.697   2.904
 4851SOL     OW15451   5.310   0.808   5.264
 4851SOL    HW115452   5.247   0.803   5.341
 4851SOL    HW215453   5.267   0.765   5.184
 4852SOL     OW15454   2.130   2.286   1.582
 4852SOL    HW115455   2.132   2.187   1.599
 4852SOL    HW215456   2.115   2.334   1.668
 4853SOL     OW15457   3.224   1.640   1.645
 4853SOL    HW115458   3.157   1.713   1.662
 4853SOL    HW215459   3.293   1.640   1.717
 4854SOL     OW15460   4.094   0.162   0.445
 4854SOL    HW115461   4.057   0.075   0.477
 4854SOL    HW215462   4.045   0.191   0.363
 4855SOL     OW15463   0.064   2.421   2.581
 4855SOL    HW115464   0.067   2.337   2.635
 4855SOL    HW215465   0.134   2.484   2.614
 4856SOL     OW15466   2.085   4.225   3.164
 4856SOL    HW115467   2.074   4.274   3.078
 4856SOL    HW215468   2.138   4.280   3.228
 4857SOL     OW15469   0.335   1.000   6.196
 4857SOL    HW115470   0.375   1.031   6.110
 4857SOL    HW215471   0.285   1.075   6.239
 4858SOL     OW15472   1.236   0.579   4.014
 4858SOL    HW115473   1.162   0.646   4.007
 4858SOL    HW215474   1.297   0.589   3.936
 4859SOL     OW15475   3.318   5.421   5.689
 4859SOL    HW115476   3.240   5.380   5.642
 4859SOL    HW215477   3.401   5.406   5.635
 4860SOL     OW15478   4.482   4.200   0.343
 4860SOL    HW115479   4.555   4.141   0.378
 4860SOL    HW215480   4.396   4.149   0.340
 4861SOL     OW15481   5.159   3.794   5.433
 4861SOL    HW115482   5.210   3.870   5.393
 4861SOL    HW215483   5.182   3.786   5.530
 4862SOL     OW15484   0.793   6.537   1.539
 4862SOL    HW115485   0.862   6.609   1.551
 4862SOL    HW215486   0.827   6.470   1.473
 4863SOL     OW15487   5.181   4.289   6.599
 4863SOL    HW115488   5.263   4.341   6.576
 4863SOL    HW215489   5.121   4.346   6.655
 4864SOL     OW15490   3.131   0.864   3.873
 4864SOL    HW115491   3.116   0.924   3.794
 4864SOL    HW215492   3.132   0.918   3.957
 4865SOL     OW15493   2.207   6.495   4.854
 4865SOL    HW115494   2.196   6.536   4.763
 4865SOL    HW215495   2.133   6.528   4.914
 4866SOL     OW15496   6.160   3.956   6.231
 4866SOL    HW115497   6.226   4.008   6.176
 4866SOL    HW215498   6.086   4.017   6.260
 4867SOL     OW15499   4.381   0.126   2.860
 4867SOL    HW115500   4.419   0.040   2.895
 4867SOL    HW215501   4.455   0.191   2.842
 4868SOL     OW15502   6.726   4.631   0.997
 4868SOL    HW115503   6.802   4.655   1.058
 4868SOL    HW215504   6.756   4.636   0.902
 4869SOL     OW15505   0.822   0.937   0.387
 4869SOL    HW115506   0.780   1.023   0.358
 4869SOL    HW215507   0.922   0.947   0.386
 4870SOL     OW15508   0.520   6.248   2.341
 4870SOL    HW115509   0.600   6.197   2.311
 4870SOL    HW215510   0.533   6.345   2.324
 4871SOL     OW15511   1.977   1.417   4.144
 4871SOL    HW115512   2.004   1.430   4.049
 4871SOL    HW215513   2.033   1.345   4.185
 4872SOL     OW15514   5.881   6.404   3.047
 4872SOL    HW115515   5.868   6.353   3.132
 4872SOL    HW215516   5.933   6.349   2.982
 4873SOL     OW15517   6.389   5.542   5.087
 4873SOL    HW115518   6.300   5.587   5.098
 4873SOL    HW215519   6.374   5.449   5.052
 4874SOL     OW15520   4.964   2.843   3.085
 4874SOL    HW115521   4.963   2.918   3.019
 4874SOL    HW215522   5.023   2.867   3.162
 4875SOL     OW15523   5.601   6.147   5.060
 4875SOL    HW115524   5.508   6.114   5.050
 4875SOL    HW215525   5.603   6.225   5.121
 4876SOL     OW15526   1.354   1.113   2.230
 4876SOL    HW115527   1.453   1.103   2.239
 4876SOL    HW215528   1.326   1.200   2.270
 4877SOL     OW15529   6.850   1.665   5.275
 4877SOL    HW115530   6.915   1.611   5.328
 4877SOL    HW215531   6.831   1.750   5.322
 4878SOL     OW15532   6.860   2.702   2.525
 4878SOL    HW115533   6.791   2.755   2.475
 4878SOL    HW215534   6.892   2.627   2.467
 4879SOL     OW15535   5.840   1.135   2.645
 4879SOL    HW115536   5.846   1.160   2.548
 4879SOL    HW215537   5.776   1.060   2.656
 4880SOL     OW15538   6.585   3.109   6.542
 4880SOL    HW115539   6.554   3.111   6.448
 4880SOL    HW215540   6.511   3.078   6.602
 4881SOL     OW15541   1.781   2.484   1.624
 4881SOL    HW115542   1.838   2.456   1.702
 4881SOL    HW215543   1.777   2.584   1.620
 4882SOL     OW15544   4.295   1.839   4.497
 4882SOL    HW115545   4.339   1.861   4.410
 4882SOL    HW215546   4.245   1.753   4.488
 4883SOL     OW15547   5.888   4.254   0.846
 4883SOL    HW115548   5.895   4.323   0.918
 4883SOL    HW215549   5.894   4.299   0.757
 4884SOL     OW15550   1.752   0.010   1.512
 4884SOL    HW115551   1.675   0.074   1.518
 4884SOL    HW215552   1.769   7.010   1.416
 4885SOL     OW15553   1.323   4.454   0.111
 4885SOL    HW115554   1.355   4.389   0.180
 4885SOL    HW215555   1.397   4.516   0.087
 4886SOL     OW15556   2.641   1.278   2.112
 4886SOL    HW115557   2.602   1.287   2.203
 4886SOL    HW215558   2.723   1.334   2.104
 4887SOL     OW15559   5.959   6.387   0.933
 4887SOL    HW115560   5.952   6.483   0.958
 4887SOL    HW215561   6.029   6.342   0.989
 4888SOL     OW15562   3.821   0.051   2.753
 4888SOL    HW115563   3.829   0.066   2.851
 4888SOL    HW215564   3.912   0.035   2.714
 4889SOL     OW15565   6.858   3.045   3.669
 4889SOL    HW115566   6.778   3.068   3.614
 4889SOL    HW215567   6.855   3.094   3.756
 4890SOL     OW15568   6.314   1.618   4.764
 4890SOL    HW115569   6.368   1.547   4.718
 4890SOL    HW215570   6.271   1.579   4.845
 4891SOL     OW15571   2.704   5.334   6.027
 4891SOL    HW115572   2.763   5.400   5.980
 4891SOL    HW215573   2.705   5.247   5.978
 4892SOL     OW15574   5.119   5.743   2.719
 4892SOL    HW115575   5.071   5.713   2.802
 4892SOL    HW215576   5.075   5.825   2.683
 4893SOL     OW15577   1.069   3.325   1.117
 4893SOL    HW115578   1.112   3.411   1.089
 4893SOL    HW215579   1.037   3.333   1.211
 4894SOL     OW15580   5.297   6.800   1.677
 4894SOL    HW115581   5.393   6.812   1.653
 4894SOL    HW215582   5.290   6.752   1.764
 4895SOL     OW15583   6.985   4.561   4.944
 4895SOL    HW115584   6.986   4.468   4.905
 4895SOL    HW215585   0.045   4.575   4.998
 4896SOL     OW15586   1.684   4.725   4.580
 4896SOL    HW115587   1.692   4.680   4.669
 4896SOL    HW215588   1.634   4.811   4.590
 4897SOL     OW15589   1.840   6.830   5.365
 4897SOL    HW115590   1.797   6.803   5.279
 4897SOL    HW215591   1.773   6.824   5.439
 4898SOL     OW15592   5.221   1.588   3.635
 4898SOL    HW115593   5.150   1.519   3.644
 4898SOL    HW215594   5.210   1.637   3.549
 4899SOL     OW15595   6.651   6.792   1.905
 4899SOL    HW115596   6.636   6.732   1.984
 4899SOL    HW215597   6.631   6.742   1.821
 4900SOL     OW15598   3.749   5.935   5.589
 4900SOL    HW115599   3.665   5.984   5.568
 4900SOL    HW215600   3.828   5.994   5.569
 4901SOL     OW15601   1.228   0.817   6.303
 4901SOL    HW115602   1.176   0.768   6.373
 4901SOL    HW215603   1.165   0.867   6.243
 4902SOL     OW15604   2.132   6.707   5.673
 4902SOL    HW115605   2.138   6.807   5.678
 4902SOL    HW215606   2.115   6.679   5.579
 4903SOL     OW15607   4.985   3.846   2.882
 4903SOL    HW115608   5.001   3.760   2.931
 4903SOL    HW215609   5.009   3.835   2.786
 4904SOL     OW15610   1.477   6.677   0.476
 4904SOL    HW115611   1.545   6.717   0.538
 4904SOL    HW215612   1.485   6.577   0.477
 4905SOL     OW15613   3.146   6.158   3.190
 4905SOL    HW115614   3.203   6.226   3.234
 4905SOL    HW215615   3.055   6.158   3.232
 4906SOL     OW15616   4.959   3.472   4.798
 4906SOL    HW115617   5.058   3.486   4.810
 4906SOL    HW215618   4.909   3.530   4.861
 4907SOL     OW15619   4.304   1.998   0.120
 4907SOL    HW115620   4.303   2.098   0.121
 4907SOL    HW215621   4.390   1.965   0.081
 4908SOL     OW15622   3.735   6.891   0.317
 4908SOL    HW115623   3.705   6.808   0.365
 4908SOL    HW215624   3.655   6.937   0.278
 4909SOL     OW15625   5.315   5.166   4.617
 4909SOL    HW115626   5.367   5.171   4.703
 4909SOL    HW215627   5.253   5.088   4.622
 4910SOL     OW15628   4.670   2.296   5.963
 4910SOL    HW115629   4.660   2.208   5.916
 4910SOL    HW215630   4.755   2.340   5.934
 4911SOL     OW15631   6.616   2.846   2.434
 4911SOL    HW115632   6.604   2.943   2.411
 4911SOL    HW215633   6.577   2.827   2.523
 4912SOL     OW15634   5.715   2.725   3.802
 4912SOL    HW115635   5.662   2.706   3.720
 4912SOL    HW215636   5.683   2.665   3.876
 4913SOL     OW15637   0.971   4.011   5.727
 4913SOL    HW115638   0.919   3.987   5.645
 4913SOL    HW215639   0.915   3.993   5.808
 4914SOL     OW15640   4.270   0.610   3.757
 4914SOL    HW115641   4.302   0.681   3.820
 4914SOL    HW215642   4.347   0.574   3.705
 4915SOL     OW15643   3.497   5.185   5.614
 4915SOL    HW115644   3.513   5.187   5.712
 4915SOL    HW215645   3.408   5.144   5.595
 4916SOL     OW15646   5.630   2.546   4.044
 4916SOL    HW115647   5.531   2.534   4.040
 4916SOL    HW215648   5.652   2.615   4.113
 4917SOL     OW15649   3.930   6.552   0.228
 4917SOL    HW115650   4.012   6.574   0.281
 4917SOL    HW215651   3.899   6.460   0.251
 4918SOL     OW15652   6.236   4.837   3.536
 4918SOL    HW115653   6.162   4.772   3.555
 4918SOL    HW215654   6.243   4.903   3.611
 4919SOL     OW15655   3.091   4.005   2.146
 4919SOL    HW115656   3.040   4.091   2.152
 4919SOL    HW215657   3.037   3.938   2.096
 4920SOL     OW15658   6.265   1.646   6.140
 4920SOL    HW115659   6.266   1.630   6.041
 4920SOL    HW215660   6.174   1.678   6.167
 4921SOL     OW15661   0.331   0.183   2.836
 4921SOL    HW115662   0.395   0.205   2.910
 4921SOL    HW215663   0.244   0.154   2.874
 4922SOL     OW15664   3.569   1.938   6.087
 4922SOL    HW115665   3.521   1.854   6.112
 4922SOL    HW215666   3.526   2.016   6.132
 4923SOL     OW15667   3.862   1.402   2.100
 4923SOL    HW115668   3.804   1.454   2.164
 4923SOL    HW215669   3.806   1.333   2.054
 4924SOL     OW15670   2.640   0.709   5.341
 4924SOL    HW115671   2.623   0.665   5.253
 4924SOL    HW215672   2.575   0.784   5.353
 4925SOL     OW15673   6.075   6.339   3.731
 4925SOL    HW115674   6.100   6.276   3.658
 4925SOL    HW215675   6.127   6.424   3.722
 4926SOL     OW15676   5.225   2.768   1.127
 4926SOL    HW115677   5.166   2.766   1.046
 4926SOL    HW215678   5.228   2.861   1.164
 4927SOL     OW15679   3.453   1.521   6.494
 4927SOL    HW115680   3.368   1.522   6.441
 4927SOL    HW215681   3.516   1.455   6.453
 4928SOL     OW15682   7.016   2.623   0.702
 4928SOL    HW115683   7.010   2.719   0.674
 4928SOL    HW215684   0.073   2.581   0.659
 4929SOL     OW15685   0.900   6.092   5.173
 4929SOL    HW115686   0.906   6.153   5.094
 4929SOL    HW215687   0.828   6.125   5.234
 4930SOL     OW15688   5.040   6.164   2.145
 4930SOL    HW115689   5.035   6.182   2.047
 4930SOL    HW215690   5.135   6.169   2.176
 4931SOL     OW15691   6.709   5.849   0.250
 4931SOL    HW115692   6.726   5.848   0.349
 4931SOL    HW215693   6.629   5.793   0.229
 4932SOL     OW15694   3.689   3.492   2.254
 4932SOL    HW115695   3.605   3.460   2.297
 4932SOL    HW215696   3.669   3.521   2.160
 4933SOL     OW15697   2.042   6.643   5.425
 4933SOL    HW115698   1.976   6.719   5.420
 4933SOL    HW215699   2.003   6.563   5.380
 4934SOL     OW15700   3.993   5.750   2.573
 4934SOL    HW115701   3.904   5.749   2.619
 4934SOL    HW215702   4.030   5.657   2.571
 4935SOL     OW15703   0.342   1.004   5.799
 4935SOL    HW115704   0.388   1.062   5.866
 4935SOL    HW215705   0.268   0.954   5.844
 4936SOL     OW15706   4.053   2.476   0.806
 4936SOL    HW115707   4.061   2.478   0.707
 4936SOL    HW215708   4.009   2.559   0.839
 4937SOL     OW15709   4.768   2.519   5.213
 4937SOL    HW115710   4.764   2.420   5.231
 4937SOL    HW215711   4.727   2.538   5.124
 4938SOL     OW15712   3.991   5.134   5.862
 4938SOL    HW115713   4.075   5.087   5.888
 4938SOL    HW215714   3.918   5.066   5.851
 4939SOL     OW15715   5.007   3.532   6.071
 4939SOL    HW115716   5.007   3.525   6.171
 4939SOL    HW215717   4.943   3.604   6.043
 4940SOL     OW15718   2.111   5.858   4.090
 4940SOL    HW115719   2.134   5.797   4.014
 4940SOL    HW215720   2.171   5.938   4.088
 4941SOL     OW15721   5.771   0.320   0.869
 4941SOL    HW115722   5.837   0.257   0.909
 4941SOL    HW215723   5.725   0.372   0.941
 4942SOL     OW15724   4.927   3.123   5.893
 4942SOL    HW115725   4.884   3.107   5.982
 4942SOL    HW215726   4.917   3.220   5.868
 4943SOL     OW15727   5.129   2.492   1.561
 4943SOL    HW115728   5.092   2.403   1.534
 4943SOL    HW215729   5.113   2.506   1.659
 4944SOL     OW15730   2.256   4.152   2.356
 4944SOL    HW115731   2.258   4.053   2.372
 4944SOL    HW215732   2.322   4.196   2.417
 4945SOL     OW15733   0.236   6.559   4.763
 4945SOL    HW115734   0.258   6.622   4.838
 4945SOL    HW215735   0.183   6.606   4.693
 4946SOL     OW15736   6.877   4.528   1.993
 4946SOL    HW115737   6.974   4.555   1.997
 4946SOL    HW215738   6.852   4.485   2.080
 4947SOL     OW15739   6.481   0.150   1.547
 4947SOL    HW115740   6.508   0.079   1.612
 4947SOL    HW215741   6.509   0.239   1.582
 4948SOL     OW15742   2.036   0.555   2.258
 4948SOL    HW115743   2.051   0.464   2.296
 4948SOL    HW215744   1.964   0.552   2.189
 4949SOL     OW15745   4.978   1.825   4.677
 4949SOL    HW115746   4.957   1.735   4.715
 4949SOL    HW215747   5.040   1.874   4.738
 4950SOL     OW15748   2.991   5.078   5.123
 4950SOL    HW115749   2.941   4.992   5.110
 4950SOL    HW215750   3.045   5.098   5.042
 4951SOL     OW15751   4.416   1.833   4.221
 4951SOL    HW115752   4.495   1.841   4.161
 4951SOL    HW215753   4.404   1.737   4.249
 4952SOL     OW15754   6.964   4.898   5.025
 4952SOL    HW115755   6.961   4.862   4.932
 4952SOL    HW215756   7.003   4.991   5.024
 4953SOL     OW15757   2.037   5.770   2.019
 4953SOL    HW115758   2.082   5.689   1.980
 4953SOL    HW215759   1.941   5.771   1.991
 4954SOL     OW15760   6.316   6.398   0.164
 4954SOL    HW115761   6.385   6.413   0.093
 4954SOL    HW215762   6.360   6.365   0.247
 4955SOL     OW15763   0.909   0.579   1.611
 4955SOL    HW115764   0.924   0.594   1.513
 4955SOL    HW215765   0.848   0.500   1.623
 4956SOL     OW15766   5.880   6.911   4.648
 4956SOL    HW115767   5.937   6.988   4.675
 4956SOL    HW215768   5.902   6.831   4.704
 4957SOL     OW15769   2.178   6.073   3.343
 4957SOL    HW115770   2.233   6.036   3.268
 4957SOL    HW215771   2.105   6.008   3.366
 4958SOL     OW15772   0.446   6.264   6.802
 4958SOL    HW115773   0.477   6.330   6.734
 4958SOL    HW215774   0.485   6.287   6.891
 4959SOL     OW15775   0.427   1.214   0.630
 4959SOL    HW115776   0.437   1.174   0.539
 4959SOL    HW215777   0.410   1.142   0.697
 4960SOL     OW15778   3.689   6.243   4.898
 4960SOL    HW115779   3.686   6.241   4.998
 4960SOL    HW215780   3.704   6.151   4.862
 4961SOL     OW15781   4.917   0.435   5.726
 4961SOL    HW115782   4.837   0.486   5.757
 4961SOL    HW215783   4.909   0.339   5.755
 4962SOL     OW15784   6.601   2.388   1.955
 4962SOL    HW115785   6.505   2.415   1.962
 4962SOL    HW215786   6.641   2.384   2.047
 4963SOL     OW15787   6.832   4.135   1.529
 4963SOL    HW115788   6.842   4.043   1.568
 4963SOL    HW215789   6.823   4.128   1.430
 4964SOL     OW15790   3.698   6.393   2.645
 4964SOL    HW115791   3.659   6.484   2.638
 4964SOL    HW215792   3.725   6.361   2.553
 4965SOL     OW15793   0.484   6.621   4.403
 4965SOL    HW115794   0.384   6.619   4.413
 4965SOL    HW215795   0.507   6.613   4.306
 4966SOL     OW15796   3.618   5.599   4.725
 4966SOL    HW115797   3.691   5.581   4.792
 4966SOL    HW215798   3.642   5.557   4.638
 4967SOL     OW15799   4.845   2.186   6.279
 4967SOL    HW115800   4.933   2.229   6.260
 4967SOL    HW215801   4.776   2.257   6.292
 4968SOL     OW15802   5.538   3.909   6.122
 4968SOL    HW115803   5.562   3.991   6.070
 4968SOL    HW215804   5.529   3.933   6.219
 4969SOL     OW15805   0.124   1.927   1.255
 4969SOL    HW115806   0.120   1.874   1.339
 4969SOL    HW215807   0.169   1.874   1.183
 4970SOL     OW15808   1.089   2.801   5.815
 4970SOL    HW115809   1.022   2.727   5.818
 4970SOL    HW215810   1.114   2.827   5.908
 4971SOL     OW15811   6.965   5.633   3.708
 4971SOL    HW115812   0.031   5.609   3.667
 4971SOL    HW215813   6.895   5.633   3.637
 4972SOL     OW15814   1.721   1.973   5.372
 4972SOL    HW115815   1.733   1.942   5.278
 4972SOL    HW215816   1.626   1.959   5.400
 4973SOL     OW15817   5.882   6.015   3.190
 4973SOL    HW115818   5.833   5.946   3.243
 4973SOL    HW215819   5.822   6.051   3.119
 4974SOL     OW15820   4.368   6.822   1.589
 4974SOL    HW115821   4.363   6.880   1.508
 4974SOL    HW215822   4.429   6.864   1.657
 4975SOL     OW15823   5.225   5.966   6.798
 4975SOL    HW115824   5.307   5.980   6.743
 4975SOL    HW215825   5.252   5.945   6.892
 4976SOL     OW15826   3.541   0.942   4.685
 4976SOL    HW115827   3.545   0.843   4.671
 4976SOL    HW215828   3.508   0.962   4.778
 4977SOL     OW15829   3.435   3.513   0.076
 4977SOL    HW115830   3.469   3.423   0.103
 4977SOL    HW215831   3.467   3.534   7.006
 4978SOL     OW15832   6.187   3.343   6.243
 4978SOL    HW115833   6.179   3.306   6.150
 4978SOL    HW215834   6.263   3.408   6.246
 4979SOL     OW15835   0.906   2.601   4.211
 4979SOL    HW115836   0.982   2.622   4.273
 4979SOL    HW215837   0.891   2.678   4.149
 4980SOL     OW15838   3.216   5.518   3.483
 4980SOL    HW115839   3.136   5.522   3.542
 4980SOL    HW215840   3.291   5.472   3.531
 4981SOL     OW15841   5.361   6.248   5.749
 4981SOL    HW115842   5.274   6.211   5.716
 4981SOL    HW215843   5.343   6.311   5.825
 4982SOL     OW15844   2.586   2.283   6.992
 4982SOL    HW115845   2.675   2.240   7.007
 4982SOL    HW215846   2.586   2.374   0.009
 4983SOL     OW15847   5.513   2.859   4.553
 4983SOL    HW115848   5.577   2.912   4.608
 4983SOL    HW215849   5.499   2.769   4.595
 4984SOL     OW15850   4.892   4.126   2.752
 4984SOL    HW115851   4.968   4.172   2.798
 4984SOL    HW215852   4.892   4.029   2.778
 4985SOL     OW15853   5.506   4.024   2.764
 4985SOL    HW115854   5.445   4.022   2.843
 4985SOL    HW215855   5.581   4.087   2.781
 4986SOL     OW15856   4.523   4.630   2.854
 4986SOL    HW115857   4.455   4.564   2.885
 4986SOL    HW215858   4.614   4.587   2.855
 4987SOL     OW15859   0.380   4.285   0.965
 4987SOL    HW115860   0.414   4.354   0.902
 4987SOL    HW215861   0.381   4.321   1.058
 4988SOL     OW15862   1.083   1.973   5.338
 4988SOL    HW115863   1.059   1.947   5.431
 4988SOL    HW215864   1.170   2.022   5.338
 4989SOL     OW15865   0.277   0.952   0.438
 4989SOL    HW115866   0.257   0.891   0.515
 4989SOL    HW215867   0.191   0.979   0.395
 4990SOL     OW15868   0.865   2.088   5.944
 4990SOL    HW115869   0.794   2.060   5.880
 4990SOL    HW215870   0.885   2.014   6.007
 4991SOL     OW15871   2.334   2.169   4.726
 4991SOL    HW115872   2.278   2.151   4.645
 4991SOL    HW215873   2.415   2.110   4.724
 4992SOL     OW15874   4.039   0.599   4.711
 4992SOL    HW115875   4.034   0.500   4.718
 4992SOL    HW215876   3.947   0.637   4.701
 4993SOL     OW15877   2.183   6.104   3.824
 4993SOL    HW115878   2.169   6.119   3.726
 4993SOL    HW215879   2.105   6.142   3.875
 4994SOL     OW15880   0.588   6.500   2.315
 4994SOL    HW115881   0.668   6.524   2.261
 4994SOL    HW215882   0.542   6.584   2.346
 4995SOL     OW15883   6.371   2.782   5.740
 4995SOL    HW115884   6.336   2.875   5.744
 4995SOL    HW215885   6.429   2.763   5.819
 4996SOL     OW15886   0.579   1.117   4.045
 4996SOL    HW115887   0.507   1.185   4.057
 4996SOL    HW215888   0.614   1.090   4.135
 4997SOL     OW15889   0.233   2.249   3.941
 4997SOL    HW115890   0.319   2.267   3.891
 4997SOL    HW215891   0.156   2.262   3.878
 4998SOL     OW15892   0.954   5.346   5.488
 4998SOL    HW115893   1.001   5.359   5.401
 4998SOL    HW215894   0.985   5.260   5.530
 4999SOL     OW15895   5.698   4.692   0.733
 4999SOL    HW115896   5.648   4.621   0.782
 4999SOL    HW215897   5.704   4.669   0.636
 5000SOL     OW15898   6.874   5.790   4.124
 5000SOL    HW115899   6.776   5.803   4.107
 5000SOL    HW215900   6.887   5.713   4.187
 5001SOL     OW15901   4.703   4.279   5.360
 5001SOL    HW115902   4.632   4.344   5.332
 5001SOL    HW215903   4.705   4.271   5.459
 5002SOL     OW15904   2.007   1.976   1.879
 5002SOL    HW115905   1.948   1.904   1.916
 5002SOL    HW215906   1.963   2.064   1.893
 5003SOL     OW15907   7.015   5.208   3.805
 5003SOL    HW115908   0.060   5.239   3.739
 5003SOL    HW215909   6.985   5.286   3.861
 5004SOL     OW15910   2.671   4.632   6.433
 5004SOL    HW115911   2.756   4.602   6.391
 5004SOL    HW215912   2.666   4.732   6.429
 5005SOL     OW15913   4.036   2.355   0.115
 5005SOL    HW115914   4.049   2.311   0.204
 5005SOL    HW215915   4.032   2.454   0.128
 5006SOL     OW15916   5.925   4.432   2.975
 5006SOL    HW115917   5.828   4.422   2.955
 5006SOL    HW215918   5.941   4.520   3.018
 5007SOL     OW15919   4.260   1.147   5.176
 5007SOL    HW115920   4.283   1.244   5.179
 5007SOL    HW215921   4.162   1.136   5.163
 5008SOL     OW15922   6.663   1.003   4.100
 5008SOL    HW115923   6.747   0.949   4.091
 5008SOL    HW215924   6.672   1.088   4.048
 5009SOL     OW15925   1.714   6.230   2.980
 5009SOL    HW115926   1.661   6.294   2.923
 5009SOL    HW215927   1.683   6.137   2.963
 5010SOL     OW15928   3.462   2.876   4.651
 5010SOL    HW115929   3.416   2.902   4.736
 5010SOL    HW215930   3.560   2.865   4.667
 5011SOL     OW15931   0.980   3.072   3.495
 5011SOL    HW115932   1.053   3.006   3.475
 5011SOL    HW215933   0.924   3.086   3.413
 5012SOL     OW15934   5.826   3.763   0.056
 5012SOL    HW115935   5.921   3.735   0.045
 5012SOL    HW215936   5.766   3.698   0.010
 5013SOL     OW15937   4.975   1.894   5.764
 5013SOL    HW115938   4.995   1.834   5.687
 5013SOL    HW215939   4.970   1.989   5.732
 5014SOL     OW15940   6.012   6.565   0.094
 5014SOL    HW115941   5.950   6.581   0.171
 5014SOL    HW215942   5.961   6.524   0.018
 5015SOL     OW15943   5.388   2.229   3.499
 5015SOL    HW115944   5.482   2.251   3.526
 5015SOL    HW215945   5.370   2.265   3.408
 5016SOL     OW15946   2.144   6.717   2.036
 5016SOL    HW115947   2.210   6.766   2.092
 5016SOL    HW215948   2.060   6.701   2.089
 5017SOL     OW15949   2.522   2.066   1.829
 5017SOL    HW115950   2.573   2.129   1.888
 5017SOL    HW215951   2.425   2.088   1.834
 5018SOL     OW15952   6.646   5.236   4.078
 5018SOL    HW115953   6.674   5.314   4.022
 5018SOL    HW215954   6.604   5.269   4.163
 5019SOL     OW15955   3.023   5.477   6.157
 5019SOL    HW115956   2.936   5.518   6.128
 5019SOL    HW215957   3.031   5.386   6.116
 5020SOL     OW15958   4.821   5.266   6.491
 5020SOL    HW115959   4.904   5.262   6.436
 5020SOL    HW215960   4.841   5.311   6.578
 5021SOL     OW15961   2.363   4.689   5.578
 5021SOL    HW115962   2.285   4.668   5.519
 5021SOL    HW215963   2.370   4.788   5.589
 5022SOL     OW15964   1.785   4.559   0.546
 5022SOL    HW115965   1.738   4.647   0.557
 5022SOL    HW215966   1.875   4.574   0.504
 5023SOL     OW15967   6.647   2.516   3.403
 5023SOL    HW115968   6.583   2.592   3.394
 5023SOL    HW215969   6.633   2.470   3.491
 5024SOL     OW15970   5.737   3.303   5.565
 5024SOL    HW115971   5.779   3.259   5.645
 5024SOL    HW215972   5.638   3.308   5.577
 5025SOL     OW15973   6.488   1.219   3.347
 5025SOL    HW115974   6.423   1.201   3.421
 5025SOL    HW215975   6.580   1.229   3.385
 5026SOL     OW15976   0.511   5.875   2.909
 5026SOL    HW115977   0.457   5.928   2.975
 5026SOL    HW215978   0.539   5.789   2.951
 5027SOL     OW15979   0.600   6.504   3.604
 5027SOL    HW115980   0.626   6.554   3.521
 5027SOL    HW215981   0.648   6.544   3.682
 5028SOL     OW15982   0.991   0.410   2.513
 5028SOL    HW115983   1.070   0.392   2.454
 5028SOL    HW215984   0.937   0.327   2.523
 5029SOL     OW15985   0.436   1.199   3.344
 5029SOL    HW115986   0.379   1.123   3.312
 5029SOL    HW215987   0.525   1.163   3.371
 5030SOL     OW15988   2.046   5.667   6.635
 5030SOL    HW115989   1.959   5.625   6.660
 5030SOL    HW215990   2.084   5.619   6.555
 5031SOL     OW15991   5.711   0.817   5.470
 5031SOL    HW115992   5.807   0.791   5.454
 5031SOL    HW215993   5.708   0.912   5.500
 5032SOL     OW15994   0.664   6.092   1.691
 5032SOL    HW115995   0.698   6.109   1.599
 5032SOL    HW215996   0.629   6.177   1.730
 5033SOL     OW15997   0.072   4.273   5.564
 5033SOL    HW115998   0.157   4.233   5.530
 5033SOL    HW215999   7.017   4.221   5.529
 5034SOL     OW16000   6.916   3.905   6.667
 5034SOL    HW116001   6.905   3.826   6.607
 5034SOL    HW216002   6.919   3.875   6.762
 5035SOL     OW16003   5.612   4.636   1.380
 5035SOL    HW116004   5.512   4.634   1.374
 5035SOL    HW216005   5.648   4.545   1.363
 5036SOL     OW16006   1.643   0.772   2.407
 5036SOL    HW116007   1.649   0.702   2.478
 5036SOL    HW216008   1.569   0.836   2.429
 5037SOL     OW16009   4.663   2.595   2.656
 5037SOL    HW116010   4.711   2.663   2.713
 5037SOL    HW216011   4.607   2.537   2.715
 5038SOL     OW16012   2.721   5.966   5.516
 5038SOL    HW116013   2.641   6.022   5.493
 5038SOL    HW216014   2.801   6.001   5.469
 5039SOL     OW16015   1.245   1.753   3.380
 5039SOL    HW116016   1.316   1.817   3.352
 5039SOL    HW216017   1.251   1.738   3.479
 5040SOL     OW16018   2.901   3.750   6.035
 5040SOL    HW116019   2.897   3.784   5.941
 5040SOL    HW216020   2.948   3.662   6.036
 5041SOL     OW16021   0.588   5.498   0.444
 5041SOL    HW116022   0.614   5.484   0.539
 5041SOL    HW216023   0.670   5.498   0.387
 5042SOL     OW16024   6.319   1.950   5.931
 5042SOL    HW116025   6.279   1.942   6.022
 5042SOL    HW216026   6.255   1.998   5.871
 5043SOL     OW16027   4.907   0.363   3.574
 5043SOL    HW116028   4.982   0.304   3.543
 5043SOL    HW216029   4.914   0.451   3.529
 5044SOL     OW16030   5.399   4.433   2.865
 5044SOL    HW116031   5.347   4.462   2.785
 5044SOL    HW216032   5.337   4.389   2.931
 5045SOL     OW16033   5.958   3.488   5.544
 5045SOL    HW116034   5.886   3.451   5.486
 5045SOL    HW216035   6.017   3.413   5.575
 5046SOL     OW16036   3.488   3.040   4.915
 5046SOL    HW116037   3.576   3.019   4.958
 5046SOL    HW216038   3.488   3.135   4.883
 5047SOL     OW16039   0.934   1.465   2.219
 5047SOL    HW116040   0.866   1.468   2.292
 5047SOL    HW216041   0.947   1.370   2.189
 5048SOL     OW16042   6.007   3.723   1.385
 5048SOL    HW116043   5.977   3.646   1.441
 5048SOL    HW216044   6.051   3.791   1.443
 5049SOL     OW16045   1.155   1.997   1.666
 5049SOL    HW116046   1.155   1.903   1.632
 5049SOL    HW216047   1.093   2.003   1.745
 5050SOL     OW16048   1.308   3.481   0.683
 5050SOL    HW116049   1.255   3.564   0.667
 5050SOL    HW216050   1.323   3.470   0.782
 5051SOL     OW16051   1.709   3.678   0.365
 5051SOL    HW116052   1.649   3.612   0.319
 5051SOL    HW216053   1.723   3.757   0.307
 5052SOL     OW16054   5.364   3.618   0.752
 5052SOL    HW116055   5.445   3.659   0.709
 5052SOL    HW216056   5.375   3.519   0.755
 5053SOL     OW16057   2.281   4.116   0.563
 5053SOL    HW116058   2.263   4.210   0.589
 5053SOL    HW216059   2.202   4.079   0.513
 5054SOL     OW16060   3.762   5.958   4.830
 5054SOL    HW116061   3.837   5.903   4.866
 5054SOL    HW216062   3.713   5.907   4.759
 5055SOL     OW16063   1.778   1.754   3.600
 5055SOL    HW116064   1.823   1.841   3.619
 5055SOL    HW216065   1.705   1.769   3.533
 5056SOL     OW16066   2.776   2.338   5.059
 5056SOL    HW116067   2.765   2.253   5.008
 5056SOL    HW216068   2.688   2.366   5.097
 5057SOL     OW16069   0.381   4.344   2.584
 5057SOL    HW116070   0.290   4.338   2.625
 5057SOL    HW216071   0.436   4.411   2.635
 5058SOL     OW16072   3.550   2.941   0.134
 5058SOL    HW116073   3.525   2.888   0.215
 5058SOL    HW216074   3.640   2.982   0.147
 5059SOL     OW16075   4.644   1.706   3.199
 5059SOL    HW116076   4.695   1.748   3.123
 5059SOL    HW216077   4.550   1.688   3.170
 5060SOL     OW16078   0.162   3.554   5.258
 5060SOL    HW116079   0.189   3.613   5.334
 5060SOL    HW216080   0.063   3.554   5.249
 5061SOL     OW16081   4.083   2.076   5.539
 5061SOL    HW116082   4.018   2.147   5.566
 5061SOL    HW216083   4.082   2.001   5.606
 5062SOL     OW16084   5.505   1.024   3.441
 5062SOL    HW116085   5.539   0.956   3.375
 5062SOL    HW216086   5.406   1.014   3.450
 5063SOL     OW16087   0.958   1.369   1.652
 5063SOL    HW116088   0.998   1.390   1.563
 5063SOL    HW216089   0.898   1.290   1.644
 5064SOL     OW16090   4.894   5.130   0.720
 5064SOL    HW116091   4.867   5.141   0.624
 5064SOL    HW216092   4.815   5.151   0.778
 5065SOL     OW16093   2.220   1.092   2.121
 5065SOL    HW116094   2.283   1.169   2.126
 5065SOL    HW216095   2.215   1.047   2.211
 5066SOL     OW16096   1.974   5.206   2.752
 5066SOL    HW116097   1.889   5.198   2.700
 5066SOL    HW216098   1.994   5.119   2.797
 5067SOL     OW16099   5.767   2.819   0.908
 5067SOL    HW116100   5.767   2.832   0.809
 5067SOL    HW216101   5.732   2.728   0.930
 5068SOL     OW16102   2.111   5.781   0.690
 5068SOL    HW116103   2.126   5.728   0.608
 5068SOL    HW216104   2.183   5.850   0.699
 5069SOL     OW16105   4.023   5.154   5.186
 5069SOL    HW116106   3.980   5.078   5.234
 5069SOL    HW216107   4.016   5.140   5.087
 5070SOL     OW16108   6.023   3.880   5.138
 5070SOL    HW116109   6.028   3.837   5.229
 5070SOL    HW216110   5.947   3.944   5.136
 5071SOL     OW16111   3.067   6.708   3.286
 5071SOL    HW116112   3.034   6.639   3.222
 5071SOL    HW216113   3.070   6.669   3.378
 5072SOL     OW16114   0.678   1.573   1.416
 5072SOL    HW116115   0.711   1.615   1.332
 5072SOL    HW216116   0.741   1.593   1.491
 5073SOL     OW16117   2.223   1.119   3.415
 5073SOL    HW116118   2.247   1.213   3.392
 5073SOL    HW216119   2.183   1.117   3.507
 5074SOL     OW16120   3.564   2.304   1.653
 5074SOL    HW116121   3.640   2.345   1.703
 5074SOL    HW216122   3.479   2.317   1.704
 5075SOL     OW16123   7.007   3.289   0.460
 5075SOL    HW116124   7.020   3.196   0.427
 5075SOL    HW216125   6.914   3.300   0.495
 5076SOL     OW16126   0.371   0.014   6.183
 5076SOL    HW116127   0.406   0.048   6.270
 5076SOL    HW216128   0.421   6.954   6.156
 5077SOL     OW16129   0.844   4.140   3.829
 5077SOL    HW116130   0.763   4.198   3.832
 5077SOL    HW216131   0.881   4.139   3.736
 5078SOL     OW16132   0.204   1.909   3.783
 5078SOL    HW116133   0.186   1.879   3.877
 5078SOL    HW216134   0.284   1.969   3.782
 5079SOL     OW16135   1.861   3.284   5.696
 5079SOL    HW116136   1.764   3.263   5.709
 5079SOL    HW216137   1.899   3.321   5.780
 5080SOL     OW16138   5.978   5.587   0.538
 5080SOL    HW116139   5.944   5.639   0.616
 5080SOL    HW216140   5.905   5.533   0.499
 5081SOL     OW16141   2.318   4.959   5.275
 5081SOL    HW116142   2.304   5.033   5.341
 5081SOL    HW216143   2.323   4.997   5.183
 5082SOL     OW16144   5.579   5.452   1.110
 5082SOL    HW116145   5.551   5.454   1.206
 5082SOL    HW216146   5.605   5.359   1.084
 5083SOL     OW16147   2.287   0.112   3.804
 5083SOL    HW116148   2.316   0.030   3.754
 5083SOL    HW216149   2.364   0.151   3.854
 5084SOL     OW16150   2.722   4.138   5.309
 5084SOL    HW116151   2.703   4.041   5.322
 5084SOL    HW216152   2.792   4.150   5.239
 5085SOL     OW16153   0.362   4.671   4.997
 5085SOL    HW116154   0.284   4.657   5.059
 5085SOL    HW216155   0.336   4.645   4.904
 5086SOL     OW16156   1.956   5.458   1.628
 5086SOL    HW116157   1.905   5.379   1.661
 5086SOL    HW216158   2.034   5.427   1.574
 5087SOL     OW16159   6.435   4.300   2.656
 5087SOL    HW116160   6.455   4.279   2.560
 5087SOL    HW216161   6.501   4.253   2.715
 5088SOL     OW16162   5.086   5.897   2.212
 5088SOL    HW116163   5.173   5.860   2.180
 5088SOL    HW216164   5.072   5.988   2.173
 5089SOL     OW16165   5.351   5.548   5.641
 5089SOL    HW116166   5.437   5.549   5.589
 5089SOL    HW216167   5.299   5.465   5.618
 5090SOL     OW16168   2.682   6.700   4.801
 5090SOL    HW116169   2.743   6.633   4.844
 5090SOL    HW216170   2.615   6.732   4.868
 5091SOL     OW16171   6.805   6.388   6.091
 5091SOL    HW116172   6.880   6.430   6.040
 5091SOL    HW216173   6.779   6.446   6.168
 5092SOL     OW16174   3.647   3.448   4.131
 5092SOL    HW116175   3.678   3.508   4.058
 5092SOL    HW216176   3.624   3.358   4.094
 5093SOL     OW16177   2.774   2.078   2.601
 5093SOL    HW116178   2.789   2.003   2.537
 5093SOL    HW216179   2.788   2.165   2.554
 5094SOL     OW16180   1.380   6.212   4.824
 5094SOL    HW116181   1.318   6.217   4.746
 5094SOL    HW216182   1.393   6.304   4.862
 5095SOL     OW16183   6.785   1.078   2.865
 5095SOL    HW116184   6.837   1.150   2.818
 5095SOL    HW216185   6.699   1.115   2.898
 5096SOL     OW16186   6.076   3.170   4.869
 5096SOL    HW116187   6.020   3.185   4.787
 5096SOL    HW216188   6.020   3.129   4.940
 5097SOL     OW16189   1.276   0.471   5.853
 5097SOL    HW116190   1.287   0.488   5.951
 5097SOL    HW216191   1.364   0.447   5.813
 5098SOL     OW16192   3.573   3.280   0.575
 5098SOL    HW116193   3.638   3.266   0.501
 5098SOL    HW216194   3.500   3.341   0.545
 5099SOL     OW16195   1.890   6.653   2.225
 5099SOL    HW116196   1.830   6.719   2.180
 5099SOL    HW216197   1.898   6.571   2.169
 5100SOL     OW16198   4.850   3.763   2.211
 5100SOL    HW116199   4.858   3.822   2.292
 5100SOL    HW216200   4.753   3.749   2.190
 5101SOL     OW16201   3.133   0.075   5.800
 5101SOL    HW116202   3.172   0.101   5.888
 5101SOL    HW216203   3.036   0.098   5.799
 5102SOL     OW16204   5.269   5.280   4.225
 5102SOL    HW116205   5.257   5.333   4.142
 5102SOL    HW216206   5.252   5.183   4.206
 5103SOL     OW16207   1.194   0.851   6.678
 5103SOL    HW116208   1.101   0.818   6.668
 5103SOL    HW216209   1.209   0.929   6.617
 5104SOL     OW16210   3.956   3.385   2.195
 5104SOL    HW116211   3.861   3.411   2.215
 5104SOL    HW216212   4.012   3.468   2.188
 5105SOL     OW16213   4.399   3.024   6.514
 5105SOL    HW116214   4.305   3.057   6.511
 5105SOL    HW216215   4.462   3.101   6.530
 5106SOL     OW16216   4.219   2.279   1.183
 5106SOL    HW116217   4.245   2.298   1.088
 5106SOL    HW216218   4.174   2.360   1.221
 5107SOL     OW16219   5.271   4.323   0.437
 5107SOL    HW116220   5.335   4.379   0.490
 5107SOL    HW216221   5.264   4.360   0.344
 5108SOL     OW16222   3.702   4.769   0.646
 5108SOL    HW116223   3.694   4.840   0.577
 5108SOL    HW216224   3.799   4.745   0.658
 5109SOL     OW16225   0.939   2.661   1.453
 5109SOL    HW116226   0.920   2.693   1.545
 5109SOL    HW216227   1.037   2.653   1.440
 5110SOL     OW16228   5.022   0.117   5.705
 5110SOL    HW116229   4.958   0.161   5.768
 5110SOL    HW216230   5.078   0.187   5.660
 5111SOL     OW16231   0.793   5.403   5.099
 5111SOL    HW116232   0.813   5.315   5.057
 5111SOL    HW216233   0.863   5.424   5.167
 5112SOL     OW16234   0.529   6.915   3.172
 5112SOL    HW116235   0.429   6.911   3.170
 5112SOL    HW216236   0.566   6.826   3.198
 5113SOL     OW16237   1.899   4.073   0.083
 5113SOL    HW116238   1.834   4.133   0.036
 5113SOL    HW216239   1.983   4.066   0.028
 5114SOL     OW16240   4.348   4.647   1.769
 5114SOL    HW116241   4.435   4.599   1.758
 5114SOL    HW216242   4.327   4.656   1.867
 5115SOL     OW16243   2.002   3.792   0.855
 5115SOL    HW116244   1.948   3.856   0.802
 5115SOL    HW216245   2.097   3.824   0.861
 5116SOL     OW16246   1.032   6.780   5.465
 5116SOL    HW116247   1.018   6.859   5.525
 5116SOL    HW216248   1.117   6.791   5.414
 5117SOL     OW16249   0.252   2.344   3.473
 5117SOL    HW116250   0.154   2.335   3.454
 5117SOL    HW216251   0.304   2.287   3.410
 5118SOL     OW16252   4.016   5.203   6.994
 5118SOL    HW116253   4.086   5.177   6.928
 5118SOL    HW216254   4.053   5.199   0.064
 5119SOL     OW16255   5.863   1.237   0.475
 5119SOL    HW116256   5.818   1.152   0.503
 5119SOL    HW216257   5.959   1.218   0.453
 5120SOL     OW16258   4.977   6.728   6.854
 5120SOL    HW116259   5.008   6.667   6.781
 5120SOL    HW216260   4.941   6.673   6.929
 5121SOL     OW16261   1.006   3.283   5.915
 5121SOL    HW116262   1.092   3.324   5.946
 5121SOL    HW216263   1.026   3.209   5.851
 5122SOL     OW16264   4.811   5.014   4.133
 5122SOL    HW116265   4.837   5.053   4.045
 5122SOL    HW216266   4.713   5.027   4.148
 5123SOL     OW16267   4.994   2.908   1.973
 5123SOL    HW116268   4.916   2.962   2.006
 5123SOL    HW216269   4.965   2.848   1.899
 5124SOL     OW16270   1.887   6.475   5.283
 5124SOL    HW116271   1.796   6.511   5.305
 5124SOL    HW216272   1.880   6.378   5.261
 5125SOL     OW16273   6.460   1.871   3.250
 5125SOL    HW116274   6.491   1.786   3.208
 5125SOL    HW216275   6.360   1.876   3.245
 5126SOL     OW16276   1.655   0.477   1.644
 5126SOL    HW116277   1.723   0.543   1.610
 5126SOL    HW216278   1.664   0.467   1.743
 5127SOL     OW16279   2.343   5.900   6.935
 5127SOL    HW116280   2.253   5.880   6.896
 5127SOL    HW216281   2.341   5.990   6.980
 5128SOL     OW16282   6.253   0.166   2.059
 5128SOL    HW116283   6.159   0.134   2.073
 5128SOL    HW216284   6.268   0.187   1.963
 5129SOL     OW16285   6.594   6.815   0.295
 5129SOL    HW116286   6.578   6.741   0.361
 5129SOL    HW216287   6.603   6.902   0.344
 5130SOL     OW16288   6.151   4.509   3.360
 5130SOL    HW116289   6.056   4.541   3.362
 5130SOL    HW216290   6.156   4.423   3.309
 5131SOL     OW16291   2.675   2.436   2.846
 5131SOL    HW116292   2.666   2.362   2.913
 5131SOL    HW216293   2.613   2.510   2.870
 5132SOL     OW16294   2.915   5.926   5.044
 5132SOL    HW116295   2.882   5.883   4.960
 5132SOL    HW216296   2.838   5.949   5.103
 5133SOL     OW16297   3.793   6.397   5.312
 5133SOL    HW116298   3.875   6.444   5.281
 5133SOL    HW216299   3.780   6.313   5.260
 5134SOL     OW16300   6.081   4.194   6.350
 5134SOL    HW116301   6.017   4.257   6.393
 5134SOL    HW216302   6.175   4.226   6.366
 5135SOL     OW16303   5.529   1.809   4.155
 5135SOL    HW116304   5.538   1.895   4.104
 5135SOL    HW216305   5.548   1.825   4.252
 5136SOL     OW16306   3.768   1.300   4.875
 5136SOL    HW116307   3.785   1.399   4.871
 5136SOL    HW216308   3.690   1.283   4.935
 5137SOL     OW16309   3.434   3.960   6.660
 5137SOL    HW116310   3.388   3.918   6.738
 5137SOL    HW216311   3.368   3.972   6.586
 5138SOL     OW16312   2.359   3.094   5.932
 5138SOL    HW116313   2.324   3.028   5.867
 5138SOL    HW216314   2.307   3.179   5.925
 5139SOL     OW16315   0.517   0.149   3.939
 5139SOL    HW116316   0.480   0.167   4.030
 5139SOL    HW216317   0.456   0.188   3.870
 5140SOL     OW16318   3.618   2.985   1.739
 5140SOL    HW116319   3.594   3.081   1.725
 5140SOL    HW216320   3.708   2.967   1.700
 5141SOL     OW16321   6.912   3.548   5.338
 5141SOL    HW116322   6.873   3.514   5.252
 5141SOL    HW216323   6.915   3.474   5.404
 5142SOL     OW16324   5.651   3.310   3.397
 5142SOL    HW116325   5.639   3.291   3.494
 5142SOL    HW216326   5.581   3.261   3.345
 5143SOL     OW16327   7.012   5.320   4.977
 5143SOL    HW116328   6.918   5.296   4.952
 5143SOL    HW216329   7.018   5.417   4.997
 5144SOL     OW16330   2.326   1.174   4.769
 5144SOL    HW116331   2.231   1.197   4.748
 5144SOL    HW216332   2.329   1.082   4.809
 5145SOL     OW16333   3.385   6.088   5.781
 5145SOL    HW116334   3.432   6.013   5.829
 5145SOL    HW216335   3.424   6.098   5.690
 5146SOL     OW16336   2.760   4.694   0.232
 5146SOL    HW116337   2.797   4.632   0.301
 5146SOL    HW216338   2.660   4.692   0.236
 5147SOL     OW16339   6.560   5.079   6.582
 5147SOL    HW116340   6.541   5.177   6.575
 5147SOL    HW216341   6.558   5.051   6.678
 5148SOL     OW16342   0.460   6.787   1.833
 5148SOL    HW116343   0.508   6.737   1.760
 5148SOL    HW216344   0.448   6.726   1.911
 5149SOL     OW16345   6.656   1.050   6.069
 5149SOL    HW116346   6.692   1.075   6.158
 5149SOL    HW216347   6.731   1.021   6.009
 5150SOL     OW16348   1.629   4.960   3.670
 5150SOL    HW116349   1.669   5.036   3.721
 5150SOL    HW216350   1.648   4.874   3.717
 5151SOL     OW16351   4.962   1.054   6.297
 5151SOL    HW116352   4.906   1.063   6.215
 5151SOL    HW216353   4.903   1.045   6.377
 5152SOL     OW16354   0.696   5.141   0.781
 5152SOL    HW116355   0.604   5.103   0.772
 5152SOL    HW216356   0.745   5.129   0.695
 5153SOL     OW16357   1.871   1.903   0.957
 5153SOL    HW116358   1.928   1.877   1.035
 5153SOL    HW216359   1.779   1.925   0.989
 5154SOL     OW16360   1.946   3.463   4.951
 5154SOL    HW116361   1.995   3.507   4.876
 5154SOL    HW216362   1.874   3.404   4.915
 5155SOL     OW16363   3.605   0.910   2.078
 5155SOL    HW116364   3.690   0.900   2.027
 5155SOL    HW216365   3.625   0.915   2.176
 5156SOL     OW16366   5.952   2.693   5.871
 5156SOL    HW116367   6.044   2.719   5.902
 5156SOL    HW216368   5.884   2.735   5.932
 5157SOL     OW16369   5.964   2.450   4.291
 5157SOL    HW116370   5.939   2.360   4.257
 5157SOL    HW216371   5.889   2.488   4.345
 5158SOL     OW16372   3.924   1.047   0.688
 5158SOL    HW116373   3.836   1.001   0.674
 5158SOL    HW216374   3.932   1.122   0.623
 5159SOL     OW16375   1.768   3.137   4.915
 5159SOL    HW116376   1.776   3.049   4.868
 5159SOL    HW216377   1.728   3.123   5.006
 5160SOL     OW16378   1.784   2.752   4.462
 5160SOL    HW116379   1.777   2.766   4.363
 5160SOL    HW216380   1.844   2.822   4.501
 5161SOL     OW16381   1.487   3.528   6.122
 5161SOL    HW116382   1.414   3.537   6.189
 5161SOL    HW216383   1.543   3.448   6.143
 5162SOL     OW16384   6.130   5.825   4.583
 5162SOL    HW116385   6.150   5.749   4.645
 5162SOL    HW216386   6.043   5.867   4.610
 5163SOL     OW16387   5.066   3.932   1.086
 5163SOL    HW116388   5.020   3.905   1.171
 5163SOL    HW216389   5.109   4.021   1.099
 5164SOL     OW16390   5.972   5.513   5.808
 5164SOL    HW116391   6.040   5.579   5.776
 5164SOL    HW216392   5.921   5.552   5.885
 5165SOL     OW16393   6.145   3.721   4.103
 5165SOL    HW116394   6.137   3.821   4.104
 5165SOL    HW216395   6.213   3.693   4.171
 5166SOL     OW16396   1.439   0.039   1.732
 5166SOL    HW116397   1.343   0.068   1.735
 5166SOL    HW216398   1.492   0.106   1.681
 5167SOL     OW16399   1.257   6.804   5.321
 5167SOL    HW116400   1.268   6.795   5.222
 5167SOL    HW216401   1.297   6.891   5.350
 5168SOL     OW16402   3.781   1.739   3.151
 5168SOL    HW116403   3.845   1.796   3.203
 5168SOL    HW216404   3.731   1.680   3.214
 5169SOL     OW16405   4.064   4.146   6.573
 5169SOL    HW116406   4.087   4.097   6.489
 5169SOL    HW216407   3.995   4.215   6.553
 5170SOL     OW16408   4.614   4.659   4.380
 5170SOL    HW116409   4.624   4.566   4.345
 5170SOL    HW216410   4.533   4.665   4.438
 5171SOL     OW16411   2.590   4.672   4.837
 5171SOL    HW116412   2.516   4.679   4.905
 5171SOL    HW216413   2.677   4.661   4.885
 5172SOL     OW16414   1.913   4.677   0.029
 5172SOL    HW116415   1.836   4.614   0.031
 5172SOL    HW216416   1.922   4.723   0.118
 5173SOL     OW16417   6.408   3.587   5.782
 5173SOL    HW116418   6.383   3.665   5.840
 5173SOL    HW216419   6.503   3.597   5.752
 5174SOL     OW16420   1.884   4.251   6.220
 5174SOL    HW116421   1.908   4.300   6.303
 5174SOL    HW216422   1.835   4.311   6.157
 5175SOL     OW16423   0.405   5.222   6.401
 5175SOL    HW116424   0.325   5.282   6.391
 5175SOL    HW216425   0.379   5.129   6.376
 5176SOL     OW16426   5.325   4.024   6.547
 5176SOL    HW116427   5.303   4.065   6.636
 5176SOL    HW216428   5.274   3.939   6.535
 5177SOL     OW16429   5.196   6.251   6.689
 5177SOL    HW116430   5.167   6.346   6.683
 5177SOL    HW216431   5.230   6.232   6.782
 5178SOL     OW16432   3.048   2.196   1.777
 5178SOL    HW116433   2.988   2.276   1.781
 5178SOL    HW216434   2.997   2.116   1.746
 5179SOL     OW16435   3.162   5.993   5.097
 5179SOL    HW116436   3.209   5.906   5.113
 5179SOL    HW216437   3.068   5.975   5.068
 5180SOL     OW16438   3.051   2.540   0.349
 5180SOL    HW116439   2.961   2.541   0.392
 5180SOL    HW216440   3.063   2.455   0.299
 5181SOL     OW16441   3.061   5.709   2.453
 5181SOL    HW116442   3.074   5.654   2.371
 5181SOL    HW216443   2.975   5.683   2.498
 5182SOL     OW16444   4.401   4.278   1.591
 5182SOL    HW116445   4.489   4.303   1.549
 5182SOL    HW216446   4.415   4.256   1.687
 5183SOL     OW16447   3.833   0.949   3.115
 5183SOL    HW116448   3.742   0.936   3.152
 5183SOL    HW216449   3.871   0.860   3.088
 5184SOL     OW16450   1.101   1.998   2.974
 5184SOL    HW116451   1.200   1.983   2.977
 5184SOL    HW216452   1.073   2.048   3.056
 5185SOL     OW16453   3.813   0.515   2.073
 5185SOL    HW116454   3.894   0.520   2.014
 5185SOL    HW216455   3.836   0.546   2.165
 5186SOL     OW16456   5.865   4.514   0.028
 5186SOL    HW116457   5.838   4.582   0.096
 5186SOL    HW216458   5.922   4.557   6.981
 5187SOL     OW16459   4.964   2.130   4.398
 5187SOL    HW116460   4.884   2.106   4.453
 5187SOL    HW216461   4.980   2.229   4.405
 5188SOL     OW16462   0.900   3.166   4.488
 5188SOL    HW116463   0.967   3.118   4.545
 5188SOL    HW216464   0.840   3.220   4.547
 5189SOL     OW16465   4.264   5.448   6.500
 5189SOL    HW116466   4.218   5.529   6.461
 5189SOL    HW216467   4.350   5.476   6.542
 5190SOL     OW16468   2.006   2.411   3.256
 5190SOL    HW116469   1.914   2.391   3.221
 5190SOL    HW216470   2.030   2.343   3.326
 5191SOL     OW16471   4.596   0.730   2.377
 5191SOL    HW116472   4.536   0.808   2.395
 5191SOL    HW216473   4.648   0.709   2.459
 5192SOL     OW16474   5.780   4.492   2.048
 5192SOL    HW116475   5.829   4.411   2.082
 5192SOL    HW216476   5.688   4.494   2.087
 5193SOL     OW16477   4.958   3.967   2.418
 5193SOL    HW116478   4.922   4.049   2.462
 5193SOL    HW216479   5.012   3.915   2.485
 5194SOL     OW16480   5.199   1.833   6.643
 5194SOL    HW116481   5.136   1.852   6.568
 5194SOL    HW216482   5.182   1.741   6.678
 5195SOL     OW16483   6.333   6.369   5.503
 5195SOL    HW116484   6.248   6.345   5.456
 5195SOL    HW216485   6.311   6.424   5.584
 5196SOL     OW16486   0.646   3.241   1.708
 5196SOL    HW116487   0.571   3.185   1.745
 5196SOL    HW216488   0.634   3.253   1.610
 5197SOL     OW16489   3.440   6.161   5.214
 5197SOL    HW116490   3.514   6.100   5.182
 5197SOL    HW216491   3.359   6.106   5.235
 5198SOL     OW16492   4.279   0.281   5.850
 5198SOL    HW116493   4.281   0.257   5.753
 5198SOL    HW216494   4.293   0.380   5.860
 5199SOL     OW16495   0.050   5.118   1.817
 5199SOL    HW116496   0.133   5.105   1.763
 5199SOL    HW216497   7.007   5.172   1.764
 5200SOL     OW16498   0.308   6.977   5.241
 5200SOL    HW116499   0.385   7.001   5.182
 5200SOL    HW216500   0.335   6.983   5.337
 5201SOL     OW16501   5.725   4.575   4.897
 5201SOL    HW116502   5.656   4.517   4.853
 5201SOL    HW216503   5.703   4.671   4.880
 5202SOL     OW16504   3.440   3.331   5.620
 5202SOL    HW116505   3.409   3.306   5.529
 5202SOL    HW216506   3.375   3.395   5.661
 5203SOL     OW16507   1.792   0.249   6.271
 5203SOL    HW116508   1.769   0.240   6.368
 5203SOL    HW216509   1.824   0.342   6.252
 5204SOL     OW16510   2.320   1.086   0.797
 5204SOL    HW116511   2.364   1.046   0.878
 5204SOL    HW216512   2.352   1.039   0.715
 5205SOL     OW16513   6.979   6.671   1.093
 5205SOL    HW116514   0.036   6.707   1.045
 5205SOL    HW216515   6.901   6.733   1.080
 5206SOL     OW16516   1.383   4.796   3.482
 5206SOL    HW116517   1.315   4.802   3.555
 5206SOL    HW216518   1.452   4.867   3.495
 5207SOL     OW16519   5.983   6.662   4.744
 5207SOL    HW116520   5.949   6.605   4.819
 5207SOL    HW216521   6.070   6.703   4.770
 5208SOL     OW16522   6.401   2.083   0.613
 5208SOL    HW116523   6.337   2.047   0.546
 5208SOL    HW216524   6.480   2.122   0.565
 5209SOL     OW16525   5.321   6.768   3.218
 5209SOL    HW116526   5.249   6.795   3.154
 5209SOL    HW216527   5.368   6.849   3.252
 5210SOL     OW16528   5.601   4.917   0.847
 5210SOL    HW116529   5.619   4.831   0.799
 5210SOL    HW216530   5.619   4.904   0.945
 5211SOL     OW16531   5.293   2.252   4.790
 5211SOL    HW116532   5.195   2.233   4.798
 5211SOL    HW216533   5.341   2.169   4.761
 5212SOL     OW16534   0.160   3.930   0.636
 5212SOL    HW116535   0.072   3.957   0.597
 5212SOL    HW216536   0.188   3.843   0.597
 5213SOL     OW16537   4.003   3.472   2.936
 5213SOL    HW116538   4.057   3.515   3.009
 5213SOL    HW216539   3.923   3.528   2.917
 5214SOL     OW16540   5.641   3.311   5.148
 5214SOL    HW116541   5.608   3.259   5.069
 5214SOL    HW216542   5.578   3.387   5.166
 5215SOL     OW16543   0.203   4.959   5.151
 5215SOL    HW116544   0.148   4.898   5.093
 5215SOL    HW216545   0.148   5.038   5.177
 5216SOL     OW16546   5.083   5.112   1.464
 5216SOL    HW116547   5.038   5.200   1.450
 5216SOL    HW216548   5.158   5.103   1.399
 5217SOL     OW16549   4.752   6.523   2.596
 5217SOL    HW116550   4.842   6.519   2.554
 5217SOL    HW216551   4.682   6.511   2.526
 5218SOL     OW16552   6.440   0.198   0.190
 5218SOL    HW116553   6.516   0.204   0.254
 5218SOL    HW216554   6.472   0.162   0.102
 5219SOL     OW16555   3.255   0.881   5.811
 5219SOL    HW116556   3.272   0.878   5.712
 5219SOL    HW216557   3.277   0.792   5.851
 5220SOL     OW16558   2.057   4.933   4.427
 5220SOL    HW116559   2.089   4.843   4.456
 5220SOL    HW216560   2.051   4.995   4.506
 5221SOL     OW16561   5.711   5.765   1.636
 5221SOL    HW116562   5.754   5.700   1.574
 5221SOL    HW216563   5.623   5.729   1.666
 5222SOL     OW16564   6.886   3.450   1.542
 5222SOL    HW116565   6.936   3.512   1.482
 5222SOL    HW216566   6.927   3.359   1.537
 5223SOL     OW16567   6.257   2.854   0.552
 5223SOL    HW116568   6.298   2.802   0.628
 5223SOL    HW216569   6.183   2.910   0.588
 5224SOL     OW16570   0.669   1.329   5.350
 5224SOL    HW116571   0.670   1.283   5.261
 5224SOL    HW216572   0.591   1.296   5.403
 5225SOL     OW16573   6.773   1.541   4.631
 5225SOL    HW116574   6.859   1.586   4.609
 5225SOL    HW216575   6.789   1.468   4.698
 5226SOL     OW16576   0.391   6.654   3.920
 5226SOL    HW116577   0.298   6.689   3.917
 5226SOL    HW216578   0.399   6.574   3.860
 5227SOL     OW16579   0.525   4.061   5.638
 5227SOL    HW116580   0.550   4.117   5.717
 5227SOL    HW216581   0.552   4.107   5.554
 5228SOL     OW16582   0.886   2.137   5.591
 5228SOL    HW116583   0.932   2.055   5.626
 5228SOL    HW216584   0.793   2.141   5.627
 5229SOL     OW16585   3.263   1.905   6.113
 5229SOL    HW116586   3.309   1.841   6.175
 5229SOL    HW216587   3.218   1.977   6.167
 5230SOL     OW16588   7.001   6.972   2.442
 5230SOL    HW116589   6.926   7.012   2.390
 5230SOL    HW216590   0.056   0.011   2.443
 5231SOL     OW16591   6.455   3.336   2.056
 5231SOL    HW116592   6.479   3.356   2.152
 5231SOL    HW216593   6.405   3.413   2.018
 5232SOL     OW16594   1.803   2.510   5.691
 5232SOL    HW116595   1.809   2.411   5.681
 5232SOL    HW216596   1.786   2.532   5.787
 5233SOL     OW16597   3.510   6.455   2.317
 5233SOL    HW116598   3.424   6.504   2.305
 5233SOL    HW216599   3.503   6.392   2.395
 5234SOL     OW16600   3.251   2.269   5.998
 5234SOL    HW116601   3.309   2.285   5.918
 5234SOL    HW216602   3.171   2.329   5.994
 5235SOL     OW16603   2.660   1.906   1.544
 5235SOL    HW116604   2.566   1.877   1.560
 5235SOL    HW216605   2.707   1.917   1.632
 5236SOL     OW16606   3.451   5.035   1.778
 5236SOL    HW116607   3.426   4.940   1.800
 5236SOL    HW216608   3.500   5.075   1.855
 5237SOL     OW16609   1.892   2.135   2.176
 5237SOL    HW116610   1.817   2.083   2.215
 5237SOL    HW216611   1.967   2.073   2.154
 5238SOL     OW16612   0.531   0.176   3.053
 5238SOL    HW116613   0.534   0.078   3.076
 5238SOL    HW216614   0.581   0.228   3.121
 5239SOL     OW16615   2.752   3.946   0.751
 5239SOL    HW116616   2.813   4.011   0.795
 5239SOL    HW216617   2.667   3.991   0.726
 5240SOL     OW16618   2.010   4.408   5.599
 5240SOL    HW116619   2.065   4.396   5.517
 5240SOL    HW216620   2.067   4.392   5.680
 5241SOL     OW16621   1.856   6.483   2.722
 5241SOL    HW116622   1.882   6.426   2.645
 5241SOL    HW216623   1.762   6.463   2.749
 5242SOL     OW16624   3.725   0.343   6.166
 5242SOL    HW116625   3.817   0.348   6.128
 5242SOL    HW216626   3.730   0.327   6.265
 5243SOL     OW16627   2.630   6.389   2.458
 5243SOL    HW116628   2.577   6.461   2.502
 5243SOL    HW216629   2.613   6.390   2.360
 5244SOL     OW16630   4.667   1.265   0.160
 5244SOL    HW116631   4.613   1.324   0.100
 5244SOL    HW216632   4.659   1.298   0.254
 5245SOL     OW16633   3.099   4.155   1.191
 5245SOL    HW116634   3.160   4.076   1.203
 5245SOL    HW216635   3.017   4.143   1.248
 5246SOL     OW16636   5.796   3.952   6.458
 5246SOL    HW116637   5.888   3.926   6.487
 5246SOL    HW216638   5.800   4.040   6.409
 5247SOL     OW16639   4.438   1.797   6.738
 5247SOL    HW116640   4.363   1.785   6.673
 5247SOL    HW216641   4.524   1.771   6.694
 5248SOL     OW16642   5.468   1.056   3.998
 5248SOL    HW116643   5.424   1.009   4.074
 5248SOL    HW216644   5.423   1.144   3.983
 5249SOL     OW16645   0.276   5.098   0.905
 5249SOL    HW116646   0.338   5.073   0.978
 5249SOL    HW216647   0.187   5.054   0.920
 5250SOL     OW16648   2.598   5.797   1.202
 5250SOL    HW116649   2.508   5.800   1.245
 5250SOL    HW216650   2.627   5.702   1.194
 5251SOL     OW16651   0.334   4.709   0.529
 5251SOL    HW116652   0.375   4.790   0.487
 5251SOL    HW216653   0.405   4.654   0.573
 5252SOL     OW16654   3.851   5.944   2.315
 5252SOL    HW116655   3.920   5.986   2.257
 5252SOL    HW216656   3.822   5.857   2.276
 5253SOL     OW16657   6.634   6.214   4.626
 5253SOL    HW116658   6.649   6.283   4.555
 5253SOL    HW216659   6.720   6.166   4.646
 5254SOL     OW16660   4.702   5.998   3.282
 5254SOL    HW116661   4.740   5.915   3.243
 5254SOL    HW216662   4.734   6.077   3.230
 5255SOL     OW16663   6.397   1.880   5.312
 5255SOL    HW116664   6.331   1.923   5.250
 5255SOL    HW216665   6.348   1.822   5.376
 5256SOL     OW16666   6.534   2.079   2.256
 5256SOL    HW116667   6.549   2.017   2.333
 5256SOL    HW216668   6.534   2.027   2.171
 5257SOL     OW16669   4.358   1.726   6.206
 5257SOL    HW116670   4.409   1.659   6.259
 5257SOL    HW216671   4.422   1.785   6.156
 5258SOL     OW16672   4.986   1.396   4.598
 5258SOL    HW116673   4.985   1.315   4.538
 5258SOL    HW216674   5.021   1.370   4.688
 5259SOL     OW16675   6.167   5.007   3.759
 5259SOL    HW116676   6.110   4.997   3.840
 5259SOL    HW216677   6.113   5.052   3.687
 5260SOL     OW16678   1.828   6.846   1.178
 5260SOL    HW116679   1.917   6.802   1.169
 5260SOL    HW216680   1.756   6.777   1.172
 5261SOL     OW16681   5.510   4.474   6.767
 5261SOL    HW116682   5.536   4.379   6.748
 5261SOL    HW216683   5.434   4.476   6.832
 5262SOL     OW16684   1.515   1.297   1.732
 5262SOL    HW116685   1.460   1.228   1.780
 5262SOL    HW216686   1.531   1.266   1.638
 5263SOL     OW16687   1.580   5.930   2.342
 5263SOL    HW116688   1.585   5.832   2.326
 5263SOL    HW216689   1.673   5.968   2.348
 5264SOL     OW16690   6.767   2.184   1.819
 5264SOL    HW116691   6.705   2.239   1.875
 5264SOL    HW216692   6.858   2.185   1.860
 5265SOL     OW16693   6.794   5.543   5.571
 5265SOL    HW116694   6.842   5.513   5.653
 5265SOL    HW216695   6.704   5.499   5.568
 5266SOL     OW16696   1.433   0.232   6.800
 5266SOL    HW116697   1.493   0.196   6.871
 5266SOL    HW216698   1.461   0.324   6.776
 5267SOL     OW16699   5.366   2.426   4.016
 5267SOL    HW116700   5.370   2.430   3.916
 5267SOL    HW216701   5.281   2.469   4.047
 5268SOL     OW16702   5.591   0.395   6.215
 5268SOL    HW116703   5.634   0.325   6.272
 5268SOL    HW216704   5.659   0.463   6.188
 5269SOL     OW16705   0.936   6.773   3.979
 5269SOL    HW116706   0.861   6.838   3.968
 5269SOL    HW216707   1.018   6.809   3.935
 5270SOL     OW16708   0.730   1.576   6.371
 5270SOL    HW116709   0.661   1.533   6.313
 5270SOL    HW216710   0.697   1.579   6.466
 5271SOL     OW16711   1.174   5.087   3.161
 5271SOL    HW116712   1.123   5.008   3.192
 5271SOL    HW216713   1.175   5.157   3.232
 5272SOL     OW16714   4.152   0.204   6.937
 5272SOL    HW116715   4.139   0.298   6.967
 5272SOL    HW216716   4.097   0.143   6.995
 5273SOL     OW16717   2.671   1.606   2.712
 5273SOL    HW116718   2.651   1.517   2.752
 5273SOL    HW216719   2.657   1.678   2.781
 5274SOL     OW16720   5.389   4.894   1.541
 5274SOL    HW116721   5.433   4.983   1.543
 5274SOL    HW216722   5.401   4.849   1.629
 5275SOL     OW16723   4.205   1.516   6.653
 5275SOL    HW116724   4.117   1.480   6.622
 5275SOL    HW216725   4.205   1.616   6.644
 5276SOL     OW16726   3.852   6.687   2.074
 5276SOL    HW116727   3.919   6.712   2.145
 5276SOL    HW216728   3.810   6.600   2.099
 5277SOL     OW16729   2.022   2.655   2.113
 5277SOL    HW116730   1.961   2.589   2.069
 5277SOL    HW216731   2.012   2.648   2.212
 5278SOL     OW16732   4.161   3.557   1.925
 5278SOL    HW116733   4.188   3.462   1.906
 5278SOL    HW216734   4.163   3.573   2.024
 5279SOL     OW16735   1.892   6.419   2.080
 5279SOL    HW116736   1.964   6.382   2.139
 5279SOL    HW216737   1.851   6.345   2.028
 5280SOL     OW16738   4.035   0.459   5.267
 5280SOL    HW116739   3.980   0.517   5.207
 5280SOL    HW216740   4.028   0.493   5.361
 5281SOL     OW16741   0.039   2.724   3.343
 5281SOL    HW116742   7.004   2.780   3.401
 5281SOL    HW216743   0.091   2.660   3.400
 5282SOL     OW16744   4.966   1.142   1.320
 5282SOL    HW116745   4.870   1.168   1.313
 5282SOL    HW216746   4.978   1.081   1.398
 5283SOL     OW16747   4.918   5.343   5.655
 5283SOL    HW116748   4.841   5.280   5.652
 5283SOL    HW216749   4.895   5.422   5.712
 5284SOL     OW16750   4.961   2.509   3.389
 5284SOL    HW116751   4.926   2.449   3.460
 5284SOL    HW216752   5.029   2.460   3.335
 5285SOL     OW16753   4.119   5.951   2.715
 5285SOL    HW116754   4.115   5.955   2.815
 5285SOL    HW216755   4.095   5.859   2.684
 5286SOL     OW16756   2.640   5.776   2.365
 5286SOL    HW116757   2.553   5.777   2.414
 5286SOL    HW216758   2.688   5.690   2.383
 5287SOL     OW16759   0.497   1.400   1.888
 5287SOL    HW116760   0.520   1.497   1.876
 5287SOL    HW216761   0.478   1.359   1.799
 5288SOL     OW16762   4.401   0.892   0.739
 5288SOL    HW116763   4.352   0.820   0.690
 5288SOL    HW216764   4.336   0.947   0.791
 5289SOL     OW16765   1.982   5.889   0.943
 5289SOL    HW116766   2.065   5.919   0.989
 5289SOL    HW216767   1.984   5.919   0.848
 5290SOL     OW16768   5.255   5.845   0.742
 5290SOL    HW116769   5.161   5.862   0.713
 5290SOL    HW216770   5.260   5.757   0.789
 5291SOL     OW16771   1.005   5.123   6.329
 5291SOL    HW116772   0.980   5.176   6.248
 5291SOL    HW216773   1.017   5.027   6.304
 5292SOL     OW16774   5.449   1.979   0.291
 5292SOL    HW116775   5.424   1.901   0.233
 5292SOL    HW216776   5.370   2.006   0.346
 5293SOL     OW16777   1.769   1.532   3.747
 5293SOL    HW116778   1.764   1.550   3.845
 5293SOL    HW216779   1.756   1.617   3.697
 5294SOL     OW16780   4.576   2.658   5.398
 5294SOL    HW116781   4.643   2.619   5.335
 5294SOL    HW216782   4.490   2.672   5.350
 5295SOL     OW16783   5.941   0.770   2.238
 5295SOL    HW116784   5.857   0.750   2.187
 5295SOL    HW216785   5.966   0.866   2.227
 5296SOL     OW16786   0.343   3.398   0.307
 5296SOL    HW116787   0.262   3.457   0.309
 5296SOL    HW216788   0.319   3.310   0.266
 5297SOL     OW16789   1.379   3.063   2.262
 5297SOL    HW116790   1.390   3.047   2.360
 5297SOL    HW216791   1.449   3.127   2.231
 5298SOL     OW16792   1.190   5.204   2.057
 5298SOL    HW116793   1.097   5.241   2.063
 5298SOL    HW216794   1.217   5.166   2.146
 5299SOL     OW16795   3.298   0.247   0.968
 5299SOL    HW116796   3.342   0.188   1.036
 5299SOL    HW216797   3.237   0.193   0.910
 5300SOL     OW16798   6.968   5.428   3.953
 5300SOL    HW116799   6.992   5.488   3.876
 5300SOL    HW216800   6.873   5.446   3.979
 5301SOL     OW16801   4.892   0.345   0.715
 5301SOL    HW116802   4.797   0.321   0.737
 5301SOL    HW216803   4.892   0.418   0.646
 5302SOL     OW16804   6.476   4.171   3.430
 5302SOL    HW116805   6.426   4.211   3.353
 5302SOL    HW216806   6.453   4.074   3.438
 5303SOL     OW16807   1.182   5.491   2.805
 5303SOL    HW116808   1.240   5.568   2.778
 5303SOL    HW216809   1.171   5.429   2.727
 5304SOL     OW16810   4.848   2.362   5.522
 5304SOL    HW116811   4.923   2.296   5.511
 5304SOL    HW216812   4.880   2.440   5.575
 5305SOL     OW16813   2.760   1.054   3.869
 5305SOL    HW116814   2.836   1.093   3.817
 5305SOL    HW216815   2.793   1.024   3.958
 5306SOL     OW16816   2.825   6.487   4.498
 5306SOL    HW116817   2.732   6.522   4.515
 5306SOL    HW216818   2.881   6.561   4.461
 5307SOL     OW16819   3.969   6.858   0.194
 5307SOL    HW116820   3.890   6.856   0.256
 5307SOL    HW216821   4.032   6.784   0.218
 5308SOL     OW16822   0.020   0.882   1.900
 5308SOL    HW116823   0.071   0.934   1.968
 5308SOL    HW216824   0.078   0.864   1.820
 5309SOL     OW16825   3.349   3.609   4.688
 5309SOL    HW116826   3.253   3.633   4.674
 5309SOL    HW216827   3.391   3.673   4.752
 5310SOL     OW16828   5.643   2.781   6.953
 5310SOL    HW116829   5.588   2.852   6.910
 5310SOL    HW216830   5.718   2.823   7.004
 5311SOL     OW16831   0.675   6.072   6.537
 5311SOL    HW116832   0.741   6.145   6.555
 5311SOL    HW216833   0.598   6.109   6.485
 5312SOL     OW16834   0.212   3.318   1.886
 5312SOL    HW116835   0.208   3.361   1.976
 5312SOL    HW216836   0.255   3.381   1.821
 5313SOL     OW16837   1.191   6.524   0.582
 5313SOL    HW116838   1.119   6.505   0.648
 5313SOL    HW216839   1.248   6.443   0.570
 5314SOL     OW16840   3.566   4.942   1.047
 5314SOL    HW116841   3.660   4.916   1.023
 5314SOL    HW216842   3.559   5.041   1.053
 5315SOL     OW16843   5.720   2.529   1.702
 5315SOL    HW116844   5.634   2.496   1.664
 5315SOL    HW216845   5.703   2.575   1.789
 5316SOL     OW16846   5.780   5.537   4.416
 5316SOL    HW116847   5.774   5.439   4.436
 5316SOL    HW216848   5.689   5.578   4.424
 5317SOL     OW16849   6.378   5.522   2.899
 5317SOL    HW116850   6.387   5.428   2.931
 5317SOL    HW216851   6.373   5.584   2.977
 5318SOL     OW16852   0.332   2.113   4.168
 5318SOL    HW116853   0.420   2.159   4.161
 5318SOL    HW216854   0.266   2.159   4.108
 5319SOL     OW16855   3.596   6.807   1.981
 5319SOL    HW116856   3.599   6.879   1.911
 5319SOL    HW216857   3.677   6.813   2.039
 5320SOL     OW16858   6.234   3.397   5.746
 5320SOL    HW116859   6.295   3.473   5.767
 5320SOL    HW216860   6.250   3.366   5.652
 5321SOL     OW16861   2.135   4.666   5.973
 5321SOL    HW116862   2.196   4.616   5.912
 5321SOL    HW216863   2.041   4.636   5.957
 5322SOL     OW16864   2.353   5.966   0.726
 5322SOL    HW116865   2.405   5.956   0.811
 5322SOL    HW216866   2.406   6.020   0.661
 5323SOL     OW16867   5.527   3.467   0.342
 5323SOL    HW116868   5.509   3.564   0.355
 5323SOL    HW216869   5.625   3.450   0.350
 5324SOL     OW16870   3.745   3.766   1.286
 5324SOL    HW116871   3.713   3.838   1.347
 5324SOL    HW216872   3.785   3.692   1.340
 5325SOL     OW16873   4.194   5.919   4.668
 5325SOL    HW116874   4.244   5.884   4.748
 5325SOL    HW216875   4.109   5.868   4.658
 5326SOL     OW16876   0.053   0.075   2.900
 5326SOL    HW116877   0.023   0.054   2.806
 5326SOL    HW216878   7.014   0.144   2.939
 5327SOL     OW16879   0.036   0.193   4.065
 5327SOL    HW116880   7.021   0.233   3.982
 5327SOL    HW216881   0.074   0.103   4.046
 5328SOL     OW16882   3.643   5.031   0.060
 5328SOL    HW116883   3.567   4.991   0.011
 5328SOL    HW216884   3.641   5.001   0.155
 5329SOL     OW16885   0.014   5.756   0.148
 5329SOL    HW116886   0.113   5.769   0.144
 5329SOL    HW216887   7.015   5.662   0.122
 5330SOL     OW16888   3.368   4.112   0.376
 5330SOL    HW116889   3.393   4.194   0.427
 5330SOL    HW216890   3.288   4.070   0.418
 5331SOL     OW16891   5.108   1.594   6.730
 5331SOL    HW116892   5.122   1.534   6.651
 5331SOL    HW216893   5.021   1.643   6.720
 5332SOL     OW16894   5.678   3.208   6.972
 5332SOL    HW116895   5.615   3.141   6.934
 5332SOL    HW216896   5.628   3.278   7.021
 5333SOL     OW16897   1.522   1.096   4.701
 5333SOL    HW116898   1.449   1.075   4.766
 5333SOL    HW216899   1.607   1.052   4.731
 5334SOL     OW16900   3.345   6.205   1.980
 5334SOL    HW116901   3.311   6.197   2.073
 5334SOL    HW216902   3.437   6.243   1.981
 5335SOL     OW16903   0.058   4.690   1.760
 5335SOL    HW116904   7.000   4.678   1.702
 5335SOL    HW216905   0.141   4.672   1.707
 5336SOL     OW16906   1.509   3.267   5.435
 5336SOL    HW116907   1.574   3.198   5.401
 5336SOL    HW216908   1.560   3.342   5.477
 5337SOL     OW16909   7.017   3.506   1.078
 5337SOL    HW116910   0.002   3.576   1.008
 5337SOL    HW216911   6.924   3.468   1.078
 5338SOL     OW16912   6.822   3.571   0.699
 5338SOL    HW116913   6.847   3.478   0.725
 5338SOL    HW216914   6.780   3.571   0.609
 5339SOL     OW16915   5.556   3.177   2.375
 5339SOL    HW116916   5.602   3.113   2.437
 5339SOL    HW216917   5.468   3.203   2.414
 5340SOL     OW16918   4.508   3.427   1.665
 5340SOL    HW116919   4.597   3.450   1.704
 5340SOL    HW216920   4.504   3.329   1.647
 5341SOL     OW16921   4.847   4.564   3.736
 5341SOL    HW116922   4.894   4.562   3.648
 5341SOL    HW216923   4.761   4.613   3.727
 5342SOL     OW16924   6.150   5.919   4.885
 5342SOL    HW116925   6.115   5.959   4.800
 5342SOL    HW216926   6.135   5.984   4.960
 5343SOL     OW16927   3.927   3.371   6.460
 5343SOL    HW116928   3.955   3.467   6.457
 5343SOL    HW216929   3.946   3.334   6.551
 5344SOL     OW16930   6.882   1.478   6.790
 5344SOL    HW116931   6.953   1.518   6.848
 5344SOL    HW216932   6.924   1.425   6.716
 5345SOL     OW16933   4.897   1.050   6.621
 5345SOL    HW116934   4.955   0.985   6.671
 5345SOL    HW216935   4.872   1.125   6.681
 5346SOL     OW16936   3.350   5.964   3.244
 5346SOL    HW116937   3.324   5.868   3.254
 5346SOL    HW216938   3.269   6.019   3.220
 5347SOL     OW16939   5.254   1.516   4.540
 5347SOL    HW116940   5.180   1.463   4.581
 5347SOL    HW216941   5.218   1.600   4.500
 5348SOL     OW16942   4.970   2.981   5.033
 5348SOL    HW116943   4.952   2.888   5.064
 5348SOL    HW216944   5.049   2.981   4.972
 5349SOL     OW16945   0.724   3.974   1.326
 5349SOL    HW116946   0.657   3.909   1.363
 5349SOL    HW216947   0.811   3.963   1.375
 5350SOL     OW16948   1.043   0.215   6.866
 5350SOL    HW116949   0.956   0.237   6.909
 5350SOL    HW216950   1.080   0.296   6.821
 5351SOL     OW16951   0.253   5.933   3.087
 5351SOL    HW116952   0.185   5.861   3.103
 5351SOL    HW216953   0.225   5.987   3.008
 5352SOL     OW16954   1.467   2.745   5.792
 5352SOL    HW116955   1.500   2.743   5.698
 5352SOL    HW216956   1.410   2.664   5.809
 5353SOL     OW16957   3.806   5.278   3.782
 5353SOL    HW116958   3.768   5.324   3.702
 5353SOL    HW216959   3.845   5.190   3.755
 5354SOL     OW16960   3.949   5.685   1.142
 5354SOL    HW116961   4.026   5.749   1.150
 5354SOL    HW216962   3.869   5.733   1.107
 5355SOL     OW16963   4.730   5.999   4.904
 5355SOL    HW116964   4.729   5.923   4.968
 5355SOL    HW216965   4.803   6.063   4.929
 5356SOL     OW16966   1.229   6.220   1.257
 5356SOL    HW116967   1.319   6.252   1.286
 5356SOL    HW216968   1.225   6.217   1.157
 5357SOL     OW16969   6.410   3.216   2.731
 5357SOL    HW116970   6.428   3.274   2.811
 5357SOL    HW216971   6.436   3.122   2.752
 5358SOL     OW16972   6.093   0.322   6.449
 5358SOL    HW116973   6.183   0.279   6.457
 5358SOL    HW216974   6.092   0.380   6.367
 5359SOL     OW16975   2.984   2.779   0.052
 5359SOL    HW116976   2.920   2.754   0.125
 5359SOL    HW216977   3.063   2.825   0.091
 5360SOL     OW16978   5.228   5.437   4.005
 5360SOL    HW116979   5.158   5.486   3.953
 5360SOL    HW216980   5.311   5.492   4.010
 5361SOL     OW16981   1.383   4.416   3.173
 5361SOL    HW116982   1.470   4.464   3.182
 5361SOL    HW216983   1.385   4.360   3.089
 5362SOL     OW16984   6.453   1.316   2.810
 5362SOL    HW116985   6.422   1.221   2.804
 5362SOL    HW216986   6.536   1.320   2.865
 5363SOL     OW16987   5.866   5.491   3.701
 5363SOL    HW116988   5.879   5.586   3.728
 5363SOL    HW216989   5.938   5.464   3.637
 5364SOL     OW16990   4.430   2.476   2.280
 5364SOL    HW116991   4.396   2.408   2.216
 5364SOL    HW216992   4.393   2.566   2.256
 5365SOL     OW16993   2.953   4.016   5.171
 5365SOL    HW116994   3.051   4.033   5.155
 5365SOL    HW216995   2.942   3.927   5.217
 5366SOL     OW16996   6.555   5.615   3.327
 5366SOL    HW116997   6.537   5.713   3.321
 5366SOL    HW216998   6.549   5.574   3.235
 5367SOL     OW16999   6.093   6.237   1.520
 5367SOL    HW117000   6.124   6.277   1.433
 5367SOL    HW217001   6.170   6.189   1.563
 5368SOL     OW17002   0.331   6.103   4.464
 5368SOL    HW117003   0.369   6.105   4.557
 5368SOL    HW217004   0.406   6.098   4.398
 5369SOL     OW17005   4.343   6.625   2.451
 5369SOL    HW117006   4.336   6.570   2.535
 5369SOL    HW217007   4.273   6.595   2.386
 5370SOL     OW17008   1.513   2.779   0.049
 5370SOL    HW117009   1.601   2.741   0.076
 5370SOL    HW217010   1.469   2.718   7.006
 5371SOL     OW17011   6.247   5.768   4.344
 5371SOL    HW117012   6.333   5.729   4.376
 5371SOL    HW217013   6.197   5.806   4.422
 5372SOL     OW17014   2.214   6.991   3.153
 5372SOL    HW117015   2.193   6.946   3.066
 5372SOL    HW217016   2.250   0.060   3.135
 5373SOL     OW17017   3.085   1.068   6.484
 5373SOL    HW117018   3.014   1.079   6.414
 5373SOL    HW217019   3.130   0.980   6.473
 5374SOL     OW17020   1.265   4.142   1.363
 5374SOL    HW117021   1.323   4.087   1.422
 5374SOL    HW217022   1.226   4.083   1.292
 5375SOL     OW17023   2.358   4.423   4.743
 5375SOL    HW117024   2.279   4.378   4.785
 5375SOL    HW217025   2.438   4.413   4.803
 5376SOL     OW17026   1.367   0.244   0.866
 5376SOL    HW117027   1.345   0.308   0.792
 5376SOL    HW217028   1.389   0.295   0.949
 5377SOL     OW17029   1.393   2.029   2.613
 5377SOL    HW117030   1.434   2.095   2.551
 5377SOL    HW217031   1.440   1.941   2.605
 5378SOL     OW17032   4.926   0.054   2.318
 5378SOL    HW117033   4.829   0.057   2.340
 5378SOL    HW217034   4.970   7.003   2.370
 5379SOL     OW17035   2.302   1.869   3.129
 5379SOL    HW117036   2.282   1.836   3.036
 5379SOL    HW217037   2.398   1.895   3.135
 5380SOL     OW17038   4.919   6.263   1.166
 5380SOL    HW117039   4.893   6.181   1.218
 5380SOL    HW217040   4.950   6.334   1.229
 5381SOL     OW17041   3.352   1.484   3.417
 5381SOL    HW117042   3.338   1.388   3.395
 5381SOL    HW217043   3.300   1.541   3.354
 5382SOL     OW17044   4.047   1.710   2.681
 5382SOL    HW117045   3.959   1.713   2.634
 5382SOL    HW217046   4.109   1.777   2.640
 5383SOL     OW17047   2.045   3.203   4.922
 5383SOL    HW117048   2.042   3.280   4.985
 5383SOL    HW217049   1.951   3.173   4.901
 5384SOL     OW17050   5.188   5.877   6.019
 5384SOL    HW117051   5.126   5.903   5.945
 5384SOL    HW217052   5.258   5.947   6.031
 5385SOL     OW17053   4.352   3.597   7.011
 5385SOL    HW117054   4.406   3.515   6.991
 5385SOL    HW217055   4.263   3.570   0.026
 5386SOL     OW17056   4.521   5.082   4.066
 5386SOL    HW117057   4.443   5.023   4.087
 5386SOL    HW217058   4.524   5.098   3.968
 5387SOL     OW17059   1.236   2.300   4.235
 5387SOL    HW117060   1.268   2.235   4.304
 5387SOL    HW217061   1.161   2.259   4.182
 5388SOL     OW17062   6.499   6.569   4.331
 5388SOL    HW117063   6.406   6.557   4.297
 5388SOL    HW217064   6.550   6.630   4.269
 5389SOL     OW17065   5.517   1.220   4.715
 5389SOL    HW117066   5.525   1.248   4.810
 5389SOL    HW217067   5.478   1.128   4.710
 5390SOL     OW17068   5.792   3.767   3.352
 5390SOL    HW117069   5.711   3.719   3.319
 5390SOL    HW217070   5.834   3.713   3.426
 5391SOL     OW17071   3.854   2.682   1.100
 5391SOL    HW117072   3.797   2.716   1.175
 5391SOL    HW217073   3.864   2.583   1.108
 5392SOL     OW17074   5.386   0.290   4.548
 5392SOL    HW117075   5.435   0.297   4.636
 5392SOL    HW217076   5.419   0.361   4.486
 5393SOL     OW17077   4.592   1.139   3.997
 5393SOL    HW117078   4.544   1.052   4.007
 5393SOL    HW217079   4.528   1.215   4.015
 5394SOL     OW17080   0.043   3.104   2.396
 5394SOL    HW117081   0.057   3.025   2.455
 5394SOL    HW217082   0.131   3.138   2.364
 5395SOL     OW17083   0.585   1.694   0.962
 5395SOL    HW117084   0.607   1.694   1.060
 5395SOL    HW217085   0.541   1.780   0.938
 5396SOL     OW17086   3.396   3.066   1.020
 5396SOL    HW117087   3.384   3.135   1.091
 5396SOL    HW217088   3.416   3.111   0.933
 5397SOL     OW17089   6.986   0.429   2.447
 5397SOL    HW117090   6.919   0.383   2.505
 5397SOL    HW217091   7.013   0.368   2.372
 5398SOL     OW17092   6.785   2.288   3.314
 5398SOL    HW117093   6.715   2.217   3.313
 5398SOL    HW217094   6.745   2.375   3.342
 5399SOL     OW17095   2.192   2.992   0.899
 5399SOL    HW117096   2.176   3.005   0.801
 5399SOL    HW217097   2.274   2.936   0.912
 5400SOL     OW17098   4.908   3.105   1.360
 5400SOL    HW117099   4.821   3.090   1.406
 5400SOL    HW217100   4.897   3.093   1.261
 5401SOL     OW17101   5.278   3.035   1.196
 5401SOL    HW117102   5.372   3.021   1.168
 5401SOL    HW217103   5.242   3.119   1.156
 5402SOL     OW17104   1.243   6.565   1.839
 5402SOL    HW117105   1.293   6.605   1.916
 5402SOL    HW217106   1.263   6.468   1.832
 5403SOL     OW17107   5.125   2.497   6.118
 5403SOL    HW117108   5.113   2.570   6.186
 5403SOL    HW217109   5.151   2.538   6.030
 5404SOL     OW17110   4.851   6.600   0.154
 5404SOL    HW117111   4.846   6.571   0.249
 5404SOL    HW217112   4.946   6.621   0.130
 5405SOL     OW17113   0.201   5.103   6.972
 5405SOL    HW117114   0.181   5.041   6.896
 5405SOL    HW217115   0.124   5.102   0.013
 5406SOL     OW17116   2.877   1.118   5.801
 5406SOL    HW117117   2.818   1.146   5.725
 5406SOL    HW217118   2.971   1.147   5.783
 5407SOL     OW17119   1.441   6.556   3.601
 5407SOL    HW117120   1.374   6.629   3.592
 5407SOL    HW217121   1.462   6.518   3.511
 5408SOL     OW17122   2.486   2.179   4.219
 5408SOL    HW117123   2.479   2.159   4.121
 5408SOL    HW217124   2.396   2.172   4.261
 5409SOL     OW17125   0.865   2.668   2.536
 5409SOL    HW117126   0.872   2.584   2.589
 5409SOL    HW217127   0.856   2.746   2.598
 5410SOL     OW17128   6.703   2.821   0.418
 5410SOL    HW117129   6.666   2.912   0.397
 5410SOL    HW217130   6.631   2.763   0.454
 5411SOL     OW17131   3.569   5.440   0.825
 5411SOL    HW117132   3.610   5.506   0.887
 5411SOL    HW217133   3.592   5.465   0.730
 5412SOL     OW17134   1.408   2.595   4.682
 5412SOL    HW117135   1.474   2.527   4.651
 5412SOL    HW217136   1.319   2.577   4.640
 5413SOL     OW17137   0.189   5.144   5.447
 5413SOL    HW117138   0.232   5.231   5.472
 5413SOL    HW217139   0.156   5.149   5.353
 5414SOL     OW17140   5.538   4.614   5.760
 5414SOL    HW117141   5.461   4.561   5.796
 5414SOL    HW217142   5.605   4.628   5.833
 5415SOL     OW17143   1.855   1.666   6.316
 5415SOL    HW117144   1.824   1.726   6.390
 5415SOL    HW217145   1.931   1.709   6.267
 5416SOL     OW17146   3.329   6.158   6.982
 5416SOL    HW117147   3.394   6.087   7.009
 5416SOL    HW217148   3.272   6.123   6.907
 5417SOL     OW17149   5.905   0.485   3.315
 5417SOL    HW117150   5.817   0.469   3.270
 5417SOL    HW217151   5.976   0.499   3.247
 5418SOL     OW17152   0.060   3.884   5.656
 5418SOL    HW117153   0.154   3.851   5.666
 5418SOL    HW217154   0.044   3.958   5.721
 5419SOL     OW17155   3.830   1.837   6.689
 5419SOL    HW117156   3.848   1.757   6.630
 5419SOL    HW217157   3.917   1.883   6.709
 5420SOL     OW17158   1.353   2.174   1.627
 5420SOL    HW117159   1.278   2.108   1.631
 5420SOL    HW217160   1.416   2.156   1.702
 5421SOL     OW17161   3.959   5.467   1.791
 5421SOL    HW117162   4.013   5.547   1.766
 5421SOL    HW217163   4.021   5.391   1.812
 5422SOL     OW17164   2.654   5.345   3.578
 5422SOL    HW117165   2.614   5.274   3.636
 5422SOL    HW217166   2.620   5.435   3.608
 5423SOL     OW17167   5.014   6.518   1.346
 5423SOL    HW117168   5.057   6.607   1.362
 5423SOL    HW217169   5.047   6.453   1.415
 5424SOL     OW17170   4.166   3.197   5.493
 5424SOL    HW117171   4.167   3.222   5.590
 5424SOL    HW217172   4.260   3.187   5.461
 5425SOL     OW17173   1.206   5.104   5.891
 5425SOL    HW117174   1.283   5.045   5.865
 5425SOL    HW217175   1.135   5.048   5.935
 5426SOL     OW17176   6.534   4.442   1.040
 5426SOL    HW117177   6.617   4.492   1.015
 5426SOL    HW217178   6.472   4.504   1.089
 5427SOL     OW17179   4.750   2.800   0.385
 5427SOL    HW117180   4.817   2.727   0.374
 5427SOL    HW217181   4.787   2.871   0.445
 5428SOL     OW17182   4.806   5.344   3.174
 5428SOL    HW117183   4.884   5.282   3.160
 5428SOL    HW217184   4.731   5.318   3.114
 5429SOL     OW17185   2.874   6.927   3.870
 5429SOL    HW117186   2.910   6.853   3.926
 5429SOL    HW217187   2.926   7.011   3.887
 5430SOL     OW17188   2.085   4.034   5.671
 5430SOL    HW117189   2.095   4.001   5.764
 5430SOL    HW217190   2.115   4.129   5.665
 5431SOL     OW17191   4.665   4.876   6.912
 5431SOL    HW117192   4.727   4.820   6.967
 5431SOL    HW217193   4.663   4.969   6.949
 5432SOL     OW17194   0.112   4.997   6.722
 5432SOL    HW117195   0.074   5.038   6.639
 5432SOL    HW217196   0.039   4.951   6.773
 5433SOL     OW17197   3.406   0.044   1.112
 5433SOL    HW117198   3.473   7.011   1.064
 5433SOL    HW217199   3.369   7.014   1.189
 5434SOL     OW17200   4.771   6.588   4.246
 5434SOL    HW117201   4.767   6.586   4.345
 5434SOL    HW217202   4.850   6.535   4.215
 5435SOL     OW17203   6.960   4.629   6.764
 5435SOL    HW117204   6.888   4.562   6.782
 5435SOL    HW217205   6.935   4.716   6.806
 5436SOL     OW17206   2.266   4.623   2.156
 5436SOL    HW117207   2.253   4.550   2.223
 5436SOL    HW217208   2.300   4.705   2.203
 5437SOL     OW17209   3.426   6.089   0.954
 5437SOL    HW117210   3.397   6.094   0.859
 5437SOL    HW217211   3.456   6.180   0.984
 5438SOL     OW17212   4.225   6.539   1.907
 5438SOL    HW117213   4.211   6.613   1.841
 5438SOL    HW217214   4.322   6.513   1.909
 5439SOL     OW17215   1.466   3.895   1.025
 5439SOL    HW117216   1.521   3.860   1.101
 5439SOL    HW217217   1.386   3.836   1.012
 5440SOL     OW17218   5.695   6.717   3.606
 5440SOL    HW117219   5.763   6.789   3.592
 5440SOL    HW217220   5.677   6.707   3.704
 5441SOL     OW17221   5.769   2.282   4.841
 5441SOL    HW117222   5.684   2.330   4.821
 5441SOL    HW217223   5.757   2.184   4.820
 5442SOL     OW17224   2.780   0.812   6.941
 5442SOL    HW117225   2.866   0.810   6.991
 5442SOL    HW217226   2.778   0.892   6.881
 5443SOL     OW17227   6.089   1.099   2.787
 5443SOL    HW117228   6.052   1.104   2.880
 5443SOL    HW217229   6.014   1.087   2.722
 5444SOL     OW17230   0.526   1.269   6.330
 5444SOL    HW117231   0.528   1.356   6.279
 5444SOL    HW217232   0.600   1.211   6.299
 5445SOL     OW17233   5.755   6.440   5.534
 5445SOL    HW117234   5.741   6.532   5.571
 5445SOL    HW217235   5.697   6.375   5.583
 5446SOL     OW17236   1.109   4.049   6.282
 5446SOL    HW117237   1.025   4.056   6.228
 5446SOL    HW217238   1.091   4.075   6.376
 5447SOL     OW17239   6.313   2.092   1.954
 5447SOL    HW117240   6.359   2.047   1.878
 5447SOL    HW217241   6.233   2.142   1.920
 5448SOL     OW17242   6.117   4.847   2.136
 5448SOL    HW117243   6.022   4.821   2.154
 5448SOL    HW217244   6.154   4.895   2.215
 5449SOL     OW17245   1.874   0.658   1.611
 5449SOL    HW117246   1.960   0.616   1.583
 5449SOL    HW217247   1.892   0.733   1.674
 5450SOL     OW17248   4.691   5.985   1.705
 5450SOL    HW117249   4.611   5.988   1.764
 5450SOL    HW217250   4.750   5.909   1.732
 5451SOL     OW17251   0.109   6.709   3.959
 5451SOL    HW117252   0.093   6.610   3.962
 5451SOL    HW217253   0.024   6.758   3.978
 5452SOL     OW17254   2.472   4.405   2.471
 5452SOL    HW117255   2.561   4.385   2.431
 5452SOL    HW217256   2.464   4.504   2.486
 5453SOL     OW17257   5.978   4.564   4.192
 5453SOL    HW117258   5.954   4.601   4.102
 5453SOL    HW217259   5.916   4.600   4.260
 5454SOL     OW17260   5.769   4.137   2.800
 5454SOL    HW117261   5.849   4.159   2.855
 5454SOL    HW217262   5.785   4.052   2.749
 5455SOL     OW17263   2.690   1.989   3.580
 5455SOL    HW117264   2.706   1.927   3.503
 5455SOL    HW217265   2.730   1.952   3.663
 5456SOL     OW17266   5.980   2.350   0.135
 5456SOL    HW117267   5.975   2.345   0.035
 5456SOL    HW217268   5.892   2.322   0.174
 5457SOL     OW17269   6.205   1.002   6.787
 5457SOL    HW117270   6.237   1.059   6.863
 5457SOL    HW217271   6.178   1.061   6.711
 5458SOL     OW17272   4.907   4.655   6.323
 5458SOL    HW117273   4.859   4.569   6.306
 5458SOL    HW217274   4.900   4.679   6.420
 5459SOL     OW17275   2.409   2.806   5.372
 5459SOL    HW117276   2.499   2.770   5.396
 5459SOL    HW217277   2.419   2.880   5.305
 5460SOL     OW17278   0.446   0.537   1.072
 5460SOL    HW117279   0.457   0.558   0.974
 5460SOL    HW217280   0.350   0.518   1.091
 5461SOL     OW17281   5.780   1.873   6.545
 5461SOL    HW117282   5.794   1.826   6.458
 5461SOL    HW217283   5.692   1.847   6.583
 5462SOL     OW17284   5.238   5.192   5.879
 5462SOL    HW117285   5.242   5.093   5.890
 5462SOL    HW217286   5.217   5.215   5.784
 5463SOL     OW17287   1.480   4.339   5.768
 5463SOL    HW117288   1.506   4.389   5.685
 5463SOL    HW217289   1.502   4.394   5.848
 5464SOL     OW17290   1.703   5.254   4.787
 5464SOL    HW117291   1.661   5.342   4.812
 5464SOL    HW217292   1.729   5.205   4.869
 5465SOL     OW17293   0.648   0.085   5.339
 5465SOL    HW117294   0.661   0.043   5.429
 5465SOL    HW217295   0.574   0.151   5.344
 5466SOL     OW17296   5.328   1.661   4.773
 5466SOL    HW117297   5.278   1.749   4.775
 5466SOL    HW217298   5.322   1.622   4.682
 5467SOL     OW17299   4.896   3.128   4.571
 5467SOL    HW117300   4.891   3.218   4.527
 5467SOL    HW217301   4.947   3.136   4.657
 5468SOL     OW17302   6.989   2.346   1.363
 5468SOL    HW117303   6.998   2.264   1.306
 5468SOL    HW217304   6.970   2.425   1.304
 5469SOL     OW17305   3.257   1.191   4.409
 5469SOL    HW117306   3.225   1.228   4.322
 5469SOL    HW217307   3.299   1.264   4.463
 5470SOL     OW17308   4.121   5.422   3.829
 5470SOL    HW117309   4.191   5.475   3.877
 5470SOL    HW217310   4.151   5.327   3.821
 5471SOL     OW17311   5.317   0.333   2.615
 5471SOL    HW117312   5.241   0.270   2.597
 5471SOL    HW217313   5.375   0.340   2.534
 5472SOL     OW17314   2.368   3.664   0.632
 5472SOL    HW117315   2.359   3.713   0.719
 5472SOL    HW217316   2.462   3.633   0.621
 5473SOL     OW17317   2.876   4.893   2.209
 5473SOL    HW117318   2.963   4.906   2.257
 5473SOL    HW217319   2.887   4.824   2.138
 5474SOL     OW17320   1.657   4.815   2.311
 5474SOL    HW117321   1.638   4.791   2.406
 5474SOL    HW217322   1.751   4.789   2.288
 5475SOL     OW17323   1.396   1.415   5.310
 5475SOL    HW117324   1.309   1.389   5.269
 5475SOL    HW217325   1.460   1.339   5.303
 5476SOL     OW17326   1.759   0.112   4.800
 5476SOL    HW117327   1.734   0.169   4.878
 5476SOL    HW217328   1.850   0.139   4.767
 5477SOL     OW17329   2.170   3.135   3.479
 5477SOL    HW117330   2.107   3.058   3.478
 5477SOL    HW217331   2.131   3.212   3.428
 5478SOL     OW17332   5.026   4.669   5.641
 5478SOL    HW117333   5.015   4.763   5.610
 5478SOL    HW217334   5.084   4.667   5.723
 5479SOL     OW17335   5.253   2.476   4.428
 5479SOL    HW117336   5.237   2.571   4.401
 5479SOL    HW217337   5.306   2.430   4.356
 5480SOL     OW17338   0.868   3.357   4.224
 5480SOL    HW117339   0.836   3.303   4.146
 5480SOL    HW217340   0.903   3.295   4.294
 5481SOL     OW17341   3.669   1.339   6.503
 5481SOL    HW117342   3.597   1.329   6.572
 5481SOL    HW217343   3.758   1.350   6.548
 5482SOL     OW17344   5.575   3.462   1.606
 5482SOL    HW117345   5.486   3.429   1.575
 5482SOL    HW217346   5.589   3.434   1.701
 5483SOL     OW17347   6.934   2.997   0.112
 5483SOL    HW117348   6.886   3.084   0.124
 5483SOL    HW217349   6.867   2.923   0.103
 5484SOL     OW17350   6.386   0.279   5.402
 5484SOL    HW117351   6.362   0.358   5.459
 5484SOL    HW217352   6.485   0.277   5.389
 5485SOL     OW17353   3.656   0.326   4.972
 5485SOL    HW117354   3.571   0.275   4.964
 5485SOL    HW217355   3.686   0.355   4.881
 5486SOL     OW17356   0.985   0.893   4.412
 5486SOL    HW117357   1.074   0.890   4.456
 5486SOL    HW217358   0.984   0.967   4.344
 5487SOL     OW17359   4.556   5.292   0.603
 5487SOL    HW117360   4.536   5.205   0.649
 5487SOL    HW217361   4.629   5.279   0.536
 5488SOL     OW17362   5.336   1.085   6.016
 5488SOL    HW117363   5.382   1.057   6.100
 5488SOL    HW217364   5.327   1.184   6.014
 5489SOL     OW17365   6.824   4.092   3.248
 5489SOL    HW117366   6.758   4.023   3.219
 5489SOL    HW217367   6.848   4.077   3.344
 5490SOL     OW17368   2.222   2.196   6.337
 5490SOL    HW117369   2.275   2.111   6.333
 5490SOL    HW217370   2.279   2.269   6.375
 5491SOL     OW17371   0.178   5.951   1.803
 5491SOL    HW117372   0.179   6.047   1.774
 5491SOL    HW217373   0.262   5.930   1.853
 5492SOL     OW17374   1.500   1.313   4.970
 5492SOL    HW117375   1.509   1.256   5.051
 5492SOL    HW217376   1.404   1.317   4.942
 5493SOL     OW17377   3.274   2.681   0.461
 5493SOL    HW117378   3.179   2.653   0.447
 5493SOL    HW217379   3.287   2.705   0.557
 5494SOL     OW17380   6.164   3.214   2.151
 5494SOL    HW117381   6.215   3.232   2.235
 5494SOL    HW217382   6.143   3.116   2.145
 5495SOL     OW17383   3.844   2.991   3.180
 5495SOL    HW117384   3.873   3.066   3.121
 5495SOL    HW217385   3.764   2.945   3.140
 5496SOL     OW17386   4.035   5.182   1.716
 5496SOL    HW117387   4.090   5.101   1.737
 5496SOL    HW217388   4.096   5.258   1.696
 5497SOL     OW17389   6.284   0.207   1.396
 5497SOL    HW117390   6.353   0.173   1.460
 5497SOL    HW217391   6.277   0.307   1.406
 5498SOL     OW17392   4.457   0.216   5.298
 5498SOL    HW117393   4.501   0.228   5.209
 5498SOL    HW217394   4.404   0.298   5.320
 5499SOL     OW17395   0.703   1.484   5.550
 5499SOL    HW117396   0.708   1.430   5.466
 5499SOL    HW217397   0.713   1.581   5.528
 5500SOL     OW17398   2.087   5.595   0.883
 5500SOL    HW117399   2.174   5.547   0.881
 5500SOL    HW217400   2.093   5.677   0.826
 5501SOL     OW17401   2.652   0.575   2.453
 5501SOL    HW117402   2.638   0.533   2.542
 5501SOL    HW217403   2.571   0.628   2.428
 5502SOL     OW17404   4.512   3.450   0.787
 5502SOL    HW117405   4.449   3.446   0.709
 5502SOL    HW217406   4.579   3.522   0.773
 5503SOL     OW17407   0.632   6.374   4.322
 5503SOL    HW117408   0.654   6.447   4.257
 5503SOL    HW217409   0.628   6.411   4.414
 5504SOL     OW17410   3.629   2.088   4.443
 5504SOL    HW117411   3.712   2.106   4.391
 5504SOL    HW217412   3.569   2.028   4.391
 5505SOL     OW17413   3.628   4.418   6.929
 5505SOL    HW117414   3.584   4.401   7.017
 5505SOL    HW217415   3.663   4.512   6.928
 5506SOL     OW17416   0.354   6.707   5.662
 5506SOL    HW117417   0.283   6.638   5.651
 5506SOL    HW217418   0.443   6.667   5.639
 5507SOL     OW17419   3.940   5.770   4.617
 5507SOL    HW117420   3.998   5.694   4.586
 5507SOL    HW217421   3.892   5.810   4.539
 5508SOL     OW17422   2.125   0.576   6.052
 5508SOL    HW117423   2.189   0.503   6.071
 5508SOL    HW217424   2.127   0.598   5.954
 5509SOL     OW17425   6.228   6.275   6.873
 5509SOL    HW117426   6.174   6.220   6.937
 5509SOL    HW217427   6.217   6.372   6.894
 5510SOL     OW17428   6.037   0.463   6.236
 5510SOL    HW117429   5.978   0.436   6.159
 5510SOL    HW217430   6.055   0.562   6.230
 5511SOL     OW17431   6.994   2.147   1.169
 5511SOL    HW117432   6.911   2.109   1.128
 5511SOL    HW217433   0.027   2.073   1.207
 5512SOL     OW17434   0.605   0.208   0.996
 5512SOL    HW117435   0.529   0.225   0.933
 5512SOL    HW217436   0.654   0.293   1.012
 5513SOL     OW17437   3.280   5.395   4.858
 5513SOL    HW117438   3.246   5.483   4.890
 5513SOL    HW217439   3.271   5.389   4.758
 5514SOL     OW17440   6.241   5.232   3.975
 5514SOL    HW117441   6.160   5.291   3.978
 5514SOL    HW217442   6.220   5.145   4.019
 5515SOL     OW17443   6.700   2.802   2.728
 5515SOL    HW117444   6.752   2.885   2.752
 5515SOL    HW217445   6.749   2.752   2.656
 5516SOL     OW17446   1.588   3.401   6.349
 5516SOL    HW117447   1.582   3.303   6.370
 5516SOL    HW217448   1.600   3.452   6.434
 5517SOL     OW17449   2.416   1.511   1.770
 5517SOL    HW117450   2.327   1.504   1.725
 5517SOL    HW217451   2.402   1.535   1.867
 5518SOL     OW17452   5.199   5.465   5.306
 5518SOL    HW117453   5.192   5.557   5.346
 5518SOL    HW217454   5.280   5.459   5.248
 5519SOL     OW17455   5.223   3.767   3.497
 5519SOL    HW117456   5.127   3.770   3.523
 5519SOL    HW217457   5.263   3.858   3.508
 5520SOL     OW17458   1.856   3.193   0.999
 5520SOL    HW117459   1.920   3.258   1.039
 5520SOL    HW217460   1.905   3.134   0.935
 5521SOL     OW17461   4.862   5.786   1.338
 5521SOL    HW117462   4.775   5.737   1.332
 5521SOL    HW217463   4.928   5.731   1.389
 5522SOL     OW17464   2.083   2.930   2.335
 5522SOL    HW117465   1.986   2.905   2.340
 5522SOL    HW217466   2.139   2.852   2.362
 5523SOL     OW17467   3.353   0.909   1.545
 5523SOL    HW117468   3.343   0.819   1.502
 5523SOL    HW217469   3.400   0.971   1.482
 5524SOL     OW17470   6.090   5.786   6.318
 5524SOL    HW117471   6.077   5.704   6.263
 5524SOL    HW217472   6.045   5.775   6.407
 5525SOL     OW17473   6.687   6.413   4.454
 5525SOL    HW117474   6.618   6.469   4.409
 5525SOL    HW217475   6.754   6.472   4.500
 5526SOL     OW17476   5.396   3.117   4.539
 5526SOL    HW117477   5.431   3.025   4.522
 5526SOL    HW217478   5.472   3.181   4.550
 5527SOL     OW17479   2.427   3.304   0.867
 5527SOL    HW117480   2.378   3.360   0.934
 5527SOL    HW217481   2.391   3.323   0.776
 5528SOL     OW17482   0.440   3.444   2.928
 5528SOL    HW117483   0.433   3.539   2.959
 5528SOL    HW217484   0.349   3.406   2.914
 5529SOL     OW17485   1.593   1.551   5.173
 5529SOL    HW117486   1.629   1.534   5.081
 5529SOL    HW217487   1.518   1.486   5.191
 5530SOL     OW17488   0.517   3.226   0.695
 5530SOL    HW117489   0.615   3.213   0.677
 5530SOL    HW217490   0.483   3.150   0.750
 5531SOL     OW17491   1.635   2.690   6.012
 5531SOL    HW117492   1.726   2.730   6.002
 5531SOL    HW217493   1.580   2.712   5.933
 5532SOL     OW17494   2.451   2.293   1.441
 5532SOL    HW117495   2.475   2.233   1.365
 5532SOL    HW217496   2.355   2.322   1.431
 5533SOL     OW17497   4.373   0.204   0.794
 5533SOL    HW117498   4.470   0.200   0.772
 5533SOL    HW217499   4.323   0.245   0.717
 5534SOL     OW17500   6.765   4.954   5.309
 5534SOL    HW117501   6.667   4.954   5.328
 5534SOL    HW217502   6.795   4.860   5.294
 5535SOL     OW17503   5.617   3.931   3.536
 5535SOL    HW117504   5.584   3.839   3.518
 5535SOL    HW217505   5.706   3.945   3.492
 5536SOL     OW17506   2.428   0.555   4.148
 5536SOL    HW117507   2.482   0.499   4.211
 5536SOL    HW217508   2.331   0.548   4.173
 5537SOL     OW17509   4.651   1.298   4.765
 5537SOL    HW117510   4.555   1.315   4.786
 5537SOL    HW217511   4.708   1.327   4.842
 5538SOL     OW17512   5.351   2.493   1.407
 5538SOL    HW117513   5.423   2.441   1.452
 5538SOL    HW217514   5.271   2.497   1.466
 5539SOL     OW17515   2.601   6.629   0.303
 5539SOL    HW117516   2.686   6.580   0.284
 5539SOL    HW217517   2.621   6.714   0.353
 5540SOL     OW17518   5.233   0.535   6.880
 5540SOL    HW117519   5.285   0.603   6.828
 5540SOL    HW217520   5.146   0.516   6.834
 5541SOL     OW17521   4.963   3.199   6.627
 5541SOL    HW117522   4.950   3.258   6.707
 5541SOL    HW217523   4.971   3.256   6.545
 5542SOL     OW17524   4.105   4.391   6.836
 5542SOL    HW117525   4.192   4.356   6.802
 5542SOL    HW217526   4.056   4.437   6.762
 5543SOL     OW17527   1.930   0.310   0.232
 5543SOL    HW117528   1.920   0.337   0.328
 5543SOL    HW217529   2.023   0.333   0.201
 5544SOL     OW17530   3.555   5.337   6.185
 5544SOL    HW117531   3.535   5.420   6.132
 5544SOL    HW217532   3.535   5.354   6.282
 5545SOL     OW17533   4.601   0.813   3.329
 5545SOL    HW117534   4.567   0.720   3.345
 5545SOL    HW217535   4.630   0.822   3.234
 5546SOL     OW17536   0.168   5.555   4.563
 5546SOL    HW117537   0.075   5.590   4.571
 5546SOL    HW217538   0.184   5.487   4.634
 5547SOL     OW17539   5.142   1.537   4.977
 5547SOL    HW117540   5.213   1.514   5.044
 5547SOL    HW217541   5.185   1.558   4.889
 5548SOL     OW17542   0.495   4.454   4.182
 5548SOL    HW117543   0.548   4.444   4.266
 5548SOL    HW217544   0.484   4.365   4.138
 5549SOL     OW17545   4.495   2.876   0.473
 5549SOL    HW117546   4.478   2.969   0.506
 5549SOL    HW217547   4.592   2.865   0.452
 5550SOL     OW17548   1.850   3.979   1.582
 5550SOL    HW117549   1.768   3.958   1.529
 5550SOL    HW217550   1.825   3.999   1.676
 5551SOL     OW17551   1.707   5.268   3.506
 5551SOL    HW117552   1.691   5.240   3.411
 5551SOL    HW217553   1.622   5.305   3.544
 5552SOL     OW17554   0.208   6.478   6.914
 5552SOL    HW117555   0.290   6.422   6.917
 5552SOL    HW217556   0.134   6.432   6.964
 5553SOL     OW17557   4.985   0.475   6.780
 5553SOL    HW117558   4.979   0.530   6.697
 5553SOL    HW217559   4.902   0.420   6.790
 5554SOL     OW17560   5.523   1.931   1.405
 5554SOL    HW117561   5.604   1.872   1.410
 5554SOL    HW217562   5.467   1.916   1.487
 5555SOL     OW17563   1.981   5.001   2.955
 5555SOL    HW117564   1.990   4.960   2.865
 5555SOL    HW217565   1.896   4.968   2.998
 5556SOL     OW17566   0.621   0.935   4.703
 5556SOL    HW117567   0.531   0.892   4.706
 5556SOL    HW217568   0.676   0.892   4.631
 5557SOL     OW17569   3.591   5.774   3.363
 5557SOL    HW117570   3.612   5.811   3.454
 5557SOL    HW217571   3.494   5.750   3.357
 5558SOL     OW17572   4.393   4.304   6.808
 5558SOL    HW117573   4.427   4.391   6.773
 5558SOL    HW217574   4.439   4.283   6.895
 5559SOL     OW17575   2.472   0.777   2.374
 5559SOL    HW117576   2.487   0.824   2.461
 5559SOL    HW217577   2.460   0.844   2.301
 5560SOL     OW17578   0.731   5.960   3.168
 5560SOL    HW117579   0.762   5.884   3.112
 5560SOL    HW217580   0.634   5.949   3.189
 5561SOL     OW17581   3.722   6.804   3.240
 5561SOL    HW117582   3.667   6.886   3.258
 5561SOL    HW217583   3.665   6.723   3.248
 5562SOL     OW17584   3.466   4.028   0.872
 5562SOL    HW117585   3.561   4.048   0.847
 5562SOL    HW217586   3.464   3.974   0.956
 5563SOL     OW17587   2.326   4.286   2.705
 5563SOL    HW117588   2.377   4.349   2.646
 5563SOL    HW217589   2.360   4.295   2.799
 5564SOL     OW17590   5.539   0.724   5.980
 5564SOL    HW117591   5.515   0.633   5.946
 5564SOL    HW217592   5.543   0.788   5.903
 5565SOL     OW17593   3.480   2.214   6.138
 5565SOL    HW117594   3.486   2.299   6.192
 5565SOL    HW217595   3.395   2.215   6.085
 5566SOL     OW17596   1.366   3.661   6.546
 5566SOL    HW117597   1.348   3.573   6.588
 5566SOL    HW217598   1.291   3.724   6.565
 5567SOL     OW17599   0.029   3.987   1.136
 5567SOL    HW117600   6.958   3.960   1.116
 5567SOL    HW217601   0.085   3.977   1.055
 5568SOL     OW17602   4.718   5.213   1.587
 5568SOL    HW117603   4.700   5.258   1.675
 5568SOL    HW217604   4.771   5.130   1.602
 5569SOL     OW17605   2.311   2.881   3.545
 5569SOL    HW117606   2.319   2.836   3.457
 5569SOL    HW217607   2.300   2.980   3.531
 5570SOL     OW17608   0.546   3.606   2.557
 5570SOL    HW117609   0.451   3.576   2.555
 5570SOL    HW217610   0.553   3.692   2.609
 5571SOL     OW17611   5.800   4.750   1.889
 5571SOL    HW117612   5.738   4.719   1.817
 5571SOL    HW217613   5.817   4.674   1.952
 5572SOL     OW17614   1.796   4.123   4.686
 5572SOL    HW117615   1.837   4.087   4.769
 5572SOL    HW217616   1.697   4.127   4.696
 5573SOL     OW17617   3.047   5.157   3.624
 5573SOL    HW117618   3.077   5.240   3.670
 5573SOL    HW217619   3.013   5.180   3.532
 5574SOL     OW17620   0.705   3.020   6.365
 5574SOL    HW117621   0.663   2.930   6.353
 5574SOL    HW217622   0.711   3.067   6.277
 5575SOL     OW17623   0.459   6.619   2.050
 5575SOL    HW117624   0.546   6.589   2.089
 5575SOL    HW217625   0.389   6.551   2.069
 5576SOL     OW17626   1.203   5.148   3.422
 5576SOL    HW117627   1.277   5.092   3.459
 5576SOL    HW217628   1.128   5.153   3.489
 5577SOL     OW17629   1.919   2.657   5.270
 5577SOL    HW117630   1.898   2.716   5.348
 5577SOL    HW217631   1.837   2.645   5.214
 5578SOL     OW17632   4.094   3.551   3.420
 5578SOL    HW117633   4.070   3.614   3.494
 5578SOL    HW217634   4.048   3.464   3.434
 5579SOL     OW17635   0.276   3.472   1.667
 5579SOL    HW117636   0.256   3.567   1.692
 5579SOL    HW217637   0.345   3.470   1.595
 5580SOL     OW17638   5.318   1.465   5.201
 5580SOL    HW117639   5.369   1.551   5.211
 5580SOL    HW217640   5.346   1.401   5.273
 5581SOL     OW17641   1.132   2.381   6.528
 5581SOL    HW117642   1.123   2.301   6.469
 5581SOL    HW217643   1.068   2.452   6.498
 5582SOL     OW17644   2.507   2.879   6.326
 5582SOL    HW117645   2.426   2.852   6.378
 5582SOL    HW217646   2.484   2.954   6.264
 5583SOL     OW17647   5.312   0.564   2.050
 5583SOL    HW117648   5.293   0.564   2.148
 5583SOL    HW217649   5.320   0.658   2.017
 5584SOL     OW17650   1.178   3.778   4.970
 5584SOL    HW117651   1.250   3.757   4.904
 5584SOL    HW217652   1.198   3.733   5.057
 5585SOL     OW17653   4.725   4.778   2.383
 5585SOL    HW117654   4.756   4.691   2.346
 5585SOL    HW217655   4.741   4.850   2.315
 5586SOL     OW17656   6.187   3.708   6.691
 5586SOL    HW117657   6.273   3.715   6.640
 5586SOL    HW217658   6.118   3.764   6.646
 5587SOL     OW17659   6.022   0.917   6.009
 5587SOL    HW117660   6.070   0.956   5.931
 5587SOL    HW217661   5.940   0.971   6.029
 5588SOL     OW17662   3.573   6.329   1.130
 5588SOL    HW117663   3.667   6.315   1.099
 5588SOL    HW217664   3.556   6.426   1.143
 5589SOL     OW17665   5.834   4.920   5.617
 5589SOL    HW117666   5.879   4.832   5.633
 5589SOL    HW217667   5.739   4.904   5.589
 5590SOL     OW17668   6.016   5.842   3.913
 5590SOL    HW117669   6.046   5.910   3.980
 5590SOL    HW217670   5.916   5.845   3.905
 5591SOL     OW17671   5.768   1.227   1.740
 5591SOL    HW117672   5.781   1.310   1.685
 5591SOL    HW217673   5.817   1.237   1.827
 5592SOL     OW17674   0.764   3.661   3.147
 5592SOL    HW117675   0.789   3.613   3.063
 5592SOL    HW217676   0.828   3.737   3.162
 5593SOL     OW17677   0.071   3.045   0.399
 5593SOL    HW117678   0.170   3.058   0.400
 5593SOL    HW217679   0.040   3.033   0.305
 5594SOL     OW17680   5.701   2.207   5.590
 5594SOL    HW117681   5.640   2.267   5.538
 5594SOL    HW217682   5.737   2.257   5.668
 5595SOL     OW17683   0.692   2.654   5.264
 5595SOL    HW117684   0.775   2.665   5.318
 5595SOL    HW217685   0.613   2.683   5.318
 5596SOL     OW17686   3.954   6.650   3.113
 5596SOL    HW117687   3.924   6.606   3.028
 5596SOL    HW217688   3.895   6.728   3.133
 5597SOL     OW17689   5.232   3.269   2.811
 5597SOL    HW117690   5.307   3.320   2.768
 5597SOL    HW217691   5.245   3.171   2.796
 5598SOL     OW17692   5.559   1.838   5.117
 5598SOL    HW117693   5.492   1.902   5.077
 5598SOL    HW217694   5.645   1.886   5.132
 5599SOL     OW17695   0.434   0.862   3.897
 5599SOL    HW117696   0.512   0.798   3.896
 5599SOL    HW217697   0.462   0.948   3.939
 5600SOL     OW17698   1.389   2.093   4.372
 5600SOL    HW117699   1.405   2.093   4.471
 5600SOL    HW217700   1.477   2.083   4.325
 5601SOL     OW17701   2.365   0.891   6.098
 5601SOL    HW117702   2.384   0.812   6.039
 5601SOL    HW217703   2.284   0.873   6.153
 5602SOL     OW17704   1.362   1.725   0.302
 5602SOL    HW117705   1.343   1.711   0.399
 5602SOL    HW217706   1.277   1.722   0.250
 5603SOL     OW17707   5.588   3.461   6.380
 5603SOL    HW117708   5.615   3.556   6.389
 5603SOL    HW217709   5.634   3.406   6.450
 5604SOL     OW17710   6.698   2.022   6.110
 5604SOL    HW117711   6.668   2.048   6.018
 5604SOL    HW217712   6.638   1.950   6.145
 5605SOL     OW17713   0.458   1.961   4.968
 5605SOL    HW117714   0.469   2.022   4.890
 5605SOL    HW217715   0.507   1.999   5.047
 5606SOL     OW17716   4.892   7.013   1.917
 5606SOL    HW117717   4.809   0.001   1.862
 5606SOL    HW217718   4.939   0.079   1.924
 5607SOL     OW17719   5.868   0.923   1.869
 5607SOL    HW117720   5.893   1.018   1.889
 5607SOL    HW217721   5.927   0.862   1.922
 5608SOL     OW17722   4.176   6.450   5.218
 5608SOL    HW117723   4.260   6.416   5.260
 5608SOL    HW217724   4.195   6.534   5.168
 5609SOL     OW17725   2.218   6.197   5.622
 5609SOL    HW117726   2.197   6.198   5.720
 5609SOL    HW217727   2.141   6.238   5.572
 5610SOL     OW17728   5.003   0.634   6.561
 5610SOL    HW117729   4.943   0.601   6.488
 5610SOL    HW217730   5.097   0.638   6.527
 5611SOL     OW17731   1.752   4.915   3.078
 5611SOL    HW117732   1.777   4.867   3.162
 5611SOL    HW217733   1.656   4.895   3.055
 5612SOL     OW17734   2.555   0.134   5.591
 5612SOL    HW117735   2.589   0.111   5.682
 5612SOL    HW217736   2.506   0.222   5.595
 5613SOL     OW17737   3.892   4.897   1.673
 5613SOL    HW117738   3.842   4.968   1.623
 5613SOL    HW217739   3.935   4.938   1.754
 5614SOL     OW17740   4.360   2.086   3.261
 5614SOL    HW117741   4.297   2.154   3.223
 5614SOL    HW217742   4.414   2.047   3.187
 5615SOL     OW17743   1.060   1.367   0.948
 5615SOL    HW117744   1.041   1.463   0.966
 5615SOL    HW217745   0.978   1.312   0.969
 5616SOL     OW17746   2.400   0.545   4.451
 5616SOL    HW117747   2.444   0.462   4.417
 5616SOL    HW217748   2.337   0.580   4.381
 5617SOL     OW17749   1.769   0.961   5.291
 5617SOL    HW117750   1.715   0.929   5.369
 5617SOL    HW217751   1.745   0.908   5.210
 5618SOL     OW17752   6.727   4.281   3.082
 5618SOL    HW117753   6.784   4.362   3.092
 5618SOL    HW217754   6.756   4.211   3.148
 5619SOL     OW17755   2.143   3.288   5.252
 5619SOL    HW117756   2.055   3.335   5.264
 5619SOL    HW217757   2.217   3.348   5.282
 5620SOL     OW17758   3.813   1.974   5.947
 5620SOL    HW117759   3.801   2.073   5.948
 5620SOL    HW217760   3.760   1.934   6.022
 5621SOL     OW17761   2.064   2.594   5.789
 5621SOL    HW117762   1.994   2.558   5.727
 5621SOL    HW217763   2.143   2.533   5.791
 5622SOL     OW17764   6.102   0.596   5.972
 5622SOL    HW117765   6.100   0.662   6.047
 5622SOL    HW217766   6.125   0.643   5.887
 5623SOL     OW17767   0.762   6.015   0.287
 5623SOL    HW117768   0.760   5.915   0.285
 5623SOL    HW217769   0.703   6.051   0.214
 5624SOL     OW17770   0.986   3.807   3.161
 5624SOL    HW117771   1.062   3.825   3.098
 5624SOL    HW217772   0.952   3.893   3.197
 5625SOL     OW17773   6.769   2.405   5.357
 5625SOL    HW117774   6.688   2.419   5.301
 5625SOL    HW217775   6.756   2.447   5.447
 5626SOL     OW17776   4.060   6.981   4.403
 5626SOL    HW117777   4.090   7.010   4.312
 5626SOL    HW217778   4.058   6.881   4.408
 5627SOL     OW17779   1.058   5.919   0.456
 5627SOL    HW117780   0.999   5.932   0.376
 5627SOL    HW217781   1.127   5.991   0.459
 5628SOL     OW17782   1.693   0.801   4.718
 5628SOL    HW117783   1.608   0.751   4.725
 5628SOL    HW217784   1.697   0.848   4.630
 5629SOL     OW17785   3.562   3.800   2.717
 5629SOL    HW117786   3.594   3.801   2.622
 5629SOL    HW217787   3.566   3.892   2.754
 5630SOL     OW17788   0.288   4.473   1.909
 5630SOL    HW117789   0.324   4.478   2.003
 5630SOL    HW217790   0.348   4.524   1.848
 5631SOL     OW17791   5.082   0.786   0.301
 5631SOL    HW117792   5.036   0.794   0.390
 5631SOL    HW217793   5.133   0.700   0.298
 5632SOL     OW17794   3.919   3.916   0.255
 5632SOL    HW117795   3.881   3.852   0.188
 5632SOL    HW217796   3.992   3.872   0.306
 5633SOL     OW17797   6.250   2.461   4.605
 5633SOL    HW117798   6.257   2.501   4.514
 5633SOL    HW217799   6.169   2.402   4.609
 5634SOL     OW17800   4.280   6.027   4.429
 5634SOL    HW117801   4.348   5.964   4.392
 5634SOL    HW217802   4.270   6.012   4.527
 5635SOL     OW17803   3.261   2.027   5.064
 5635SOL    HW117804   3.250   2.125   5.047
 5635SOL    HW217805   3.357   2.002   5.055
 5636SOL     OW17806   3.662   5.662   3.775
 5636SOL    HW117807   3.713   5.594   3.828
 5636SOL    HW217808   3.567   5.663   3.806
 5637SOL     OW17809   5.333   7.016   3.350
 5637SOL    HW117810   5.245   0.040   3.358
 5637SOL    HW217811   5.329   6.929   3.398
 5638SOL     OW17812   5.370   3.731   6.464
 5638SOL    HW117813   5.460   3.768   6.488
 5638SOL    HW217814   5.378   3.679   6.378
 5639SOL     OW17815   2.885   0.786   6.152
 5639SOL    HW117816   2.852   0.833   6.070
 5639SOL    HW217817   2.826   0.809   6.229
 5640SOL     OW17818   2.556   0.017   3.574
 5640SOL    HW117819   2.486   6.992   3.627
 5640SOL    HW217820   2.532   0.014   3.477
 5641SOL     OW17821   5.543   5.651   4.715
 5641SOL    HW117822   5.523   5.717   4.788
 5641SOL    HW217823   5.482   5.668   4.638
 5642SOL     OW17824   1.378   2.026   6.536
 5642SOL    HW117825   1.391   1.945   6.592
 5642SOL    HW217826   1.366   1.999   6.440
 5643SOL     OW17827   5.917   2.477   4.744
 5643SOL    HW117828   5.961   2.423   4.672
 5643SOL    HW217829   5.861   2.417   4.801
 5644SOL     OW17830   3.205   0.108   6.074
 5644SOL    HW117831   3.161   0.153   6.152
 5644SOL    HW217832   3.281   0.051   6.106
 5645SOL     OW17833   4.781   2.903   4.714
 5645SOL    HW117834   4.828   2.954   4.642
 5645SOL    HW217835   4.748   2.967   4.783
 5646SOL     OW17836   1.745   4.270   2.477
 5646SOL    HW117837   1.837   4.276   2.439
 5646SOL    HW217838   1.685   4.333   2.428
 5647SOL     OW17839   6.518   6.100   2.887
 5647SOL    HW117840   6.473   6.012   2.876
 5647SOL    HW217841   6.580   6.116   2.810
 5648SOL     OW17842   4.396   6.761   3.486
 5648SOL    HW117843   4.324   6.831   3.487
 5648SOL    HW217844   4.408   6.727   3.392
 5649SOL     OW17845   0.983   6.095   4.145
 5649SOL    HW117846   0.948   6.101   4.051
 5649SOL    HW217847   1.048   6.019   4.151
 5650SOL     OW17848   6.716   4.450   6.772
 5650SOL    HW117849   6.779   4.372   6.764
 5650SOL    HW217850   6.647   4.430   6.841
 5651SOL     OW17851   2.359   0.745   1.599
 5651SOL    HW117852   2.390   0.745   1.694
 5651SOL    HW217853   2.373   0.836   1.560
 5652SOL     OW17854   0.979   5.419   1.373
 5652SOL    HW117855   0.985   5.501   1.317
 5652SOL    HW217856   0.949   5.342   1.316
 5653SOL     OW17857   6.858   0.104   1.547
 5653SOL    HW117858   6.857   0.196   1.587
 5653SOL    HW217859   6.785   0.050   1.588
 5654SOL     OW17860   3.124   5.158   4.281
 5654SOL    HW117861   3.198   5.172   4.347
 5654SOL    HW217862   3.063   5.237   4.283
 5655SOL     OW17863   6.019   2.600   4.971
 5655SOL    HW117864   6.065   2.531   5.027
 5655SOL    HW217865   5.996   2.560   4.882
 5656SOL     OW17866   6.722   3.868   0.139
 5656SOL    HW117867   6.695   3.964   0.146
 5656SOL    HW217868   6.644   3.813   0.111
 5657SOL     OW17869   4.917   5.712   5.310
 5657SOL    HW117870   5.011   5.680   5.325
 5657SOL    HW217871   4.909   5.806   5.343
 5658SOL     OW17872   2.731   2.780   6.177
 5658SOL    HW117873   2.796   2.796   6.251
 5658SOL    HW217874   2.638   2.802   6.209
 5659SOL     OW17875   3.441   3.594   6.715
 5659SOL    HW117876   3.536   3.616   6.734
 5659SOL    HW217877   3.426   3.496   6.727
 5660SOL     OW17878   4.684   0.615   6.220
 5660SOL    HW117879   4.745   0.535   6.219
 5660SOL    HW217880   4.708   0.673   6.298
 5661SOL     OW17881   1.142   5.254   5.150
 5661SOL    HW117882   1.125   5.344   5.111
 5661SOL    HW217883   1.187   5.196   5.081
 5662SOL     OW17884   2.675   6.559   2.109
 5662SOL    HW117885   2.584   6.519   2.103
 5662SOL    HW217886   2.671   6.644   2.161
 5663SOL     OW17887   1.219   3.324   6.364
 5663SOL    HW117888   1.255   3.337   6.457
 5663SOL    HW217889   1.224   3.410   6.314
 5664SOL     OW17890   4.976   4.765   4.752
 5664SOL    HW117891   5.037   4.694   4.786
 5664SOL    HW217892   4.891   4.724   4.718
 5665SOL     OW17893   1.772   1.964   0.494
 5665SOL    HW117894   1.818   1.951   0.582
 5665SOL    HW217895   1.676   1.936   0.501
 5666SOL     OW17896   5.576   1.619   4.942
 5666SOL    HW117897   5.577   1.691   5.011
 5666SOL    HW217898   5.489   1.620   4.893
 5667SOL     OW17899   2.162   4.714   4.479
 5667SOL    HW117900   2.112   4.631   4.505
 5667SOL    HW217901   2.242   4.724   4.538
 5668SOL     OW17902   5.196   3.896   3.973
 5668SOL    HW117903   5.168   3.799   3.970
 5668SOL    HW217904   5.141   3.944   4.041
 5669SOL     OW17905   6.080   4.564   5.528
 5669SOL    HW117906   6.077   4.543   5.431
 5669SOL    HW217907   6.172   4.594   5.554
 5670SOL     OW17908   1.068   2.126   3.233
 5670SOL    HW117909   1.014   2.048   3.265
 5670SOL    HW217910   1.048   2.206   3.290
 5671SOL     OW17911   0.303   6.273   3.251
 5671SOL    HW117912   0.219   6.233   3.288
 5671SOL    HW217913   0.359   6.308   3.325
 5672SOL     OW17914   5.333   2.815   4.895
 5672SOL    HW117915   5.357   2.899   4.944
 5672SOL    HW217916   5.283   2.754   4.957
 5673SOL     OW17917   0.900   1.169   0.597
 5673SOL    HW117918   0.848   1.127   0.522
 5673SOL    HW217919   0.839   1.183   0.675
 5674SOL     OW17920   2.307   4.971   4.999
 5674SOL    HW117921   2.239   4.917   4.950
 5674SOL    HW217922   2.384   4.993   4.939
 5675SOL     OW17923   2.700   2.250   0.888
 5675SOL    HW117924   2.619   2.243   0.830
 5675SOL    HW217925   2.769   2.305   0.842
 5676SOL     OW17926   2.596   1.428   2.350
 5676SOL    HW117927   2.688   1.408   2.382
 5676SOL    HW217928   2.535   1.440   2.428
 5677SOL     OW17929   6.408   1.552   0.311
 5677SOL    HW117930   6.330   1.489   0.313
 5677SOL    HW217931   6.382   1.634   0.260
 5678SOL     OW17932   3.215   1.757   2.143
 5678SOL    HW117933   3.277   1.819   2.094
 5678SOL    HW217934   3.129   1.804   2.160
 5679SOL     OW17935   6.131   3.585   4.777
 5679SOL    HW117936   6.182   3.666   4.747
 5679SOL    HW217937   6.131   3.580   4.877
 5680SOL     OW17938   1.104   5.904   5.051
 5680SOL    HW117939   1.051   5.931   5.131
 5680SOL    HW217940   1.198   5.938   5.060
 5681SOL     OW17941   1.234   3.167   4.241
 5681SOL    HW117942   1.266   3.157   4.335
 5681SOL    HW217943   1.295   3.228   4.191
 5682SOL     OW17944   2.098   4.133   1.865
 5682SOL    HW117945   2.106   4.232   1.854
 5682SOL    HW217946   2.188   4.093   1.883
 5683SOL     OW17947   6.709   1.314   5.995
 5683SOL    HW117948   6.696   1.381   6.068
 5683SOL    HW217949   6.659   1.231   6.016
 5684SOL     OW17950   2.092   2.384   4.942
 5684SOL    HW117951   2.176   2.433   4.964
 5684SOL    HW217952   2.070   2.319   5.015
 5685SOL     OW17953   2.649   1.840   2.415
 5685SOL    HW117954   2.616   1.825   2.508
 5685SOL    HW217955   2.727   1.780   2.397
 5686SOL     OW17956   4.297   5.577   5.895
 5686SOL    HW117957   4.210   5.546   5.858
 5686SOL    HW217958   4.362   5.500   5.894
 5687SOL     OW17959   2.122   6.489   6.809
 5687SOL    HW117960   2.214   6.505   6.775
 5687SOL    HW217961   2.068   6.573   6.800
 5688SOL     OW17962   1.579   1.833   3.405
 5688SOL    HW117963   1.524   1.753   3.386
 5688SOL    HW217964   1.520   1.914   3.411
 5689SOL     OW17965   0.330   2.864   1.677
 5689SOL    HW117966   0.332   2.890   1.581
 5689SOL    HW217967   0.238   2.880   1.714
 5690SOL     OW17968   1.683   5.124   0.047
 5690SOL    HW117969   1.756   5.192   0.036
 5690SOL    HW217970   1.608   5.165   0.098
 5691SOL     OW17971   3.171   1.186   3.092
 5691SOL    HW117972   3.200   1.271   3.049
 5691SOL    HW217973   3.208   1.181   3.185
 5692SOL     OW17974   4.732   5.050   2.282
 5692SOL    HW117975   4.784   5.121   2.329
 5692SOL    HW217976   4.661   5.092   2.226
 5693SOL     OW17977   4.476   1.145   1.185
 5693SOL    HW117978   4.444   1.193   1.103
 5693SOL    HW217979   4.465   1.047   1.172
 5694SOL     OW17980   0.959   6.325   2.135
 5694SOL    HW117981   0.997   6.273   2.058
 5694SOL    HW217982   0.883   6.273   2.175
 5695SOL     OW17983   2.493   0.589   1.422
 5695SOL    HW117984   2.456   0.655   1.487
 5695SOL    HW217985   2.418   0.538   1.380
 5696SOL     OW17986   1.687   0.265   3.945
 5696SOL    HW117987   1.773   0.271   3.996
 5696SOL    HW217988   1.612   0.294   4.003
 5697SOL     OW17989   6.385   3.476   0.890
 5697SOL    HW117990   6.465   3.508   0.941
 5697SOL    HW217991   6.364   3.382   0.918
 5698SOL     OW17992   2.944   2.246   4.088
 5698SOL    HW117993   2.875   2.283   4.026
 5698SOL    HW217994   2.931   2.284   4.179
 5699SOL     OW17995   1.739   2.945   2.754
 5699SOL    HW117996   1.754   2.887   2.674
 5699SOL    HW217997   1.780   3.035   2.738
 5700SOL     OW17998   6.345   0.485   3.220
 5700SOL    HW117999   6.268   0.420   3.226
 5700SOL    HW218000   6.336   0.555   3.291
 5701SOL     OW18001   0.343   0.525   0.820
 5701SOL    HW118002   0.271   0.595   0.825
 5701SOL    HW218003   0.380   0.523   0.727
 5702SOL     OW18004   2.786   6.877   4.564
 5702SOL    HW118005   2.760   6.814   4.637
 5702SOL    HW218006   2.714   6.944   4.551
 5703SOL     OW18007   0.049   3.066   6.232
 5703SOL    HW118008   0.101   2.998   6.284
 5703SOL    HW218009   0.004   3.129   6.294
 5704SOL     OW18010   4.117   5.391   4.118
 5704SOL    HW118011   4.045   5.408   4.050
 5704SOL    HW218012   4.122   5.293   4.137
 5705SOL     OW18013   6.218   0.017   5.624
 5705SOL    HW118014   6.128   7.020   5.585
 5705SOL    HW218015   6.280   0.048   5.552
 5706SOL     OW18016   4.985   1.968   6.990
 5706SOL    HW118017   4.889   1.995   6.981
 5706SOL    HW218018   5.040   2.019   6.924
 5707SOL     OW18019   5.273   5.699   1.754
 5707SOL    HW118020   5.270   5.798   1.771
 5707SOL    HW218021   5.249   5.680   1.659
 5708SOL     OW18022   4.419   6.212   2.623
 5708SOL    HW118023   4.358   6.142   2.588
 5708SOL    HW218024   4.497   6.222   2.562
 5709SOL     OW18025   0.100   2.053   2.377
 5709SOL    HW118026   0.038   1.999   2.434
 5709SOL    HW218027   0.120   2.002   2.293
 5710SOL     OW18028   3.385   1.892   1.060
 5710SOL    HW118029   3.439   1.956   1.115
 5710SOL    HW218030   3.316   1.849   1.118
 5711SOL     OW18031   5.093   1.495   2.717
 5711SOL    HW118032   5.099   1.469   2.621
 5711SOL    HW218033   5.183   1.519   2.752
 5712SOL     OW18034   6.135   0.426   0.846
 5712SOL    HW118035   6.136   0.516   0.801
 5712SOL    HW218036   6.080   0.431   0.929
 5713SOL     OW18037   2.776   0.779   0.753
 5713SOL    HW118038   2.742   0.851   0.693
 5713SOL    HW218039   2.743   0.794   0.846
 5714SOL     OW18040   6.312   0.223   0.777
 5714SOL    HW118041   6.326   0.260   0.684
 5714SOL    HW218042   6.251   0.284   0.828
 5715SOL     OW18043   0.162   0.313   1.778
 5715SOL    HW118044   0.125   0.226   1.808
 5715SOL    HW218045   0.235   0.342   1.841
 5716SOL     OW18046   6.086   4.436   4.807
 5716SOL    HW118047   6.043   4.455   4.895
 5716SOL    HW218048   6.131   4.346   4.811
 5717SOL     OW18049   1.656   5.140   3.266
 5717SOL    HW118050   1.581   5.149   3.200
 5717SOL    HW218051   1.738   5.106   3.219
 5718SOL     OW18052   1.039   3.202   0.002
 5718SOL    HW118053   1.074   3.120   0.048
 5718SOL    HW218054   1.021   3.273   0.070
 5719SOL     OW18055   2.066   3.333   0.776
 5719SOL    HW118056   1.999   3.369   0.711
 5719SOL    HW218057   2.093   3.241   0.748
 5720SOL     OW18058   2.709   5.117   5.845
 5720SOL    HW118059   2.688   5.021   5.828
 5720SOL    HW218060   2.771   5.151   5.775
 5721SOL     OW18061   1.782   3.367   0.049
 5721SOL    HW118062   1.730   3.282   0.051
 5721SOL    HW218063   1.797   3.394   6.977
 5722SOL     OW18064   1.890   0.692   6.519
 5722SOL    HW118065   1.939   0.605   6.518
 5722SOL    HW218066   1.896   0.733   6.610
 5723SOL     OW18067   4.096   3.042   0.794
 5723SOL    HW118068   4.154   3.060   0.873
 5723SOL    HW218069   4.009   3.088   0.806
 5724SOL     OW18070   5.466   1.685   5.329
 5724SOL    HW118071   5.528   1.650   5.400
 5724SOL    HW218072   5.520   1.717   5.251
 5725SOL     OW18073   0.103   4.182   4.241
 5725SOL    HW118074   0.184   4.220   4.285
 5725SOL    HW218075   0.029   4.173   4.308
 5726SOL     OW18076   5.712   3.840   2.560
 5726SOL    HW118077   5.663   3.788   2.490
 5726SOL    HW218078   5.646   3.877   2.626
 5727SOL     OW18079   0.629   2.037   5.365
 5727SOL    HW118080   0.616   2.098   5.286
 5727SOL    HW218081   0.621   2.090   5.449
 5728SOL     OW18082   4.575   6.541   5.174
 5728SOL    HW118083   4.663   6.589   5.170
 5728SOL    HW218084   4.589   6.444   5.159
 5729SOL     OW18085   2.553   2.017   4.701
 5729SOL    HW118086   2.586   2.071   4.624
 5729SOL    HW218087   2.548   1.921   4.674
 5730SOL     OW18088   6.874   4.313   4.629
 5730SOL    HW118089   6.932   4.297   4.710
 5730SOL    HW218090   6.911   4.262   4.552
 5731SOL     OW18091   0.909   6.927   2.700
 5731SOL    HW118092   0.982   6.898   2.637
 5731SOL    HW218093   0.820   6.907   2.660
 5732SOL     OW18094   0.641   0.133   3.295
 5732SOL    HW118095   0.713   0.199   3.319
 5732SOL    HW218096   0.676   0.040   3.305
 5733SOL     OW18097   2.952   6.886   5.870
 5733SOL    HW118098   2.916   6.960   5.814
 5733SOL    HW218099   2.930   6.903   5.966
 5734SOL     OW18100   1.640   6.242   3.432
 5734SOL    HW118101   1.681   6.244   3.523
 5734SOL    HW218102   1.711   6.234   3.363
 5735SOL     OW18103   3.166   1.383   1.753
 5735SOL    HW118104   3.242   1.346   1.807
 5735SOL    HW218105   3.196   1.467   1.707
 5736SOL     OW18106   1.050   5.262   6.582
 5736SOL    HW118107   1.056   5.227   6.489
 5736SOL    HW218108   1.120   5.217   6.638
 5737SOL     OW18109   5.307   4.254   0.812
 5737SOL    HW118110   5.358   4.168   0.822
 5737SOL    HW218111   5.250   4.250   0.730
 5738SOL     OW18112   1.468   4.087   5.869
 5738SOL    HW118113   1.385   4.051   5.827
 5738SOL    HW218114   1.494   4.172   5.824
 5739SOL     OW18115   1.132   1.693   1.602
 5739SOL    HW118116   1.194   1.639   1.545
 5739SOL    HW218117   1.039   1.658   1.594
 5740SOL     OW18118   3.886   5.707   6.435
 5740SOL    HW118119   3.798   5.698   6.389
 5740SOL    HW218120   3.879   5.671   6.528
 5741SOL     OW18121   6.974   4.402   2.775
 5741SOL    HW118122   6.896   4.409   2.712
 5741SOL    HW218123   6.952   4.448   2.861
 5742SOL     OW18124   6.718   6.453   4.847
 5742SOL    HW118125   6.704   6.476   4.943
 5742SOL    HW218126   6.701   6.534   4.791
 5743SOL     OW18127   1.839   6.556   4.113
 5743SOL    HW118128   1.818   6.461   4.135
 5743SOL    HW218129   1.754   6.610   4.113
 5744SOL     OW18130   5.582   7.005   2.117
 5744SOL    HW118131   5.665   0.019   2.075
 5744SOL    HW218132   5.511   0.052   2.116
 5745SOL     OW18133   1.299   2.197   3.664
 5745SOL    HW118134   1.289   2.293   3.689
 5745SOL    HW218135   1.396   2.173   3.660
 5746SOL     OW18136   6.365   4.676   6.926
 5746SOL    HW118137   6.454   4.637   6.952
 5746SOL    HW218138   6.376   4.773   6.905
 5747SOL     OW18139   0.754   6.206   2.724
 5747SOL    HW118140   0.759   6.209   2.824
 5747SOL    HW218141   0.699   6.281   2.690
 5748SOL     OW18142   2.374   6.468   3.319
 5748SOL    HW118143   2.365   6.472   3.419
 5748SOL    HW218144   2.293   6.422   3.281
 5749SOL     OW18145   2.413   1.255   2.745
 5749SOL    HW118146   2.426   1.268   2.844
 5749SOL    HW218147   2.404   1.344   2.701
 5750SOL     OW18148   6.239   5.636   2.660
 5750SOL    HW118149   6.310   5.566   2.654
 5750SOL    HW218150   6.166   5.604   2.721
 5751SOL     OW18151   1.375   3.029   5.863
 5751SOL    HW118152   1.433   3.061   5.938
 5751SOL    HW218153   1.409   2.941   5.830
 5752SOL     OW18154   0.298   1.358   0.227
 5752SOL    HW118155   0.372   1.349   0.161
 5752SOL    HW218156   0.218   1.397   0.182
 5753SOL     OW18157   4.374   2.259   0.575
 5753SOL    HW118158   4.344   2.255   0.670
 5753SOL    HW218159   4.325   2.192   0.521
 5754SOL     OW18160   6.519   5.084   0.697
 5754SOL    HW118161   6.435   5.066   0.748
 5754SOL    HW218162   6.554   4.998   0.660
 5755SOL     OW18163   3.071   3.411   1.448
 5755SOL    HW118164   3.116   3.497   1.472
 5755SOL    HW218165   3.106   3.337   1.506
 5756SOL     OW18166   6.929   6.912   4.536
 5756SOL    HW118167   6.986   6.994   4.534
 5756SOL    HW218168   6.986   6.831   4.552
 5757SOL     OW18169   6.990   6.189   1.920
 5757SOL    HW118170   0.033   6.237   1.978
 5757SOL    HW218171   7.021   6.195   1.825
 5758SOL     OW18172   1.878   1.275   6.012
 5758SOL    HW118173   1.936   1.212   5.961
 5758SOL    HW218174   1.789   1.233   6.028
 5759SOL     OW18175   6.315   1.790   5.577
 5759SOL    HW118176   6.218   1.787   5.554
 5759SOL    HW218177   6.337   1.716   5.640
 5760SOL     OW18178   1.393   5.256   1.888
 5760SOL    HW118179   1.358   5.337   1.841
 5760SOL    HW218180   1.325   5.221   1.952
 5761SOL     OW18181   5.249   0.822   4.930
 5761SOL    HW118182   5.179   0.893   4.915
 5761SOL    HW218183   5.215   0.756   4.997
 5762SOL     OW18184   5.608   6.313   1.569
 5762SOL    HW118185   5.674   6.274   1.505
 5762SOL    HW218186   5.650   6.388   1.619
 5763SOL     OW18187   0.947   1.542   1.172
 5763SOL    HW118188   1.024   1.586   1.126
 5763SOL    HW218189   0.866   1.600   1.164
 5764SOL     OW18190   4.596   3.265   5.727
 5764SOL    HW118191   4.649   3.188   5.690
 5764SOL    HW218192   4.595   3.339   5.660
 5765SOL     OW18193   6.134   5.175   0.409
 5765SOL    HW118194   6.152   5.219   0.497
 5765SOL    HW218195   6.167   5.081   0.411
 5766SOL     OW18196   2.877   0.664   3.726
 5766SOL    HW118197   2.926   0.729   3.668
 5766SOL    HW218198   2.841   0.712   3.807
 5767SOL     OW18199   6.465   0.546   0.842
 5767SOL    HW118200   6.527   0.471   0.817
 5767SOL    HW218201   6.411   0.573   0.762
 5768SOL     OW18202   6.138   0.419   2.271
 5768SOL    HW118203   6.201   0.346   2.299
 5768SOL    HW218204   6.044   0.384   2.274
 5769SOL     OW18205   2.071   5.643   3.451
 5769SOL    HW118206   2.014   5.562   3.460
 5769SOL    HW218207   2.167   5.618   3.467
 5770SOL     OW18208   5.792   1.544   1.664
 5770SOL    HW118209   5.832   1.616   1.721
 5770SOL    HW218210   5.788   1.574   1.569
 5771SOL     OW18211   0.462   1.102   1.741
 5771SOL    HW118212   0.457   1.020   1.683
 5771SOL    HW218213   0.464   1.183   1.683
 5772SOL     OW18214   6.983   4.443   6.549
 5772SOL    HW118215   6.974   4.366   6.612
 5772SOL    HW218216   0.033   4.504   6.582
 5773SOL     OW18217   5.068   6.104   4.764
 5773SOL    HW118218   5.046   6.106   4.862
 5773SOL    HW218219   5.021   6.027   4.721
 5774SOL     OW18220   2.987   4.892   2.771
 5774SOL    HW118221   2.957   4.814   2.826
 5774SOL    HW218222   2.915   4.961   2.770
 5775SOL     OW18223   1.118   0.652   0.460
 5775SOL    HW118224   1.199   0.630   0.405
 5775SOL    HW218225   1.050   0.579   0.449
 5776SOL     OW18226   4.827   1.569   6.167
 5776SOL    HW118227   4.759   1.636   6.137
 5776SOL    HW218228   4.786   1.478   6.170
 5777SOL     OW18229   5.522   0.964   5.813
 5777SOL    HW118230   5.450   0.992   5.876
 5777SOL    HW218231   5.498   0.992   5.721
 5778SOL     OW18232   2.923   6.618   3.635
 5778SOL    HW118233   2.870   6.701   3.623
 5778SOL    HW218234   2.879   6.559   3.703
 5779SOL     OW18235   4.164   0.406   1.630
 5779SOL    HW118236   4.243   0.417   1.689
 5779SOL    HW218237   4.114   0.323   1.657
 5780SOL     OW18238   5.541   3.543   1.106
 5780SOL    HW118239   5.577   3.505   1.021
 5780SOL    HW218240   5.594   3.624   1.131
 5781SOL     OW18241   2.953   4.821   5.330
 5781SOL    HW118242   2.872   4.879   5.338
 5781SOL    HW218243   2.933   4.745   5.268
 5782SOL     OW18244   4.344   1.722   3.330
 5782SOL    HW118245   4.300   1.667   3.401
 5782SOL    HW218246   4.343   1.819   3.357
 5783SOL     OW18247   2.350   6.904   1.747
 5783SOL    HW118248   2.356   6.867   1.839
 5783SOL    HW218249   2.329   6.831   1.682
 5784SOL     OW18250   1.043   5.551   0.154
 5784SOL    HW118251   1.103   5.607   0.097
 5784SOL    HW218252   1.080   5.458   0.162
 5785SOL     OW18253   2.471   1.387   0.252
 5785SOL    HW118254   2.536   1.456   0.218
 5785SOL    HW218255   2.446   1.409   0.346
 5786SOL     OW18256   0.569   3.062   6.606
 5786SOL    HW118257   0.559   2.991   6.676
 5786SOL    HW218258   0.624   3.026   6.530
 5787SOL     OW18259   0.157   3.267   5.361
 5787SOL    HW118260   0.171   3.360   5.329
 5787SOL    HW218261   0.062   3.257   5.393
 5788SOL     OW18262   1.549   2.323   1.923
 5788SOL    HW118263   1.541   2.378   1.840
 5788SOL    HW218264   1.467   2.335   1.979
 5789SOL     OW18265   2.846   5.209   7.007
 5789SOL    HW118266   2.786   5.155   6.947
 5789SOL    HW218267   2.941   5.181   6.993
 5790SOL     OW18268   6.668   6.548   2.974
 5790SOL    HW118269   6.754   6.599   2.978
 5790SOL    HW218270   6.621   6.569   2.888
 5791SOL     OW18271   4.161   1.101   1.113
 5791SOL    HW118272   4.184   1.060   1.201
 5791SOL    HW218273   4.136   1.197   1.127
 5792SOL     OW18274   4.210   2.287   3.137
 5792SOL    HW118275   4.226   2.247   3.047
 5792SOL    HW218276   4.112   2.299   3.152
 5793SOL     OW18277   3.724   2.271   0.236
 5793SOL    HW118278   3.818   2.277   0.202
 5793SOL    HW218279   3.663   2.246   0.160
 5794SOL     OW18280   3.872   5.990   0.023
 5794SOL    HW118281   3.889   5.896   0.052
 5794SOL    HW218282   3.946   6.021   6.986
 5795SOL     OW18283   1.603   6.849   1.740
 5795SOL    HW118284   1.700   6.872   1.746
 5795SOL    HW218285   1.549   6.931   1.725
 5796SOL     OW18286   5.048   0.868   6.790
 5796SOL    HW118287   5.025   0.781   6.834
 5796SOL    HW218288   5.146   0.868   6.767
 5797SOL     OW18289   0.252   2.622   0.548
 5797SOL    HW118290   0.205   2.548   0.501
 5797SOL    HW218291   0.321   2.662   0.488
 5798SOL     OW18292   1.877   3.254   3.803
 5798SOL    HW118293   1.961   3.265   3.749
 5798SOL    HW218294   1.895   3.279   3.898
 5799SOL     OW18295   2.822   0.146   3.384
 5799SOL    HW118296   2.804   0.183   3.475
 5799SOL    HW218297   2.855   0.052   3.392
 5800SOL     OW18298   1.018   6.927   2.207
 5800SOL    HW118299   1.106   6.909   2.162
 5800SOL    HW218300   1.007   0.003   2.218
 5801SOL     OW18301   1.980   1.241   2.378
 5801SOL    HW118302   1.976   1.142   2.365
 5801SOL    HW218303   1.930   1.287   2.304
 5802SOL     OW18304   1.023   0.081   2.884
 5802SOL    HW118305   1.101   0.060   2.942
 5802SOL    HW218306   0.983   7.018   2.849
 5803SOL     OW18307   0.384   6.347   4.710
 5803SOL    HW118308   0.332   6.275   4.663
 5803SOL    HW218309   0.324   6.425   4.729
 5804SOL     OW18310   6.651   2.067   2.972
 5804SOL    HW118311   6.574   2.024   2.926
 5804SOL    HW218312   6.617   2.130   3.042
 5805SOL     OW18313   0.924   2.626   1.766
 5805SOL    HW118314   0.997   2.694   1.755
 5805SOL    HW218315   0.957   2.537   1.733
 5806SOL     OW18316   6.774   3.791   2.691
 5806SOL    HW118317   6.824   3.877   2.690
 5806SOL    HW218318   6.682   3.804   2.654
 5807SOL     OW18319   1.134   1.215   2.418
 5807SOL    HW118320   1.138   1.116   2.411
 5807SOL    HW218321   1.051   1.241   2.468
 5808SOL     OW18322   0.317   0.627   5.816
 5808SOL    HW118323   0.402   0.621   5.763
 5808SOL    HW218324   0.240   0.641   5.754
 5809SOL     OW18325   0.502   3.786   4.486
 5809SOL    HW118326   0.488   3.813   4.391
 5809SOL    HW218327   0.600   3.785   4.506
 5810SOL     OW18328   2.605   6.182   5.360
 5810SOL    HW118329   2.512   6.198   5.328
 5810SOL    HW218330   2.670   6.218   5.294
 5811SOL     OW18331   3.899   4.559   6.703
 5811SOL    HW118332   3.981   4.611   6.682
 5811SOL    HW218333   3.863   4.588   6.792
 5812SOL     OW18334   5.537   3.029   6.596
 5812SOL    HW118335   5.458   3.023   6.535
 5812SOL    HW218336   5.565   2.937   6.622
 5813SOL     OW18337   5.154   4.870   0.857
 5813SOL    HW118338   5.102   4.846   0.776
 5813SOL    HW218339   5.219   4.796   0.878
 5814SOL     OW18340   6.305   1.177   2.134
 5814SOL    HW118341   6.377   1.183   2.203
 5814SOL    HW218342   6.263   1.267   2.121
 5815SOL     OW18343   6.287   3.260   4.388
 5815SOL    HW118344   6.357   3.302   4.446
 5815SOL    HW218345   6.330   3.195   4.325
 5816SOL     OW18346   6.769   3.830   1.571
 5816SOL    HW118347   6.699   3.860   1.636
 5816SOL    HW218348   6.732   3.832   1.478
 5817SOL     OW18349   6.483   2.883   3.613
 5817SOL    HW118350   6.508   2.891   3.709
 5817SOL    HW218351   6.530   2.953   3.559
 5818SOL     OW18352   2.365   0.145   4.752
 5818SOL    HW118353   2.343   0.048   4.744
 5818SOL    HW218354   2.334   0.194   4.670
 5819SOL     OW18355   3.853   4.262   0.518
 5819SOL    HW118356   3.913   4.238   0.595
 5819SOL    HW218357   3.908   4.275   0.436
 5820SOL     OW18358   6.581   0.148   3.169
 5820SOL    HW118359   6.611   0.087   3.242
 5820SOL    HW218360   6.486   0.129   3.146
 5821SOL     OW18361   6.620   6.671   2.149
 5821SOL    HW118362   6.571   6.598   2.101
 5821SOL    HW218363   6.661   6.634   2.232
 5822SOL     OW18364   0.931   3.878   2.511
 5822SOL    HW118365   0.864   3.822   2.462
 5822SOL    HW218366   0.996   3.819   2.558
 5823SOL     OW18367   2.642   6.679   4.418
 5823SOL    HW118368   2.706   6.747   4.454
 5823SOL    HW218369   2.655   6.671   4.319
 5824SOL     OW18370   2.068   6.605   2.419
 5824SOL    HW118371   2.021   6.551   2.489
 5824SOL    HW218372   2.006   6.620   2.342
 5825SOL     OW18373   4.763   1.552   4.465
 5825SOL    HW118374   4.859   1.522   4.468
 5825SOL    HW218375   4.703   1.473   4.473
 5826SOL     OW18376   1.782   6.437   4.976
 5826SOL    HW118377   1.870   6.392   4.963
 5826SOL    HW218378   1.709   6.369   4.972
 5827SOL     OW18379   2.104   3.573   3.164
 5827SOL    HW118380   2.128   3.633   3.240
 5827SOL    HW218381   2.162   3.594   3.086
 5828SOL     OW18382   5.250   0.562   5.721
 5828SOL    HW118383   5.336   0.522   5.754
 5828SOL    HW218384   5.243   0.549   5.622
 5829SOL     OW18385   2.422   0.706   3.200
 5829SOL    HW118386   2.370   0.621   3.196
 5829SOL    HW218387   2.386   0.763   3.273
 5830SOL     OW18388   4.290   5.011   4.361
 5830SOL    HW118389   4.371   5.060   4.392
 5830SOL    HW218390   4.243   4.971   4.440
 5831SOL     OW18391   2.368   2.682   4.661
 5831SOL    HW118392   2.370   2.593   4.706
 5831SOL    HW218393   2.378   2.754   4.729
 5832SOL     OW18394   3.210   5.679   3.047
 5832SOL    HW118395   3.116   5.671   3.079
 5832SOL    HW218396   3.213   5.736   2.965
 5833SOL     OW18397   3.677   5.817   0.371
 5833SOL    HW118398   3.652   5.903   0.416
 5833SOL    HW218399   3.769   5.790   0.400
 5834SOL     OW18400   6.691   3.080   5.951
 5834SOL    HW118401   6.714   3.177   5.959
 5834SOL    HW218402   6.610   3.060   6.005
 5835SOL     OW18403   4.691   1.427   3.236
 5835SOL    HW118404   4.750   1.408   3.158
 5835SOL    HW218405   4.694   1.525   3.257
 5836SOL     OW18406   4.774   6.059   1.324
 5836SOL    HW118407   4.812   5.970   1.349
 5836SOL    HW218408   4.802   6.128   1.391
 5837SOL     OW18409   3.209   4.551   6.548
 5837SOL    HW118410   3.211   4.504   6.460
 5837SOL    HW218411   3.217   4.483   6.621
 5838SOL     OW18412   3.514   3.253   0.142
 5838SOL    HW118413   3.526   3.282   0.237
 5838SOL    HW218414   3.524   3.154   0.135
 5839SOL     OW18415   2.112   1.897   0.412
 5839SOL    HW118416   2.158   1.922   0.497
 5839SOL    HW218417   2.035   1.836   0.431
 5840SOL     OW18418   1.005   3.403   3.421
 5840SOL    HW118419   1.084   3.341   3.415
 5840SOL    HW218420   1.012   3.473   3.350
 5841SOL     OW18421   5.667   1.751   0.291
 5841SOL    HW118422   5.766   1.749   0.306
 5841SOL    HW218423   5.648   1.756   0.193
 5842SOL     OW18424   3.518   2.047   1.537
 5842SOL    HW118425   3.503   2.140   1.568
 5842SOL    HW218426   3.594   2.007   1.589
 5843SOL     OW18427   3.827   3.407   0.135
 5843SOL    HW118428   3.790   3.499   0.132
 5843SOL    HW218429   3.908   3.401   0.076
 5844SOL     OW18430   0.648   5.633   5.035
 5844SOL    HW118431   0.726   5.688   5.004
 5844SOL    HW218432   0.679   5.542   5.061
 5845SOL     OW18433   2.208   0.232   2.860
 5845SOL    HW118434   2.115   0.233   2.824
 5845SOL    HW218435   2.216   0.298   2.934
 5846SOL     OW18436   0.524   4.443   5.050
 5846SOL    HW118437   0.468   4.526   5.049
 5846SOL    HW218438   0.474   4.369   5.094
 5847SOL     OW18439   1.843   4.212   6.602
 5847SOL    HW118440   1.769   4.276   6.625
 5847SOL    HW218441   1.807   4.139   6.544
 5848SOL     OW18442   2.296   6.361   1.429
 5848SOL    HW118443   2.395   6.350   1.437
 5848SOL    HW218444   2.271   6.377   1.334
 5849SOL     OW18445   2.677   5.491   6.648
 5849SOL    HW118446   2.745   5.473   6.577
 5849SOL    HW218447   2.652   5.588   6.647
 5850SOL     OW18448   6.966   1.553   1.552
 5850SOL    HW118449   0.030   1.548   1.501
 5850SOL    HW218450   6.891   1.575   1.489
 5851SOL     OW18451   6.655   3.596   4.428
 5851SOL    HW118452   6.580   3.543   4.469
 5851SOL    HW218453   6.721   3.533   4.387
 5852SOL     OW18454   4.899   4.212   2.490
 5852SOL    HW118455   4.821   4.239   2.434
 5852SOL    HW218456   4.871   4.206   2.586
 5853SOL     OW18457   4.307   4.820   6.851
 5853SOL    HW118458   4.294   4.764   6.933
 5853SOL    HW218459   4.299   4.917   6.875
 5854SOL     OW18460   3.340   4.659   5.591
 5854SOL    HW118461   3.267   4.655   5.659
 5854SOL    HW218462   3.308   4.616   5.506
 5855SOL     OW18463   2.474   2.496   3.815
 5855SOL    HW118464   2.510   2.464   3.727
 5855SOL    HW218465   2.382   2.460   3.828
 5856SOL     OW18466   1.226   0.061   3.053
 5856SOL    HW118467   1.270   6.995   3.043
 5856SOL    HW218468   1.295   0.133   3.045
 5857SOL     OW18469   5.519   4.758   6.653
 5857SOL    HW118470   5.614   4.731   6.666
 5857SOL    HW218471   5.463   4.677   6.639
 5858SOL     OW18472   2.389   1.491   2.611
 5858SOL    HW118473   2.326   1.456   2.542
 5858SOL    HW218474   2.356   1.578   2.646
 5859SOL     OW18475   5.102   5.582   1.980
 5859SOL    HW118476   5.124   5.644   1.905
 5859SOL    HW218477   5.008   5.550   1.971
 5860SOL     OW18478   1.096   4.098   2.412
 5860SOL    HW118479   1.106   4.111   2.511
 5860SOL    HW218480   1.072   4.002   2.394
 5861SOL     OW18481   5.134   0.410   5.945
 5861SOL    HW118482   5.181   0.499   5.945
 5861SOL    HW218483   5.086   0.398   5.858
 5862SOL     OW18484   6.978   4.765   3.799
 5862SOL    HW118485   6.943   4.673   3.814
 5862SOL    HW218486   6.902   4.830   3.801
 5863SOL     OW18487   3.876   6.894   6.177
 5863SOL    HW118488   3.788   6.874   6.220
 5863SOL    HW218489   3.863   6.910   6.079
 5864SOL     OW18490   4.079   3.624   2.241
 5864SOL    HW118491   4.120   3.708   2.205
 5864SOL    HW218492   4.091   3.621   2.340
 5865SOL     OW18493   6.820   0.202   0.128
 5865SOL    HW118494   6.869   0.162   0.206
 5865SOL    HW218495   6.849   0.297   0.116
 5866SOL     OW18496   3.730   3.220   2.536
 5866SOL    HW118497   3.791   3.141   2.530
 5866SOL    HW218498   3.780   3.303   2.511
 5867SOL     OW18499   3.431   1.531   1.474
 5867SOL    HW118500   3.366   1.574   1.537
 5867SOL    HW218501   3.516   1.583   1.474
 5868SOL     OW18502   1.029   0.762   0.695
 5868SOL    HW118503   1.073   0.744   0.607
 5868SOL    HW218504   1.046   0.687   0.758
 5869SOL     OW18505   1.366   5.803   3.112
 5869SOL    HW118506   1.337   5.799   3.208
 5869SOL    HW218507   1.287   5.786   3.052
 5870SOL     OW18508   4.182   0.366   3.792
 5870SOL    HW118509   4.190   0.466   3.793
 5870SOL    HW218510   4.176   0.332   3.886
 5871SOL     OW18511   4.169   3.559   4.170
 5871SOL    HW118512   4.155   3.489   4.240
 5871SOL    HW218513   4.250   3.536   4.115
 5872SOL     OW18514   4.198   6.181   0.752
 5872SOL    HW118515   4.144   6.134   0.821
 5872SOL    HW218516   4.143   6.252   0.708
 5873SOL     OW18517   3.408   5.836   2.006
 5873SOL    HW118518   3.505   5.844   2.030
 5873SOL    HW218519   3.398   5.767   1.934
 5874SOL     OW18520   0.868   4.198   4.888
 5874SOL    HW118521   0.797   4.149   4.939
 5874SOL    HW218522   0.932   4.133   4.848
 5875SOL     OW18523   3.797   2.077   1.015
 5875SOL    HW118524   3.698   2.096   1.015
 5875SOL    HW218525   3.818   2.017   1.092
 5876SOL     OW18526   2.986   3.763   2.026
 5876SOL    HW118527   2.962   3.756   1.929
 5876SOL    HW218528   2.928   3.701   2.079
 5877SOL     OW18529   5.247   4.529   1.637
 5877SOL    HW118530   5.167   4.480   1.672
 5877SOL    HW218531   5.319   4.528   1.706
 5878SOL     OW18532   1.793   3.680   2.604
 5878SOL    HW118533   1.810   3.686   2.702
 5878SOL    HW218534   1.857   3.615   2.563
 5879SOL     OW18535   1.374   3.879   3.805
 5879SOL    HW118536   1.337   3.873   3.898
 5879SOL    HW218537   1.303   3.856   3.739
 5880SOL     OW18538   3.725   6.222   0.065
 5880SOL    HW118539   3.751   6.260   0.154
 5880SOL    HW218540   3.792   6.153   0.037
 5881SOL     OW18541   1.133   5.868   4.150
 5881SOL    HW118542   1.086   5.822   4.075
 5881SOL    HW218543   1.111   5.822   4.236
 5882SOL     OW18544   5.092   0.499   2.731
 5882SOL    HW118545   5.076   0.434   2.806
 5882SOL    HW218546   5.170   0.469   2.677
 5883SOL     OW18547   0.942   3.932   5.305
 5883SOL    HW118548   0.870   3.942   5.374
 5883SOL    HW218549   0.999   3.853   5.328
 5884SOL     OW18550   1.018   0.453   3.684
 5884SOL    HW118551   1.038   0.551   3.677
 5884SOL    HW218552   0.927   0.435   3.647
 5885SOL     OW18553   5.933   6.063   1.412
 5885SOL    HW118554   5.991   6.107   1.480
 5885SOL    HW218555   5.867   6.129   1.376
 5886SOL     OW18556   6.974   1.227   6.393
 5886SOL    HW118557   0.047   1.256   6.391
 5886SOL    HW218558   6.959   1.167   6.472
 5887SOL     OW18559   3.958   6.114   3.239
 5887SOL    HW118560   3.935   6.160   3.325
 5887SOL    HW218561   3.899   6.150   3.166
 5888SOL     OW18562   0.567   0.981   3.018
 5888SOL    HW118563   0.573   1.063   2.960
 5888SOL    HW218564   0.655   0.967   3.065
 5889SOL     OW18565   2.384   6.845   6.669
 5889SOL    HW118566   2.484   6.850   6.674
 5889SOL    HW218567   2.358   6.799   6.584
 5890SOL     OW18568   3.534   4.625   5.895
 5890SOL    HW118569   3.482   4.676   5.826
 5890SOL    HW218570   3.594   4.689   5.944
 5891SOL     OW18571   1.994   3.603   6.576
 5891SOL    HW118572   1.931   3.658   6.522
 5891SOL    HW218573   1.957   3.511   6.587
 5892SOL     OW18574   2.339   6.516   2.159
 5892SOL    HW118575   2.266   6.494   2.095
 5892SOL    HW218576   2.300   6.546   2.246
 5893SOL     OW18577   1.934   1.254   3.399
 5893SOL    HW118578   1.970   1.175   3.447
 5893SOL    HW218579   1.918   1.328   3.464
 5894SOL     OW18580   0.765   3.307   3.581
 5894SOL    HW118581   0.795   3.226   3.632
 5894SOL    HW218582   0.846   3.360   3.554
 5895SOL     OW18583   5.580   4.052   3.261
 5895SOL    HW118584   5.590   3.995   3.343
 5895SOL    HW218585   5.596   3.997   3.179
 5896SOL     OW18586   4.964   3.040   5.312
 5896SOL    HW118587   5.026   3.048   5.234
 5896SOL    HW218588   4.981   3.115   5.376
 5897SOL     OW18589   4.541   6.130   1.196
 5897SOL    HW118590   4.559   6.115   1.098
 5897SOL    HW218591   4.626   6.118   1.247
 5898SOL     OW18592   2.761   6.213   2.841
 5898SOL    HW118593   2.737   6.192   2.746
 5898SOL    HW218594   2.807   6.135   2.882
 5899SOL     OW18595   5.561   0.826   3.246
 5899SOL    HW118596   5.658   0.817   3.267
 5899SOL    HW218597   5.509   0.756   3.294
 5900SOL     OW18598   3.862   5.112   2.403
 5900SOL    HW118599   3.942   5.135   2.458
 5900SOL    HW218600   3.779   5.133   2.453
 5901SOL     OW18601   3.176   6.493   4.292
 5901SOL    HW118602   3.259   6.485   4.348
 5901SOL    HW218603   3.125   6.574   4.321
 5902SOL     OW18604   5.601   2.382   6.921
 5902SOL    HW118605   5.617   2.421   7.011
 5902SOL    HW218606   5.660   2.427   6.854
 5903SOL     OW18607   6.871   3.692   6.494
 5903SOL    HW118608   6.912   3.602   6.508
 5903SOL    HW218609   6.806   3.687   6.418
 5904SOL     OW18610   0.817   3.736   2.172
 5904SOL    HW118611   0.801   3.695   2.262
 5904SOL    HW218612   0.731   3.775   2.138
 5905SOL     OW18613   6.710   4.587   2.663
 5905SOL    HW118614   6.749   4.600   2.571
 5905SOL    HW218615   6.651   4.507   2.663
 5906SOL     OW18616   0.901   1.065   3.353
 5906SOL    HW118617   0.902   1.007   3.435
 5906SOL    HW218618   0.879   1.159   3.379
 5907SOL     OW18619   2.015   0.296   2.383
 5907SOL    HW118620   1.944   0.273   2.317
 5907SOL    HW218621   2.088   0.228   2.379
 5908SOL     OW18622   0.033   3.276   5.761
 5908SOL    HW118623   7.004   3.279   5.847
 5908SOL    HW218624   0.065   3.368   5.739
 5909SOL     OW18625   6.224   4.278   0.507
 5909SOL    HW118626   6.297   4.223   0.548
 5909SOL    HW218627   6.259   4.370   0.489
 5910SOL     OW18628   1.964   1.571   3.279
 5910SOL    HW118629   1.959   1.537   3.373
 5910SOL    HW218630   1.999   1.499   3.219
 5911SOL     OW18631   6.251   5.666   6.830
 5911SOL    HW118632   6.321   5.595   6.838
 5911SOL    HW218633   6.250   5.701   6.737
 5912SOL     OW18634   0.721   0.082   3.718
 5912SOL    HW118635   0.698   7.007   3.707
 5912SOL    HW218636   0.658   0.124   3.783
 5913SOL     OW18637   6.093   2.086   0.154
 5913SOL    HW118638   6.012   2.032   0.133
 5913SOL    HW218639   6.069   2.183   0.156
 5914SOL     OW18640   1.199   6.200   0.414
 5914SOL    HW118641   1.257   6.213   0.334
 5914SOL    HW218642   1.103   6.209   0.387
 5915SOL     OW18643   3.782   1.612   5.831
 5915SOL    HW118644   3.700   1.650   5.789
 5915SOL    HW218645   3.854   1.682   5.832
 5916SOL     OW18646   0.962   6.546   1.828
 5916SOL    HW118647   1.060   6.569   1.827
 5916SOL    HW218648   0.951   6.449   1.808
 5917SOL     OW18649   3.415   3.656   0.307
 5917SOL    HW118650   3.430   3.612   0.218
 5917SOL    HW218651   3.438   3.753   0.300
 5918SOL     OW18652   3.052   6.810   4.936
 5918SOL    HW118653   3.065   6.778   4.842
 5918SOL    HW218654   3.083   6.740   5.000
 5919SOL     OW18655   3.858   3.360   4.514
 5919SOL    HW118656   3.782   3.401   4.463
 5919SOL    HW218657   3.856   3.261   4.502
 5920SOL     OW18658   6.858   0.262   5.821
 5920SOL    HW118659   6.812   0.240   5.735
 5920SOL    HW218660   6.872   0.178   5.874
 5921SOL     OW18661   2.401   4.328   6.581
 5921SOL    HW118662   2.458   4.286   6.510
 5921SOL    HW218663   2.412   4.278   6.667
 5922SOL     OW18664   5.180   3.166   2.518
 5922SOL    HW118665   5.166   3.157   2.419
 5922SOL    HW218666   5.244   3.095   2.549
 5923SOL     OW18667   6.030   1.156   3.884
 5923SOL    HW118668   6.051   1.226   3.952
 5923SOL    HW218669   5.935   1.164   3.856
 5924SOL     OW18670   5.056   6.647   3.867
 5924SOL    HW118671   4.961   6.670   3.847
 5924SOL    HW218672   5.076   6.666   3.963
 5925SOL     OW18673   4.457   1.277   0.930
 5925SOL    HW118674   4.512   1.220   0.870
 5925SOL    HW218675   4.516   1.329   0.991
 5926SOL     OW18676   5.624   4.312   3.272
 5926SOL    HW118677   5.717   4.325   3.307
 5926SOL    HW218678   5.594   4.218   3.289
 5927SOL     OW18679   0.273   5.300   2.479
 5927SOL    HW118680   0.283   5.224   2.415
 5927SOL    HW218681   0.336   5.373   2.454
 5928SOL     OW18682   2.903   6.862   6.943
 5928SOL    HW118683   2.866   6.780   6.899
 5928SOL    HW218684   2.829   6.924   6.967
 5929SOL     OW18685   1.358   0.609   0.303
 5929SOL    HW118686   1.333   0.539   0.236
 5929SOL    HW218687   1.410   0.681   0.258
 5930SOL     OW18688   1.744   3.842   2.227
 5930SOL    HW118689   1.808   3.837   2.304
 5930SOL    HW218690   1.675   3.912   2.245
 5931SOL     OW18691   5.594   6.771   2.392
 5931SOL    HW118692   5.518   6.753   2.454
 5931SOL    HW218693   5.609   6.691   2.334
 5932SOL     OW18694   2.915   0.488   0.016
 5932SOL    HW118695   2.966   0.572   0.035
 5932SOL    HW218696   2.975   0.422   6.995
 5933SOL     OW18697   5.898   6.365   4.418
 5933SOL    HW118698   5.903   6.464   4.433
 5933SOL    HW218699   5.967   6.338   4.351
 5934SOL     OW18700   2.287   3.490   6.988
 5934SOL    HW118701   2.384   3.495   7.010
 5934SOL    HW218702   2.235   3.541   0.034
 5935SOL     OW18703   1.341   6.340   6.005
 5935SOL    HW118704   1.241   6.346   6.009
 5935SOL    HW218705   1.370   6.314   5.913
 5936SOL     OW18706   3.873   2.967   2.526
 5936SOL    HW118707   3.934   2.918   2.465
 5936SOL    HW218708   3.780   2.965   2.490
 5937SOL     OW18709   0.022   2.935   1.273
 5937SOL    HW118710   0.050   2.841   1.293
 5937SOL    HW218711   0.094   2.998   1.302
 5938SOL     OW18712   0.277   4.021   4.069
 5938SOL    HW118713   0.271   4.076   3.985
 5938SOL    HW218714   0.207   4.052   4.134
 5939SOL     OW18715   3.599   1.369   5.370
 5939SOL    HW118716   3.527   1.311   5.408
 5939SOL    HW218717   3.633   1.430   5.442
 5940SOL     OW18718   4.645   5.488   1.717
 5940SOL    HW118719   4.612   5.580   1.739
 5940SOL    HW218720   4.740   5.479   1.747
 5941SOL     OW18721   0.122   2.233   2.758
 5941SOL    HW118722   0.107   2.138   2.784
 5941SOL    HW218723   0.220   2.249   2.745
 5942SOL     OW18724   5.039   2.665   6.310
 5942SOL    HW118725   4.949   2.631   6.336
 5942SOL    HW218726   5.029   2.749   6.257
 5943SOL     OW18727   2.652   4.210   1.686
 5943SOL    HW118728   2.571   4.243   1.733
 5943SOL    HW218729   2.732   4.262   1.716
 5944SOL     OW18730   6.271   2.927   5.331
 5944SOL    HW118731   6.187   2.874   5.330
 5944SOL    HW218732   6.283   2.968   5.422
 5945SOL     OW18733   6.626   6.890   4.930
 5945SOL    HW118734   6.624   6.925   5.024
 5945SOL    HW218735   6.571   6.807   4.924
 5946SOL     OW18736   2.280   3.909   6.549
 5946SOL    HW118737   2.222   3.837   6.588
 5946SOL    HW218738   2.224   3.990   6.529
 5947SOL     OW18739   4.119   3.393   4.415
 5947SOL    HW118740   4.031   3.415   4.456
 5947SOL    HW218741   4.125   3.294   4.401
 5948SOL     OW18742   5.090   3.486   1.851
 5948SOL    HW118743   5.040   3.483   1.937
 5948SOL    HW218744   5.140   3.400   1.838
 5949SOL     OW18745   0.529   4.496   2.780
 5949SOL    HW118746   0.486   4.441   2.852
 5949SOL    HW218747   0.573   4.576   2.821
 5950SOL     OW18748   3.894   0.288   4.659
 5950SOL    HW118749   3.868   0.192   4.650
 5950SOL    HW218750   3.836   0.344   4.600
 5951SOL     OW18751   6.885   4.225   0.009
 5951SOL    HW118752   6.811   4.223   0.076
 5951SOL    HW218753   6.925   4.316   0.005
 5952SOL     OW18754   4.152   4.551   1.370
 5952SOL    HW118755   4.108   4.468   1.402
 5952SOL    HW218756   4.126   4.628   1.429
 5953SOL     OW18757   6.744   3.197   5.155
 5953SOL    HW118758   6.837   3.226   5.130
 5953SOL    HW218759   6.748   3.142   5.238
 5954SOL     OW18760   1.813   5.944   3.988
 5954SOL    HW118761   1.734   5.883   3.980
 5954SOL    HW218762   1.885   5.900   4.041
 5955SOL     OW18763   5.325   3.289   0.391
 5955SOL    HW118764   5.411   3.324   0.353
 5955SOL    HW218765   5.324   3.303   0.490
 5956SOL     OW18766   5.228   2.684   5.136
 5956SOL    HW118767   5.285   2.712   5.213
 5956SOL    HW218768   5.141   2.648   5.170
 5957SOL     OW18769   0.090   1.232   3.470
 5957SOL    HW118770   0.144   1.315   3.477
 5957SOL    HW218771   0.022   1.230   3.543
 5958SOL     OW18772   2.943   6.617   3.032
 5958SOL    HW118773   2.904   6.538   3.079
 5958SOL    HW218774   2.886   6.640   2.953
 5959SOL     OW18775   4.972   2.300   3.588
 5959SOL    HW118776   4.874   2.298   3.609
 5959SOL    HW218777   5.013   2.379   3.634
 5960SOL     OW18778   4.242   0.808   6.117
 5960SOL    HW118779   4.165   0.758   6.076
 5960SOL    HW218780   4.323   0.795   6.061
 5961SOL     OW18781   2.815   2.240   3.620
 5961SOL    HW118782   2.781   2.158   3.574
 5961SOL    HW218783   2.771   2.249   3.709
 5962SOL     OW18784   5.025   5.720   0.198
 5962SOL    HW118785   4.933   5.683   0.208
 5962SOL    HW218786   5.088   5.667   0.255
 5963SOL     OW18787   2.484   4.057   0.349
 5963SOL    HW118788   2.511   3.960   0.354
 5963SOL    HW218789   2.417   4.076   0.420
 5964SOL     OW18790   2.542   6.647   2.572
 5964SOL    HW118791   2.551   6.732   2.519
 5964SOL    HW218792   2.461   6.597   2.540
 5965SOL     OW18793   2.376   0.326   0.659
 5965SOL    HW118794   2.419   0.347   0.746
 5965SOL    HW218795   2.441   0.276   0.601
 5966SOL     OW18796   3.023   1.676   5.057
 5966SOL    HW118797   2.941   1.620   5.059
 5966SOL    HW218798   3.029   1.729   5.141
 5967SOL     OW18799   4.224   2.026   4.895
 5967SOL    HW118800   4.193   1.962   4.966
 5967SOL    HW218801   4.302   1.987   4.846
 5968SOL     OW18802   5.939   2.752   1.933
 5968SOL    HW118803   5.871   2.785   1.867
 5968SOL    HW218804   6.013   2.819   1.941
 5969SOL     OW18805   5.607   0.425   0.448
 5969SOL    HW118806   5.532   0.381   0.497
 5969SOL    HW218807   5.602   0.400   0.351
 5970SOL     OW18808   0.247   3.555   0.770
 5970SOL    HW118809   0.333   3.589   0.809
 5970SOL    HW218810   0.170   3.592   0.823
 5971SOL     OW18811   6.735   6.479   4.048
 5971SOL    HW118812   6.741   6.565   4.100
 5971SOL    HW218813   6.781   6.406   4.098
 5972SOL     OW18814   5.864   5.066   0.407
 5972SOL    HW118815   5.935   5.136   0.396
 5972SOL    HW218816   5.905   4.984   0.449
 5973SOL     OW18817   3.164   1.334   2.369
 5973SOL    HW118818   3.233   1.276   2.414
 5973SOL    HW218819   3.196   1.428   2.367
 5974SOL     OW18820   5.715   1.405   5.087
 5974SOL    HW118821   5.760   1.324   5.048
 5974SOL    HW218822   5.660   1.449   5.017
 5975SOL     OW18823   4.380   4.834   1.394
 5975SOL    HW118824   4.437   4.863   1.471
 5975SOL    HW218825   4.413   4.876   1.310
 5976SOL     OW18826   2.011   3.651   5.365
 5976SOL    HW118827   2.077   3.632   5.293
 5976SOL    HW218828   2.024   3.744   5.399
 5977SOL     OW18829   6.548   4.527   0.469
 5977SOL    HW118830   6.507   4.542   0.559
 5977SOL    HW218831   6.638   4.571   0.465
 5978SOL     OW18832   2.761   3.711   6.310
 5978SOL    HW118833   2.783   3.742   6.217
 5978SOL    HW218834   2.789   3.780   6.376
 5979SOL     OW18835   6.152   0.456   1.973
 5979SOL    HW118836   6.235   0.507   1.995
 5979SOL    HW218837   6.094   0.449   2.054
 5980SOL     OW18838   2.846   2.822   1.303
 5980SOL    HW118839   2.926   2.876   1.277
 5980SOL    HW218840   2.764   2.863   1.263
 5981SOL     OW18841   2.958   1.761   0.650
 5981SOL    HW118842   2.966   1.852   0.691
 5981SOL    HW218843   2.926   1.696   0.720
 5982SOL     OW18844   4.884   3.027   1.096
 5982SOL    HW118845   4.899   3.097   1.026
 5982SOL    HW218846   4.910   2.937   1.059
 5983SOL     OW18847   0.095   0.569   3.400
 5983SOL    HW118848   0.144   0.515   3.331
 5983SOL    HW218849   0.156   0.642   3.434
 5984SOL     OW18850   6.071   6.797   4.327
 5984SOL    HW118851   6.028   6.710   4.351
 5984SOL    HW218852   6.030   6.832   4.242
 5985SOL     OW18853   6.417   3.068   2.262
 5985SOL    HW118854   6.492   3.114   2.309
 5985SOL    HW218855   6.407   3.106   2.170
 5986SOL     OW18856   3.759   3.537   3.904
 5986SOL    HW118857   3.721   3.603   3.840
 5986SOL    HW218858   3.858   3.550   3.911
 5987SOL     OW18859   0.312   6.137   5.678
 5987SOL    HW118860   0.405   6.135   5.642
 5987SOL    HW218861   0.313   6.102   5.772
 5988SOL     OW18862   0.779   2.800   6.622
 5988SOL    HW118863   0.736   2.726   6.571
 5988SOL    HW218864   0.823   2.863   6.558
 5989SOL     OW18865   0.503   6.332   6.161
 5989SOL    HW118866   0.499   6.274   6.080
 5989SOL    HW218867   0.456   6.419   6.142
 5990SOL     OW18868   2.623   4.718   1.883
 5990SOL    HW118869   2.702   4.709   1.943
 5990SOL    HW218870   2.555   4.649   1.907
 5991SOL     OW18871   4.696   0.712   0.652
 5991SOL    HW118872   4.637   0.636   0.678
 5991SOL    HW218873   4.646   0.774   0.591
 5992SOL     OW18874   3.832   5.998   2.630
 5992SOL    HW118875   3.930   5.984   2.629
 5992SOL    HW218876   3.792   5.963   2.545
 5993SOL     OW18877   5.580   1.750   7.021
 5993SOL    HW118878   5.536   1.661   7.007
 5993SOL    HW218879   5.521   1.822   6.985
 5994SOL     OW18880   6.957   3.304   0.098
 5994SOL    HW118881   6.914   3.238   0.036
 5994SOL    HW218882   0.033   3.290   0.098
 5995SOL     OW18883   4.789   3.592   1.475
 5995SOL    HW118884   4.856   3.531   1.430
 5995SOL    HW218885   4.824   3.619   1.564
 5996SOL     OW18886   2.690   6.108   1.517
 5996SOL    HW118887   2.739   6.045   1.457
 5996SOL    HW218888   2.592   6.088   1.513
 5997SOL     OW18889   6.410   0.524   4.307
 5997SOL    HW118890   6.422   0.624   4.304
 5997SOL    HW218891   6.492   0.480   4.270
 5998SOL     OW18892   6.114   5.932   6.937
 5998SOL    HW118893   6.194   5.873   6.928
 5998SOL    HW218894   6.106   5.964   0.009
 5999SOL     OW18895   4.975   3.315   1.547
 5999SOL    HW118896   5.033   3.257   1.605
 5999SOL    HW218897   4.955   3.268   1.461
 6000SOL     OW18898   0.443   3.818   1.040
 6000SOL    HW118899   0.391   3.767   1.110
 6000SOL    HW218900   0.482   3.753   0.975
 6001SOL     OW18901   6.296   5.451   6.039
 6001SOL    HW118902   6.340   5.386   6.100
 6001SOL    HW218903   6.300   5.417   5.945
 6002SOL     OW18904   5.413   5.098   5.314
 6002SOL    HW118905   5.375   5.082   5.405
 6002SOL    HW218906   5.467   5.019   5.286
 6003SOL     OW18907   2.434   2.410   4.689
 6003SOL    HW118908   2.504   2.435   4.755
 6003SOL    HW218909   2.390   2.325   4.716
 6004SOL     OW18910   5.378   2.232   4.510
 6004SOL    HW118911   5.291   2.267   4.544
 6004SOL    HW218912   5.395   2.268   4.418
 6005SOL     OW18913   4.294   4.043   6.761
 6005SOL    HW118914   4.238   4.027   6.680
 6005SOL    HW218915   4.322   4.140   6.764
 6006SOL     OW18916   3.535   5.997   7.008
 6006SOL    HW118917   3.611   6.051   0.020
 6006SOL    HW218918   3.565   5.903   6.994
 6007SOL     OW18919   2.286   6.011   5.031
 6007SOL    HW118920   2.308   6.109   5.033
 6007SOL    HW218921   2.363   5.960   4.993
 6008SOL     OW18922   2.890   4.098   6.491
 6008SOL    HW118923   2.792   4.079   6.499
 6008SOL    HW218924   2.936   4.077   6.578
 6009SOL     OW18925   4.094   5.137   2.614
 6009SOL    HW118926   4.132   5.194   2.540
 6009SOL    HW218927   4.156   5.061   2.632
 6010SOL     OW18928   0.584   4.725   4.089
 6010SOL    HW118929   0.537   4.648   4.132
 6010SOL    HW218930   0.678   4.730   4.125
 6011SOL     OW18931   6.075   1.588   2.499
 6011SOL    HW118932   6.092   1.489   2.496
 6011SOL    HW218933   5.993   1.609   2.446
 6012SOL     OW18934   6.992   0.573   6.199
 6012SOL    HW118935   6.953   0.546   6.111
 6012SOL    HW218936   6.947   0.657   6.230
 6013SOL     OW18937   6.005   1.455   2.019
 6013SOL    HW118938   6.020   1.482   1.923
 6013SOL    HW218939   6.040   1.527   2.079
 6014SOL     OW18940   3.043   3.911   3.998
 6014SOL    HW118941   3.008   3.820   3.980
 6014SOL    HW218942   3.109   3.907   4.073
 6015SOL     OW18943   6.187   0.565   3.938
 6015SOL    HW118944   6.128   0.621   3.879
 6015SOL    HW218945   6.248   0.625   3.990
 6016SOL     OW18946   4.384   1.565   4.292
 6016SOL    HW118947   4.308   1.536   4.350
 6016SOL    HW218948   4.437   1.485   4.264
 6017SOL     OW18949   0.876   1.203   5.813
 6017SOL    HW118950   0.975   1.215   5.807
 6017SOL    HW218951   0.833   1.251   5.737
 6018SOL     OW18952   2.832   1.098   4.446
 6018SOL    HW118953   2.867   1.154   4.371
 6018SOL    HW218954   2.741   1.062   4.422
 6019SOL     OW18955   6.547   4.496   6.558
 6019SOL    HW118956   6.478   4.557   6.597
 6019SOL    HW218957   6.607   4.463   6.631
 6020SOL     OW18958   0.808   4.919   5.722
 6020SOL    HW118959   0.725   4.862   5.720
 6020SOL    HW218960   0.849   4.913   5.813
 6021SOL     OW18961   5.967   6.880   3.401
 6021SOL    HW118962   5.977   6.952   3.470
 6021SOL    HW218963   6.023   6.903   3.321
 6022SOL     OW18964   6.684   2.899   1.413
 6022SOL    HW118965   6.668   2.838   1.490
 6022SOL    HW218966   6.700   2.845   1.330
 6023SOL     OW18967   3.652   6.966   1.733
 6023SOL    HW118968   3.567   6.944   1.685
 6023SOL    HW218969   3.665   0.042   1.734
 6024SOL     OW18970   1.228   5.864   6.853
 6024SOL    HW118971   1.217   5.770   6.887
 6024SOL    HW218972   1.194   5.870   6.760
 6025SOL     OW18973   3.068   0.389   4.595
 6025SOL    HW118974   3.025   0.305   4.628
 6025SOL    HW218975   3.013   0.468   4.624
 6026SOL     OW18976   5.649   6.301   4.441
 6026SOL    HW118977   5.746   6.325   4.433
 6026SOL    HW218978   5.641   6.213   4.488
 6027SOL     OW18979   5.305   4.850   6.145
 6027SOL    HW118980   5.319   4.856   6.046
 6027SOL    HW218981   5.385   4.807   6.187
 6028SOL     OW18982   5.700   5.170   6.134
 6028SOL    HW118983   5.601   5.170   6.117
 6028SOL    HW218984   5.738   5.080   6.111
 6029SOL     OW18985   2.832   0.975   2.740
 6029SOL    HW118986   2.751   1.027   2.711
 6029SOL    HW218987   2.911   1.036   2.745
 6030SOL     OW18988   5.865   2.933   4.286
 6030SOL    HW118989   5.916   3.005   4.333
 6030SOL    HW218990   5.822   2.971   4.204
 6031SOL     OW18991   0.086   6.234   5.311
 6031SOL    HW118992   0.072   6.177   5.229
 6031SOL    HW218993   0.164   6.294   5.297
 6032SOL     OW18994   4.030   6.458   3.561
 6032SOL    HW118995   3.938   6.439   3.528
 6032SOL    HW218996   4.025   6.497   3.653
 6033SOL     OW18997   1.229   1.469   2.251
 6033SOL    HW118998   1.135   1.450   2.280
 6033SOL    HW218999   1.283   1.498   2.330
 6034SOL     OW19000   0.682   6.781   1.286
 6034SOL    HW119001   0.766   6.779   1.232
 6034SOL    HW219002   0.667   6.874   1.319
 6035SOL     OW19003   2.847   0.419   2.334
 6035SOL    HW119004   2.903   0.486   2.287
 6035SOL    HW219005   2.775   0.466   2.386
 6036SOL     OW19006   6.427   3.478   1.182
 6036SOL    HW119007   6.424   3.479   1.282
 6036SOL    HW219008   6.435   3.383   1.150
 6037SOL     OW19009   4.883   1.654   6.594
 6037SOL    HW119010   4.900   1.575   6.535
 6037SOL    HW219011   4.795   1.695   6.570
 6038SOL     OW19012   1.329   1.426   6.191
 6038SOL    HW119013   1.245   1.479   6.182
 6038SOL    HW219014   1.307   1.328   6.184
 6039SOL     OW19015   4.061   3.849   3.861
 6039SOL    HW119016   4.045   3.888   3.952
 6039SOL    HW219017   4.062   3.749   3.868
 6040SOL     OW19018   0.242   1.713   0.438
 6040SOL    HW119019   0.307   1.718   0.362
 6040SOL    HW219020   0.213   1.619   0.451
 6041SOL     OW19021   2.334   3.855   5.696
 6041SOL    HW119022   2.342   3.953   5.675
 6041SOL    HW219023   2.420   3.823   5.735
 6042SOL     OW19024   3.311   5.569   4.309
 6042SOL    HW119025   3.249   5.644   4.285
 6042SOL    HW219026   3.315   5.561   4.409
 6043SOL     OW19027   2.454   0.561   2.888
 6043SOL    HW119028   2.371   0.592   2.842
 6043SOL    HW219029   2.489   0.480   2.842
 6044SOL     OW19030   0.797   3.111   0.930
 6044SOL    HW119031   0.835   3.023   0.959
 6044SOL    HW219032   0.813   3.123   0.832
 6045SOL     OW19033   5.499   2.024   3.328
 6045SOL    HW119034   5.454   2.076   3.400
 6045SOL    HW219035   5.462   2.051   3.239
 6046SOL     OW19036   3.616   2.846   3.067
 6046SOL    HW119037   3.522   2.830   3.097
 6046SOL    HW219038   3.619   2.855   2.967
 6047SOL     OW19039   7.012   1.734   0.355
 6047SOL    HW119040   0.089   1.740   0.366
 6047SOL    HW219041   6.974   1.677   0.428
 6048SOL     OW19042   5.602   5.902   3.518
 6048SOL    HW119043   5.661   5.968   3.564
 6048SOL    HW219044   5.636   5.885   3.426
 6049SOL     OW19045   4.575   4.946   6.149
 6049SOL    HW119046   4.670   4.931   6.122
 6049SOL    HW219047   4.514   4.904   6.081
 6050SOL     OW19048   2.986   6.187   2.316
 6050SOL    HW119049   2.936   6.112   2.274
 6050SOL    HW219050   2.957   6.274   2.275
 6051SOL     OW19051   0.800   1.567   3.319
 6051SOL    HW119052   0.727   1.524   3.267
 6051SOL    HW219053   0.863   1.614   3.257
 6052SOL     OW19054   5.035   5.452   0.575
 6052SOL    HW119055   4.956   5.506   0.605
 6052SOL    HW219056   5.099   5.441   0.651
 6053SOL     OW19057   4.105   2.436   5.819
 6053SOL    HW119058   4.182   2.421   5.881
 6053SOL    HW219059   4.053   2.515   5.850
 6054SOL     OW19060   4.020   4.203   0.748
 6054SOL    HW119061   3.953   4.188   0.820
 6054SOL    HW219062   4.109   4.223   0.789
 6055SOL     OW19063   3.018   3.878   1.027
 6055SOL    HW119064   2.987   3.949   0.964
 6055SOL    HW219065   3.116   3.861   1.014
 6056SOL     OW19066   5.154   5.959   3.357
 6056SOL    HW119067   5.212   5.961   3.438
 6056SOL    HW219068   5.082   6.029   3.365
 6057SOL     OW19069   5.197   0.673   4.334
 6057SOL    HW119070   5.150   0.691   4.420
 6057SOL    HW219071   5.132   0.634   4.268
 6058SOL     OW19072   6.622   2.715   5.838
 6058SOL    HW119073   6.663   2.806   5.831
 6058SOL    HW219074   6.654   2.670   5.921
 6059SOL     OW19075   4.224   2.836   0.267
 6059SOL    HW119076   4.152   2.854   0.334
 6059SOL    HW219077   4.305   2.890   0.290
 6060SOL     OW19078   2.217   3.236   6.849
 6060SOL    HW119079   2.232   3.315   6.908
 6060SOL    HW219080   2.209   3.267   6.754
 6061SOL     OW19081   3.135   4.376   6.956
 6061SOL    HW119082   3.159   4.308   0.004
 6061SOL    HW219083   3.168   4.344   6.867
 6062SOL     OW19084   1.877   1.796   6.561
 6062SOL    HW119085   1.791   1.797   6.611
 6062SOL    HW219086   1.931   1.876   6.586
 6063SOL     OW19087   4.267   3.827   6.437
 6063SOL    HW119088   4.190   3.764   6.436
 6063SOL    HW219089   4.298   3.841   6.532
 6064SOL     OW19090   6.315   5.340   1.079
 6064SOL    HW119091   6.273   5.363   1.166
 6064SOL    HW219092   6.404   5.297   1.094
 6065SOL     OW19093   1.573   0.210   2.106
 6065SOL    HW119094   1.530   0.260   2.031
 6065SOL    HW219095   1.660   0.253   2.130
 6066SOL     OW19096   5.173   5.973   3.760
 6066SOL    HW119097   5.081   5.957   3.724
 6066SOL    HW219098   5.237   5.986   3.684
 6067SOL     OW19099   6.363   6.488   6.313
 6067SOL    HW119100   6.343   6.567   6.254
 6067SOL    HW219101   6.406   6.520   6.398
 6068SOL     OW19102   4.820   2.399   4.195
 6068SOL    HW119103   4.751   2.472   4.196
 6068SOL    HW219104   4.896   2.425   4.254
 6069SOL     OW19105   0.354   4.353   5.806
 6069SOL    HW119106   0.390   4.367   5.714
 6069SOL    HW219107   0.391   4.423   5.867
 6070SOL     OW19108   2.229   1.318   0.741
 6070SOL    HW119109   2.278   1.235   0.765
 6070SOL    HW219110   2.130   1.301   0.742
 6071SOL     OW19111   6.413   1.323   5.699
 6071SOL    HW119112   6.430   1.226   5.680
 6071SOL    HW219113   6.463   1.378   5.632
 6072SOL     OW19114   0.183   2.717   0.198
 6072SOL    HW119115   0.156   2.649   0.130
 6072SOL    HW219116   0.106   2.736   0.259
 6073SOL     OW19117   5.047   3.243   0.337
 6073SOL    HW119118   5.104   3.314   0.379
 6073SOL    HW219119   5.097   3.157   0.335
 6074SOL     OW19120   1.133   6.320   2.573
 6074SOL    HW119121   1.168   6.364   2.491
 6074SOL    HW219122   1.208   6.280   2.625
 6075SOL     OW19123   5.637   0.539   6.599
 6075SOL    HW119124   5.714   0.517   6.539
 6075SOL    HW219125   5.670   0.544   6.694
 6076SOL     OW19126   0.896   5.747   2.594
 6076SOL    HW119127   0.808   5.781   2.627
 6076SOL    HW219128   0.960   5.823   2.584
 6077SOL     OW19129   5.580   6.692   2.751
 6077SOL    HW119130   5.511   6.667   2.818
 6077SOL    HW219131   5.547   6.669   2.659
 6078SOL     OW19132   4.285   4.359   0.557
 6078SOL    HW119133   4.268   4.279   0.499
 6078SOL    HW219134   4.369   4.344   0.609
 6079SOL     OW19135   2.440   2.983   0.584
 6079SOL    HW119136   2.460   2.936   0.670
 6079SOL    HW219137   2.341   2.986   0.570
 6080SOL     OW19138   6.783   4.586   6.433
 6080SOL    HW119139   6.693   4.542   6.441
 6080SOL    HW219140   6.851   4.531   6.481
 6081SOL     OW19141   1.552   3.871   3.446
 6081SOL    HW119142   1.614   3.886   3.523
 6081SOL    HW219143   1.606   3.855   3.363
 6082SOL     OW19144   5.058   1.412   1.324
 6082SOL    HW119145   5.043   1.463   1.239
 6082SOL    HW219146   5.017   1.321   1.316
 6083SOL     OW19147   4.748   0.796   6.414
 6083SOL    HW119148   4.822   0.834   6.470
 6083SOL    HW219149   4.660   0.833   6.444
 6084SOL     OW19150   6.891   5.634   2.593
 6084SOL    HW119151   6.801   5.598   2.568
 6084SOL    HW219152   6.956   5.559   2.600
 6085SOL     OW19153   0.319   6.717   0.649
 6085SOL    HW119154   0.389   6.779   0.684
 6085SOL    HW219155   0.362   6.635   0.612
 6086SOL     OW19156   3.523   4.341   0.140
 6086SOL    HW119157   3.470   4.258   0.157
 6086SOL    HW219158   3.604   4.340   0.198
 6087SOL     OW19159   5.296   0.147   0.831
 6087SOL    HW119160   5.311   0.180   0.924
 6087SOL    HW219161   5.382   0.154   0.779
 6088SOL     OW19162   4.856   5.839   3.134
 6088SOL    HW119163   4.837   5.782   3.055
 6088SOL    HW219164   4.941   5.891   3.118
 6089SOL     OW19165   6.077   3.953   3.855
 6089SOL    HW119166   6.044   4.045   3.835
 6089SOL    HW219167   6.171   3.957   3.887
 6090SOL     OW19168   3.901   5.751   4.069
 6090SOL    HW119169   3.927   5.731   4.163
 6090SOL    HW219170   3.895   5.666   4.017
 6091SOL     OW19171   1.518   1.549   1.779
 6091SOL    HW119172   1.467   1.582   1.858
 6091SOL    HW219173   1.516   1.449   1.777
 6092SOL     OW19174   2.606   6.564   0.975
 6092SOL    HW119175   2.644   6.648   1.014
 6092SOL    HW219176   2.636   6.485   1.028
 6093SOL     OW19177   2.523   2.399   2.611
 6093SOL    HW119178   2.459   2.476   2.612
 6093SOL    HW219179   2.582   2.403   2.691
 6094SOL     OW19180   0.597   6.134   5.054
 6094SOL    HW119181   0.657   6.091   4.987
 6094SOL    HW219182   0.554   6.065   5.112
 6095SOL     OW19183   4.633   4.780   2.065
 6095SOL    HW119184   4.611   4.685   2.086
 6095SOL    HW219185   4.732   4.794   2.070
 6096SOL     OW19186   5.389   5.974   3.150
 6096SOL    HW119187   5.358   6.023   3.232
 6096SOL    HW219188   5.424   5.884   3.177
 6097SOL     OW19189   2.218   4.844   2.440
 6097SOL    HW119190   2.124   4.808   2.437
 6097SOL    HW219191   2.225   4.922   2.377
 6098SOL     OW19192   0.045   0.558   4.993
 6098SOL    HW119193   7.006   0.550   5.072
 6098SOL    HW219194   7.016   0.542   4.909
 6099SOL     OW19195   3.315   0.647   5.896
 6099SOL    HW119196   3.358   0.570   5.850
 6099SOL    HW219197   3.283   0.619   5.987
 6100SOL     OW19198   0.266   5.920   4.998
 6100SOL    HW119199   0.334   5.898   5.068
 6100SOL    HW219200   0.313   5.945   4.913
 6101SOL     OW19201   7.004   3.440   1.780
 6101SOL    HW119202   0.066   3.395   1.752
 6101SOL    HW219203   6.938   3.438   1.705
 6102SOL     OW19204   3.679   0.378   2.751
 6102SOL    HW119205   3.600   0.384   2.690
 6102SOL    HW219206   3.672   0.295   2.806
 6103SOL     OW19207   6.332   1.526   1.911
 6103SOL    HW119208   6.377   1.444   1.877
 6103SOL    HW219209   6.389   1.570   1.980
 6104SOL     OW19210   0.141   0.846   4.775
 6104SOL    HW119211   0.079   0.800   4.712
 6104SOL    HW219212   0.148   0.943   4.750
 6105SOL     OW19213   2.927   4.659   5.574
 6105SOL    HW119214   2.853   4.692   5.632
 6105SOL    HW219215   2.928   4.712   5.489
 6106SOL     OW19216   6.091   5.098   5.224
 6106SOL    HW119217   6.045   5.149   5.151
 6106SOL    HW219218   6.047   5.118   5.311
 6107SOL     OW19219   5.470   5.700   5.162
 6107SOL    HW119220   5.543   5.717   5.227
 6107SOL    HW219221   5.441   5.604   5.167
 6108SOL     OW19222   2.067   1.348   6.955
 6108SOL    HW119223   2.033   1.428   6.906
 6108SOL    HW219224   2.044   1.356   0.029
 6109SOL     OW19225   6.665   6.966   3.752
 6109SOL    HW119226   6.597   6.925   3.812
 6109SOL    HW219227   6.756   6.935   3.779
 6110SOL     OW19228   1.775   1.301   4.326
 6110SOL    HW119229   1.868   1.336   4.336
 6110SOL    HW219230   1.778   1.201   4.316
 6111SOL     OW19231   1.789   4.103   0.933
 6111SOL    HW119232   1.788   4.074   1.028
 6111SOL    HW219233   1.879   4.086   0.893
 6112SOL     OW19234   4.626   6.364   3.240
 6112SOL    HW119235   4.559   6.403   3.178
 6112SOL    HW219236   4.581   6.337   3.326
 6113SOL     OW19237   2.705   5.110   1.044
 6113SOL    HW119238   2.790   5.159   1.024
 6113SOL    HW219239   2.697   5.031   0.984
 6114SOL     OW19240   5.722   2.363   0.221
 6114SOL    HW119241   5.708   2.361   0.320
 6114SOL    HW219242   5.695   2.452   0.185
 6115SOL     OW19243   1.249   0.238   6.209
 6115SOL    HW119244   1.280   0.174   6.140
 6115SOL    HW219245   1.270   0.332   6.180
 6116SOL     OW19246   5.583   2.729   6.622
 6116SOL    HW119247   5.561   2.671   6.701
 6116SOL    HW219248   5.615   2.673   6.546
 6117SOL     OW19249   1.974   1.891   1.199
 6117SOL    HW119250   2.050   1.945   1.236
 6117SOL    HW219251   1.980   1.797   1.235
 6118SOL     OW19252   6.032   0.835   1.392
 6118SOL    HW119253   6.047   0.777   1.472
 6118SOL    HW219254   5.959   0.797   1.336
 6119SOL     OW19255   0.108   1.569   6.889
 6119SOL    HW119256   0.174   1.510   6.841
 6119SOL    HW219257   0.128   1.665   6.867
 6120SOL     OW19258   2.598   0.838   4.751
 6120SOL    HW119259   2.609   0.933   4.778
 6120SOL    HW219260   2.625   0.778   4.826
 6121SOL     OW19261   0.921   2.282   5.338
 6121SOL    HW119262   1.015   2.311   5.356
 6121SOL    HW219263   0.891   2.219   5.410
 6122SOL     OW19264   4.818   4.716   5.384
 6122SOL    HW119265   4.885   4.667   5.439
 6122SOL    HW219266   4.751   4.759   5.445
 6123SOL     OW19267   5.469   1.356   5.406
 6123SOL    HW119268   5.442   1.261   5.424
 6123SOL    HW219269   5.568   1.363   5.402
 6124SOL     OW19270   2.541   6.112   3.933
 6124SOL    HW119271   2.447   6.103   3.901
 6124SOL    HW219272   2.592   6.173   3.873
 6125SOL     OW19273   3.052   2.306   6.219
 6125SOL    HW119274   3.027   2.266   6.307
 6125SOL    HW219275   3.134   2.262   6.183
 6126SOL     OW19276   5.965   3.014   5.353
 6126SOL    HW119277   5.994   3.025   5.448
 6126SOL    HW219278   5.912   3.095   5.325
 6127SOL     OW19279   4.448   1.957   2.181
 6127SOL    HW119280   4.383   2.027   2.152
 6127SOL    HW219281   4.464   1.966   2.279
 6128SOL     OW19282   5.600   5.646   0.095
 6128SOL    HW119283   5.557   5.695   0.171
 6128SOL    HW219284   5.555   5.673   0.010
 6129SOL     OW19285   1.719   5.564   2.214
 6129SOL    HW119286   1.659   5.550   2.135
 6129SOL    HW219287   1.665   5.591   2.293
 6130SOL     OW19288   6.292   2.423   7.018
 6130SOL    HW119289   6.215   2.361   7.006
 6130SOL    HW219290   6.263   2.517   6.998
 6131SOL     OW19291   6.627   1.699   2.590
 6131SOL    HW119292   6.560   1.625   2.592
 6131SOL    HW219293   6.692   1.687   2.665
 6132SOL     OW19294   3.649   1.410   5.944
 6132SOL    HW119295   3.712   1.484   5.921
 6132SOL    HW219296   3.691   1.322   5.920
 6133SOL     OW19297   1.320   2.183   3.155
 6133SOL    HW119298   1.320   2.278   3.123
 6133SOL    HW219299   1.227   2.154   3.176
 6134SOL     OW19300   6.872   0.018   5.964
 6134SOL    HW119301   6.821   6.956   5.946
 6134SOL    HW219302   6.947   7.021   6.028
 6135SOL     OW19303   6.996   0.038   6.897
 6135SOL    HW119304   0.005   7.003   6.821
 6135SOL    HW219305   6.914   7.020   6.937
 6136SOL     OW19306   0.869   2.574   2.143
 6136SOL    HW119307   0.891   2.650   2.205
 6136SOL    HW219308   0.877   2.607   2.048
 6137SOL     OW19309   6.584   4.054   2.205
 6137SOL    HW119310   6.684   4.061   2.198
 6137SOL    HW219311   6.553   3.968   2.164
 6138SOL     OW19312   4.259   0.227   2.016
 6138SOL    HW119313   4.268   0.227   1.916
 6138SOL    HW219314   4.349   0.211   2.057
 6139SOL     OW19315   1.177   0.468   5.132
 6139SOL    HW119316   1.254   0.422   5.090
 6139SOL    HW219317   1.207   0.555   5.171
 6140SOL     OW19318   1.818   0.233   3.235
 6140SOL    HW119319   1.897   0.176   3.256
 6140SOL    HW219320   1.734   0.179   3.241
 6141SOL     OW19321   0.643   0.837   6.263
 6141SOL    HW119322   0.624   0.930   6.232
 6141SOL    HW219323   0.571   0.808   6.326
 6142SOL     OW19324   6.867   0.428   1.385
 6142SOL    HW119325   6.859   0.428   1.485
 6142SOL    HW219326   6.951   0.475   1.359
 6143SOL     OW19327   6.933   4.093   5.460
 6143SOL    HW119328   6.954   4.000   5.430
 6143SOL    HW219329   6.848   4.092   5.514
 6144SOL     OW19330   4.387   5.068   2.476
 6144SOL    HW119331   4.433   4.994   2.427
 6144SOL    HW219332   4.360   5.036   2.567
 6145SOL     OW19333   4.931   3.509   3.976
 6145SOL    HW119334   4.968   3.505   4.068
 6145SOL    HW219335   4.997   3.555   3.916
 6146SOL     OW19336   5.504   0.079   5.179
 6146SOL    HW119337   5.544   0.034   5.259
 6146SOL    HW219338   5.524   0.026   5.097
 6147SOL     OW19339   1.603   2.477   4.561
 6147SOL    HW119340   1.703   2.471   4.558
 6147SOL    HW219341   1.568   2.493   4.469
 6148SOL     OW19342   3.118   5.846   6.987
 6148SOL    HW119343   3.201   5.858   6.933
 6148SOL    HW219344   3.093   5.750   6.991
 6149SOL     OW19345   2.777   1.181   1.350
 6149SOL    HW119346   2.874   1.198   1.333
 6149SOL    HW219347   2.723   1.260   1.322
 6150SOL     OW19348   0.995   4.259   5.381
 6150SOL    HW119349   1.048   4.179   5.410
 6150SOL    HW219350   1.050   4.341   5.391
 6151SOL     OW19351   4.290   5.621   3.922
 6151SOL    HW119352   4.220   5.690   3.938
 6151SOL    HW219353   4.376   5.650   3.962
 6152SOL     OW19354   1.332   4.080   4.335
 6152SOL    HW119355   1.390   4.161   4.330
 6152SOL    HW219356   1.387   4.001   4.360
 6153SOL     OW19357   5.313   5.307   1.367
 6153SOL    HW119358   5.258   5.294   1.285
 6153SOL    HW219359   5.392   5.364   1.346
 6154SOL     OW19360   4.938   3.299   2.212
 6154SOL    HW119361   5.023   3.257   2.246
 6154SOL    HW219362   4.860   3.258   2.259
 6155SOL     OW19363   1.926   1.425   2.928
 6155SOL    HW119364   1.916   1.392   2.834
 6155SOL    HW219365   1.838   1.418   2.975
 6156SOL     OW19366   5.125   4.797   1.589
 6156SOL    HW119367   5.222   4.796   1.613
 6156SOL    HW219368   5.097   4.891   1.567
 6157SOL     OW19369   1.325   2.443   2.068
 6157SOL    HW119370   1.256   2.400   2.127
 6157SOL    HW219371   1.283   2.471   1.982
 6158SOL     OW19372   3.138   2.159   4.730
 6158SOL    HW119373   3.150   2.212   4.814
 6158SOL    HW219374   3.227   2.143   4.688
 6159SOL     OW19375   6.479   2.973   1.059
 6159SOL    HW119376   6.428   2.936   1.137
 6159SOL    HW219377   6.430   2.950   0.974
 6160SOL     OW19378   1.752   0.658   1.115
 6160SOL    HW119379   1.675   0.604   1.081
 6160SOL    HW219380   1.790   0.713   1.040
 6161SOL     OW19381   4.168   3.127   6.434
 6161SOL    HW119382   4.071   3.131   6.409
 6161SOL    HW219383   4.209   3.217   6.423
 6162SOL     OW19384   6.386   5.257   2.916
 6162SOL    HW119385   6.361   5.172   2.870
 6162SOL    HW219386   6.391   5.240   3.015
 6163SOL     OW19387   5.709   6.160   3.836
 6163SOL    HW119388   5.724   6.104   3.918
 6163SOL    HW219389   5.651   6.238   3.859
 6164SOL     OW19390   2.879   3.409   4.883
 6164SOL    HW119391   2.955   3.356   4.846
 6164SOL    HW219392   2.792   3.367   4.856
 6165SOL     OW19393   3.727   1.360   0.171
 6165SOL    HW119394   3.772   1.427   0.113
 6165SOL    HW219395   3.783   1.344   0.253
 6166SOL     OW19396   1.762   3.128   6.607
 6166SOL    HW119397   1.718   3.071   6.677
 6166SOL    HW219398   1.783   3.072   6.527
 6167SOL     OW19399   1.829   3.620   3.128
 6167SOL    HW119400   1.773   3.537   3.131
 6167SOL    HW219401   1.925   3.595   3.136
 6168SOL     OW19402   0.672   3.974   3.382
 6168SOL    HW119403   0.598   4.042   3.383
 6168SOL    HW219404   0.634   3.884   3.404
 6169SOL     OW19405   2.228   0.460   0.217
 6169SOL    HW119406   2.328   0.453   0.207
 6169SOL    HW219407   2.203   0.557   0.226
 6170SOL     OW19408   3.057   3.612   7.003
 6170SOL    HW119409   3.001   3.533   6.977
 6170SOL    HW219410   3.025   3.693   6.954
 6171SOL     OW19411   2.085   3.827   2.193
 6171SOL    HW119412   2.040   3.915   2.177
 6171SOL    HW219413   2.113   3.787   2.105
 6172SOL     OW19414   2.006   5.941   2.646
 6172SOL    HW119415   1.948   5.895   2.713
 6172SOL    HW219416   1.970   6.032   2.627
 6173SOL     OW19417   1.209   5.829   2.228
 6173SOL    HW119418   1.110   5.829   2.240
 6173SOL    HW219419   1.249   5.750   2.275
 6174SOL     OW19420   5.648   5.508   2.740
 6174SOL    HW119421   5.559   5.479   2.705
 6174SOL    HW219422   5.708   5.533   2.664
 6175SOL     OW19423   4.920   0.325   3.228
 6175SOL    HW119424   4.940   0.391   3.301
 6175SOL    HW219425   4.971   0.350   3.145
 6176SOL     OW19426   6.343   3.045   5.558
 6176SOL    HW119427   6.314   3.141   5.559
 6176SOL    HW219428   6.442   3.041   5.554
 6177SOL     OW19429   6.481   2.596   0.470
 6177SOL    HW119430   6.396   2.612   0.520
 6177SOL    HW219431   6.472   2.630   0.377
 6178SOL     OW19432   5.885   3.270   1.172
 6178SOL    HW119433   5.858   3.175   1.157
 6178SOL    HW219434   5.961   3.274   1.237
 6179SOL     OW19435   0.656   1.949   5.818
 6179SOL    HW119436   0.617   1.922   5.906
 6179SOL    HW219437   0.582   1.970   5.754
 6180SOL     OW19438   3.427   0.078   7.017
 6180SOL    HW119439   3.492   0.125   6.957
 6180SOL    HW219440   3.374   0.012   6.964
 6181SOL     OW19441   5.099   6.293   0.029
 6181SOL    HW119442   5.086   6.379   0.078
 6181SOL    HW219443   5.193   6.289   7.016
 6182SOL     OW19444   4.348   6.138   6.702
 6182SOL    HW119445   4.391   6.102   6.785
 6182SOL    HW219446   4.291   6.217   6.726
 6183SOL     OW19447   3.537   0.262   3.272
 6183SOL    HW119448   3.630   0.234   3.294
 6183SOL    HW219449   3.475   0.185   3.287
 6184SOL     OW19450   0.540   0.392   6.864
 6184SOL    HW119451   0.535   0.293   6.879
 6184SOL    HW219452   0.540   0.411   6.766
 6185SOL     OW19453   0.826   3.377   5.662
 6185SOL    HW119454   0.846   3.325   5.579
 6185SOL    HW219455   0.904   3.371   5.725
 6186SOL     OW19456   5.918   0.222   4.896
 6186SOL    HW119457   5.873   0.301   4.855
 6186SOL    HW219458   5.974   0.176   4.827
 6187SOL     OW19459   3.899   4.997   4.347
 6187SOL    HW119460   3.818   4.973   4.401
 6187SOL    HW219461   3.933   4.915   4.301
 6188SOL     OW19462   2.567   6.350   1.438
 6188SOL    HW119463   2.599   6.441   1.467
 6188SOL    HW219464   2.637   6.282   1.458
 6189SOL     OW19465   6.234   4.781   3.257
 6189SOL    HW119466   6.230   4.839   3.339
 6189SOL    HW219467   6.210   4.688   3.282
 6190SOL     OW19468   5.339   2.602   0.189
 6190SOL    HW119469   5.325   2.511   0.229
 6190SOL    HW219470   5.275   2.615   0.114
 6191SOL     OW19471   6.570   2.640   6.797
 6191SOL    HW119472   6.566   2.548   6.838
 6191SOL    HW219473   6.492   2.653   6.736
 6192SOL     OW19474   3.230   2.913   0.073
 6192SOL    HW119475   3.326   2.887   0.080
 6192SOL    HW219476   3.207   2.925   6.999
 6193SOL     OW19477   6.401   0.158   1.137
 6193SOL    HW119478   6.342   0.143   1.217
 6193SOL    HW219479   6.404   0.255   1.116
 6194SOL     OW19480   2.197   0.592   0.446
 6194SOL    HW119481   2.226   0.499   0.422
 6194SOL    HW219482   2.226   0.613   0.539
 6195SOL     OW19483   3.429   6.994   6.201
 6195SOL    HW119484   3.492   0.009   6.270
 6195SOL    HW219485   3.366   6.930   6.246
 6196SOL     OW19486   0.207   1.232   6.345
 6196SOL    HW119487   0.267   1.210   6.422
 6196SOL    HW219488   0.235   1.318   6.304
 6197SOL     OW19489   2.345   3.603   0.340
 6197SOL    HW119490   2.317   3.616   0.435
 6197SOL    HW219491   2.375   3.509   0.326
 6198SOL     OW19492   4.012   4.762   2.650
 6198SOL    HW119493   3.986   4.762   2.553
 6198SOL    HW219494   3.930   4.775   2.706
 6199SOL     OW19495   1.703   6.678   6.024
 6199SOL    HW119496   1.630   6.689   6.091
 6199SOL    HW219497   1.765   6.605   6.053
 6200SOL     OW19498   4.205   0.155   6.073
 6200SOL    HW119499   4.247   0.211   6.002
 6200SOL    HW219500   4.112   0.188   6.092
 6201SOL     OW19501   1.888   4.604   5.011
 6201SOL    HW119502   1.815   4.605   4.942
 6201SOL    HW219503   1.889   4.691   5.059
 6202SOL     OW19504   3.066   2.177   1.423
 6202SOL    HW119505   3.152   2.134   1.452
 6202SOL    HW219506   2.998   2.107   1.404
 6203SOL     OW19507   4.445   1.504   5.367
 6203SOL    HW119508   4.526   1.446   5.365
 6203SOL    HW219509   4.424   1.535   5.275
 6204SOL     OW19510   1.633   6.396   5.750
 6204SOL    HW119511   1.655   6.373   5.845
 6204SOL    HW219512   1.711   6.444   5.709
 6205SOL     OW19513   5.541   6.114   7.019
 6205SOL    HW119514   5.545   6.039   6.952
 6205SOL    HW219515   5.536   6.076   0.089
 6206SOL     OW19516   5.235   0.373   3.273
 6206SOL    HW119517   5.293   0.294   3.257
 6206SOL    HW219518   5.271   0.452   3.223
 6207SOL     OW19519   1.674   3.684   4.643
 6207SOL    HW119520   1.692   3.781   4.627
 6207SOL    HW219521   1.731   3.628   4.582
 6208SOL     OW19522   5.842   6.609   6.001
 6208SOL    HW119523   5.887   6.604   6.090
 6208SOL    HW219524   5.849   6.520   5.955
 6209SOL     OW19525   3.653   5.216   1.170
 6209SOL    HW119526   3.570   5.272   1.169
 6209SOL    HW219527   3.717   5.253   1.238
 6210SOL     OW19528   5.798   4.432   3.869
 6210SOL    HW119529   5.698   4.427   3.877
 6210SOL    HW219530   5.829   4.521   3.903
 6211SOL     OW19531   2.924   0.164   4.751
 6211SOL    HW119532   2.939   0.098   4.678
 6211SOL    HW219533   2.840   0.216   4.732
 6212SOL     OW19534   6.957   6.492   3.273
 6212SOL    HW119535   6.976   6.589   3.265
 6212SOL    HW219536   6.859   6.478   3.288
 6213SOL     OW19537   0.219   6.378   6.307
 6213SOL    HW119538   0.239   6.396   6.403
 6213SOL    HW219539   0.230   6.462   6.254
 6214SOL     OW19540   6.433   4.636   2.916
 6214SOL    HW119541   6.424   4.720   2.970
 6214SOL    HW219542   6.462   4.561   2.976
 6215SOL     OW19543   3.048   3.554   0.712
 6215SOL    HW119544   3.070   3.494   0.635
 6215SOL    HW219545   2.989   3.628   0.680
 6216SOL     OW19546   5.869   1.347   2.808
 6216SOL    HW119547   5.943   1.411   2.789
 6216SOL    HW219548   5.875   1.269   2.746
 6217SOL     OW19549   5.277   3.276   1.884
 6217SOL    HW119550   5.196   3.227   1.853
 6217SOL    HW219551   5.327   3.221   1.950
 6218SOL     OW19552   3.646   5.436   5.529
 6218SOL    HW119553   3.613   5.346   5.556
 6218SOL    HW219554   3.611   5.459   5.438
 6219SOL     OW19555   0.530   1.695   4.625
 6219SOL    HW119556   0.624   1.662   4.629
 6219SOL    HW219557   0.524   1.768   4.556
 6220SOL     OW19558   1.815   4.202   5.155
 6220SOL    HW119559   1.865   4.268   5.098
 6220SOL    HW219560   1.874   4.124   5.174
 6221SOL     OW19561   3.433   5.238   5.069
 6221SOL    HW119562   3.346   5.256   5.022
 6221SOL    HW219563   3.432   5.144   5.105
 6222SOL     OW19564   6.993   1.068   0.604
 6222SOL    HW119565   6.956   0.989   0.654
 6222SOL    HW219566   7.010   1.043   0.509
 6223SOL     OW19567   5.041   3.201   4.797
 6223SOL    HW119568   5.141   3.194   4.798
 6223SOL    HW219569   5.014   3.295   4.821
 6224SOL     OW19570   2.582   1.065   5.250
 6224SOL    HW119571   2.679   1.039   5.246
 6224SOL    HW219572   2.575   1.165   5.244
 6225SOL     OW19573   3.803   2.646   0.460
 6225SOL    HW119574   3.846   2.667   0.372
 6225SOL    HW219575   3.805   2.727   0.518
 6226SOL     OW19576   5.520   0.332   4.794
 6226SOL    HW119577   5.483   0.424   4.807
 6226SOL    HW219578   5.619   0.334   4.805
 6227SOL     OW19579   3.340   4.887   6.212
 6227SOL    HW119580   3.380   4.801   6.182
 6227SOL    HW219581   3.410   4.943   6.255
 6228SOL     OW19582   6.574   0.684   3.796
 6228SOL    HW119583   6.664   0.711   3.761
 6228SOL    HW219584   6.538   0.609   3.742
 6229SOL     OW19585   2.301   2.764   2.121
 6229SOL    HW119586   2.206   2.736   2.136
 6229SOL    HW219587   2.355   2.684   2.094
 6230SOL     OW19588   2.436   2.139   3.529
 6230SOL    HW119589   2.344   2.110   3.557
 6230SOL    HW219590   2.504   2.086   3.578
 6231SOL     OW19591   0.089   4.893   1.530
 6231SOL    HW119592   7.021   4.867   1.564
 6231SOL    HW219593   0.128   4.963   1.590
 6232SOL     OW19594   0.984   1.251   6.637
 6232SOL    HW119595   0.985   1.201   6.724
 6232SOL    HW219596   1.070   1.301   6.627
 6233SOL     OW19597   4.626   2.302   7.001
 6233SOL    HW119598   4.680   2.361   0.038
 6233SOL    HW219599   4.674   2.215   6.989
 6234SOL     OW19600   2.469   2.109   3.903
 6234SOL    HW119601   2.380   2.154   3.896
 6234SOL    HW219602   2.462   2.015   3.869
 6235SOL     OW19603   2.516   6.653   3.184
 6235SOL    HW119604   2.430   6.603   3.198
 6235SOL    HW219605   2.561   6.668   3.272
 6236SOL     OW19606   6.617   4.256   0.397
 6236SOL    HW119607   6.651   4.208   0.479
 6236SOL    HW219608   6.573   4.342   0.425
 6237SOL     OW19609   4.633   0.194   0.705
 6237SOL    HW119610   4.619   0.191   0.606
 6237SOL    HW219611   4.696   0.122   0.732
 6238SOL     OW19612   4.679   4.755   1.252
 6238SOL    HW119613   4.676   4.721   1.158
 6238SOL    HW219614   4.774   4.756   1.283
 6239SOL     OW19615   2.721   0.217   3.642
 6239SOL    HW119616   2.662   0.296   3.659
 6239SOL    HW219617   2.668   0.133   3.649
 6240SOL     OW19618   1.983   4.105   0.736
 6240SOL    HW119619   1.956   4.031   0.675
 6240SOL    HW219620   1.946   4.192   0.702
 6241SOL     OW19621   4.825   0.344   1.640
 6241SOL    HW119622   4.773   0.310   1.718
 6241SOL    HW219623   4.791   0.302   1.556
 6242SOL     OW19624   4.580   2.110   3.445
 6242SOL    HW119625   4.484   2.097   3.422
 6242SOL    HW219626   4.627   2.022   3.443
 6243SOL     OW19627   6.553   5.696   3.814
 6243SOL    HW119628   6.569   5.788   3.779
 6243SOL    HW219629   6.511   5.640   3.743
 6244SOL     OW19630   2.191   1.496   2.031
 6244SOL    HW119631   2.279   1.498   2.079
 6244SOL    HW219632   2.171   1.403   2.000
 6245SOL     OW19633   2.957   4.173   0.593
 6245SOL    HW119634   2.905   4.169   0.507
 6245SOL    HW219635   3.037   4.115   0.586
 6246SOL     OW19636   2.591   1.073   6.096
 6246SOL    HW119637   2.656   1.022   6.040
 6246SOL    HW219638   2.503   1.027   6.097
 6247SOL     OW19639   0.166   6.021   2.557
 6247SOL    HW119640   0.234   5.953   2.527
 6247SOL    HW219641   0.182   6.107   2.508
 6248SOL     OW19642   0.227   4.643   1.553
 6248SOL    HW119643   0.327   4.645   1.555
 6248SOL    HW219644   0.192   4.729   1.518
 6249SOL     OW19645   5.238   4.123   6.296
 6249SOL    HW119646   5.232   4.051   6.227
 6249SOL    HW219647   5.294   4.092   6.372
 6250SOL     OW19648   5.465   5.873   6.624
 6250SOL    HW119649   5.407   5.919   6.557
 6250SOL    HW219650   5.522   5.805   6.577
 6251SOL     OW19651   4.284   1.675   0.942
 6251SOL    HW119652   4.266   1.609   1.015
 6251SOL    HW219653   4.201   1.688   0.888
 6252SOL     OW19654   2.347   6.216   5.304
 6252SOL    HW119655   2.284   6.276   5.354
 6252SOL    HW219656   2.351   6.245   5.208
 6253SOL     OW19657   1.667   3.779   1.194
 6253SOL    HW119658   1.758   3.820   1.194
 6253SOL    HW219659   1.673   3.684   1.161
 6254SOL     OW19660   5.229   0.589   0.153
 6254SOL    HW119661   5.305   0.648   0.179
 6254SOL    HW219662   5.241   0.558   0.059
 6255SOL     OW19663   0.535   1.339   2.372
 6255SOL    HW119664   0.475   1.300   2.442
 6255SOL    HW219665   0.486   1.345   2.285
 6256SOL     OW19666   3.207   5.026   2.638
 6256SOL    HW119667   3.201   4.987   2.546
 6256SOL    HW219668   3.179   4.958   2.706
 6257SOL     OW19669   5.218   2.511   6.761
 6257SOL    HW119670   5.306   2.553   6.780
 6257SOL    HW219671   5.224   2.412   6.776
 6258SOL     OW19672   5.115   1.418   2.455
 6258SOL    HW119673   5.148   1.473   2.378
 6258SOL    HW219674   5.058   1.344   2.420
 6259SOL     OW19675   3.039   2.575   1.604
 6259SOL    HW119676   2.984   2.494   1.624
 6259SOL    HW219677   3.132   2.546   1.580
 6260SOL     OW19678   3.729   3.272   6.901
 6260SOL    HW119679   3.749   3.288   6.997
 6260SOL    HW219680   3.725   3.173   6.884
 6261SOL     OW19681   4.128   1.167   0.436
 6261SOL    HW119682   4.048   1.211   0.397
 6261SOL    HW219683   4.148   1.208   0.525
 6262SOL     OW19684   0.288   5.257   6.078
 6262SOL    HW119685   0.254   5.208   5.998
 6262SOL    HW219686   0.388   5.250   6.081
 6263SOL     OW19687   6.341   0.645   0.625
 6263SOL    HW119688   6.315   0.656   0.529
 6263SOL    HW219689   6.279   0.698   0.683
 6264SOL     OW19690   2.524   1.804   0.407
 6264SOL    HW119691   2.465   1.776   0.332
 6264SOL    HW219692   2.478   1.787   0.494
 6265SOL     OW19693   3.708   3.047   1.227
 6265SOL    HW119694   3.629   3.067   1.285
 6265SOL    HW219695   3.679   2.993   1.148
 6266SOL     OW19696   2.530   0.285   2.882
 6266SOL    HW119697   2.455   0.226   2.855
 6266SOL    HW219698   2.616   0.246   2.849
 6267SOL     OW19699   3.011   0.182   6.558
 6267SOL    HW119700   3.016   0.131   6.645
 6267SOL    HW219701   3.098   0.172   6.509
 6268SOL     OW19702   3.364   5.262   2.521
 6268SOL    HW119703   3.326   5.189   2.578
 6268SOL    HW219704   3.336   5.350   2.558
 6269SOL     OW19705   6.104   4.499   0.653
 6269SOL    HW119706   6.114   4.405   0.622
 6269SOL    HW219707   6.172   4.557   0.609
 6270SOL     OW19708   0.401   0.783   4.804
 6270SOL    HW119709   0.306   0.795   4.775
 6270SOL    HW219710   0.404   0.761   4.902
 6271SOL     OW19711   5.781   1.598   0.773
 6271SOL    HW119712   5.803   1.686   0.729
 6271SOL    HW219713   5.718   1.547   0.716
 6272SOL     OW19714   1.410   2.046   3.423
 6272SOL    HW119715   1.391   2.086   3.333
 6272SOL    HW219716   1.467   2.110   3.475
 6273SOL     OW19717   3.606   0.887   1.716
 6273SOL    HW119718   3.632   0.807   1.771
 6273SOL    HW219719   3.552   0.858   1.638
 6274SOL     OW19720   3.700   7.006   6.655
 6274SOL    HW119721   3.752   6.985   6.738
 6274SOL    HW219722   3.762   7.005   6.577
 6275SOL     OW19723   2.661   1.100   4.757
 6275SOL    HW119724   2.674   1.188   4.802
 6275SOL    HW219725   2.670   1.113   4.658
 6276SOL     OW19726   1.277   5.795   3.824
 6276SOL    HW119727   1.248   5.823   3.732
 6276SOL    HW219728   1.198   5.761   3.875
 6277SOL     OW19729   5.538   3.365   2.923
 6277SOL    HW119730   5.567   3.282   2.970
 6277SOL    HW219731   5.585   3.372   2.835
 6278SOL     OW19732   5.420   0.507   4.381
 6278SOL    HW119733   5.339   0.565   4.366
 6278SOL    HW219734   5.502   0.563   4.373
 6279SOL     OW19735   5.118   1.721   0.360
 6279SOL    HW119736   5.029   1.705   0.317
 6279SOL    HW219737   5.130   1.660   0.438
 6280SOL     OW19738   0.646   4.603   5.683
 6280SOL    HW119739   0.638   4.504   5.672
 6280SOL    HW219740   0.617   4.648   5.598
 6281SOL     OW19741   2.763   6.761   5.540
 6281SOL    HW119742   2.670   6.729   5.519
 6281SOL    HW219743   2.781   6.846   5.490
 6282SOL     OW19744   1.710   6.790   3.862
 6282SOL    HW119745   1.751   6.844   3.788
 6282SOL    HW219746   1.610   6.792   3.853
 6283SOL     OW19747   0.107   2.173   5.109
 6283SOL    HW119748   0.109   2.093   5.169
 6283SOL    HW219749   0.200   2.204   5.091
 6284SOL     OW19750   2.278   4.188   6.179
 6284SOL    HW119751   2.333   4.191   6.263
 6284SOL    HW219752   2.231   4.276   6.167
 6285SOL     OW19753   1.904   4.357   2.125
 6285SOL    HW119754   1.962   4.417   2.071
 6285SOL    HW219755   1.954   4.325   2.205
 6286SOL     OW19756   5.703   1.166   4.336
 6286SOL    HW119757   5.773   1.231   4.305
 6286SOL    HW219758   5.613   1.201   4.313
 6287SOL     OW19759   4.760   4.389   2.069
 6287SOL    HW119760   4.665   4.367   2.049
 6287SOL    HW219761   4.808   4.306   2.098
 6288SOL     OW19762   5.144   3.238   1.013
 6288SOL    HW119763   5.194   3.308   1.065
 6288SOL    HW219764   5.052   3.271   0.994
 6289SOL     OW19765   1.428   1.010   3.509
 6289SOL    HW119766   1.472   1.025   3.420
 6289SOL    HW219767   1.341   1.060   3.512
 6290SOL     OW19768   5.711   3.609   3.701
 6290SOL    HW119769   5.782   3.560   3.652
 6290SOL    HW219770   5.637   3.632   3.638
 6291SOL     OW19771   3.377   4.129   2.857
 6291SOL    HW119772   3.301   4.097   2.801
 6291SOL    HW219773   3.361   4.104   2.953
 6292SOL     OW19774   0.998   1.998   1.906
 6292SOL    HW119775   0.964   2.088   1.878
 6292SOL    HW219776   1.060   2.009   1.984
 6293SOL     OW19777   4.832   0.169   0.471
 6293SOL    HW119778   4.827   0.264   0.442
 6293SOL    HW219779   4.926   0.136   0.462
 6294SOL     OW19780   4.398   5.363   2.517
 6294SOL    HW119781   4.384   5.272   2.476
 6294SOL    HW219782   4.376   5.433   2.450
 6295SOL     OW19783   5.839   6.812   6.295
 6295SOL    HW119784   5.878   6.862   6.372
 6295SOL    HW219785   5.908   6.749   6.258
 6296SOL     OW19786   6.476   0.935   3.479
 6296SOL    HW119787   6.413   0.996   3.430
 6296SOL    HW219788   6.477   0.960   3.576
 6297SOL     OW19789   5.375   0.126   5.846
 6297SOL    HW119790   5.449   0.188   5.872
 6297SOL    HW219791   5.289   0.161   5.881
 6298SOL     OW19792   1.335   1.987   4.785
 6298SOL    HW119793   1.259   2.015   4.844
 6298SOL    HW219794   1.391   2.067   4.762
 6299SOL     OW19795   6.247   3.174   0.021
 6299SOL    HW119796   6.302   3.223   0.090
 6299SOL    HW219797   6.241   3.230   6.961
 6300SOL     OW19798   5.371   0.629   3.833
 6300SOL    HW119799   5.466   0.645   3.806
 6300SOL    HW219800   5.368   0.609   3.931
 6301SOL     OW19801   3.053   6.779   0.547
 6301SOL    HW119802   3.107   6.811   0.624
 6301SOL    HW219803   3.061   6.679   0.539
 6302SOL     OW19804   1.070   0.727   3.656
 6302SOL    HW119805   1.161   0.726   3.613
 6302SOL    HW219806   1.079   0.753   3.752
 6303SOL     OW19807   2.190   5.993   5.361
 6303SOL    HW119808   2.233   5.958   5.444
 6303SOL    HW219809   2.254   6.053   5.313
 6304SOL     OW19810   3.330   1.227   6.568
 6304SOL    HW119811   3.260   1.156   6.570
 6304SOL    HW219812   3.323   1.278   6.483
 6305SOL     OW19813   5.951   1.094   1.418
 6305SOL    HW119814   5.984   1.178   1.377
 6305SOL    HW219815   5.980   1.015   1.363
 6306SOL     OW19816   6.129   2.625   4.180
 6306SOL    HW119817   6.061   2.556   4.204
 6306SOL    HW219818   6.125   2.642   4.081
 6307SOL     OW19819   2.662   4.725   0.938
 6307SOL    HW119820   2.626   4.740   1.030
 6307SOL    HW219821   2.665   4.812   0.889
 6308SOL     OW19822   2.944   2.329   5.292
 6308SOL    HW119823   2.882   2.332   5.213
 6308SOL    HW219824   3.034   2.361   5.264
 6309SOL     OW19825   5.792   1.948   4.420
 6309SOL    HW119826   5.888   1.924   4.404
 6309SOL    HW219827   5.783   2.047   4.427
 6310SOL     OW19828   1.379   4.862   4.843
 6310SOL    HW119829   1.454   4.806   4.879
 6310SOL    HW219830   1.319   4.805   4.787
 6311SOL     OW19831   6.190   0.174   5.028
 6311SOL    HW119832   6.245   0.225   4.961
 6311SOL    HW219833   6.093   0.187   5.008
 6312SOL     OW19834   4.227   5.041   5.921
 6312SOL    HW119835   4.250   4.947   5.945
 6312SOL    HW219836   4.291   5.104   5.965
 6313SOL     OW19837   2.572   5.105   3.222
 6313SOL    HW119838   2.589   5.088   3.320
 6313SOL    HW219839   2.660   5.119   3.176
 6314SOL     OW19840   3.158   6.128   3.590
 6314SOL    HW119841   3.197   6.204   3.539
 6314SOL    HW219842   3.224   6.052   3.591
 6315SOL     OW19843   3.208   3.195   0.641
 6315SOL    HW119844   3.258   3.115   0.609
 6315SOL    HW219845   3.182   3.252   0.563
 6316SOL     OW19846   5.436   1.878   6.305
 6316SOL    HW119847   5.376   1.908   6.231
 6316SOL    HW219848   5.409   1.787   6.336
 6317SOL     OW19849   6.331   6.152   4.290
 6317SOL    HW119850   6.424   6.142   4.255
 6317SOL    HW219851   6.328   6.120   4.385
 6318SOL     OW19852   2.555   1.743   4.642
 6318SOL    HW119853   2.651   1.725   4.663
 6318SOL    HW219854   2.504   1.657   4.643
 6319SOL     OW19855   0.713   1.814   2.913
 6319SOL    HW119856   0.674   1.898   2.876
 6319SOL    HW219857   0.802   1.797   2.870
 6320SOL     OW19858   6.819   2.760   3.506
 6320SOL    HW119859   6.815   2.665   3.475
 6320SOL    HW219860   6.824   2.762   3.606
 6321SOL     OW19861   2.063   3.730   0.544
 6321SOL    HW119862   2.024   3.639   0.558
 6321SOL    HW219863   2.156   3.732   0.581
 6322SOL     OW19864   1.279   1.133   0.028
 6322SOL    HW119865   1.347   1.060   0.021
 6322SOL    HW219866   1.325   1.221   0.036
 6323SOL     OW19867   3.716   2.063   0.647
 6323SOL    HW119868   3.760   2.142   0.691
 6323SOL    HW219869   3.641   2.031   0.705
 6324SOL     OW19870   4.381   1.117   6.401
 6324SOL    HW119871   4.326   1.177   6.459
 6324SOL    HW219872   4.333   1.103   6.314
 6325SOL     OW19873   1.226   2.071   2.378
 6325SOL    HW119874   1.200   2.115   2.464
 6325SOL    HW219875   1.215   1.972   2.386
 6326SOL     OW19876   5.030   5.862   1.092
 6326SOL    HW119877   4.988   5.784   1.045
 6326SOL    HW219878   4.962   5.906   1.151
 6327SOL     OW19879   4.876   5.516   5.887
 6327SOL    HW119880   4.965   5.560   5.889
 6327SOL    HW219881   4.806   5.582   5.862
 6328SOL     OW19882   2.939   4.057   6.223
 6328SOL    HW119883   2.856   4.037   6.170
 6328SOL    HW219884   2.914   4.072   6.318
 6329SOL     OW19885   0.980   1.895   3.363
 6329SOL    HW119886   1.060   1.839   3.387
 6329SOL    HW219887   0.918   1.899   3.441
 6330SOL     OW19888   3.271   1.801   0.329
 6330SOL    HW119889   3.346   1.866   0.339
 6330SOL    HW219890   3.238   1.775   0.420
 6331SOL     OW19891   5.921   3.346   1.727
 6331SOL    HW119892   6.004   3.319   1.775
 6331SOL    HW219893   5.842   3.303   1.771
 6332SOL     OW19894   5.800   6.459   1.705
 6332SOL    HW119895   5.835   6.407   1.783
 6332SOL    HW219896   5.876   6.508   1.661
 6333SOL     OW19897   2.619   4.965   2.835
 6333SOL    HW119898   2.551   5.022   2.883
 6333SOL    HW219899   2.694   5.023   2.802
 6334SOL     OW19900   2.246   1.716   2.712
 6334SOL    HW119901   2.301   1.797   2.691
 6334SOL    HW219902   2.167   1.712   2.650
 6335SOL     OW19903   6.664   1.511   0.189
 6335SOL    HW119904   6.573   1.550   0.184
 6335SOL    HW219905   6.667   1.444   0.264
 6336SOL     OW19906   0.599   2.638   4.989
 6336SOL    HW119907   0.675   2.636   5.054
 6336SOL    HW219908   0.515   2.664   5.038
 6337SOL     OW19909   6.605   4.652   5.323
 6337SOL    HW119910   6.554   4.598   5.390
 6337SOL    HW219911   6.702   4.628   5.330
 6338SOL     OW19912   3.864   1.157   3.552
 6338SOL    HW119913   3.954   1.170   3.512
 6338SOL    HW219914   3.873   1.110   3.640
 6339SOL     OW19915   6.758   2.026   4.663
 6339SOL    HW119916   6.771   2.123   4.679
 6339SOL    HW219917   6.790   1.975   4.743
 6340SOL     OW19918   2.014   5.364   3.956
 6340SOL    HW119919   1.920   5.332   3.970
 6340SOL    HW219920   2.078   5.302   4.003
 6341SOL     OW19921   6.998   4.086   2.952
 6341SOL    HW119922   6.974   4.032   3.033
 6341SOL    HW219923   6.938   4.062   2.876
 6342SOL     OW19924   1.618   2.918   0.888
 6342SOL    HW119925   1.615   2.836   0.946
 6342SOL    HW219926   1.585   2.996   0.941
 6343SOL     OW19927   3.838   0.995   0.042
 6343SOL    HW119928   3.845   1.082   7.016
 6343SOL    HW219929   3.929   0.965   0.070
 6344SOL     OW19930   0.682   4.009   4.365
 6344SOL    HW119931   0.679   4.025   4.463
 6344SOL    HW219932   0.772   3.975   4.339
 6345SOL     OW19933   3.281   1.930   2.548
 6345SOL    HW119934   3.347   1.949   2.475
 6345SOL    HW219935   3.190   1.958   2.519
 6346SOL     OW19936   0.589   5.031   3.822
 6346SOL    HW119937   0.677   5.078   3.809
 6346SOL    HW219938   0.539   5.074   3.897
 6347SOL     OW19939   3.604   0.570   1.598
 6347SOL    HW119940   3.650   0.594   1.683
 6347SOL    HW219941   3.671   0.535   1.532
 6348SOL     OW19942   1.676   2.771   4.197
 6348SOL    HW119943   1.727   2.739   4.118
 6348SOL    HW219944   1.642   2.864   4.179
 6349SOL     OW19945   2.559   0.344   0.380
 6349SOL    HW119946   2.570   0.254   0.421
 6349SOL    HW219947   2.531   0.335   0.285
 6350SOL     OW19948   1.455   6.176   2.074
 6350SOL    HW119949   1.387   6.123   2.125
 6350SOL    HW219950   1.492   6.120   2.000
 6351SOL     OW19951   0.398   1.223   2.912
 6351SOL    HW119952   0.400   1.241   3.010
 6351SOL    HW219953   0.354   1.135   2.895
 6352SOL     OW19954   0.012   5.932   2.062
 6352SOL    HW119955   0.042   5.951   1.969
 6352SOL    HW219956   6.941   5.897   2.061
 6353SOL     OW19957   0.221   6.751   2.202
 6353SOL    HW119958   0.262   6.714   2.119
 6353SOL    HW219959   0.164   6.830   2.178
 6354SOL     OW19960   0.620   6.867   3.724
 6354SOL    HW119961   0.556   6.827   3.658
 6354SOL    HW219962   0.669   6.794   3.771
 6355SOL     OW19963   2.155   2.299   2.906
 6355SOL    HW119964   2.144   2.269   3.001
 6355SOL    HW219965   2.119   2.229   2.845
 6356SOL     OW19966   3.368   3.547   1.151
 6356SOL    HW119967   3.275   3.560   1.117
 6356SOL    HW219968   3.365   3.535   1.251
 6357SOL     OW19969   4.343   2.270   0.086
 6357SOL    HW119970   4.442   2.259   0.078
 6357SOL    HW219971   4.321   2.319   0.171
 6358SOL     OW19972   0.383   2.323   3.728
 6358SOL    HW119973   0.325   2.317   3.647
 6358SOL    HW219974   0.378   2.415   3.767
 6359SOL     OW19975   0.290   1.176   6.887
 6359SOL    HW119976   0.205   1.155   6.934
 6359SOL    HW219977   0.350   1.228   6.948
 6360SOL     OW19978   3.095   5.788   4.192
 6360SOL    HW119979   3.063   5.746   4.277
 6360SOL    HW219980   3.079   5.886   4.195
 6361SOL     OW19981   3.821   6.279   6.199
 6361SOL    HW119982   3.917   6.252   6.188
 6361SOL    HW219983   3.813   6.378   6.185
 6362SOL     OW19984   6.220   5.250   6.394
 6362SOL    HW119985   6.185   5.330   6.442
 6362SOL    HW219986   6.299   5.276   6.338
 6363SOL     OW19987   0.935   5.997   3.769
 6363SOL    HW119988   0.939   5.899   3.786
 6363SOL    HW219989   0.954   6.015   3.673
 6364SOL     OW19990   2.549   2.422   5.944
 6364SOL    HW119991   2.531   2.414   5.846
 6364SOL    HW219992   2.630   2.479   5.958
 6365SOL     OW19993   5.254   6.053   2.603
 6365SOL    HW119994   5.159   6.060   2.635
 6365SOL    HW219995   5.315   6.046   2.682
 6366SOL     OW19996   0.132   4.870   6.049
 6366SOL    HW119997   0.038   4.841   6.031
 6366SOL    HW219998   0.191   4.790   6.054
 6367SOL     OW19999   5.909   6.258   3.310
 6367SOL    HW120000   5.998   6.302   3.315
 6367SOL    HW220001   5.920   6.161   3.293
 6368SOL     OW20002   2.486   0.236   3.957
 6368SOL    HW120003   2.576   0.275   3.976
 6368SOL    HW220004   2.419   0.277   4.019
 6369SOL     OW20005   2.347   5.487   4.662
 6369SOL    HW120006   2.294   5.483   4.746
 6369SOL    HW220007   2.329   5.573   4.614
 6370SOL     OW20008   6.004   2.667   1.525
 6370SOL    HW120009   6.064   2.726   1.470
 6370SOL    HW220010   5.940   2.725   1.576
 6371SOL     OW20011   4.787   2.311   2.884
 6371SOL    HW120012   4.797   2.339   2.788
 6371SOL    HW220013   4.852   2.362   2.940
 6372SOL     OW20014   3.007   6.331   2.808
 6372SOL    HW120015   2.907   6.337   2.803
 6372SOL    HW220016   3.046   6.423   2.809
 6373SOL     OW20017   3.453   4.610   0.150
 6373SOL    HW120018   3.455   4.510   0.150
 6373SOL    HW220019   3.539   4.645   0.187
 6374SOL     OW20020   3.219   2.923   2.536
 6374SOL    HW120021   3.138   2.874   2.503
 6374SOL    HW220022   3.283   2.935   2.460
 6375SOL     OW20023   1.988   6.343   2.515
 6375SOL    HW120024   1.919   6.271   2.528
 6375SOL    HW220025   2.038   6.326   2.430
 6376SOL     OW20026   0.640   2.694   5.714
 6376SOL    HW120027   0.685   2.616   5.670
 6376SOL    HW220028   0.634   2.677   5.812
 6377SOL     OW20029   0.796   0.766   4.555
 6377SOL    HW120030   0.770   0.705   4.479
 6377SOL    HW220031   0.855   0.839   4.520
 6378SOL     OW20032   4.773   4.341   3.509
 6378SOL    HW120033   4.696   4.356   3.571
 6378SOL    HW220034   4.762   4.253   3.463
 6379SOL     OW20035   2.528   4.532   3.027
 6379SOL    HW120036   2.552   4.525   3.124
 6379SOL    HW220037   2.537   4.627   2.997
 6380SOL     OW20038   0.991   0.338   6.023
 6380SOL    HW120039   0.913   0.302   5.971
 6380SOL    HW220040   1.018   0.271   6.092
 6381SOL     OW20041   2.862   3.592   2.624
 6381SOL    HW120042   2.897   3.669   2.570
 6381SOL    HW220043   2.842   3.515   2.563
 6382SOL     OW20044   1.213   4.075   5.494
 6382SOL    HW120045   1.301   4.119   5.474
 6382SOL    HW220046   1.185   4.098   5.587
 6383SOL     OW20047   3.934   1.548   4.017
 6383SOL    HW120048   4.031   1.545   4.039
 6383SOL    HW220049   3.920   1.522   3.922
 6384SOL     OW20050   6.371   4.419   3.616
 6384SOL    HW120051   6.324   4.454   3.534
 6384SOL    HW220052   6.355   4.481   3.692
 6385SOL     OW20053   0.748   5.988   4.880
 6385SOL    HW120054   0.694   5.948   4.806
 6385SOL    HW220055   0.845   5.989   4.853
 6386SOL     OW20056   2.915   5.539   1.449
 6386SOL    HW120057   2.844   5.471   1.469
 6386SOL    HW220058   2.982   5.500   1.386
 6387SOL     OW20059   6.531   1.140   5.166
 6387SOL    HW120060   6.493   1.134   5.258
 6387SOL    HW220061   6.495   1.066   5.110
 6388SOL     OW20062   2.568   4.765   2.659
 6388SOL    HW120063   2.634   4.722   2.597
 6388SOL    HW220064   2.609   4.848   2.697
 6389SOL     OW20065   1.031   4.826   2.432
 6389SOL    HW120066   0.985   4.738   2.444
 6389SOL    HW220067   1.113   4.814   2.376
 6390SOL     OW20068   0.288   3.420   3.877
 6390SOL    HW120069   0.374   3.468   3.890
 6390SOL    HW220070   0.242   3.408   3.966
 6391SOL     OW20071   3.277   1.101   6.995
 6391SOL    HW120072   3.364   1.057   6.976
 6391SOL    HW220073   3.290   1.201   7.000
 6392SOL     OW20074   1.646   6.516   3.778
 6392SOL    HW120075   1.579   6.525   3.704
 6392SOL    HW220076   1.680   6.606   3.804
 6393SOL     OW20077   5.560   0.688   0.625
 6393SOL    HW120078   5.582   0.607   0.571
 6393SOL    HW220079   5.498   0.747   0.574
 6394SOL     OW20080   3.196   4.712   1.401
 6394SOL    HW120081   3.231   4.666   1.483
 6394SOL    HW220082   3.103   4.681   1.382
 6395SOL     OW20083   5.656   1.650   1.035
 6395SOL    HW120084   5.653   1.555   1.066
 6395SOL    HW220085   5.694   1.654   0.943
 6396SOL     OW20086   5.505   4.180   5.403
 6396SOL    HW120087   5.452   4.169   5.318
 6396SOL    HW220088   5.487   4.271   5.441
 6397SOL     OW20089   0.248   0.790   0.664
 6397SOL    HW120090   0.173   0.751   0.718
 6397SOL    HW220091   0.299   0.716   0.620
 6398SOL     OW20092   3.718   1.711   1.334
 6398SOL    HW120093   3.675   1.713   1.424
 6398SOL    HW220094   3.778   1.631   1.327
 6399SOL     OW20095   2.435   5.592   7.018
 6399SOL    HW120096   2.371   5.632   6.953
 6399SOL    HW220097   2.521   5.642   7.016
 6400SOL     OW20098   2.614   5.651   4.132
 6400SOL    HW120099   2.556   5.605   4.198
 6400SOL    HW220100   2.614   5.749   4.150
 6401SOL     OW20101   0.795   5.185   3.796
 6401SOL    HW120102   0.802   5.277   3.836
 6401SOL    HW220103   0.886   5.145   3.789
 6402SOL     OW20104   1.777   1.764   3.209
 6402SOL    HW120105   1.704   1.788   3.274
 6402SOL    HW220106   1.812   1.673   3.230
 6403SOL     OW20107   0.326   6.073   0.974
 6403SOL    HW120108   0.282   6.073   1.064
 6403SOL    HW220109   0.319   6.164   0.934
 6404SOL     OW20110   5.017   0.469   3.009
 6404SOL    HW120111   5.117   0.466   3.016
 6404SOL    HW220112   4.983   0.550   3.055
 6405SOL     OW20113   3.006   1.133   2.138
 6405SOL    HW120114   2.947   1.088   2.205
 6405SOL    HW220115   2.970   1.223   2.116
 6406SOL     OW20116   2.330   1.832   3.928
 6406SOL    HW120117   2.350   1.785   3.843
 6406SOL    HW220118   2.368   1.781   4.005
 6407SOL     OW20119   3.847   5.262   6.151
 6407SOL    HW120120   3.924   5.318   6.118
 6407SOL    HW220121   3.762   5.296   6.110
 6408SOL     OW20122   6.369   2.037   0.065
 6408SOL    HW120123   6.284   2.065   0.109
 6408SOL    HW220124   6.350   2.008   6.994
 6409SOL     OW20125   1.178   4.831   2.169
 6409SOL    HW120126   1.234   4.845   2.086
 6409SOL    HW220127   1.147   4.736   2.173
 6410SOL     OW20128   0.796   1.741   1.641
 6410SOL    HW120129   0.767   1.707   1.731
 6410SOL    HW220130   0.814   1.839   1.647
 6411SOL     OW20131   1.711   0.568   3.713
 6411SOL    HW120132   1.709   0.667   3.697
 6411SOL    HW220133   1.781   0.526   3.655
 6412SOL     OW20134   0.235   1.753   4.376
 6412SOL    HW120135   0.135   1.755   4.377
 6412SOL    HW220136   0.271   1.836   4.418
 6413SOL     OW20137   6.897   4.611   0.724
 6413SOL    HW120138   6.904   4.519   0.761
 6413SOL    HW220139   6.978   4.632   0.670
 6414SOL     OW20140   6.213   0.133   2.364
 6414SOL    HW120141   6.235   0.151   2.268
 6414SOL    HW220142   6.277   0.066   2.400
 6415SOL     OW20143   1.482   1.700   2.176
 6415SOL    HW120144   1.444   1.610   2.200
 6415SOL    HW220145   1.437   1.734   2.093
 6416SOL     OW20146   1.973   6.734   6.780
 6416SOL    HW120147   1.902   6.797   6.812
 6416SOL    HW220148   1.986   6.746   6.682
 6417SOL     OW20149   0.986   0.032   3.202
 6417SOL    HW120150   0.939   6.996   3.136
 6417SOL    HW220151   1.065   0.075   3.159
 6418SOL     OW20152   6.487   5.874   2.548
 6418SOL    HW120153   6.454   5.966   2.529
 6418SOL    HW220154   6.460   5.847   2.640
 6419SOL     OW20155   3.016   4.854   1.586
 6419SOL    HW120156   3.058   4.779   1.638
 6419SOL    HW220157   3.035   4.941   1.631
 6420SOL     OW20158   0.808   3.456   6.576
 6420SOL    HW120159   0.899   3.467   6.615
 6420SOL    HW220160   0.815   3.444   6.477
 6421SOL     OW20161   5.412   1.647   0.826
 6421SOL    HW120162   5.378   1.727   0.778
 6421SOL    HW220163   5.461   1.675   0.908
 6422SOL     OW20164   6.058   1.733   3.129
 6422SOL    HW120165   6.054   1.818   3.182
 6422SOL    HW220166   6.015   1.748   3.040
 6423SOL     OW20167   4.817   4.225   0.568
 6423SOL    HW120168   4.815   4.316   0.526
 6423SOL    HW220169   4.787   4.157   0.501
 6424SOL     OW20170   6.582   5.491   4.870
 6424SOL    HW120171   6.574   5.564   4.937
 6424SOL    HW220172   6.536   5.409   4.903
 6425SOL     OW20173   0.264   5.085   1.661
 6425SOL    HW120174   0.264   5.182   1.639
 6425SOL    HW220175   0.358   5.052   1.670
 6426SOL     OW20176   6.681   2.993   3.381
 6426SOL    HW120177   6.703   2.992   3.283
 6426SOL    HW220178   6.730   2.918   3.426
 6427SOL     OW20179   1.723   3.530   5.165
 6427SOL    HW120180   1.791   3.506   5.096
 6427SOL    HW220181   1.768   3.545   5.253
 6428SOL     OW20182   6.210   2.751   2.598
 6428SOL    HW120183   6.215   2.837   2.547
 6428SOL    HW220184   6.302   2.715   2.611
 6429SOL     OW20185   1.017   0.603   4.440
 6429SOL    HW120186   1.008   0.702   4.429
 6429SOL    HW220187   0.935   0.567   4.486
 6430SOL     OW20188   5.998   3.773   0.685
 6430SOL    HW120189   5.973   3.752   0.779
 6430SOL    HW220190   6.076   3.718   0.657
 6431SOL     OW20191   5.291   0.586   3.061
 6431SOL    HW120192   5.379   0.583   3.013
 6431SOL    HW220193   5.267   0.681   3.081
 6432SOL     OW20194   5.777   3.384   0.298
 6432SOL    HW120195   5.748   3.400   0.204
 6432SOL    HW220196   5.873   3.413   0.308
 6433SOL     OW20197   2.453   3.899   1.699
 6433SOL    HW120198   2.545   3.902   1.661
 6433SOL    HW220199   2.413   3.809   1.681
 6434SOL     OW20200   1.679   5.086   0.707
 6434SOL    HW120201   1.760   5.132   0.743
 6434SOL    HW220202   1.599   5.111   0.763
 6435SOL     OW20203   4.645   4.022   0.463
 6435SOL    HW120204   4.626   3.969   0.546
 6435SOL    HW220205   4.705   3.969   0.403
 6436SOL     OW20206   1.385   2.917   2.508
 6436SOL    HW120207   1.412   2.961   2.594
 6436SOL    HW220208   1.286   2.911   2.503
 6437SOL     OW20209   0.935   0.765   0.004
 6437SOL    HW120210   0.885   0.699   0.060
 6437SOL    HW220211   0.965   0.842   0.061
 6438SOL     OW20212   1.235   3.265   3.361
 6438SOL    HW120213   1.267   3.346   3.310
 6438SOL    HW220214   1.284   3.259   3.447
 6439SOL     OW20215   0.139   0.307   2.264
 6439SOL    HW120216   0.217   0.361   2.232
 6439SOL    HW220217   0.173   0.224   2.308
 6440SOL     OW20218   0.727   1.204   2.522
 6440SOL    HW120219   0.706   1.286   2.469
 6440SOL    HW220220   0.741   1.127   2.459
 6441SOL     OW20221   3.356   1.332   3.761
 6441SOL    HW120222   3.411   1.257   3.797
 6441SOL    HW220223   3.410   1.415   3.759
 6442SOL     OW20224   3.350   0.815   3.308
 6442SOL    HW120225   3.361   0.716   3.319
 6442SOL    HW220226   3.275   0.833   3.243
 6443SOL     OW20227   2.765   1.285   0.532
 6443SOL    HW120228   2.809   1.372   0.508
 6443SOL    HW220229   2.743   1.235   0.448
 6444SOL     OW20230   0.500   0.956   3.656
 6444SOL    HW120231   0.579   1.013   3.679
 6444SOL    HW220232   0.456   0.925   3.740
 6445SOL     OW20233   3.989   3.165   5.255
 6445SOL    HW120234   4.042   3.189   5.336
 6445SOL    HW220235   3.957   3.070   5.264
 6446SOL     OW20236   6.195   1.806   0.432
 6446SOL    HW120237   6.269   1.776   0.491
 6446SOL    HW220238   6.222   1.798   0.336
 6447SOL     OW20239   1.511   0.820   3.082
 6447SOL    HW120240   1.571   0.775   3.016
 6447SOL    HW220241   1.419   0.780   3.076
 6448SOL     OW20242   5.971   2.129   2.850
 6448SOL    HW120243   6.069   2.109   2.846
 6448SOL    HW220244   5.933   2.123   2.758
 6449SOL     OW20245   3.375   3.264   1.193
 6449SOL    HW120246   3.387   3.361   1.173
 6449SOL    HW220247   3.430   3.238   1.272
 6450SOL     OW20248   7.020   3.687   0.156
 6450SOL    HW120249   6.922   3.668   0.154
 6450SOL    HW220250   0.040   3.654   0.072
 6451SOL     OW20251   2.223   6.865   4.280
 6451SOL    HW120252   2.157   6.793   4.260
 6451SOL    HW220253   2.257   6.854   4.373
 6452SOL     OW20254   4.465   6.646   3.232
 6452SOL    HW120255   4.448   6.741   3.204
 6452SOL    HW220256   4.472   6.588   3.151
 6453SOL     OW20257   1.824   5.299   6.463
 6453SOL    HW120258   1.762   5.244   6.518
 6453SOL    HW220259   1.910   5.251   6.450
 6454SOL     OW20260   3.346   1.451   4.482
 6454SOL    HW120261   3.325   1.539   4.525
 6454SOL    HW220262   3.444   1.435   4.486
 6455SOL     OW20263   6.406   2.964   5.103
 6455SOL    HW120264   6.361   2.963   5.193
 6455SOL    HW220265   6.370   2.890   5.047
 6456SOL     OW20266   6.695   1.176   4.359
 6456SOL    HW120267   6.614   1.213   4.404
 6456SOL    HW220268   6.689   1.076   4.357
 6457SOL     OW20269   6.615   3.199   1.824
 6457SOL    HW120270   6.573   3.289   1.837
 6457SOL    HW220271   6.636   3.159   1.913
 6458SOL     OW20272   1.327   5.629   2.362
 6458SOL    HW120273   1.354   5.538   2.333
 6458SOL    HW220274   1.406   5.677   2.399
 6459SOL     OW20275   5.008   4.864   0.646
 6459SOL    HW120276   4.953   4.817   0.577
 6459SOL    HW220277   4.975   4.958   0.657
 6460SOL     OW20278   3.355   5.096   6.629
 6460SOL    HW120279   3.372   4.999   6.646
 6460SOL    HW220280   3.388   5.150   6.706
 6461SOL     OW20281   3.478   5.568   4.969
 6461SOL    HW120282   3.440   5.477   4.956
 6461SOL    HW220283   3.509   5.604   4.881
 6462SOL     OW20284   2.170   3.304   3.732
 6462SOL    HW120285   2.227   3.256   3.798
 6462SOL    HW220286   2.190   3.271   3.640
 6463SOL     OW20287   1.343   4.380   5.185
 6463SOL    HW120288   1.250   4.367   5.152
 6463SOL    HW220289   1.401   4.307   5.148
 6464SOL     OW20290   0.788   5.538   2.915
 6464SOL    HW120291   0.737   5.532   3.001
 6464SOL    HW220292   0.824   5.631   2.904
 6465SOL     OW20293   6.156   0.716   2.806
 6465SOL    HW120294   6.178   0.712   2.709
 6465SOL    HW220295   6.065   0.754   2.818
 6466SOL     OW20296   0.474   2.455   5.263
 6466SOL    HW120297   0.456   2.546   5.226
 6466SOL    HW220298   0.570   2.431   5.248
 6467SOL     OW20299   2.460   1.071   6.656
 6467SOL    HW120300   2.495   1.105   6.569
 6467SOL    HW220301   2.416   0.983   6.643
 6468SOL     OW20302   4.796   4.889   0.885
 6468SOL    HW120303   4.864   4.837   0.936
 6468SOL    HW220304   4.836   4.975   0.853
 6469SOL     OW20305   0.202   1.293   5.493
 6469SOL    HW120306   0.132   1.350   5.452
 6469SOL    HW220307   0.162   1.237   5.566
 6470SOL     OW20308   6.540   6.269   5.663
 6470SOL    HW120309   6.483   6.285   5.582
 6470SOL    HW220310   6.533   6.348   5.725
 6471SOL     OW20311   5.817   5.112   5.809
 6471SOL    HW120312   5.823   5.037   5.743
 6471SOL    HW220313   5.905   5.121   5.857
 6472SOL     OW20314   1.340   5.773   0.896
 6472SOL    HW120315   1.278   5.756   0.820
 6472SOL    HW220316   1.316   5.713   0.973
 6473SOL     OW20317   2.573   1.576   5.633
 6473SOL    HW120318   2.610   1.508   5.696
 6473SOL    HW220319   2.609   1.667   5.658
 6474SOL     OW20320   1.912   3.381   5.413
 6474SOL    HW120321   1.909   3.362   5.511
 6474SOL    HW220322   1.922   3.479   5.398
 6475SOL     OW20323   4.321   6.277   4.076
 6475SOL    HW120324   4.413   6.262   4.039
 6475SOL    HW220325   4.260   6.303   4.001
 6476SOL     OW20326   4.588   5.240   3.015
 6476SOL    HW120327   4.539   5.214   3.098
 6476SOL    HW220328   4.529   5.300   2.960
 6477SOL     OW20329   0.112   5.961   6.910
 6477SOL    HW120330   0.122   5.932   6.815
 6477SOL    HW220331   0.200   5.954   6.956
 6478SOL     OW20332   5.090   6.741   0.735
 6478SOL    HW120333   5.095   6.807   0.810
 6478SOL    HW220334   5.127   6.653   0.766
 6479SOL     OW20335   4.026   5.473   2.598
 6479SOL    HW120336   3.936   5.433   2.612
 6479SOL    HW220337   4.078   5.415   2.535
 6480SOL     OW20338   3.185   2.232   6.952
 6480SOL    HW120339   3.089   2.259   6.943
 6480SOL    HW220340   3.215   2.246   0.024
 6481SOL     OW20341   4.920   0.744   1.324
 6481SOL    HW120342   4.935   0.758   1.226
 6481SOL    HW220343   4.992   0.791   1.375
 6482SOL     OW20344   0.656   0.742   6.815
 6482SOL    HW120345   0.620   0.685   6.741
 6482SOL    HW220346   0.754   0.729   6.823
 6483SOL     OW20347   2.226   6.294   2.353
 6483SOL    HW120348   2.253   6.264   2.262
 6483SOL    HW220349   2.224   6.215   2.415
 6484SOL     OW20350   5.421   6.541   3.589
 6484SOL    HW120351   5.520   6.541   3.576
 6484SOL    HW220352   5.383   6.625   3.550
 6485SOL     OW20353   1.326   2.467   3.100
 6485SOL    HW120354   1.303   2.498   3.193
 6485SOL    HW220355   1.424   2.476   3.085
 6486SOL     OW20356   1.565   2.716   3.165
 6486SOL    HW120357   1.528   2.791   3.111
 6486SOL    HW220358   1.659   2.737   3.193
 6487SOL     OW20359   5.804   5.964   3.675
 6487SOL    HW120360   5.794   6.038   3.741
 6487SOL    HW220361   5.747   5.887   3.703
 6488SOL     OW20362   3.590   5.866   6.099
 6488SOL    HW120363   3.495   5.868   6.130
 6488SOL    HW220364   3.593   5.865   5.999
 6489SOL     OW20365   1.799   1.940   5.663
 6489SOL    HW120366   1.772   1.924   5.568
 6489SOL    HW220367   1.718   1.960   5.718
 6490SOL     OW20368   3.280   1.222   0.429
 6490SOL    HW120369   3.222   1.149   0.393
 6490SOL    HW220370   3.320   1.192   0.516
 6491SOL     OW20371   3.428   1.678   6.182
 6491SOL    HW120372   3.489   1.599   6.193
 6491SOL    HW220373   3.333   1.648   6.193
 6492SOL     OW20374   6.073   5.575   0.045
 6492SOL    HW120375   6.150   5.634   0.022
 6492SOL    HW220376   6.023   5.613   0.123
 6493SOL     OW20377   1.067   6.363   6.020
 6493SOL    HW120378   0.984   6.323   6.059
 6493SOL    HW220379   1.046   6.403   5.931
 6494SOL     OW20380   1.666   6.994   3.619
 6494SOL    HW120381   1.721   0.055   3.616
 6494SOL    HW220382   1.594   7.005   3.687
 6495SOL     OW20383   5.462   5.276   2.648
 6495SOL    HW120384   5.376   5.227   2.633
 6495SOL    HW220385   5.509   5.238   2.728
 6496SOL     OW20386   2.249   6.791   2.298
 6496SOL    HW120387   2.274   6.845   2.378
 6496SOL    HW220388   2.194   6.713   2.326
 6497SOL     OW20389   0.870   4.571   6.919
 6497SOL    HW120390   0.894   4.660   6.957
 6497SOL    HW220391   0.819   4.518   6.986
 6498SOL     OW20392   1.515   4.604   4.071
 6498SOL    HW120393   1.582   4.620   4.144
 6498SOL    HW220394   1.543   4.525   4.017
 6499SOL     OW20395   6.099   1.432   4.041
 6499SOL    HW120396   6.032   1.368   4.077
 6499SOL    HW220397   6.055   1.490   3.972
 6500SOL     OW20398   5.254   4.749   3.513
 6500SOL    HW120399   5.180   4.775   3.575
 6500SOL    HW220400   5.315   4.685   3.560
 6501SOL     OW20401   6.826   3.890   1.015
 6501SOL    HW120402   6.793   3.830   1.087
 6501SOL    HW220403   6.782   3.866   0.928
 6502SOL     OW20404   1.718   5.394   2.515
 6502SOL    HW120405   1.708   5.324   2.444
 6502SOL    HW220406   1.813   5.424   2.518
 6503SOL     OW20407   4.363   0.311   4.700
 6503SOL    HW120408   4.390   0.256   4.621
 6503SOL    HW220409   4.300   0.258   4.757
 6504SOL     OW20410   2.818   1.185   0.927
 6504SOL    HW120411   2.848   1.164   0.834
 6504SOL    HW220412   2.823   1.284   0.942
 6505SOL     OW20413   5.377   5.100   0.807
 6505SOL    HW120414   5.470   5.065   0.799
 6505SOL    HW220415   5.321   5.067   0.731
 6506SOL     OW20416   2.199   2.497   0.594
 6506SOL    HW120417   2.130   2.547   0.542
 6506SOL    HW220418   2.288   2.508   0.550
 6507SOL     OW20419   2.621   1.057   1.920
 6507SOL    HW120420   2.643   1.120   1.995
 6507SOL    HW220421   2.702   1.042   1.863
 6508SOL     OW20422   2.035   1.728   2.510
 6508SOL    HW120423   1.994   1.647   2.468
 6508SOL    HW220424   1.989   1.746   2.598
 6509SOL     OW20425   0.662   2.147   4.468
 6509SOL    HW120426   0.631   2.242   4.455
 6509SOL    HW220427   0.752   2.135   4.426
 6510SOL     OW20428   5.578   4.423   6.009
 6510SOL    HW120429   5.508   4.410   5.938
 6510SOL    HW220430   5.620   4.513   5.998
 6511SOL     OW20431   6.241   6.228   5.998
 6511SOL    HW120432   6.318   6.287   6.023
 6511SOL    HW220433   6.273   6.155   5.938
 6512SOL     OW20434   4.824   6.606   3.574
 6512SOL    HW120435   4.884   6.674   3.617
 6512SOL    HW220436   4.731   6.617   3.609
 6513SOL     OW20437   3.155   6.999   2.372
 6513SOL    HW120438   3.072   6.945   2.355
 6513SOL    HW220439   3.204   7.012   2.286
 6514SOL     OW20440   3.586   7.006   3.352
 6514SOL    HW120441   3.491   6.985   3.327
 6514SOL    HW220442   3.602   6.976   3.446
 6515SOL     OW20443   1.274   0.738   5.138
 6515SOL    HW120444   1.243   0.833   5.131
 6515SOL    HW220445   1.350   0.724   5.075
 6516SOL     OW20446   1.145   1.058   6.050
 6516SOL    HW120447   1.142   1.129   5.980
 6516SOL    HW220448   1.105   0.973   6.014
 6517SOL     OW20449   1.338   2.267   6.663
 6517SOL    HW120450   1.363   2.177   6.626
 6517SOL    HW220451   1.255   2.300   6.617
 6518SOL     OW20452   6.186   6.307   1.068
 6518SOL    HW120453   6.222   6.400   1.057
 6518SOL    HW220454   6.261   6.242   1.072
 6519SOL     OW20455   2.161   2.085   3.632
 6519SOL    HW120456   2.119   2.162   3.680
 6519SOL    HW220457   2.142   2.001   3.682
 6520SOL     OW20458   5.276   5.401   1.875
 6520SOL    HW120459   5.230   5.469   1.933
 6520SOL    HW220460   5.375   5.406   1.889
 6521SOL     OW20461   1.051   1.912   5.624
 6521SOL    HW120462   1.103   1.835   5.661
 6521SOL    HW220463   1.105   1.996   5.632
 6522SOL     OW20464   2.166   5.301   5.178
 6522SOL    HW120465   2.199   5.220   5.228
 6522SOL    HW220466   2.068   5.291   5.160
 6523SOL     OW20467   1.630   1.940   6.464
 6523SOL    HW120468   1.589   1.992   6.538
 6523SOL    HW220469   1.648   2.000   6.386
 6524SOL     OW20470   3.289   3.697   3.858
 6524SOL    HW120471   3.289   3.797   3.852
 6524SOL    HW220472   3.306   3.669   3.953
 6525SOL     OW20473   0.296   2.647   4.453
 6525SOL    HW120474   0.244   2.602   4.380
 6525SOL    HW220475   0.278   2.601   4.540
 6526SOL     OW20476   2.006   6.191   4.617
 6526SOL    HW120477   1.912   6.195   4.582
 6526SOL    HW220478   2.070   6.215   4.543
 6527SOL     OW20479   2.001   1.537   4.396
 6527SOL    HW120480   1.925   1.594   4.426
 6527SOL    HW220481   1.988   1.512   4.300
 6528SOL     OW20482   6.293   0.400   3.757
 6528SOL    HW120483   6.248   0.468   3.816
 6528SOL    HW220484   6.358   0.446   3.697
 6529SOL     OW20485   6.726   2.426   1.594
 6529SOL    HW120486   6.680   2.352   1.643
 6529SOL    HW220487   6.770   2.487   1.659
 6530SOL     OW20488   0.288   2.017   0.514
 6530SOL    HW120489   0.247   2.069   0.439
 6530SOL    HW220490   0.257   1.922   0.510
 6531SOL     OW20491   4.892   2.902   4.394
 6531SOL    HW120492   4.825   2.936   4.328
 6531SOL    HW220493   4.906   2.970   4.466
 6532SOL     OW20494   0.506   1.794   6.439
 6532SOL    HW120495   0.435   1.801   6.369
 6532SOL    HW220496   0.596   1.804   6.396
 6533SOL     OW20497   4.888   0.977   0.887
 6533SOL    HW120498   4.874   0.964   0.789
 6533SOL    HW220499   4.868   0.891   0.935
 6534SOL     OW20500   1.829   3.633   0.970
 6534SOL    HW120501   1.816   3.551   0.913
 6534SOL    HW220502   1.904   3.688   0.933
 6535SOL     OW20503   1.808   3.677   5.563
 6535SOL    HW120504   1.787   3.773   5.546
 6535SOL    HW220505   1.874   3.644   5.496
 6536SOL     OW20506   0.035   2.393   0.055
 6536SOL    HW120507   6.995   2.337   0.110
 6536SOL    HW220508   0.129   2.360   0.068
 6537SOL     OW20509   0.473   7.011   0.177
 6537SOL    HW120510   0.551   0.048   0.157
 6537SOL    HW220511   0.507   6.918   0.194
 6538SOL     OW20512   2.221   3.322   6.031
 6538SOL    HW120513   2.134   3.370   6.016
 6538SOL    HW220514   2.282   3.381   6.084
 6539SOL     OW20515   2.463   1.646   6.848
 6539SOL    HW120516   2.523   1.624   6.924
 6539SOL    HW220517   2.431   1.561   6.804
 6540SOL     OW20518   3.800   1.064   4.123
 6540SOL    HW120519   3.789   1.136   4.054
 6540SOL    HW220520   3.896   1.039   4.130
 6541SOL     OW20521   2.478   2.597   5.604
 6541SOL    HW120522   2.501   2.694   5.605
 6541SOL    HW220523   2.452   2.567   5.696
 6542SOL     OW20524   5.841   4.288   3.435
 6542SOL    HW120525   5.862   4.191   3.450
 6542SOL    HW220526   5.887   4.342   3.505
 6543SOL     OW20527   6.870   5.918   7.011
 6543SOL    HW120528   6.894   5.881   0.078
 6543SOL    HW220529   6.952   5.923   6.954
 6544SOL     OW20530   6.141   6.337   4.273
 6544SOL    HW120531   6.174   6.431   4.263
 6544SOL    HW220532   6.218   6.274   4.261
 6545SOL     OW20533   5.555   2.395   5.438
 6545SOL    HW120534   5.590   2.459   5.370
 6545SOL    HW220535   5.456   2.383   5.424
 6546SOL     OW20536   2.905   4.362   6.117
 6546SOL    HW120537   2.938   4.282   6.167
 6546SOL    HW220538   2.934   4.445   6.165
 6547SOL     OW20539   4.604   2.022   6.718
 6547SOL    HW120540   4.550   2.099   6.682
 6547SOL    HW220541   4.543   1.945   6.737
 6548SOL     OW20542   6.351   5.151   5.197
 6548SOL    HW120543   6.253   5.140   5.213
 6548SOL    HW220544   6.398   5.066   5.222
 6549SOL     OW20545   3.533   1.443   1.186
 6549SOL    HW120546   3.502   1.450   1.280
 6549SOL    HW220547   3.456   1.422   1.126
 6550SOL     OW20548   0.373   5.431   3.407
 6550SOL    HW120549   0.468   5.453   3.429
 6550SOL    HW220550   0.364   5.414   3.309
 6551SOL     OW20551   2.515   5.415   2.328
 6551SOL    HW120552   2.588   5.411   2.259
 6551SOL    HW220553   2.500   5.510   2.355
 6552SOL     OW20554   4.104   4.703   6.362
 6552SOL    HW120555   4.061   4.766   6.427
 6552SOL    HW220556   4.059   4.613   6.368
 6553SOL     OW20557   0.217   2.638   2.688
 6553SOL    HW120558   0.303   2.687   2.694
 6553SOL    HW220559   0.167   2.646   2.774
 6554SOL     OW20560   0.412   2.942   5.073
 6554SOL    HW120561   0.368   3.014   5.127
 6554SOL    HW220562   0.493   2.980   5.028
 6555SOL     OW20563   0.049   1.488   2.222
 6555SOL    HW120564   7.012   1.440   2.158
 6555SOL    HW220565   0.130   1.521   2.174
 6556SOL     OW20566   3.839   0.040   4.552
 6556SOL    HW120567   3.820   6.975   4.596
 6556SOL    HW220568   3.899   0.026   4.474
 6557SOL     OW20569   6.499   6.008   0.816
 6557SOL    HW120570   6.495   6.066   0.897
 6557SOL    HW220571   6.593   5.981   0.799
 6558SOL     OW20572   6.472   5.347   6.548
 6558SOL    HW120573   6.385   5.397   6.555
 6558SOL    HW220574   6.543   5.409   6.513
 6559SOL     OW20575   3.437   3.226   0.809
 6559SOL    HW120576   3.363   3.214   0.743
 6559SOL    HW220577   3.520   3.253   0.760
 6560SOL     OW20578   3.987   2.252   0.357
 6560SOL    HW120579   3.973   2.315   0.434
 6560SOL    HW220580   3.907   2.192   0.349
 6561SOL     OW20581   3.836   4.104   4.638
 6561SOL    HW120582   3.864   4.085   4.544
 6561SOL    HW220583   3.736   4.110   4.643
 6562SOL     OW20584   5.888   3.876   5.559
 6562SOL    HW120585   5.879   3.973   5.540
 6562SOL    HW220586   5.926   3.829   5.480
 6563SOL     OW20587   2.056   5.177   2.329
 6563SOL    HW120588   2.051   5.137   2.420
 6563SOL    HW220589   1.984   5.246   2.320
 6564SOL     OW20590   1.341   5.705   2.718
 6564SOL    HW120591   1.339   5.800   2.687
 6564SOL    HW220592   1.436   5.674   2.726
 6565SOL     OW20593   6.308   3.246   5.025
 6565SOL    HW120594   6.231   3.258   4.962
 6565SOL    HW220595   6.332   3.149   5.031
 6566SOL     OW20596   3.874   6.841   0.748
 6566SOL    HW120597   3.792   6.783   0.750
 6566SOL    HW220598   3.919   6.837   0.837
 6567SOL     OW20599   5.805   3.054   1.491
 6567SOL    HW120600   5.880   3.108   1.453
 6567SOL    HW220601   5.737   3.036   1.421
 6568SOL     OW20602   3.943   4.309   1.674
 6568SOL    HW120603   3.949   4.210   1.661
 6568SOL    HW220604   4.030   4.351   1.649
 6569SOL     OW20605   0.762   4.268   6.327
 6569SOL    HW120606   0.781   4.185   6.274
 6569SOL    HW220607   0.847   4.301   6.369
 6570SOL     OW20608   6.337   2.692   0.768
 6570SOL    HW120609   6.384   2.627   0.829
 6570SOL    HW220610   6.290   2.761   0.823
 6571SOL     OW20611   2.680   6.086   3.622
 6571SOL    HW120612   2.595   6.139   3.617
 6571SOL    HW220613   2.682   6.019   3.548
 6572SOL     OW20614   1.076   3.547   6.519
 6572SOL    HW120615   1.163   3.516   6.481
 6572SOL    HW220616   1.087   3.640   6.555
 6573SOL     OW20617   2.119   2.240   2.456
 6573SOL    HW120618   2.031   2.275   2.489
 6573SOL    HW220619   2.110   2.143   2.434
 6574SOL     OW20620   2.647   4.665   3.381
 6574SOL    HW120621   2.567   4.724   3.370
 6574SOL    HW220622   2.701   4.667   3.297
 6575SOL     OW20623   0.931   1.099   2.945
 6575SOL    HW120624   1.019   1.107   2.897
 6575SOL    HW220625   0.856   1.119   2.882
 6576SOL     OW20626   1.099   6.006   5.328
 6576SOL    HW120627   1.133   6.065   5.402
 6576SOL    HW220628   1.015   6.044   5.291
 6577SOL     OW20629   6.288   1.950   4.165
 6577SOL    HW120630   6.316   1.964   4.259
 6577SOL    HW220631   6.295   1.853   4.142
 6578SOL     OW20632   6.499   5.307   3.222
 6578SOL    HW120633   6.556   5.254   3.285
 6578SOL    HW220634   6.407   5.315   3.259
 6579SOL     OW20635   0.700   3.272   2.622
 6579SOL    HW120636   0.611   3.276   2.668
 6579SOL    HW220637   0.688   3.237   2.529
 6580SOL     OW20638   6.476   2.595   1.258
 6580SOL    HW120639   6.417   2.579   1.337
 6580SOL    HW220640   6.567   2.559   1.277
 6581SOL     OW20641   2.689   1.972   5.425
 6581SOL    HW120642   2.730   1.951   5.337
 6581SOL    HW220643   2.610   1.912   5.440
 6582SOL     OW20644   0.096   6.839   2.998
 6582SOL    HW120645   0.061   6.931   2.983
 6582SOL    HW220646   0.196   6.839   2.993
 6583SOL     OW20647   5.927   1.963   5.430
 6583SOL    HW120648   5.841   1.962   5.480
 6583SOL    HW220649   5.984   2.038   5.463
 6584SOL     OW20650   5.892   1.549   6.562
 6584SOL    HW120651   5.907   1.495   6.478
 6584SOL    HW220652   5.795   1.545   6.586
 6585SOL     OW20653   1.937   1.109   0.457
 6585SOL    HW120654   1.996   1.038   0.420
 6585SOL    HW220655   1.842   1.076   0.459
 6586SOL     OW20656   6.987   2.297   6.819
 6586SOL    HW120657   0.012   2.355   6.753
 6586SOL    HW220658   6.990   2.339   6.909
 6587SOL     OW20659   2.072   6.896   2.584
 6587SOL    HW120660   2.166   6.927   2.575
 6587SOL    HW220661   2.065   6.834   2.663
 6588SOL     OW20662   2.334   2.900   6.772
 6588SOL    HW120663   2.348   2.934   6.865
 6588SOL    HW220664   2.416   2.919   6.718
 6589SOL     OW20665   4.729   1.563   5.852
 6589SOL    HW120666   4.703   1.511   5.934
 6589SOL    HW220667   4.779   1.645   5.880
 6590SOL     OW20668   6.736   1.238   5.302
 6590SOL    HW120669   6.679   1.203   5.229
 6590SOL    HW220670   6.685   1.305   5.356
 6591SOL     OW20671   5.719   0.947   2.309
 6591SOL    HW120672   5.663   0.914   2.384
 6591SOL    HW220673   5.771   1.027   2.338
 6592SOL     OW20674   4.762   5.686   4.625
 6592SOL    HW120675   4.786   5.625   4.550
 6592SOL    HW220676   4.838   5.749   4.642
 6593SOL     OW20677   4.275   0.955   2.453
 6593SOL    HW120678   4.320   1.035   2.494
 6593SOL    HW220679   4.300   0.948   2.356
 6594SOL     OW20680   5.777   0.740   6.331
 6594SOL    HW120681   5.798   0.698   6.243
 6594SOL    HW220682   5.680   0.762   6.336
 6595SOL     OW20683   1.116   3.616   1.096
 6595SOL    HW120684   1.085   3.673   1.020
 6595SOL    HW220685   1.090   3.658   1.182
 6596SOL     OW20686   3.686   6.848   4.858
 6596SOL    HW120687   3.779   6.856   4.824
 6596SOL    HW220688   3.660   6.751   4.862
 6597SOL     OW20689   6.908   4.511   5.563
 6597SOL    HW120690   6.877   4.478   5.474
 6597SOL    HW220691   6.974   4.447   5.601
 6598SOL     OW20692   1.995   5.817   5.327
 6598SOL    HW120693   2.069   5.882   5.345
 6598SOL    HW220694   2.018   5.728   5.366
 6599SOL     OW20695   4.660   4.058   5.918
 6599SOL    HW120696   4.653   4.112   5.835
 6599SOL    HW220697   4.755   4.053   5.948
 6600SOL     OW20698   4.653   5.945   4.517
 6600SOL    HW120699   4.610   5.952   4.428
 6600SOL    HW220700   4.696   5.855   4.527
 6601SOL     OW20701   1.147   0.026   1.278
 6601SOL    HW120702   1.148   7.002   1.189
 6601SOL    HW220703   1.082   7.003   1.339
 6602SOL     OW20704   6.496   2.013   1.483
 6602SOL    HW120705   6.474   1.936   1.424
 6602SOL    HW220706   6.558   2.075   1.436
 6603SOL     OW20707   2.233   3.037   3.082
 6603SOL    HW120708   2.152   2.994   3.120
 6603SOL    HW220709   2.311   2.974   3.090
 6604SOL     OW20710   3.856   6.119   3.524
 6604SOL    HW120711   3.849   6.023   3.551
 6604SOL    HW220712   3.764   6.160   3.525
 6605SOL     OW20713   5.811   6.448   0.336
 6605SOL    HW120714   5.718   6.474   0.312
 6605SOL    HW220715   5.832   6.479   0.429
 6606SOL     OW20716   5.332   1.440   2.820
 6606SOL    HW120717   5.425   1.476   2.813
 6606SOL    HW220718   5.302   1.443   2.915
 6607SOL     OW20719   1.083   2.654   3.767
 6607SOL    HW120720   1.034   2.578   3.725
 6607SOL    HW220721   1.018   2.713   3.816
 6608SOL     OW20722   5.648   3.472   4.315
 6608SOL    HW120723   5.698   3.428   4.240
 6608SOL    HW220724   5.673   3.569   4.318
 6609SOL     OW20725   5.948   2.069   6.536
 6609SOL    HW120726   5.872   2.005   6.528
 6609SOL    HW220727   6.000   2.049   6.619
 6610SOL     OW20728   3.036   1.216   0.130
 6610SOL    HW120729   3.108   1.156   0.097
 6610SOL    HW220730   2.973   1.237   0.055
 6611SOL     OW20731   5.745   3.142   3.093
 6611SOL    HW120732   5.800   3.060   3.081
 6611SOL    HW220733   5.805   3.220   3.114
 6612SOL     OW20734   1.163   6.118   6.800
 6612SOL    HW120735   1.188   6.107   6.704
 6612SOL    HW220736   1.202   6.043   6.853
 6613SOL     OW20737   4.936   5.422   1.795
 6613SOL    HW120738   5.012   5.401   1.733
 6613SOL    HW220739   4.942   5.362   1.875
 6614SOL     OW20740   5.482   5.896   6.030
 6614SOL    HW120741   5.509   5.846   6.113
 6614SOL    HW220742   5.462   5.831   5.957
 6615SOL     OW20743   1.093   4.297   5.064
 6615SOL    HW120744   1.127   4.206   5.086
 6615SOL    HW220745   0.999   4.290   5.030
 6616SOL     OW20746   4.572   0.503   4.727
 6616SOL    HW120747   4.502   0.444   4.688
 6616SOL    HW220748   4.563   0.595   4.689
 6617SOL     OW20749   4.566   0.157   5.001
 6617SOL    HW120750   4.599   0.090   5.067
 6617SOL    HW220751   4.630   0.163   4.924
 6618SOL     OW20752   0.983   4.574   1.466
 6618SOL    HW120753   1.042   4.495   1.455
 6618SOL    HW220754   0.912   4.554   1.533
 6619SOL     OW20755   5.587   5.813   2.504
 6619SOL    HW120756   5.685   5.804   2.519
 6619SOL    HW220757   5.541   5.823   2.593
 6620SOL     OW20758   3.230   2.886   5.701
 6620SOL    HW120759   3.136   2.865   5.673
 6620SOL    HW220760   3.284   2.910   5.621
 6621SOL     OW20761   2.574   4.144   6.787
 6621SOL    HW120762   2.652   4.116   6.844
 6621SOL    HW220763   2.504   4.073   6.789
 6622SOL     OW20764   6.223   6.988   0.230
 6622SOL    HW120765   6.301   0.018   0.196
 6622SOL    HW220766   6.245   6.890   0.228
 6623SOL     OW20767   3.387   3.687   2.185
 6623SOL    HW120768   3.400   3.591   2.212
 6623SOL    HW220769   3.362   3.691   2.089
 6624SOL     OW20770   4.312   4.739   4.304
 6624SOL    HW120771   4.344   4.722   4.397
 6624SOL    HW220772   4.268   4.828   4.299
 6625SOL     OW20773   6.289   0.352   0.524
 6625SOL    HW120774   6.281   0.301   0.439
 6625SOL    HW220775   6.225   0.429   0.523
 6626SOL     OW20776   3.124   4.888   3.312
 6626SOL    HW120777   3.212   4.887   3.359
 6626SOL    HW220778   3.134   4.847   3.221
 6627SOL     OW20779   1.763   6.236   1.524
 6627SOL    HW120780   1.689   6.237   1.592
 6627SOL    HW220781   1.840   6.183   1.560
 6628SOL     OW20782   4.134   6.268   2.964
 6628SOL    HW120783   4.081   6.312   2.892
 6628SOL    HW220784   4.115   6.170   2.965
 6629SOL     OW20785   3.158   4.164   0.130
 6629SOL    HW120786   3.201   4.083   0.090
 6629SOL    HW220787   3.200   4.185   0.218
 6630SOL     OW20788   2.972   2.205   5.698
 6630SOL    HW120789   2.974   2.305   5.696
 6630SOL    HW220790   3.053   2.169   5.652
 6631SOL     OW20791   3.945   0.710   2.229
 6631SOL    HW120792   3.916   0.630   2.283
 6631SOL    HW220793   4.042   0.701   2.206
 6632SOL     OW20794   6.956   2.208   2.226
 6632SOL    HW120795   6.897   2.271   2.276
 6632SOL    HW220796   7.019   2.165   2.290
 6633SOL     OW20797   0.208   6.861   1.511
 6633SOL    HW120798   0.167   6.894   1.596
 6633SOL    HW220799   0.174   6.916   1.435
 6634SOL     OW20800   6.800   2.942   5.765
 6634SOL    HW120801   6.766   2.985   5.849
 6634SOL    HW220802   6.899   2.954   5.760
 6635SOL     OW20803   4.444   4.578   3.502
 6635SOL    HW120804   4.416   4.613   3.413
 6635SOL    HW220805   4.378   4.606   3.572
 6636SOL     OW20806   1.306   2.745   4.179
 6636SOL    HW120807   1.337   2.654   4.153
 6636SOL    HW220808   1.312   2.806   4.100
 6637SOL     OW20809   6.399   1.532   1.392
 6637SOL    HW120810   6.430   1.474   1.317
 6637SOL    HW220811   6.306   1.507   1.419
 6638SOL     OW20812   2.168   5.884   5.675
 6638SOL    HW120813   2.238   5.909   5.741
 6638SOL    HW220814   2.098   5.956   5.671
 6639SOL     OW20815   5.416   5.684   6.918
 6639SOL    HW120816   5.343   5.624   6.885
 6639SOL    HW220817   5.500   5.665   6.867
 6640SOL     OW20818   6.035   3.139   3.297
 6640SOL    HW120819   6.098   3.130   3.374
 6640SOL    HW220820   6.000   3.049   3.271
 6641SOL     OW20821   1.906   4.377   6.852
 6641SOL    HW120822   1.879   4.290   6.811
 6641SOL    HW220823   1.996   4.403   6.816
 6642SOL     OW20824   0.226   6.417   0.410
 6642SOL    HW120825   0.224   6.495   0.347
 6642SOL    HW220826   0.156   6.350   0.382
 6643SOL     OW20827   4.224   5.182   6.817
 6643SOL    HW120828   4.318   5.178   6.785
 6643SOL    HW220829   4.184   5.270   6.792
 6644SOL     OW20830   2.669   4.636   2.218
 6644SOL    HW120831   2.681   4.735   2.225
 6644SOL    HW220832   2.735   4.599   2.153
 6645SOL     OW20833   6.676   5.124   5.077
 6645SOL    HW120834   6.610   5.177   5.132
 6645SOL    HW220835   6.743   5.082   5.138
 6646SOL     OW20836   2.116   5.833   3.635
 6646SOL    HW120837   2.138   5.795   3.725
 6646SOL    HW220838   2.081   5.760   3.575
 6647SOL     OW20839   3.512   2.028   2.335
 6647SOL    HW120840   3.473   1.980   2.256
 6647SOL    HW220841   3.505   2.126   2.322
 6648SOL     OW20842   4.982   5.953   2.608
 6648SOL    HW120843   4.958   5.880   2.545
 6648SOL    HW220844   4.945   6.040   2.575
 6649SOL     OW20845   3.750   2.507   6.150
 6649SOL    HW120846   3.733   2.582   6.214
 6649SOL    HW220847   3.766   2.423   6.202
 6650SOL     OW20848   2.906   1.970   3.336
 6650SOL    HW120849   2.893   2.041   3.267
 6650SOL    HW220850   2.840   1.897   3.322
 6651SOL     OW20851   1.142   2.728   6.276
 6651SOL    HW120852   1.141   2.791   6.199
 6651SOL    HW220853   1.138   2.779   6.361
 6652SOL     OW20854   6.966   5.242   3.023
 6652SOL    HW120855   6.943   5.216   2.929
 6652SOL    HW220856   6.918   5.327   3.046
 6653SOL     OW20857   3.057   3.622   3.677
 6653SOL    HW120858   2.994   3.555   3.717
 6653SOL    HW220859   3.120   3.656   3.748
 6654SOL     OW20860   2.073   3.440   1.767
 6654SOL    HW120861   2.029   3.353   1.789
 6654SOL    HW220862   2.142   3.460   1.837
 6655SOL     OW20863   2.100   0.317   0.799
 6655SOL    HW120864   2.092   0.324   0.899
 6655SOL    HW220865   2.192   0.345   0.771
 6656SOL     OW20866   5.874   2.256   1.200
 6656SOL    HW120867   5.974   2.254   1.191
 6656SOL    HW220868   5.849   2.254   1.297
 6657SOL     OW20869   2.676   5.990   6.004
 6657SOL    HW120870   2.600   5.925   6.006
 6657SOL    HW220871   2.705   6.005   5.909
 6658SOL     OW20872   5.009   1.077   5.733
 6658SOL    HW120873   4.916   1.100   5.762
 6658SOL    HW220874   5.048   1.010   5.797
 6659SOL     OW20875   1.333   3.404   6.608
 6659SOL    HW120876   1.418   3.351   6.613
 6659SOL    HW220877   1.290   3.407   6.698
 6660SOL     OW20878   7.007   6.756   3.253
 6660SOL    HW120879   7.019   6.754   3.154
 6660SOL    HW220880   6.935   6.821   3.277
 6661SOL     OW20881   6.980   6.111   3.909
 6661SOL    HW120882   6.917   6.142   3.837
 6661SOL    HW220883   6.997   6.013   3.898
 6662SOL     OW20884   0.827   3.468   6.005
 6662SOL    HW120885   0.890   3.401   5.968
 6662SOL    HW220886   0.864   3.560   5.990
 6663SOL     OW20887   0.249   5.838   2.171
 6663SOL    HW120888   0.274   5.857   2.266
 6663SOL    HW220889   0.152   5.857   2.158
 6664SOL     OW20890   0.949   1.635   3.045
 6664SOL    HW120891   0.981   1.693   2.970
 6664SOL    HW220892   1.027   1.602   3.098
 6665SOL     OW20893   2.571   6.891   2.451
 6665SOL    HW120894   2.638   6.947   2.501
 6665SOL    HW220895   2.618   6.842   2.378
 6666SOL     OW20896   6.719   0.542   0.321
 6666SOL    HW120897   6.690   0.461   0.372
 6666SOL    HW220898   6.654   0.561   0.247
 6667SOL     OW20899   6.605   5.536   4.582
 6667SOL    HW120900   6.550   5.481   4.644
 6667SOL    HW220901   6.686   5.571   4.630
 6668SOL     OW20902   0.674   5.383   1.764
 6668SOL    HW120903   0.732   5.449   1.812
 6668SOL    HW220904   0.585   5.378   1.809
 6669SOL     OW20905   1.973   5.478   2.502
 6669SOL    HW120906   1.985   5.552   2.435
 6669SOL    HW220907   2.061   5.457   2.544
 6670SOL     OW20908   3.360   4.832   0.268
 6670SOL    HW120909   3.427   4.856   0.338
 6670SOL    HW220910   3.383   4.743   0.229
 6671SOL     OW20911   0.339   2.258   4.990
 6671SOL    HW120912   0.295   2.347   5.000
 6671SOL    HW220913   0.358   2.240   4.894
 6672SOL     OW20914   1.650   0.819   5.525
 6672SOL    HW120915   1.553   0.811   5.544
 6672SOL    HW220916   1.703   0.779   5.600
 6673SOL     OW20917   4.773   4.938   1.652
 6673SOL    HW120918   4.833   4.890   1.716
 6673SOL    HW220919   4.680   4.902   1.660
 6674SOL     OW20920   0.949   0.161   4.193
 6674SOL    HW120921   1.028   0.210   4.158
 6674SOL    HW220922   0.977   0.072   4.228
 6675SOL     OW20923   6.200   5.581   0.337
 6675SOL    HW120924   6.199   5.662   0.278
 6675SOL    HW220925   6.139   5.596   0.415
 6676SOL     OW20926   1.178   2.531   6.063
 6676SOL    HW120927   1.187   2.618   6.113
 6676SOL    HW220928   1.219   2.458   6.117
 6677SOL     OW20929   0.077   3.874   0.311
 6677SOL    HW120930   0.045   3.806   0.246
 6677SOL    HW220931   0.043   3.852   0.403
 6678SOL     OW20932   1.387   3.066   5.072
 6678SOL    HW120933   1.336   2.984   5.099
 6678SOL    HW220934   1.362   3.142   5.133
 6679SOL     OW20935   1.667   2.059   4.607
 6679SOL    HW120936   1.696   2.059   4.702
 6679SOL    HW220937   1.696   1.974   4.563
 6680SOL     OW20938   2.889   6.593   6.759
 6680SOL    HW120939   2.838   6.511   6.731
 6680SOL    HW220940   2.956   6.617   6.689
 6681SOL     OW20941   5.682   5.125   0.189
 6681SOL    HW120942   5.702   5.058   0.260
 6681SOL    HW220943   5.765   5.178   0.169
 6682SOL     OW20944   6.749   5.897   2.462
 6682SOL    HW120945   6.795   5.813   2.490
 6682SOL    HW220946   6.650   5.888   2.475
 6683SOL     OW20947   5.303   2.098   4.144
 6683SOL    HW120948   5.253   2.098   4.057
 6683SOL    HW220949   5.272   2.021   4.200
 6684SOL     OW20950   1.527   6.983   2.208
 6684SOL    HW120951   1.551   0.055   2.188
 6684SOL    HW220952   1.544   6.927   2.127
 6685SOL     OW20953   5.011   3.528   6.348
 6685SOL    HW120954   5.049   3.609   6.392
 6685SOL    HW220955   4.928   3.500   6.397
 6686SOL     OW20956   5.611   3.854   3.830
 6686SOL    HW120957   5.689   3.844   3.892
 6686SOL    HW220958   5.638   3.825   3.738
 6687SOL     OW20959   1.541   1.586   0.140
 6687SOL    HW120960   1.478   1.561   0.213
 6687SOL    HW220961   1.635   1.585   0.175
 6688SOL     OW20962   0.737   4.704   3.181
 6688SOL    HW120963   0.712   4.744   3.269
 6688SOL    HW220964   0.773   4.612   3.195
 6689SOL     OW20965   4.017   5.041   6.677
 6689SOL    HW120966   3.949   5.082   6.737
 6689SOL    HW220967   4.098   5.100   6.672
 6690SOL     OW20968   1.795   2.505   0.959
 6690SOL    HW120969   1.717   2.474   1.012
 6690SOL    HW220970   1.864   2.433   0.955
 6691SOL     OW20971   2.157   4.980   1.556
 6691SOL    HW120972   2.096   4.946   1.485
 6691SOL    HW220973   2.199   4.903   1.604
 6692SOL     OW20974   3.231   3.979   5.794
 6692SOL    HW120975   3.220   4.072   5.760
 6692SOL    HW220976   3.323   3.946   5.771
 6693SOL     OW20977   3.816   3.859   4.763
 6693SOL    HW120978   3.812   3.957   4.744
 6693SOL    HW220979   3.797   3.808   4.679
 6694SOL     OW20980   2.688   6.475   0.720
 6694SOL    HW120981   2.658   6.486   0.815
 6694SOL    HW220982   2.736   6.388   0.711
 6695SOL     OW20983   1.391   1.696   6.945
 6695SOL    HW120984   1.469   1.675   7.004
 6695SOL    HW220985   1.378   1.622   6.879
 6696SOL     OW20986   2.104   3.192   1.915
 6696SOL    HW120987   2.139   3.284   1.933
 6696SOL    HW220988   2.141   3.129   1.984
 6697SOL     OW20989   5.037   1.604   3.206
 6697SOL    HW120990   4.988   1.587   3.292
 6697SOL    HW220991   5.038   1.703   3.188
 6698SOL     OW20992   3.724   3.658   0.274
 6698SOL    HW120993   3.794   3.613   0.329
 6698SOL    HW220994   3.659   3.703   0.334
 6699SOL     OW20995   1.093   3.682   6.879
 6699SOL    HW120996   1.000   3.708   6.855
 6699SOL    HW220997   1.119   3.600   6.829
 6700SOL     OW20998   6.653   6.369   6.745
 6700SOL    HW120999   6.610   6.407   6.827
 6700SOL    HW221000   6.586   6.313   6.695
 6701SOL     OW21001   0.840   2.012   0.636
 6701SOL    HW121002   0.887   2.099   0.622
 6701SOL    HW221003   0.903   1.945   0.675
 6702SOL     OW21004   2.144   2.313   1.173
 6702SOL    HW121005   2.086   2.342   1.096
 6702SOL    HW221006   2.219   2.256   1.139
 6703SOL     OW21007   0.573   2.156   6.477
 6703SOL    HW121008   0.528   2.210   6.548
 6703SOL    HW221009   0.670   2.143   6.501
 6704SOL     OW21010   5.200   1.938   2.899
 6704SOL    HW121011   5.165   2.027   2.926
 6704SOL    HW221012   5.281   1.950   2.841
 6705SOL     OW21013   5.966   1.488   0.360
 6705SOL    HW121014   5.921   1.461   0.445
 6705SOL    HW221015   5.977   1.587   0.358
 6706SOL     OW21016   0.554   4.935   6.308
 6706SOL    HW121017   0.576   4.923   6.405
 6706SOL    HW221018   0.457   4.959   6.299
 6707SOL     OW21019   1.869   6.004   2.346
 6707SOL    HW121020   1.909   5.994   2.437
 6707SOL    HW221021   1.933   5.969   2.277
 6708SOL     OW21022   2.284   5.907   1.099
 6708SOL    HW121023   2.213   5.862   1.154
 6708SOL    HW221024   2.318   5.988   1.147
 6709SOL     OW21025   5.081   1.173   2.785
 6709SOL    HW121026   5.161   1.191   2.728
 6709SOL    HW221027   5.014   1.246   2.774
 6710SOL     OW21028   2.300   2.641   1.266
 6710SOL    HW121029   2.224   2.604   1.320
 6710SOL    HW221030   2.355   2.702   1.324
 6711SOL     OW21031   3.811   3.871   0.745
 6711SOL    HW121032   3.728   3.845   0.696
 6711SOL    HW221033   3.823   3.812   0.825
 6712SOL     OW21034   3.388   5.828   0.552
 6712SOL    HW121035   3.315   5.893   0.576
 6712SOL    HW221036   3.347   5.744   0.517
 6713SOL     OW21037   2.059   1.668   2.212
 6713SOL    HW121038   2.122   1.596   2.183
 6713SOL    HW221039   2.082   1.753   2.165
 6714SOL     OW21040   6.624   0.383   4.206
 6714SOL    HW121041   6.663   0.422   4.123
 6714SOL    HW221042   6.608   0.285   4.191
 6715SOL     OW21043   0.868   1.831   0.950
 6715SOL    HW121044   0.876   1.930   0.944
 6715SOL    HW221045   0.865   1.792   0.858
 6716SOL     OW21046   2.225   5.666   0.457
 6716SOL    HW121047   2.260   5.593   0.398
 6716SOL    HW221048   2.278   5.749   0.441
 6717SOL     OW21049   3.839   1.638   6.490
 6717SOL    HW121050   3.897   1.559   6.466
 6717SOL    HW221051   3.743   1.611   6.484
 6718SOL     OW21052   3.485   0.016   0.263
 6718SOL    HW121053   3.504   0.106   0.302
 6718SOL    HW221054   3.448   0.026   0.171
 6719SOL     OW21055   0.791   0.601   5.304
 6719SOL    HW121056   0.784   0.572   5.399
 6719SOL    HW221057   0.750   0.531   5.245
 6720SOL     OW21058   1.964   4.794   1.929
 6720SOL    HW121059   2.041   4.770   1.870
 6720SOL    HW221060   1.910   4.865   1.884
 6721SOL     OW21061   6.377   6.791   3.818
 6721SOL    HW121062   6.434   6.733   3.760
 6721SOL    HW221063   6.283   6.757   3.817
 6722SOL     OW21064   4.706   3.811   6.973
 6722SOL    HW121065   4.711   3.908   6.949
 6722SOL    HW221066   4.620   3.793   7.020
 6723SOL     OW21067   3.700   6.517   1.623
 6723SOL    HW121068   3.652   6.511   1.711
 6723SOL    HW221069   3.752   6.603   1.620
 6724SOL     OW21070   3.474   4.884   5.570
 6724SOL    HW121071   3.438   4.791   5.578
 6724SOL    HW221072   3.468   4.930   5.658
 6725SOL     OW21073   0.535   4.750   2.342
 6725SOL    HW121074   0.461   4.808   2.377
 6725SOL    HW221075   0.552   4.675   2.407
 6726SOL     OW21076   2.432   2.544   2.362
 6726SOL    HW121077   2.492   2.539   2.283
 6726SOL    HW221078   2.478   2.505   2.442
 6727SOL     OW21079   3.635   4.061   0.031
 6727SOL    HW121080   3.644   4.122   6.974
 6727SOL    HW221081   3.676   4.105   0.111
 6728SOL     OW21082   5.077   0.879   4.054
 6728SOL    HW121083   5.131   0.947   4.104
 6728SOL    HW221084   5.064   0.909   3.960
 6729SOL     OW21085   6.193   6.811   2.927
 6729SOL    HW121086   6.236   6.797   2.838
 6729SOL    HW221087   6.096   6.832   2.914
 6730SOL     OW21088   1.600   0.139   1.164
 6730SOL    HW121089   1.637   0.100   1.080
 6730SOL    HW221090   1.534   0.075   1.205
 6731SOL     OW21091   2.481   4.529   2.039
 6731SOL    HW121092   2.533   4.559   2.119
 6731SOL    HW221093   2.391   4.571   2.039
 6732SOL     OW21094   1.814   4.561   0.842
 6732SOL    HW121095   1.774   4.651   0.858
 6732SOL    HW221096   1.842   4.554   0.746
 6733SOL     OW21097   5.681   5.713   5.433
 6733SOL    HW121098   5.662   5.627   5.479
 6733SOL    HW221099   5.773   5.744   5.456
 6734SOL     OW21100   2.528   3.715   5.495
 6734SOL    HW121101   2.518   3.622   5.530
 6734SOL    HW221102   2.439   3.761   5.495
 6735SOL     OW21103   0.014   5.148   6.502
 6735SOL    HW121104   0.042   5.233   6.457
 6735SOL    HW221105   6.957   5.110   6.454
 6736SOL     OW21106   2.134   3.629   2.554
 6736SOL    HW121107   2.116   3.611   2.457
 6736SOL    HW221108   2.119   3.546   2.607
 6737SOL     OW21109   2.206   0.886   1.326
 6737SOL    HW121110   2.244   0.934   1.405
 6737SOL    HW221111   2.107   0.887   1.331
 6738SOL     OW21112   4.007   1.839   2.285
 6738SOL    HW121113   3.946   1.845   2.364
 6738SOL    HW221114   4.077   1.910   2.291
 6739SOL     OW21115   4.279   6.484   4.885
 6739SOL    HW121116   4.324   6.569   4.859
 6739SOL    HW221117   4.193   6.504   4.932
 6740SOL     OW21118   6.006   2.707   4.453
 6740SOL    HW121119   6.000   2.762   4.370
 6740SOL    HW221120   6.053   2.621   4.434
 6741SOL     OW21121   0.153   0.029   5.842
 6741SOL    HW121122   0.232   0.082   5.874
 6741SOL    HW221123   0.093   0.009   5.920
 6742SOL     OW21124   6.657   5.925   5.778
 6742SOL    HW121125   6.686   5.992   5.846
 6742SOL    HW221126   6.673   5.832   5.813
 6743SOL     OW21127   4.716   3.250   0.790
 6743SOL    HW121128   4.633   3.304   0.801
 6743SOL    HW221129   4.746   3.252   0.695
 6744SOL     OW21130   5.608   5.208   5.619
 6744SOL    HW121131   5.529   5.148   5.615
 6744SOL    HW221132   5.670   5.177   5.691
 6745SOL     OW21133   0.006   3.823   3.876
 6745SOL    HW121134   0.038   3.778   3.960
 6745SOL    HW221135   6.932   3.799   3.861
 6746SOL     OW21136   6.745   1.531   1.133
 6746SOL    HW121137   6.799   1.608   1.101
 6746SOL    HW221138   6.805   1.456   1.160
 6747SOL     OW21139   5.291   6.157   6.242
 6747SOL    HW121140   5.380   6.174   6.285
 6747SOL    HW221141   5.293   6.192   6.148
 6748SOL     OW21142   6.467   6.546   1.955
 6748SOL    HW121143   6.396   6.530   1.886
 6748SOL    HW221144   6.505   6.459   1.985
 6749SOL     OW21145   3.543   5.844   0.990
 6749SOL    HW121146   3.570   5.818   0.898
 6749SOL    HW221147   3.499   5.934   0.988
 6750SOL     OW21148   2.622   3.359   5.351
 6750SOL    HW121149   2.622   3.321   5.443
 6750SOL    HW221150   2.599   3.287   5.285
 6751SOL     OW21151   3.225   2.180   5.593
 6751SOL    HW121152   3.263   2.245   5.659
 6751SOL    HW221153   3.279   2.182   5.509
 6752SOL     OW21154   6.225   2.130   0.383
 6752SOL    HW121155   6.172   2.099   0.304
 6752SOL    HW221156   6.260   2.222   0.365
 6753SOL     OW21157   5.206   1.839   6.028
 6753SOL    HW121158   5.191   1.745   5.997
 6753SOL    HW221159   5.138   1.863   6.098
 6754SOL     OW21160   5.206   1.026   0.322
 6754SOL    HW121161   5.244   1.051   0.234
 6754SOL    HW221162   5.168   0.933   0.318
 6755SOL     OW21163   5.318   1.802   3.235
 6755SOL    HW121164   5.321   1.892   3.192
 6755SOL    HW221165   5.403   1.753   3.215
 6756SOL     OW21166   5.127   4.304   3.729
 6756SOL    HW121167   5.090   4.213   3.712
 6756SOL    HW221168   5.129   4.356   3.643
 6757SOL     OW21169   5.100   4.906   2.459
 6757SOL    HW121170   5.199   4.902   2.466
 6757SOL    HW221171   5.062   4.950   2.541
 6758SOL     OW21172   5.883   1.672   2.913
 6758SOL    HW121173   5.952   1.619   2.864
 6758SOL    HW221174   5.833   1.730   2.849
 6759SOL     OW21175   0.891   4.468   3.142
 6759SOL    HW121176   0.867   4.371   3.153
 6759SOL    HW221177   0.953   4.479   3.065
 6760SOL     OW21178   0.039   4.286   4.847
 6760SOL    HW121179   0.106   4.242   4.786
 6760SOL    HW221180   0.042   4.243   4.937
 6761SOL     OW21181   5.926   3.556   6.338
 6761SOL    HW121182   5.986   3.614   6.282
 6761SOL    HW221183   5.912   3.468   6.293
 6762SOL     OW21184   5.662   4.973   3.519
 6762SOL    HW121185   5.601   5.023   3.580
 6762SOL    HW221186   5.634   4.876   3.516
 6763SOL     OW21187   5.839   6.361   5.887
 6763SOL    HW121188   5.889   6.276   5.905
 6763SOL    HW221189   5.773   6.346   5.814
 6764SOL     OW21190   2.148   3.626   0.166
 6764SOL    HW121191   2.075   3.572   0.208
 6764SOL    HW221192   2.228   3.626   0.225
 6765SOL     OW21193   5.180   5.328   2.904
 6765SOL    HW121194   5.163   5.383   2.985
 6765SOL    HW221195   5.095   5.314   2.854
 6766SOL     OW21196   1.619   1.556   5.698
 6766SOL    HW121197   1.617   1.468   5.746
 6766SOL    HW221198   1.639   1.541   5.601
 6767SOL     OW21199   1.159   2.668   5.375
 6767SOL    HW121200   1.241   2.673   5.319
 6767SOL    HW221201   1.140   2.758   5.415
 6768SOL     OW21202   0.381   0.397   5.617
 6768SOL    HW121203   0.300   0.340   5.632
 6768SOL    HW221204   0.442   0.391   5.696
 6769SOL     OW21205   1.219   2.868   6.517
 6769SOL    HW121206   1.305   2.918   6.504
 6769SOL    HW221207   1.162   2.917   6.583
 6770SOL     OW21208   6.932   1.128   4.213
 6770SOL    HW121209   0.003   1.147   4.244
 6770SOL    HW221210   6.868   1.148   4.287
 6771SOL     OW21211   4.124   1.762   2.049
 6771SOL    HW121212   4.085   1.824   1.981
 6771SOL    HW221213   4.066   1.763   2.131
 6772SOL     OW21214   0.790   1.135   1.640
 6772SOL    HW121215   0.847   1.079   1.580
 6772SOL    HW221216   0.705   1.159   1.592
 6773SOL     OW21217   1.018   0.594   2.087
 6773SOL    HW121218   0.938   0.541   2.117
 6773SOL    HW221219   1.002   0.691   2.106
 6774SOL     OW21220   3.055   0.981   5.577
 6774SOL    HW121221   3.082   1.062   5.629
 6774SOL    HW221222   3.136   0.932   5.547
 6775SOL     OW21223   0.956   3.084   4.956
 6775SOL    HW121224   1.037   3.095   4.898
 6775SOL    HW221225   0.984   3.071   5.051
 6776SOL     OW21226   3.210   4.073   3.159
 6776SOL    HW121227   3.154   4.048   3.080
 6776SOL    HW221228   3.190   4.167   3.185
 6777SOL     OW21229   0.465   0.056   6.445
 6777SOL    HW121230   0.444   7.010   6.514
 6777SOL    HW221231   0.564   0.072   6.442
 6778SOL     OW21232   6.179   6.222   2.523
 6778SOL    HW121233   6.180   6.124   2.545
 6778SOL    HW221234   6.091   6.262   2.550
 6779SOL     OW21235   4.824   4.401   6.690
 6779SOL    HW121236   4.762   4.375   6.764
 6779SOL    HW221237   4.794   4.486   6.649
 6780SOL     OW21238   3.996   1.153   2.207
 6780SOL    HW121239   3.936   1.212   2.154
 6780SOL    HW221240   4.091   1.183   2.195
 6781SOL     OW21241   6.085   2.698   3.061
 6781SOL    HW121242   6.080   2.677   2.963
 6781SOL    HW221243   6.042   2.624   3.112
 6782SOL     OW21244   0.318   1.359   3.157
 6782SOL    HW121245   0.353   1.311   3.238
 6782SOL    HW221246   0.294   1.453   3.182
 6783SOL     OW21247   0.527   6.075   5.966
 6783SOL    HW121248   0.538   6.017   6.046
 6783SOL    HW221249   0.577   6.035   5.889
 6784SOL     OW21250   1.536   4.789   1.209
 6784SOL    HW121251   1.572   4.871   1.164
 6784SOL    HW221252   1.455   4.813   1.262
 6785SOL     OW21253   5.641   4.714   3.422
 6785SOL    HW121254   5.596   4.738   3.336
 6785SOL    HW221255   5.589   4.643   3.469
 6786SOL     OW21256   6.566   2.051   5.865
 6786SOL    HW121257   6.603   1.985   5.799
 6786SOL    HW221258   6.468   2.032   5.878
 6787SOL     OW21259   3.226   1.162   0.807
 6787SOL    HW121260   3.304   1.153   0.745
 6787SOL    HW221261   3.164   1.232   0.772
 6788SOL     OW21262   0.663   4.530   1.319
 6788SOL    HW121263   0.615   4.464   1.377
 6788SOL    HW221264   0.761   4.510   1.318
 6789SOL     OW21265   6.109   4.633   2.827
 6789SOL    HW121266   6.043   4.564   2.856
 6789SOL    HW221267   6.186   4.589   2.781
 6790SOL     OW21268   0.698   6.167   1.137
 6790SOL    HW121269   0.666   6.072   1.138
 6790SOL    HW221270   0.781   6.174   1.083
 6791SOL     OW21271   2.410   5.875   3.616
 6791SOL    HW121272   2.312   5.866   3.632
 6791SOL    HW221273   2.442   5.961   3.658
 6792SOL     OW21274   3.508   6.662   6.140
 6792SOL    HW121275   3.455   6.612   6.209
 6792SOL    HW221276   3.574   6.722   6.186
 6793SOL     OW21277   2.464   3.553   6.005
 6793SOL    HW121278   2.469   3.509   6.094
 6793SOL    HW221279   2.510   3.642   6.009
 6794SOL     OW21280   5.019   2.478   5.006
 6794SOL    HW121281   5.014   2.401   5.070
 6794SOL    HW221282   4.934   2.530   5.011
 6795SOL     OW21283   0.667   0.686   1.559
 6795SOL    HW121284   0.756   0.649   1.586
 6795SOL    HW221285   0.639   0.646   1.472
 6796SOL     OW21286   6.906   1.978   2.521
 6796SOL    HW121287   6.822   1.937   2.484
 6796SOL    HW221288   6.899   2.077   2.516
 6797SOL     OW21289   1.445   3.124   0.979
 6797SOL    HW121290   1.436   3.213   0.934
 6797SOL    HW221291   1.403   3.128   1.070
 6798SOL     OW21292   4.686   1.207   1.686
 6798SOL    HW121293   4.736   1.249   1.763
 6798SOL    HW221294   4.620   1.273   1.650
 6799SOL     OW21295   6.697   6.870   2.812
 6799SOL    HW121296   6.625   6.938   2.798
 6799SOL    HW221297   6.687   6.830   2.904
 6800SOL     OW21298   6.394   3.022   1.831
 6800SOL    HW121299   6.367   3.041   1.925
 6800SOL    HW221300   6.475   3.075   1.808
 6801SOL     OW21301   1.313   5.696   6.246
 6801SOL    HW121302   1.386   5.628   6.256
 6801SOL    HW221303   1.327   5.769   6.312
 6802SOL     OW21304   3.066   4.752   1.836
 6802SOL    HW121305   2.999   4.682   1.859
 6802SOL    HW221306   3.029   4.843   1.859
 6803SOL     OW21307   5.289   5.044   6.316
 6803SOL    HW121308   5.293   4.968   6.252
 6803SOL    HW221309   5.327   5.017   6.403
 6804SOL     OW21310   3.457   5.491   2.150
 6804SOL    HW121311   3.444   5.581   2.191
 6804SOL    HW221312   3.463   5.500   2.050
 6805SOL     OW21313   0.828   3.867   3.857
 6805SOL    HW121314   0.906   3.842   3.800
 6805SOL    HW221315   0.823   3.967   3.866
 6806SOL     OW21316   5.926   3.287   2.410
 6806SOL    HW121317   5.907   3.324   2.319
 6806SOL    HW221318   6.025   3.281   2.424
 6807SOL     OW21319   2.949   3.796   2.487
 6807SOL    HW121320   2.896   3.875   2.459
 6807SOL    HW221321   3.047   3.814   2.472
 6808SOL     OW21322   3.687   0.291   3.578
 6808SOL    HW121323   3.726   0.382   3.591
 6808SOL    HW221324   3.722   0.253   3.492
 6809SOL     OW21325   5.712   2.747   0.619
 6809SOL    HW121326   5.634   2.694   0.653
 6809SOL    HW221327   5.791   2.687   0.609
 6810SOL     OW21328   2.812   0.728   4.948
 6810SOL    HW121329   2.853   0.817   4.925
 6810SOL    HW221330   2.851   0.657   4.888
 6811SOL     OW21331   6.823   1.977   1.397
 6811SOL    HW121332   6.895   1.907   1.397
 6811SOL    HW221333   6.780   1.980   1.487
 6812SOL     OW21334   3.598   4.445   5.627
 6812SOL    HW121335   3.611   4.429   5.530
 6812SOL    HW221336   3.509   4.489   5.641
 6813SOL     OW21337   6.952   3.968   2.273
 6813SOL    HW121338   6.934   3.955   2.176
 6813SOL    HW221339   0.005   4.032   2.285
 6814SOL     OW21340   5.723   1.387   1.102
 6814SOL    HW121341   5.752   1.324   1.174
 6814SOL    HW221342   5.720   1.338   1.014
 6815SOL     OW21343   0.417   5.941   6.640
 6815SOL    HW121344   0.497   5.993   6.609
 6815SOL    HW221345   0.418   5.933   6.739
 6816SOL     OW21346   6.457   6.731   4.548
 6816SOL    HW121347   6.371   6.781   4.536
 6816SOL    HW221348   6.465   6.660   4.478
 6817SOL     OW21349   5.147   2.149   1.743
 6817SOL    HW121350   5.089   2.223   1.707
 6817SOL    HW221351   5.090   2.072   1.770
 6818SOL     OW21352   0.937   6.870   5.138
 6818SOL    HW121353   0.852   6.825   5.166
 6818SOL    HW221354   0.952   6.950   5.195
 6819SOL     OW21355   4.913   4.290   1.612
 6819SOL    HW121356   4.965   4.270   1.528
 6819SOL    HW221357   4.871   4.381   1.603
 6820SOL     OW21358   2.813   5.264   1.421
 6820SOL    HW121359   2.750   5.192   1.391
 6820SOL    HW221360   2.906   5.240   1.394
 6821SOL     OW21361   2.952   2.926   6.419
 6821SOL    HW121362   3.011   2.976   6.482
 6821SOL    HW221363   2.978   2.829   6.418
 6822SOL     OW21364   6.022   3.740   5.389
 6822SOL    HW121365   5.990   3.650   5.420
 6822SOL    HW221366   6.121   3.738   5.374
 6823SOL     OW21367   0.244   3.077   6.012
 6823SOL    HW121368   0.152   3.074   6.052
 6823SOL    HW221369   0.290   2.990   6.030
 6824SOL     OW21370   1.452   0.382   5.211
 6824SOL    HW121371   1.527   0.443   5.238
 6824SOL    HW221372   1.484   0.320   5.139
 6825SOL     OW21373   4.414   4.550   1.413
 6825SOL    HW121374   4.446   4.645   1.410
 6825SOL    HW221375   4.314   4.550   1.413
 6826SOL     OW21376   5.651   0.283   3.287
 6826SOL    HW121377   5.564   0.264   3.242
 6826SOL    HW221378   5.662   0.222   3.365
 6827SOL     OW21379   4.312   5.635   5.421
 6827SOL    HW121380   4.333   5.726   5.385
 6827SOL    HW221381   4.323   5.568   5.348
 6828SOL     OW21382   3.361   1.992   2.087
 6828SOL    HW121383   3.294   2.063   2.066
 6828SOL    HW221384   3.433   1.992   2.018
 6829SOL     OW21385   4.622   6.498   3.958
 6829SOL    HW121386   4.560   6.460   3.889
 6829SOL    HW221387   4.571   6.559   4.018
 6830SOL     OW21388   3.990   5.518   2.251
 6830SOL    HW121389   3.953   5.583   2.184
 6830SOL    HW221390   3.973   5.425   2.219
 6831SOL     OW21391   1.438   1.265   6.508
 6831SOL    HW121392   1.506   1.214   6.562
 6831SOL    HW221393   1.474   1.282   6.417
 6832SOL     OW21394   2.981   2.622   6.823
 6832SOL    HW121395   3.002   2.681   6.900
 6832SOL    HW221396   2.902   2.657   6.774
 6833SOL     OW21397   4.236   5.019   6.363
 6833SOL    HW121398   4.155   4.963   6.381
 6833SOL    HW221399   4.208   5.109   6.332
 6834SOL     OW21400   6.271   6.238   6.369
 6834SOL    HW121401   6.321   6.170   6.316
 6834SOL    HW221402   6.304   6.330   6.346
 6835SOL     OW21403   3.563   0.798   3.664
 6835SOL    HW121404   3.490   0.767   3.725
 6835SOL    HW221405   3.592   0.723   3.605
 6836SOL     OW21406   0.341   4.170   6.226
 6836SOL    HW121407   0.415   4.197   6.289
 6836SOL    HW221408   0.277   4.111   6.275
 6837SOL     OW21409   6.356   0.633   2.052
 6837SOL    HW121410   6.414   0.682   1.987
 6837SOL    HW221411   6.329   0.694   2.125
 6838SOL     OW21412   2.940   3.896   5.817
 6838SOL    HW121413   2.896   3.970   5.767
 6838SOL    HW221414   3.040   3.905   5.810
 6839SOL     OW21415   5.745   2.990   4.741
 6839SOL    HW121416   5.802   3.052   4.686
 6839SOL    HW221417   5.787   2.900   4.744
 6840SOL     OW21418   2.549   5.909   4.965
 6840SOL    HW121419   2.557   5.992   4.910
 6840SOL    HW221420   2.613   5.913   5.042
 6841SOL     OW21421   4.783   6.824   1.031
 6841SOL    HW121422   4.714   6.814   1.103
 6841SOL    HW221423   4.824   6.735   1.012
 6842SOL     OW21424   0.489   3.880   4.229
 6842SOL    HW121425   0.547   3.948   4.274
 6842SOL    HW221426   0.425   3.927   4.168
 6843SOL     OW21427   4.571   2.747   1.772
 6843SOL    HW121428   4.588   2.846   1.774
 6843SOL    HW221429   4.513   2.724   1.694
 6844SOL     OW21430   3.287   5.871   4.390
 6844SOL    HW121431   3.274   5.785   4.440
 6844SOL    HW221432   3.341   5.853   4.308
 6845SOL     OW21433   4.009   4.291   0.281
 6845SOL    HW121434   4.089   4.233   0.291
 6845SOL    HW221435   4.011   4.337   0.192
 6846SOL     OW21436   4.149   3.418   2.690
 6846SOL    HW121437   4.246   3.402   2.710
 6846SOL    HW221438   4.102   3.444   2.774
 6847SOL     OW21439   6.633   3.482   1.635
 6847SOL    HW121440   6.724   3.472   1.596
 6847SOL    HW221441   6.633   3.556   1.703
 6848SOL     OW21442   0.238   6.077   4.170
 6848SOL    HW121443   0.305   6.129   4.117
 6848SOL    HW221444   0.169   6.140   4.206
 6849SOL     OW21445   3.241   6.817   4.480
 6849SOL    HW121446   3.162   6.853   4.432
 6849SOL    HW221447   3.210   6.750   4.549
 6850SOL     OW21448   5.589   3.713   1.474
 6850SOL    HW121449   5.589   3.631   1.532
 6850SOL    HW221450   5.512   3.708   1.409
 6851SOL     OW21451   1.081   5.000   5.329
 6851SOL    HW121452   0.997   5.041   5.366
 6851SOL    HW221453   1.120   5.061   5.259
 6852SOL     OW21454   6.765   5.184   2.472
 6852SOL    HW121455   6.816   5.178   2.387
 6852SOL    HW221456   6.728   5.094   2.495
 6853SOL     OW21457   6.331   4.182   5.170
 6853SOL    HW121458   6.419   4.137   5.186
 6853SOL    HW221459   6.267   4.156   5.242
 6854SOL     OW21460   7.006   2.022   6.403
 6854SOL    HW121461   6.931   1.983   6.456
 6854SOL    HW221462   7.018   1.968   6.319
 6855SOL     OW21463   2.917   6.587   1.892
 6855SOL    HW121464   2.974   6.505   1.893
 6855SOL    HW221465   2.881   6.604   1.984
 6856SOL     OW21466   0.065   4.845   5.489
 6856SOL    HW121467   0.117   4.927   5.512
 6856SOL    HW221468   0.103   4.767   5.539
 6857SOL     OW21469   3.554   1.079   6.184
 6857SOL    HW121470   3.579   1.059   6.278
 6857SOL    HW221471   3.578   1.174   6.162
 6858SOL     OW21472   3.832   3.069   5.806
 6858SOL    HW121473   3.932   3.067   5.808
 6858SOL    HW221474   3.801   3.120   5.727
 6859SOL     OW21475   3.391   0.807   0.582
 6859SOL    HW121476   3.359   0.744   0.511
 6859SOL    HW221477   3.322   0.814   0.654
 6860SOL     OW21478   4.571   3.967   6.678
 6860SOL    HW121479   4.632   4.009   6.745
 6860SOL    HW221480   4.478   4.004   6.688
 6861SOL     OW21481   5.646   4.021   0.637
 6861SOL    HW121482   5.650   4.064   0.728
 6861SOL    HW221483   5.555   4.035   0.598
 6862SOL     OW21484   2.521   5.086   4.114
 6862SOL    HW121485   2.605   5.032   4.113
 6862SOL    HW221486   2.500   5.114   4.208
 6863SOL     OW21487   0.533   2.909   3.900
 6863SOL    HW121488   0.488   2.820   3.899
 6863SOL    HW221489   0.534   2.945   3.994
 6864SOL     OW21490   4.764   5.725   6.093
 6864SOL    HW121491   4.825   5.656   6.132
 6864SOL    HW221492   4.772   5.726   5.994
 6865SOL     OW21493   6.791   3.368   4.345
 6865SOL    HW121494   6.798   3.321   4.433
 6865SOL    HW221495   6.699   3.353   4.307
 6866SOL     OW21496   0.404   3.006   2.244
 6866SOL    HW121497   0.313   2.967   2.235
 6866SOL    HW221498   0.457   2.987   2.161
 6867SOL     OW21499   2.756   5.414   3.099
 6867SOL    HW121500   2.671   5.412   3.047
 6867SOL    HW221501   2.818   5.481   3.058
 6868SOL     OW21502   1.375   5.493   4.700
 6868SOL    HW121503   1.458   5.509   4.646
 6868SOL    HW221504   1.310   5.568   4.684
 6869SOL     OW21505   6.499   3.385   4.541
 6869SOL    HW121506   6.425   3.384   4.608
 6869SOL    HW221507   6.543   3.295   4.539
 6870SOL     OW21508   5.555   3.732   2.345
 6870SOL    HW121509   5.505   3.759   2.263
 6870SOL    HW221510   5.637   3.680   2.319
 6871SOL     OW21511   4.979   6.906   1.613
 6871SOL    HW121512   4.994   6.951   1.525
 6871SOL    HW221513   5.059   6.852   1.637
 6872SOL     OW21514   2.874   3.601   6.716
 6872SOL    HW121515   2.872   3.696   6.749
 6872SOL    HW221516   2.781   3.566   6.712
 6873SOL     OW21517   5.440   3.947   5.509
 6873SOL    HW121518   5.461   3.937   5.607
 6873SOL    HW221519   5.469   4.037   5.478
 6874SOL     OW21520   1.461   2.408   5.404
 6874SOL    HW121521   1.495   2.380   5.314
 6874SOL    HW221522   1.507   2.356   5.475
 6875SOL     OW21523   3.179   2.157   3.996
 6875SOL    HW121524   3.094   2.186   4.040
 6875SOL    HW221525   3.165   2.150   3.897
 6876SOL     OW21526   3.178   6.237   4.700
 6876SOL    HW121527   3.195   6.250   4.798
 6876SOL    HW221528   3.257   6.268   4.648
 6877SOL     OW21529   2.179   3.728   6.759
 6877SOL    HW121530   2.252   3.662   6.740
 6877SOL    HW221531   2.092   3.693   6.723
 6878SOL     OW21532   1.820   2.129   4.805
 6878SOL    HW121533   1.803   2.204   4.870
 6878SOL    HW221534   1.891   2.158   4.740
 6879SOL     OW21535   1.011   0.805   6.012
 6879SOL    HW121536   0.986   0.841   5.922
 6879SOL    HW221537   1.037   0.709   6.004
 6880SOL     OW21538   1.871   3.906   4.519
 6880SOL    HW121539   1.840   3.988   4.567
 6880SOL    HW221540   1.875   3.829   4.583
 6881SOL     OW21541   5.945   5.685   2.186
 6881SOL    HW121542   5.892   5.662   2.268
 6881SOL    HW221543   5.885   5.685   2.106
 6882SOL     OW21544   2.822   6.290   5.203
 6882SOL    HW121545   2.889   6.335   5.264
 6882SOL    HW221546   2.845   6.311   5.108
 6883SOL     OW21547   3.183   6.359   1.128
 6883SOL    HW121548   3.121   6.384   1.202
 6883SOL    HW221549   3.208   6.263   1.136
 6884SOL     OW21550   2.429   5.077   2.986
 6884SOL    HW121551   2.336   5.114   2.983
 6884SOL    HW221552   2.459   5.070   3.081
 6885SOL     OW21553   3.900   5.536   5.482
 6885SOL    HW121554   3.923   5.631   5.462
 6885SOL    HW221555   3.800   5.525   5.479
 6886SOL     OW21556   5.280   1.834   2.194
 6886SOL    HW121557   5.219   1.898   2.148
 6886SOL    HW221558   5.367   1.830   2.146
 6887SOL     OW21559   4.593   0.825   5.312
 6887SOL    HW121560   4.552   0.735   5.293
 6887SOL    HW221561   4.619   0.868   5.226
 6888SOL     OW21562   5.751   6.715   5.290
 6888SOL    HW121563   5.822   6.700   5.358
 6888SOL    HW221564   5.787   6.770   5.215
 6889SOL     OW21565   1.498   4.207   6.112
 6889SOL    HW121566   1.509   4.152   6.029
 6889SOL    HW221567   1.424   4.273   6.099
 6890SOL     OW21568   1.961   0.571   0.732
 6890SOL    HW121569   2.007   0.656   0.760
 6890SOL    HW221570   2.017   0.493   0.759
 6891SOL     OW21571   3.884   5.058   4.955
 6891SOL    HW121572   3.879   4.959   4.964
 6891SOL    HW221573   3.800   5.099   4.991
 6892SOL     OW21574   3.716   1.161   4.667
 6892SOL    HW121575   3.668   1.077   4.695
 6892SOL    HW221576   3.714   1.226   4.742
 6893SOL     OW21577   6.068   6.887   1.636
 6893SOL    HW121578   6.159   6.853   1.658
 6893SOL    HW221579   6.030   6.936   1.715
 6894SOL     OW21580   6.291   4.753   5.423
 6894SOL    HW121581   6.241   4.682   5.374
 6894SOL    HW221582   6.321   4.717   5.512
 6895SOL     OW21583   3.687   4.908   6.389
 6895SOL    HW121584   3.671   4.828   6.446
 6895SOL    HW221585   3.731   4.979   6.444
 6896SOL     OW21586   4.703   0.631   2.904
 6896SOL    HW121587   4.763   0.681   2.966
 6896SOL    HW221588   4.653   0.561   2.955
 6897SOL     OW21589   3.278   1.769   0.615
 6897SOL    HW121590   3.234   1.823   0.687
 6897SOL    HW221591   3.376   1.767   0.630
 6898SOL     OW21592   3.585   1.607   3.353
 6898SOL    HW121593   3.537   1.688   3.322
 6898SOL    HW221594   3.519   1.539   3.385
 6899SOL     OW21595   5.597   6.236   6.718
 6899SOL    HW121596   5.576   6.312   6.658
 6899SOL    HW221597   5.597   6.268   6.813
 6900SOL     OW21598   3.987   1.137   5.777
 6900SOL    HW121599   4.051   1.214   5.780
 6900SOL    HW221600   4.035   1.053   5.804
 6901SOL     OW21601   1.407   0.715   0.859
 6901SOL    HW121602   1.383   0.680   0.768
 6901SOL    HW221603   1.330   0.700   0.922
 6902SOL     OW21604   6.275   5.343   1.827
 6902SOL    HW121605   6.356   5.284   1.821
 6902SOL    HW221606   6.303   5.438   1.835
 6903SOL     OW21607   4.384   4.623   0.499
 6903SOL    HW121608   4.393   4.662   0.591
 6903SOL    HW221609   4.352   4.528   0.506
 6904SOL     OW21610   0.775   1.871   3.185
 6904SOL    HW121611   0.856   1.838   3.233
 6904SOL    HW221612   0.773   1.832   3.093
 6905SOL     OW21613   4.119   4.977   1.088
 6905SOL    HW121614   4.078   5.024   1.010
 6905SOL    HW221615   4.134   5.043   1.162
 6906SOL     OW21616   4.903   6.010   3.671
 6906SOL    HW121617   4.914   6.021   3.573
 6906SOL    HW221618   4.811   5.977   3.692
 6907SOL     OW21619   3.538   0.977   1.129
 6907SOL    HW121620   3.521   1.005   1.034
 6907SOL    HW221621   3.541   0.877   1.135
 6908SOL     OW21622   0.158   0.091   6.585
 6908SOL    HW121623   0.147   0.101   6.486
 6908SOL    HW221624   0.123   0.173   6.631
 6909SOL     OW21625   3.960   3.332   6.730
 6909SOL    HW121626   3.882   3.321   6.792
 6909SOL    HW221627   4.030   3.264   6.753
 6910SOL     OW21628   6.266   1.327   1.610
 6910SOL    HW121629   6.309   1.329   1.520
 6910SOL    HW221630   6.266   1.419   1.648
 6911SOL     OW21631   4.314   0.796   5.110
 6911SOL    HW121632   4.230   0.749   5.082
 6911SOL    HW221633   4.374   0.731   5.157
 6912SOL     OW21634   4.520   4.972   1.871
 6912SOL    HW121635   4.550   4.901   1.934
 6912SOL    HW221636   4.599   5.024   1.839
 6913SOL     OW21637   4.247   6.032   5.966
 6913SOL    HW121638   4.318   6.028   5.894
 6913SOL    HW221639   4.278   6.091   6.040
 6914SOL     OW21640   6.312   4.953   6.821
 6914SOL    HW121641   6.263   5.033   6.786
 6914SOL    HW221642   6.347   4.973   6.913
 6915SOL     OW21643   1.306   5.546   1.061
 6915SOL    HW121644   1.267   5.453   1.062
 6915SOL    HW221645   1.387   5.548   1.119
 6916SOL     OW21646   6.465   0.853   6.092
 6916SOL    HW121647   6.532   0.927   6.082
 6916SOL    HW221648   6.512   0.767   6.110
 6917SOL     OW21649   4.790   0.316   6.849
 6917SOL    HW121650   4.692   0.328   6.834
 6917SOL    HW221651   4.804   0.262   6.931
 6918SOL     OW21652   2.036   2.871   3.862
 6918SOL    HW121653   2.049   2.788   3.916
 6918SOL    HW221654   2.010   2.846   3.768
 6919SOL     OW21655   1.379   6.382   2.971
 6919SOL    HW121656   1.342   6.453   3.030
 6919SOL    HW221657   1.362   6.292   3.013
 6920SOL     OW21658   5.034   6.711   4.547
 6920SOL    HW121659   5.020   6.758   4.635
 6920SOL    HW221660   5.127   6.677   4.542
 6921SOL     OW21661   0.498   6.422   3.119
 6921SOL    HW121662   0.572   6.417   3.186
 6921SOL    HW221663   0.435   6.346   3.134
 6922SOL     OW21664   1.650   5.627   6.947
 6922SOL    HW121665   1.735   5.672   6.976
 6922SOL    HW221666   1.659   5.597   6.852
 6923SOL     OW21667   4.087   6.818   3.986
 6923SOL    HW121668   4.184   6.806   3.968
 6923SOL    HW221669   4.040   6.842   3.901
 6924SOL     OW21670   6.714   5.935   1.774
 6924SOL    HW121671   6.806   5.899   1.758
 6924SOL    HW221672   6.718   6.035   1.784
 6925SOL     OW21673   6.195   5.623   3.183
 6925SOL    HW121674   6.211   5.715   3.218
 6925SOL    HW221675   6.211   5.556   3.256
 6926SOL     OW21676   3.293   4.188   5.383
 6926SOL    HW121677   3.388   4.157   5.375
 6926SOL    HW221678   3.241   4.121   5.436
 6927SOL     OW21679   4.045   3.175   0.219
 6927SOL    HW121680   4.026   3.093   0.165
 6927SOL    HW221681   4.073   3.249   0.158
 6928SOL     OW21682   0.038   6.904   6.699
 6928SOL    HW121683   0.058   6.813   6.663
 6928SOL    HW221684   0.088   6.973   6.646
 6929SOL     OW21685   3.793   5.252   0.920
 6929SOL    HW121686   3.740   5.335   0.904
 6929SOL    HW221687   3.748   5.196   0.989
 6930SOL     OW21688   1.391   0.374   3.449
 6930SOL    HW121689   1.333   0.449   3.484
 6930SOL    HW221690   1.454   0.345   3.521
 6931SOL     OW21691   1.509   0.975   1.599
 6931SOL    HW121692   1.599   0.940   1.628
 6931SOL    HW221693   1.438   0.909   1.623
 6932SOL     OW21694   2.531   2.080   0.150
 6932SOL    HW121695   2.534   2.157   0.087
 6932SOL    HW221696   2.453   2.022   0.129
 6933SOL     OW21697   2.986   6.237   6.858
 6933SOL    HW121698   2.910   6.278   6.807
 6933SOL    HW221699   2.965   6.240   6.956
 6934SOL     OW21700   5.503   4.290   6.266
 6934SOL    HW121701   5.412   4.250   6.257
 6934SOL    HW221702   5.522   4.348   6.186
 6935SOL     OW21703   4.447   5.885   3.246
 6935SOL    HW121704   4.540   5.915   3.267
 6935SOL    HW221705   4.434   5.792   3.281
 6936SOL     OW21706   0.861   5.068   0.987
 6936SOL    HW121707   0.863   4.978   1.032
 6936SOL    HW221708   0.788   5.069   0.919
 6937SOL     OW21709   4.448   6.293   6.038
 6937SOL    HW121710   4.480   6.237   6.115
 6937SOL    HW221711   4.391   6.367   6.073
 6938SOL     OW21712   6.025   1.847   4.972
 6938SOL    HW121713   5.937   1.854   5.020
 6938SOL    HW221714   6.080   1.776   5.015
 6939SOL     OW21715   6.673   4.507   1.823
 6939SOL    HW121716   6.620   4.445   1.881
 6939SOL    HW221717   6.755   4.536   1.871
 6940SOL     OW21718   3.703   0.738   5.166
 6940SOL    HW121719   3.729   0.820   5.116
 6940SOL    HW221720   3.605   0.739   5.183
 6941SOL     OW21721   3.800   3.265   3.782
 6941SOL    HW121722   3.722   3.327   3.774
 6941SOL    HW221723   3.807   3.210   3.699
 6942SOL     OW21724   6.662   1.821   0.232
 6942SOL    HW121725   6.688   1.725   0.227
 6942SOL    HW221726   6.704   1.863   0.313
 6943SOL     OW21727   5.802   6.183   6.972
 6943SOL    HW121728   5.846   6.111   6.918
 6943SOL    HW221729   5.705   6.161   6.984
 6944SOL     OW21730   1.083   6.166   6.453
 6944SOL    HW121731   1.114   6.180   6.360
 6944SOL    HW221732   1.108   6.074   6.484
 6945SOL     OW21733   4.394   2.003   5.369
 6945SOL    HW121734   4.408   1.913   5.409
 6945SOL    HW221735   4.401   1.996   5.269
 6946SOL     OW21736   5.886   3.853   3.707
 6946SOL    HW121737   5.946   3.882   3.782
 6946SOL    HW221738   5.877   3.753   3.709
 6947SOL     OW21739   3.637   6.998   2.566
 6947SOL    HW121740   3.696   6.989   2.645
 6947SOL    HW221741   3.541   6.986   2.594
 6948SOL     OW21742   3.720   2.163   4.701
 6948SOL    HW121743   3.820   2.162   4.695
 6948SOL    HW221744   3.681   2.173   4.610
 6949SOL     OW21745   4.971   0.967   2.540
 6949SOL    HW121746   4.985   0.870   2.559
 6949SOL    HW221747   4.919   1.009   2.615
 6950SOL     OW21748   2.503   1.076   3.739
 6950SOL    HW121749   2.414   1.084   3.785
 6950SOL    HW221750   2.571   1.044   3.804
 6951SOL     OW21751   5.595   5.474   5.524
 6951SOL    HW121752   5.571   5.388   5.570
 6951SOL    HW221753   5.611   5.457   5.427
 6952SOL     OW21754   0.447   5.056   4.922
 6952SOL    HW121755   0.379   5.026   4.855
 6952SOL    HW221756   0.491   4.977   4.963
 6953SOL     OW21757   5.507   2.292   5.100
 6953SOL    HW121758   5.578   2.345   5.146
 6953SOL    HW221759   5.424   2.348   5.094
 6954SOL     OW21760   0.646   5.158   2.643
 6954SOL    HW121761   0.631   5.066   2.680
 6954SOL    HW221762   0.697   5.212   2.709
 6955SOL     OW21763   6.614   6.100   3.319
 6955SOL    HW121764   6.682   6.090   3.392
 6955SOL    HW221765   6.639   6.178   3.261
 6956SOL     OW21766   3.341   5.174   1.153
 6956SOL    HW121767   3.284   5.250   1.122
 6956SOL    HW221768   3.289   5.088   1.147
 6957SOL     OW21769   0.456   3.670   0.251
 6957SOL    HW121770   0.554   3.661   0.265
 6957SOL    HW221771   0.409   3.595   0.296
 6958SOL     OW21772   2.257   3.697   6.079
 6958SOL    HW121773   2.326   3.628   6.053
 6958SOL    HW221774   2.223   3.677   6.170
 6959SOL     OW21775   3.898   1.416   3.777
 6959SOL    HW121776   3.915   1.360   3.696
 6959SOL    HW221777   3.849   1.499   3.750
 6960SOL     OW21778   6.874   4.923   0.141
 6960SOL    HW121779   6.922   4.835   0.142
 6960SOL    HW221780   6.870   4.959   0.234
 6961SOL     OW21781   0.008   1.110   2.987
 6961SOL    HW121782   0.046   1.198   2.959
 6961SOL    HW221783   6.935   1.104   2.959
 6962SOL     OW21784   3.615   3.633   0.672
 6962SOL    HW121785   3.603   3.535   0.685
 6962SOL    HW221786   3.526   3.675   0.654
 6963SOL     OW21787   6.219   5.996   2.349
 6963SOL    HW121788   6.291   5.930   2.331
 6963SOL    HW221789   6.149   5.990   2.278
 6964SOL     OW21790   3.421   5.888   4.877
 6964SOL    HW121791   3.323   5.905   4.870
 6964SOL    HW221792   3.463   5.898   4.787
 6965SOL     OW21793   6.628   3.013   5.344
 6965SOL    HW121794   6.619   3.014   5.444
 6965SOL    HW221795   6.538   2.996   5.303
 6966SOL     OW21796   4.980   2.759   3.727
 6966SOL    HW121797   4.954   2.836   3.784
 6966SOL    HW221798   4.910   2.744   3.657
 6967SOL     OW21799   1.910   2.288   6.332
 6967SOL    HW121800   2.003   2.267   6.362
 6967SOL    HW221801   1.869   2.206   6.291
 6968SOL     OW21802   4.433   6.891   2.382
 6968SOL    HW121803   4.404   6.807   2.428
 6968SOL    HW221804   4.530   6.886   2.361
 6969SOL     OW21805   2.952   2.281   1.194
 6969SOL    HW121806   2.931   2.379   1.187
 6969SOL    HW221807   3.031   2.269   1.255
 6970SOL     OW21808   4.465   3.810   0.348
 6970SOL    HW121809   4.434   3.832   0.441
 6970SOL    HW221810   4.555   3.766   0.353
 6971SOL     OW21811   5.601   0.678   2.221
 6971SOL    HW121812   5.509   0.715   2.234
 6971SOL    HW221813   5.660   0.709   2.295
 6972SOL     OW21814   5.449   5.168   4.848
 6972SOL    HW121815   5.372   5.131   4.901
 6972SOL    HW221816   5.534   5.130   4.882
 6973SOL     OW21817   1.965   4.369   3.453
 6973SOL    HW121818   2.059   4.349   3.427
 6973SOL    HW221819   1.907   4.291   3.433
 6974SOL     OW21820   3.327   4.164   4.747
 6974SOL    HW121821   3.287   4.255   4.754
 6974SOL    HW221822   3.265   4.097   4.785
 6975SOL     OW21823   3.143   1.029   6.017
 6975SOL    HW121824   3.047   1.012   6.038
 6975SOL    HW221825   3.169   0.978   5.935
 6976SOL     OW21826   2.058   5.467   6.915
 6976SOL    HW121827   2.086   5.390   6.858
 6976SOL    HW221828   1.993   5.524   6.864
 6977SOL     OW21829   4.213   2.181   2.876
 6977SOL    HW121830   4.191   2.201   2.781
 6977SOL    HW221831   4.200   2.084   2.894
 6978SOL     OW21832   6.369   1.049   2.838
 6978SOL    HW121833   6.412   0.994   2.767
 6978SOL    HW221834   6.269   1.047   2.825
 6979SOL     OW21835   0.719   4.335   3.388
 6979SOL    HW121836   0.680   4.271   3.454
 6979SOL    HW221837   0.814   4.311   3.370
 6980SOL     OW21838   3.724   1.482   4.214
 6980SOL    HW121839   3.699   1.568   4.259
 6980SOL    HW221840   3.794   1.500   4.145
 6981SOL     OW21841   2.632   4.900   6.405
 6981SOL    HW121842   2.616   4.904   6.306
 6981SOL    HW221843   2.640   4.993   6.441
 6982SOL     OW21844   0.362   6.926   4.554
 6982SOL    HW121845   0.427   6.874   4.499
 6982SOL    HW221846   0.388   6.921   4.650
 6983SOL     OW21847   5.906   0.787   4.437
 6983SOL    HW121848   5.972   0.803   4.364
 6983SOL    HW221849   5.868   0.875   4.467
 6984SOL     OW21850   2.428   1.309   6.121
 6984SOL    HW121851   2.455   1.384   6.181
 6984SOL    HW221852   2.504   1.245   6.111
 6985SOL     OW21853   4.571   6.235   2.390
 6985SOL    HW121854   4.657   6.201   2.350
 6985SOL    HW221855   4.501   6.241   2.319
 6986SOL     OW21856   2.336   6.876   4.801
 6986SOL    HW121857   2.385   6.824   4.871
 6986SOL    HW221858   2.239   6.879   4.823
 6987SOL     OW21859   6.644   3.689   6.777
 6987SOL    HW121860   6.597   3.765   6.731
 6987SOL    HW221861   6.734   3.719   6.808
 6988SOL     OW21862   5.102   1.218   5.491
 6988SOL    HW121863   5.046   1.158   5.549
 6988SOL    HW221864   5.092   1.313   5.522
 6989SOL     OW21865   1.385   2.881   3.952
 6989SOL    HW121866   1.435   2.822   3.889
 6989SOL    HW221867   1.306   2.921   3.906
 6990SOL     OW21868   3.828   3.096   0.752
 6990SOL    HW121869   3.805   3.176   0.697
 6990SOL    HW221870   3.786   3.103   0.842
 6991SOL     OW21871   4.482   4.460   5.360
 6991SOL    HW121872   4.410   4.393   5.340
 6991SOL    HW221873   4.491   4.469   5.459
 6992SOL     OW21874   6.104   6.166   5.395
 6992SOL    HW121875   6.048   6.083   5.402
 6992SOL    HW221876   6.124   6.185   5.299
 6993SOL     OW21877   0.693   6.457   3.312
 6993SOL    HW121878   0.786   6.437   3.279
 6993SOL    HW221879   0.681   6.556   3.318
 6994SOL     OW21880   1.387   3.008   0.001
 6994SOL    HW121881   1.405   2.910   0.015
 6994SOL    HW221882   1.360   3.049   0.088
 6995SOL     OW21883   0.538   5.082   3.444
 6995SOL    HW121884   0.556   5.180   3.445
 6995SOL    HW221885   0.611   5.034   3.492
 6996SOL     OW21886   2.452   6.941   5.827
 6996SOL    HW121887   2.379   7.005   5.802
 6996SOL    HW221888   2.540   6.988   5.825
 6997SOL     OW21889   5.239   0.056   4.493
 6997SOL    HW121890   5.306   0.127   4.512
 6997SOL    HW221891   5.210   0.062   4.398
 6998SOL     OW21892   1.485   2.629   3.490
 6998SOL    HW121893   1.443   2.717   3.512
 6998SOL    HW221894   1.425   2.578   3.430
 6999SOL     OW21895   4.214   1.788   6.587
 6999SOL    HW121896   4.202   1.786   6.487
 6999SOL    HW221897   4.181   1.875   6.622
 7000SOL     OW21898   6.641   6.624   0.975
 7000SOL    HW121899   6.590   6.568   0.909
 7000SOL    HW221900   6.664   6.711   0.933
 7001SOL     OW21901   2.918   1.910   5.656
 7001SOL    HW121902   2.829   1.910   5.611
 7001SOL    HW221903   2.970   1.991   5.628
 7002SOL     OW21904   2.179   4.624   2.833
 7002SOL    HW121905   2.189   4.724   2.827
 7002SOL    HW221906   2.238   4.580   2.766
 7003SOL     OW21907   2.084   6.282   6.978
 7003SOL    HW121908   2.177   6.252   6.999
 7003SOL    HW221909   2.087   6.366   6.924
 7004SOL     OW21910   1.181   4.699   0.947
 7004SOL    HW121911   1.245   4.643   0.894
 7004SOL    HW221912   1.091   4.698   0.904
 7005SOL     OW21913   5.634   6.694   5.561
 7005SOL    HW121914   5.603   6.774   5.613
 7005SOL    HW221915   5.665   6.723   5.470
 7006SOL     OW21916   4.575   4.946   4.717
 7006SOL    HW121917   4.634   4.919   4.793
 7006SOL    HW221918   4.632   4.974   4.639
 7007SOL     OW21919   5.213   5.213   2.530
 7007SOL    HW121920   5.202   5.307   2.500
 7007SOL    HW221921   5.179   5.151   2.460
 7008SOL     OW21922   1.227   4.644   4.016
 7008SOL    HW121923   1.324   4.643   4.041
 7008SOL    HW221924   1.185   4.727   4.052
 7009SOL     OW21925   0.098   4.451   2.313
 7009SOL    HW121926   0.070   4.501   2.231
 7009SOL    HW221927   0.175   4.391   2.292
 7010SOL     OW21928   4.275   4.438   6.425
 7010SOL    HW121929   4.334   4.499   6.372
 7010SOL    HW221930   4.328   4.358   6.453
 7011SOL     OW21931   2.028   1.306   4.805
 7011SOL    HW121932   1.962   1.378   4.786
 7011SOL    HW221933   1.989   1.217   4.777
 7012SOL     OW21934   1.192   1.233   1.686
 7012SOL    HW121935   1.206   1.171   1.763
 7012SOL    HW221936   1.131   1.307   1.714
 7013SOL     OW21937   0.520   0.988   2.397
 7013SOL    HW121938   0.558   0.925   2.465
 7013SOL    HW221939   0.595   1.031   2.346
 7014SOL     OW21940   1.950   5.014   1.288
 7014SOL    HW121941   1.922   5.033   1.194
 7014SOL    HW221942   1.964   4.915   1.299
 7015SOL     OW21943   5.340   2.380   2.358
 7015SOL    HW121944   5.320   2.431   2.442
 7015SOL    HW221945   5.255   2.348   2.317
 7016SOL     OW21946   3.220   4.670   1.136
 7016SOL    HW121947   3.296   4.607   1.120
 7016SOL    HW221948   3.208   4.684   1.234
 7017SOL     OW21949   4.322   1.152   4.193
 7017SOL    HW121950   4.394   1.204   4.239
 7017SOL    HW221951   4.317   1.060   4.232
 7018SOL     OW21952   0.501   4.441   3.227
 7018SOL    HW121953   0.596   4.416   3.248
 7018SOL    HW221954   0.440   4.399   3.294
 7019SOL     OW21955   1.979   6.211   1.221
 7019SOL    HW121956   2.015   6.213   1.128
 7019SOL    HW221957   1.894   6.158   1.224
 7020SOL     OW21958   0.036   6.514   6.073
 7020SOL    HW121959   0.031   6.546   6.168
 7020SOL    HW221960   0.094   6.433   6.068
 7021SOL     OW21961   3.708   0.016   5.571
 7021SOL    HW121962   3.653   6.966   5.611
 7021SOL    HW221963   3.648   0.078   5.520
 7022SOL     OW21964   4.792   5.304   6.022
 7022SOL    HW121965   4.693   5.296   6.029
 7022SOL    HW221966   4.816   5.389   5.976
 7023SOL     OW21967   5.993   4.077   2.947
 7023SOL    HW121968   5.957   4.010   3.012
 7023SOL    HW221969   6.031   4.155   2.996
 7024SOL     OW21970   0.220   6.061   1.223
 7024SOL    HW121971   0.125   6.028   1.228
 7024SOL    HW221972   0.267   6.040   1.308
 7025SOL     OW21973   2.663   0.475   6.395
 7025SOL    HW121974   2.641   0.569   6.370
 7025SOL    HW221975   2.763   0.463   6.394
 7026SOL     OW21976   3.641   1.767   1.021
 7026SOL    HW121977   3.608   1.849   0.975
 7026SOL    HW221978   3.575   1.740   1.092
 7027SOL     OW21979   4.382   6.944   4.278
 7027SOL    HW121980   4.402   7.017   4.344
 7027SOL    HW221981   4.421   6.858   4.311
 7028SOL     OW21982   3.470   6.883   4.285
 7028SOL    HW121983   3.435   6.811   4.345
 7028SOL    HW221984   3.566   6.864   4.263
 7029SOL     OW21985   3.570   0.728   4.884
 7029SOL    HW121986   3.547   0.679   4.968
 7029SOL    HW221987   3.608   0.818   4.908
 7030SOL     OW21988   2.046   3.392   3.359
 7030SOL    HW121989   1.975   3.440   3.411
 7030SOL    HW221990   2.066   3.442   3.275
 7031SOL     OW21991   1.611   0.217   5.023
 7031SOL    HW121992   1.567   0.144   5.077
 7031SOL    HW221993   1.682   0.260   5.078
 7032SOL     OW21994   6.867   1.900   2.992
 7032SOL    HW121995   6.940   1.956   3.030
 7032SOL    HW221996   6.786   1.957   2.977
 7033SOL     OW21997   0.014   0.147   4.866
 7033SOL    HW121998   0.064   0.069   4.829
 7033SOL    HW221999   7.007   0.206   4.791
 7034SOL     OW22000   6.818   5.729   3.095
 7034SOL    HW122001   6.844   5.777   3.011
 7034SOL    HW222002   6.881   5.754   3.168
 7035SOL     OW22003   6.516   4.911   2.106
 7035SOL    HW122004   6.486   4.925   2.201
 7035SOL    HW222005   6.475   4.827   2.070
 7036SOL     OW22006   6.374   4.214   1.041
 7036SOL    HW122007   6.396   4.152   0.966
 7036SOL    HW222008   6.443   4.285   1.047
 7037SOL     OW22009   0.699   0.124   0.177
 7037SOL    HW122010   0.734   0.104   0.268
 7037SOL    HW222011   0.763   0.186   0.130
 7038SOL     OW22012   1.406   3.524   4.356
 7038SOL    HW122013   1.461   3.464   4.298
 7038SOL    HW222014   1.319   3.542   4.312
 7039SOL     OW22015   4.117   2.117   6.021
 7039SOL    HW122016   4.172   2.201   6.019
 7039SOL    HW222017   4.177   2.038   6.032
 7040SOL     OW22018   5.018   2.604   6.605
 7040SOL    HW122019   5.037   2.607   6.507
 7040SOL    HW222020   5.101   2.579   6.655
 7041SOL     OW22021   2.637   1.164   2.602
 7041SOL    HW122022   2.601   1.180   2.510
 7041SOL    HW222023   2.574   1.204   2.669
 7042SOL     OW22024   1.755   0.338   6.747
 7042SOL    HW122025   1.805   0.391   6.815
 7042SOL    HW222026   1.660   0.369   6.743
 7043SOL     OW22027   1.492   2.665   2.627
 7043SOL    HW122028   1.568   2.660   2.692
 7043SOL    HW222029   1.474   2.761   2.605
 7044SOL     OW22030   4.842   6.183   2.310
 7044SOL    HW122031   4.804   6.091   2.312
 7044SOL    HW222032   4.920   6.186   2.247
 7045SOL     OW22033   6.163   5.009   1.340
 7045SOL    HW122034   6.093   5.012   1.269
 7045SOL    HW222035   6.254   5.013   1.298
 7046SOL     OW22036   2.625   0.786   4.290
 7046SOL    HW122037   2.546   0.752   4.238
 7046SOL    HW222038   2.599   0.869   4.339
 7047SOL     OW22039   1.944   1.486   3.532
 7047SOL    HW122040   2.043   1.485   3.544
 7047SOL    HW222041   1.902   1.540   3.606
 7048SOL     OW22042   6.836   6.451   0.357
 7048SOL    HW122043   6.922   6.401   0.364
 7048SOL    HW222044   6.847   6.542   0.396
 7049SOL     OW22045   1.814   0.830   0.889
 7049SOL    HW122046   1.902   0.787   0.867
 7049SOL    HW222047   1.818   0.927   0.867
 7050SOL     OW22048   4.096   3.684   4.757
 7050SOL    HW122049   4.182   3.723   4.789
 7050SOL    HW222050   4.092   3.686   4.658
 7051SOL     OW22051   6.939   6.476   2.156
 7051SOL    HW122052   6.966   6.497   2.062
 7051SOL    HW222053   7.020   6.469   2.214
 7052SOL     OW22054   6.841   1.684   3.756
 7052SOL    HW122055   6.763   1.643   3.803
 7052SOL    HW222056   6.828   1.783   3.750
 7053SOL     OW22057   6.408   4.417   5.974
 7053SOL    HW122058   6.508   4.412   5.978
 7053SOL    HW222059   6.370   4.324   5.980
 7054SOL     OW22060   6.552   7.012   1.774
 7054SOL    HW122061   6.552   0.068   1.835
 7054SOL    HW222062   6.576   6.930   1.825
 7055SOL     OW22063   3.736   6.808   5.396
 7055SOL    HW122064   3.644   6.775   5.372
 7055SOL    HW222065   3.729   6.875   5.470
 7056SOL     OW22066   4.761   4.880   4.365
 7056SOL    HW122067   4.702   4.800   4.370
 7056SOL    HW222068   4.782   4.900   4.269
 7057SOL     OW22069   0.700   6.240   3.027
 7057SOL    HW122070   0.640   6.161   3.043
 7057SOL    HW222071   0.653   6.324   3.055
 7058SOL     OW22072   6.865   5.201   5.394
 7058SOL    HW122073   6.773   5.241   5.386
 7058SOL    HW222074   6.857   5.102   5.402
 7059SOL     OW22075   2.009   0.982   2.361
 7059SOL    HW122076   2.057   0.936   2.287
 7059SOL    HW222077   2.023   0.931   2.446
 7060SOL     OW22078   2.953   6.981   1.092
 7060SOL    HW122079   3.023   6.911   1.108
 7060SOL    HW222080   2.891   6.984   1.171
 7061SOL     OW22081   0.364   0.991   3.179
 7061SOL    HW122082   0.434   0.983   3.108
 7061SOL    HW222083   0.282   0.940   3.151
 7062SOL     OW22084   6.369   1.510   5.373
 7062SOL    HW122085   6.373   1.533   5.276
 7062SOL    HW222086   6.274   1.504   5.402
 7063SOL     OW22087   2.426   0.113   1.661
 7063SOL    HW122088   2.400   0.022   1.692
 7063SOL    HW222089   2.491   0.153   1.726
 7064SOL     OW22090   4.345   2.400   0.332
 7064SOL    HW122091   4.347   2.343   0.414
 7064SOL    HW222092   4.427   2.457   0.329
 7065SOL     OW22093   4.261   4.038   1.597
 7065SOL    HW122094   4.258   3.948   1.642
 7065SOL    HW222095   4.353   4.076   1.606
 7066SOL     OW22096   3.104   6.397   0.816
 7066SOL    HW122097   3.107   6.362   0.910
 7066SOL    HW222098   3.045   6.339   0.761
 7067SOL     OW22099   0.189   4.143   4.652
 7067SOL    HW122100   0.180   4.151   4.553
 7067SOL    HW222101   0.286   4.138   4.677
 7068SOL     OW22102   0.961   0.663   2.641
 7068SOL    HW122103   0.866   0.670   2.670
 7068SOL    HW222104   0.977   0.572   2.602
 7069SOL     OW22105   1.516   4.055   4.666
 7069SOL    HW122106   1.510   3.986   4.738
 7069SOL    HW222107   1.547   4.013   4.581
 7070SOL     OW22108   4.908   5.920   4.628
 7070SOL    HW122109   4.936   5.934   4.533
 7070SOL    HW222110   4.818   5.960   4.643
 7071SOL     OW22111   1.603   6.566   5.313
 7071SOL    HW122112   1.625   6.632   5.242
 7071SOL    HW222113   1.541   6.497   5.276
 7072SOL     OW22114   7.022   6.210   6.508
 7072SOL    HW122115   7.005   6.153   6.427
 7072SOL    HW222116   0.061   6.161   6.570
 7073SOL     OW22117   1.177   1.753   6.645
 7073SOL    HW122118   1.226   1.829   6.688
 7073SOL    HW222119   1.092   1.736   6.695
 7074SOL     OW22120   3.011   2.021   0.731
 7074SOL    HW122121   3.064   2.037   0.648
 7074SOL    HW222122   3.008   2.105   0.786
 7075SOL     OW22123   1.099   5.674   2.996
 7075SOL    HW122124   1.050   5.747   2.949
 7075SOL    HW222125   1.115   5.598   2.934
 7076SOL     OW22126   3.557   2.519   6.830
 7076SOL    HW122127   3.626   2.517   6.902
 7076SOL    HW222128   3.598   2.553   6.745
 7077SOL     OW22129   1.700   4.903   5.538
 7077SOL    HW122130   1.790   4.924   5.500
 7077SOL    HW222131   1.636   4.886   5.463
 7078SOL     OW22132   6.640   0.426   2.806
 7078SOL    HW122133   6.548   0.399   2.834
 7078SOL    HW222134   6.707   0.381   2.864
 7079SOL     OW22135   5.191   5.324   5.628
 7079SOL    HW122136   5.096   5.349   5.644
 7079SOL    HW222137   5.202   5.288   5.535
 7080SOL     OW22138   5.459   0.529   4.092
 7080SOL    HW122139   5.521   0.595   4.133
 7080SOL    HW222140   5.424   0.467   4.163
 7081SOL     OW22141   3.564   0.971   5.496
 7081SOL    HW122142   3.576   0.873   5.480
 7081SOL    HW222143   3.653   1.013   5.512
 7082SOL     OW22144   5.589   1.097   6.556
 7082SOL    HW122145   5.500   1.069   6.592
 7082SOL    HW222146   5.660   1.037   6.592
 7083SOL     OW22147   3.466   6.657   5.856
 7083SOL    HW122148   3.380   6.674   5.807
 7083SOL    HW222149   3.451   6.669   5.954
 7084SOL     OW22150   6.393   6.285   0.404
 7084SOL    HW122151   6.331   6.358   0.432
 7084SOL    HW222152   6.384   6.208   0.467
 7085SOL     OW22153   2.901   2.614   0.942
 7085SOL    HW122154   2.918   2.593   1.038
 7085SOL    HW222155   2.817   2.667   0.933
 7086SOL     OW22156   6.659   1.044   6.572
 7086SOL    HW122157   6.677   1.087   6.660
 7086SOL    HW222158   6.591   0.971   6.583
 7087SOL     OW22159   1.988   2.554   4.570
 7087SOL    HW122160   2.027   2.603   4.647
 7087SOL    HW222161   1.916   2.610   4.528
 7088SOL     OW22162   0.358   2.396   5.488
 7088SOL    HW122163   0.278   2.453   5.503
 7088SOL    HW222164   0.400   2.419   5.400
 7089SOL     OW22165   2.862   2.188   0.466
 7089SOL    HW122166   2.803   2.135   0.527
 7089SOL    HW222167   2.957   2.158   0.477
 7090SOL     OW22168   2.183   3.010   4.779
 7090SOL    HW122169   2.258   2.962   4.825
 7090SOL    HW222170   2.156   3.089   4.833
 7091SOL     OW22171   0.386   6.426   0.627
 7091SOL    HW122172   0.333   6.422   0.543
 7091SOL    HW222173   0.351   6.360   0.693
 7092SOL     OW22174   2.955   3.122   6.800
 7092SOL    HW122175   2.944   3.143   6.703
 7092SOL    HW222176   3.035   3.064   6.813
 7093SOL     OW22177   3.799   2.909   5.302
 7093SOL    HW122178   3.807   2.811   5.322
 7093SOL    HW222179   3.728   2.949   5.362
 7094SOL     OW22180   0.844   0.454   6.276
 7094SOL    HW122181   0.868   0.494   6.188
 7094SOL    HW222182   0.922   0.401   6.311
 7095SOL     OW22183   0.186   3.468   6.563
 7095SOL    HW122184   0.230   3.401   6.503
 7095SOL    HW222185   0.252   3.503   6.629
 7096SOL     OW22186   5.351   0.873   2.265
 7096SOL    HW122187   5.254   0.889   2.247
 7096SOL    HW222188   5.378   0.918   2.349
 7097SOL     OW22189   1.074   0.690   1.802
 7097SOL    HW122190   1.029   0.673   1.715
 7097SOL    HW222191   1.017   0.657   1.877
 7098SOL     OW22192   1.647   6.738   5.761
 7098SOL    HW122193   1.669   6.698   5.850
 7098SOL    HW222194   1.722   6.796   5.730
 7099SOL     OW22195   0.129   0.830   6.222
 7099SOL    HW122196   0.211   0.886   6.213
 7099SOL    HW222197   0.151   0.747   6.273
 7100SOL     OW22198   5.526   2.603   0.987
 7100SOL    HW122199   5.517   2.603   0.887
 7100SOL    HW222200   5.454   2.546   1.026
 7101SOL     OW22201   1.908   0.240   4.403
 7101SOL    HW122202   1.895   0.313   4.470
 7101SOL    HW222203   1.841   0.168   4.420
 7102SOL     OW22204   4.608   2.586   0.674
 7102SOL    HW122205   4.685   2.585   0.737
 7102SOL    HW222206   4.612   2.505   0.615
 7103SOL     OW22207   3.332   6.700   6.459
 7103SOL    HW122208   3.399   6.716   6.531
 7103SOL    HW222209   3.345   6.609   6.420
 7104SOL     OW22210   1.049   1.795   2.500
 7104SOL    HW122211   1.061   1.873   2.561
 7104SOL    HW222212   1.133   1.781   2.447
 7105SOL     OW22213   2.406   4.187   5.341
 7105SOL    HW122214   2.504   4.203   5.354
 7105SOL    HW222215   2.393   4.123   5.265
 7106SOL     OW22216   3.228   2.593   5.333
 7106SOL    HW122217   3.152   2.655   5.313
 7106SOL    HW222218   3.223   2.513   5.273
 7107SOL     OW22219   2.671   0.877   0.172
 7107SOL    HW122220   2.691   0.865   0.075
 7107SOL    HW222221   2.604   0.809   0.201
 7108SOL     OW22222   4.775   6.768   1.767
 7108SOL    HW122223   4.706   6.830   1.805
 7108SOL    HW222224   4.829   6.816   1.698
 7109SOL     OW22225   3.666   5.925   6.556
 7109SOL    HW122226   3.758   5.956   6.532
 7109SOL    HW222227   3.618   5.895   6.474
 7110SOL     OW22228   3.886   4.911   3.411
 7110SOL    HW122229   3.948   4.838   3.384
 7110SOL    HW222230   3.873   4.910   3.510
 7111SOL     OW22231   1.277   2.790   3.652
 7111SOL    HW122232   1.218   2.720   3.693
 7111SOL    HW222233   1.240   2.817   3.563
 7112SOL     OW22234   1.615   6.793   2.604
 7112SOL    HW122235   1.615   6.876   2.660
 7112SOL    HW222236   1.705   6.779   2.565
 7113SOL     OW22237   3.572   4.139   4.595
 7113SOL    HW122238   3.490   4.126   4.651
 7113SOL    HW222239   3.547   4.140   4.498
 7114SOL     OW22240   4.130   0.484   0.994
 7114SOL    HW122241   4.041   0.451   0.964
 7114SOL    HW222242   4.192   0.489   0.916
 7115SOL     OW22243   4.006   1.982   1.482
 7115SOL    HW122244   4.066   2.062   1.482
 7115SOL    HW222245   4.035   1.919   1.554
 7116SOL     OW22246   5.879   3.600   2.824
 7116SOL    HW122247   5.975   3.586   2.846
 7116SOL    HW222248   5.857   3.555   2.737
 7117SOL     OW22249   6.292   6.430   1.496
 7117SOL    HW122250   6.266   6.417   1.591
 7117SOL    HW222251   6.233   6.499   1.454
 7118SOL     OW22252   6.662   3.073   2.106
 7118SOL    HW122253   6.699   2.983   2.128
 7118SOL    HW222254   6.706   3.142   2.164
 7119SOL     OW22255   6.672   1.376   2.999
 7119SOL    HW122256   6.763   1.408   2.974
 7119SOL    HW222257   6.658   1.388   3.098
 7120SOL     OW22258   5.151   0.259   3.502
 7120SOL    HW122259   5.210   0.292   3.576
 7120SOL    HW222260   5.174   0.306   3.417
 7121SOL     OW22261   3.831   6.355   1.863
 7121SOL    HW122262   3.919   6.320   1.831
 7121SOL    HW222263   3.837   6.454   1.877
 7122SOL     OW22264   6.647   0.482   6.934
 7122SOL    HW122265   6.569   0.420   6.930
 7122SOL    HW222266   6.618   0.575   6.911
 7123SOL     OW22267   2.497   4.745   1.156
 7123SOL    HW122268   2.451   4.663   1.190
 7123SOL    HW222269   2.448   4.826   1.188
 7124SOL     OW22270   0.542   5.292   1.525
 7124SOL    HW122271   0.613   5.229   1.495
 7124SOL    HW222272   0.569   5.334   1.612
 7125SOL     OW22273   6.817   6.507   2.391
 7125SOL    HW122274   6.852   6.447   2.463
 7125SOL    HW222275   6.872   6.493   2.308
 7126SOL     OW22276   0.659   4.518   0.599
 7126SOL    HW122277   0.745   4.468   0.586
 7126SOL    HW222278   0.583   4.454   0.604
 7127SOL     OW22279   3.494   6.906   4.672
 7127SOL    HW122280   3.458   6.839   4.607
 7127SOL    HW222281   3.568   6.864   4.725
 7128SOL     OW22282   2.746   4.594   1.634
 7128SOL    HW122283   2.802   4.543   1.699
 7128SOL    HW222284   2.705   4.673   1.680
 7129SOL     OW22285   2.773   1.610   1.622
 7129SOL    HW122286   2.733   1.688   1.573
 7129SOL    HW222287   2.821   1.643   1.703
 7130SOL     OW22288   2.382   5.916   2.013
 7130SOL    HW122289   2.311   5.926   1.944
 7130SOL    HW222290   2.459   5.976   1.992
 7131SOL     OW22291   2.850   1.203   3.360
 7131SOL    HW122292   2.929   1.259   3.386
 7131SOL    HW222293   2.783   1.204   3.435
 7132SOL     OW22294   3.065   3.984   2.959
 7132SOL    HW122295   3.074   4.004   2.862
 7132SOL    HW222296   3.025   3.893   2.970
 7133SOL     OW22297   5.015   5.051   2.697
 7133SOL    HW122298   5.089   5.013   2.753
 7133SOL    HW222299   5.041   5.143   2.666
 7134SOL     OW22300   5.074   4.034   3.749
 7134SOL    HW122301   4.981   4.000   3.730
 7134SOL    HW222302   5.116   3.976   3.819
 7135SOL     OW22303   0.738   1.805   5.237
 7135SOL    HW122304   0.801   1.835   5.166
 7135SOL    HW222305   0.706   1.885   5.289
 7136SOL     OW22306   2.313   1.920   0.021
 7136SOL    HW122307   2.298   1.840   0.079
 7136SOL    HW222308   2.225   1.961   7.020
 7137SOL     OW22309   3.954   0.963   4.779
 7137SOL    HW122310   3.963   1.035   4.710
 7137SOL    HW222311   4.045   0.940   4.815
 7138SOL     OW22312   2.236   4.020   0.169
 7138SOL    HW122313   2.185   4.027   0.255
 7138SOL    HW222314   2.174   3.993   0.096
 7139SOL     OW22315   3.409   2.233   0.788
 7139SOL    HW122316   3.385   2.139   0.813
 7139SOL    HW222317   3.499   2.255   0.825
 7140SOL     OW22318   6.104   3.555   5.066
 7140SOL    HW122319   6.135   3.475   5.116
 7140SOL    HW222320   6.007   3.570   5.084
 7141SOL     OW22321   2.636   6.742   0.652
 7141SOL    HW122322   2.656   6.644   0.654
 7141SOL    HW222323   2.715   6.793   0.686
 7142SOL     OW22324   3.844   6.519   4.401
 7142SOL    HW122325   3.759   6.501   4.353
 7142SOL    HW222326   3.917   6.463   4.363
 7143SOL     OW22327   1.834   3.573   4.406
 7143SOL    HW122328   1.825   3.600   4.311
 7143SOL    HW222329   1.921   3.525   4.419
 7144SOL     OW22330   0.643   2.585   3.978
 7144SOL    HW122331   0.692   2.600   4.064
 7144SOL    HW222332   0.674   2.650   3.909
 7145SOL     OW22333   3.882   0.001   6.450
 7145SOL    HW122334   3.977   7.012   6.478
 7145SOL    HW222335   3.874   7.008   6.351
 7146SOL     OW22336   2.877   4.504   0.399
 7146SOL    HW122337   2.866   4.404   0.402
 7146SOL    HW222338   2.947   4.531   0.465
 7147SOL     OW22339   0.191   0.383   4.200
 7147SOL    HW122340   0.125   0.436   4.253
 7147SOL    HW222341   0.143   0.323   4.136
 7148SOL     OW22342   1.060   1.286   0.391
 7148SOL    HW122343   1.003   1.278   0.473
 7148SOL    HW222344   1.057   1.201   0.339
 7149SOL     OW22345   6.504   0.990   3.737
 7149SOL    HW122346   6.432   1.051   3.770
 7149SOL    HW222347   6.518   0.917   3.803
 7150SOL     OW22348   5.622   3.704   6.827
 7150SOL    HW122349   5.541   3.664   6.869
 7150SOL    HW222350   5.693   3.634   6.817
 7151SOL     OW22351   2.372   6.223   0.958
 7151SOL    HW122352   2.376   6.186   1.051
 7151SOL    HW222353   2.464   6.225   0.919
 7152SOL     OW22354   1.314   2.483   3.725
 7152SOL    HW122355   1.256   2.540   3.783
 7152SOL    HW222356   1.407   2.520   3.723
 7153SOL     OW22357   3.344   1.768   3.833
 7153SOL    HW122358   3.378   1.681   3.798
 7153SOL    HW222359   3.323   1.760   3.930
 7154SOL     OW22360   4.829   6.333   4.588
 7154SOL    HW122361   4.749   6.276   4.609
 7154SOL    HW222362   4.863   6.309   4.497
 7155SOL     OW22363   2.906   0.208   1.847
 7155SOL    HW122364   2.895   0.306   1.864
 7155SOL    HW222365   2.895   0.158   1.933
 7156SOL     OW22366   0.493   5.826   4.421
 7156SOL    HW122367   0.541   5.827   4.509
 7156SOL    HW222368   0.489   5.918   4.384
 7157SOL     OW22369   4.803   4.569   1.564
 7157SOL    HW122370   4.822   4.582   1.662
 7157SOL    HW222371   4.848   4.642   1.512
 7158SOL     OW22372   5.632   6.557   4.601
 7158SOL    HW122373   5.636   6.480   4.538
 7158SOL    HW222374   5.649   6.642   4.551
 7159SOL     OW22375   0.457   5.607   0.222
 7159SOL    HW122376   0.515   5.570   0.295
 7159SOL    HW222377   0.391   5.671   0.262
 7160SOL     OW22378   6.194   0.687   2.288
 7160SOL    HW122379   6.190   0.588   2.272
 7160SOL    HW222380   6.109   0.729   2.257
 7161SOL     OW22381   3.906   3.946   3.381
 7161SOL    HW122382   3.940   3.963   3.289
 7161SOL    HW222383   3.882   4.033   3.424
 7162SOL     OW22384   2.742   4.828   3.575
 7162SOL    HW122385   2.716   4.748   3.521
 7162SOL    HW222386   2.684   4.905   3.550
 7163SOL     OW22387   2.637   6.900   3.135
 7163SOL    HW122388   2.736   6.892   3.141
 7163SOL    HW222389   2.597   6.811   3.117
 7164SOL     OW22390   2.387   1.794   3.457
 7164SOL    HW122391   2.300   1.838   3.436
 7164SOL    HW222392   2.419   1.745   3.376
 7165SOL     OW22393   5.130   0.271   1.590
 7165SOL    HW122394   5.045   0.314   1.559
 7165SOL    HW222395   5.196   0.271   1.515
 7166SOL     OW22396   5.104   5.283   2.203
 7166SOL    HW122397   5.202   5.296   2.219
 7166SOL    HW222398   5.090   5.197   2.154
 7167SOL     OW22399   4.682   3.120   5.251
 7167SOL    HW122400   4.638   3.058   5.316
 7167SOL    HW222401   4.771   3.083   5.224
 7168SOL     OW22402   0.916   1.224   4.770
 7168SOL    HW122403   0.985   1.203   4.701
 7168SOL    HW222404   0.913   1.323   4.786
 7169SOL     OW22405   1.636   2.740   6.291
 7169SOL    HW122406   1.568   2.681   6.333
 7169SOL    HW222407   1.648   2.713   6.195
 7170SOL     OW22408   6.509   5.193   4.587
 7170SOL    HW122409   6.493   5.104   4.631
 7170SOL    HW222410   6.594   5.190   4.535
 7171SOL     OW22411   3.933   2.857   5.592
 7171SOL    HW122412   3.844   2.864   5.637
 7171SOL    HW222413   4.002   2.903   5.648
 7172SOL     OW22414   1.444   6.710   0.909
 7172SOL    HW122415   1.345   6.705   0.895
 7172SOL    HW222416   1.475   6.805   0.899
 7173SOL     OW22417   6.140   6.143   5.680
 7173SOL    HW122418   6.100   6.156   5.590
 7173SOL    HW222419   6.221   6.085   5.673
 7174SOL     OW22420   0.700   5.615   0.039
 7174SOL    HW122421   0.637   5.620   0.117
 7174SOL    HW222422   0.716   5.519   0.015
 7175SOL     OW22423   6.588   3.122   4.651
 7175SOL    HW122424   6.501   3.083   4.621
 7175SOL    HW222425   6.586   3.137   4.750
 7176SOL     OW22426   6.160   4.005   1.341
 7176SOL    HW122427   6.155   3.984   1.243
 7176SOL    HW222428   6.187   4.100   1.354
 7177SOL     OW22429   1.090   5.876   1.920
 7177SOL    HW122430   1.116   5.973   1.918
 7177SOL    HW222431   1.158   5.825   1.973
 7178SOL     OW22432   0.292   2.900   6.385
 7178SOL    HW122433   0.258   2.834   6.318
 7178SOL    HW222434   0.215   2.937   6.437
 7179SOL     OW22435   2.470   4.811   6.077
 7179SOL    HW122436   2.562   4.830   6.109
 7179SOL    HW222437   2.462   4.715   6.052
 7180SOL     OW22438   1.264   6.624   2.922
 7180SOL    HW122439   1.168   6.632   2.950
 7180SOL    HW222440   1.278   6.536   2.876
 7181SOL     OW22441   5.100   0.248   2.384
 7181SOL    HW122442   5.042   0.169   2.363
 7181SOL    HW222443   5.049   0.332   2.363
 7182SOL     OW22444   2.890   3.735   5.249
 7182SOL    HW122445   2.883   3.658   5.313
 7182SOL    HW222446   2.804   3.787   5.250
 7183SOL     OW22447   1.388   5.360   2.926
 7183SOL    HW122448   1.303   5.411   2.915
 7183SOL    HW222449   1.446   5.375   2.846
 7184SOL     OW22450   1.833   6.208   3.225
 7184SOL    HW122451   1.785   6.210   3.138
 7184SOL    HW222452   1.875   6.298   3.242
 7185SOL     OW22453   4.028   2.475   6.876
 7185SOL    HW122454   4.017   2.406   6.946
 7185SOL    HW222455   3.964   2.550   6.891
 7186SOL     OW22456   0.774   6.806   4.254
 7186SOL    HW122457   0.753   6.746   4.331
 7186SOL    HW222458   0.865   6.846   4.268
 7187SOL     OW22459   2.233   5.440   1.216
 7187SOL    HW122460   2.265   5.375   1.146
 7187SOL    HW222461   2.266   5.531   1.194
 7188SOL     OW22462   5.395   0.801   1.927
 7188SOL    HW122463   5.319   0.864   1.915
 7188SOL    HW222464   5.473   0.849   1.968
 7189SOL     OW22465   6.890   0.503   4.791
 7189SOL    HW122466   6.926   0.439   4.724
 7189SOL    HW222467   6.806   0.465   4.831
 7190SOL     OW22468   4.814   5.058   3.608
 7190SOL    HW122469   4.853   5.144   3.576
 7190SOL    HW222470   4.794   4.999   3.530
 7191SOL     OW22471   1.280   2.884   2.081
 7191SOL    HW122472   1.323   2.954   2.139
 7191SOL    HW222473   1.182   2.901   2.076
 7192SOL     OW22474   4.114   5.385   5.786
 7192SOL    HW122475   4.107   5.288   5.808
 7192SOL    HW222476   4.108   5.397   5.687
 7193SOL     OW22477   4.952   1.365   3.087
 7193SOL    HW122478   5.022   1.299   3.114
 7193SOL    HW222479   4.985   1.458   3.102
 7194SOL     OW22480   3.030   1.828   1.591
 7194SOL    HW122481   2.993   1.755   1.535
 7194SOL    HW222482   2.956   1.873   1.641
 7195SOL     OW22483   0.435   5.278   2.144
 7195SOL    HW122484   0.448   5.330   2.060
 7195SOL    HW222485   0.488   5.320   2.218
 7196SOL     OW22486   3.881   3.278   1.656
 7196SOL    HW122487   3.892   3.233   1.567
 7196SOL    HW222488   3.932   3.228   1.725
 7197SOL     OW22489   1.482   1.828   5.174
 7197SOL    HW122490   1.465   1.873   5.261
 7197SOL    HW222491   1.507   1.733   5.189
 7198SOL     OW22492   0.924   5.727   6.732
 7198SOL    HW122493   0.996   5.776   6.682
 7198SOL    HW222494   0.902   5.642   6.685
 7199SOL     OW22495   6.522   6.600   2.753
 7199SOL    HW122496   6.469   6.530   2.705
 7199SOL    HW222497   6.612   6.607   2.711
 7200SOL     OW22498   2.161   1.822   1.488
 7200SOL    HW122499   2.119   1.743   1.443
 7200SOL    HW222500   2.178   1.894   1.421
 7201SOL     OW22501   2.494   4.438   3.377
 7201SOL    HW122502   2.489   4.408   3.472
 7201SOL    HW222503   2.531   4.531   3.372
 7202SOL     OW22504   3.813   0.157   5.822
 7202SOL    HW122505   3.754   0.196   5.752
 7202SOL    HW222506   3.792   0.060   5.833
 7203SOL     OW22507   6.308   0.637   6.633
 7203SOL    HW122508   6.301   0.595   6.543
 7203SOL    HW222509   6.377   0.588   6.687
 7204SOL     OW22510   5.808   1.328   2.143
 7204SOL    HW122511   5.871   1.376   2.083
 7204SOL    HW222512   5.719   1.317   2.098
 7205SOL     OW22513   2.288   4.842   1.964
 7205SOL    HW122514   2.239   4.765   2.006
 7205SOL    HW222515   2.339   4.811   1.885
 7206SOL     OW22516   5.526   1.521   1.718
 7206SOL    HW122517   5.479   1.540   1.632
 7206SOL    HW222518   5.624   1.534   1.705
 7207SOL     OW22519   4.478   0.100   1.650
 7207SOL    HW122520   4.497   0.192   1.686
 7207SOL    HW222521   4.437   0.108   1.559
 7208SOL     OW22522   2.877   6.900   5.143
 7208SOL    HW122523   2.918   6.882   5.054
 7208SOL    HW222524   2.790   6.850   5.150
 7209SOL     OW22525   3.830   3.695   4.537
 7209SOL    HW122526   3.796   3.631   4.468
 7209SOL    HW222527   3.930   3.698   4.533
 7210SOL     OW22528   4.425   0.419   4.076
 7210SOL    HW122529   4.334   0.378   4.087
 7210SOL    HW222530   4.469   0.382   3.994
 7211SOL     OW22531   1.715   5.171   2.308
 7211SOL    HW122532   1.805   5.130   2.295
 7211SOL    HW222533   1.678   5.200   2.220
 7212SOL     OW22534   5.043   0.069   4.229
 7212SOL    HW122535   5.023   6.996   4.252
 7212SOL    HW222536   5.013   0.088   4.136
 7213SOL     OW22537   5.384   0.423   5.416
 7213SOL    HW122538   5.482   0.415   5.436
 7213SOL    HW222539   5.365   0.387   5.325
 7214SOL     OW22540   0.575   4.833   5.008
 7214SOL    HW122541   0.489   4.784   5.017
 7214SOL    HW222542   0.624   4.803   4.926
 7215SOL     OW22543   0.867   3.470   2.761
 7215SOL    HW122544   0.818   3.398   2.712
 7215SOL    HW222545   0.805   3.546   2.780
 7216SOL     OW22546   2.191   1.463   1.588
 7216SOL    HW122547   2.232   1.431   1.503
 7216SOL    HW222548   2.092   1.470   1.577
 7217SOL     OW22549   1.013   3.021   2.089
 7217SOL    HW122550   0.988   2.945   2.149
 7217SOL    HW222551   0.991   3.108   2.133
 7218SOL     OW22552   6.233   2.369   6.120
 7218SOL    HW122553   6.255   2.372   6.217
 7218SOL    HW222554   6.137   2.346   6.107
 7219SOL     OW22555   3.934   1.160   1.397
 7219SOL    HW122556   3.873   1.196   1.326
 7219SOL    HW222557   3.958   1.065   1.374
 7220SOL     OW22558   6.723   0.803   2.949
 7220SOL    HW122559   6.702   0.744   2.870
 7220SOL    HW222560   6.722   0.898   2.920
 7221SOL     OW22561   5.687   5.095   4.983
 7221SOL    HW122562   5.754   5.038   4.935
 7221SOL    HW222563   5.726   5.125   5.070
 7222SOL     OW22564   5.918   6.860   2.983
 7222SOL    HW122565   5.973   6.888   3.062
 7222SOL    HW222566   5.825   6.898   2.992
 7223SOL     OW22567   3.627   0.686   5.485
 7223SOL    HW122568   3.706   0.648   5.437
 7223SOL    HW222569   3.545   0.634   5.461
 7224SOL     OW22570   4.738   7.020   4.470
 7224SOL    HW122571   4.791   0.074   4.505
 7224SOL    HW222572   4.783   6.982   4.389
 7225SOL     OW22573   2.234   6.891   0.392
 7225SOL    HW122574   2.219   6.987   0.371
 7225SOL    HW222575   2.288   6.883   0.476
 7226SOL     OW22576   5.628   6.802   0.039
 7226SOL    HW122577   5.580   6.790   6.974
 7226SOL    HW222578   5.565   6.780   0.114
 7227SOL     OW22579   6.537   2.816   6.318
 7227SOL    HW122580   6.471   2.814   6.394
 7227SOL    HW222581   6.612   2.753   6.338
 7228SOL     OW22582   1.673   0.695   2.795
 7228SOL    HW122583   1.717   0.658   2.877
 7228SOL    HW222584   1.696   0.638   2.716
 7229SOL     OW22585   0.845   0.542   3.876
 7229SOL    HW122586   0.777   0.472   3.894
 7229SOL    HW222587   0.928   0.500   3.840
 7230SOL     OW22588   5.708   4.884   2.776
 7230SOL    HW122589   5.674   4.792   2.762
 7230SOL    HW222590   5.774   4.908   2.705
 7231SOL     OW22591   5.635   1.390   6.485
 7231SOL    HW122592   5.586   1.447   6.550
 7231SOL    HW222593   5.594   1.299   6.482
 7232SOL     OW22594   3.722   4.411   0.827
 7232SOL    HW122595   3.718   4.317   0.794
 7232SOL    HW222596   3.809   4.452   0.801
 7233SOL     OW22597   0.353   2.415   5.772
 7233SOL    HW122598   0.349   2.415   5.672
 7233SOL    HW222599   0.271   2.370   5.808
 7234SOL     OW22600   5.756   1.785   2.634
 7234SOL    HW122601   5.715   1.695   2.647
 7234SOL    HW222602   5.693   1.843   2.582
 7235SOL     OW22603   6.386   2.972   4.543
 7235SOL    HW122604   6.405   2.885   4.589
 7235SOL    HW222605   6.328   2.955   4.463
 7236SOL     OW22606   3.364   1.222   3.336
 7236SOL    HW122607   3.459   1.233   3.308
 7236SOL    HW222608   3.360   1.163   3.417
 7237SOL     OW22609   6.463   5.662   5.964
 7237SOL    HW122610   6.550   5.617   5.984
 7237SOL    HW222611   6.387   5.601   5.987
 7238SOL     OW22612   0.655   1.307   1.462
 7238SOL    HW122613   0.560   1.277   1.470
 7238SOL    HW222614   0.657   1.403   1.435
 7239SOL     OW22615   4.716   0.971   2.166
 7239SOL    HW122616   4.798   0.928   2.127
 7239SOL    HW222617   4.643   0.969   2.098
 7240SOL     OW22618   2.785   3.539   0.852
 7240SOL    HW122619   2.883   3.541   0.831
 7240SOL    HW222620   2.768   3.470   0.922
 7241SOL     OW22621   4.019   6.949   5.094
 7241SOL    HW122622   4.045   0.021   5.111
 7241SOL    HW222623   4.090   6.904   5.040
 7242SOL     OW22624   4.865   4.904   0.423
 7242SOL    HW122625   4.769   4.928   0.439
 7242SOL    HW222626   4.890   4.927   0.329
 7243SOL     OW22627   0.524   6.049   0.595
 7243SOL    HW122628   0.622   6.065   0.596
 7243SOL    HW222629   0.491   6.044   0.501
 7244SOL     OW22630   5.435   1.890   0.671
 7244SOL    HW122631   5.471   1.804   0.637
 7244SOL    HW222632   5.487   1.919   0.752
 7245SOL     OW22633   6.726   1.960   4.370
 7245SOL    HW122634   6.701   1.863   4.365
 7245SOL    HW222635   6.771   1.978   4.457
 7246SOL     OW22636   1.336   5.767   5.250
 7246SOL    HW122637   1.342   5.772   5.150
 7246SOL    HW222638   1.241   5.758   5.277
 7247SOL     OW22639   3.383   5.649   2.791
 7247SOL    HW122640   3.317   5.724   2.783
 7247SOL    HW222641   3.442   5.664   2.870
 7248SOL     OW22642   3.241   0.617   5.046
 7248SOL    HW122643   3.197   0.568   5.121
 7248SOL    HW222644   3.277   0.552   4.980
 7249SOL     OW22645   5.935   4.675   6.340
 7249SOL    HW122646   5.882   4.756   6.365
 7249SOL    HW222647   5.990   4.695   6.258
 7250SOL     OW22648   3.224   4.149   6.518
 7250SOL    HW122649   3.255   4.066   6.470
 7250SOL    HW222650   3.192   4.216   6.451
 7251SOL     OW22651   5.658   0.495   5.096
 7251SOL    HW122652   5.639   0.574   5.154
 7251SOL    HW222653   5.580   0.479   5.035
 7252SOL     OW22654   4.465   3.463   5.305
 7252SOL    HW122655   4.400   3.415   5.246
 7252SOL    HW222656   4.542   3.496   5.251
 7253SOL     OW22657   5.106   5.099   0.970
 7253SOL    HW122658   5.077   5.156   0.893
 7253SOL    HW222659   5.143   5.013   0.934
 7254SOL     OW22660   5.505   6.570   5.263
 7254SOL    HW122661   5.437   6.579   5.336
 7254SOL    HW222662   5.582   6.630   5.282
 7255SOL     OW22663   3.815   3.724   1.686
 7255SOL    HW122664   3.851   3.800   1.740
 7255SOL    HW222665   3.832   3.638   1.735
 7256SOL     OW22666   4.244   5.166   3.808
 7256SOL    HW122667   4.199   5.090   3.762
 7256SOL    HW222668   4.238   5.153   3.907
 7257SOL     OW22669   6.250   3.648   3.385
 7257SOL    HW122670   6.274   3.551   3.376
 7257SOL    HW222671   6.197   3.662   3.469
 7258SOL     OW22672   2.459   6.705   5.564
 7258SOL    HW122673   2.444   6.698   5.662
 7258SOL    HW222674   2.400   6.639   5.517
 7259SOL     OW22675   2.002   5.260   6.038
 7259SOL    HW122676   1.977   5.342   6.090
 7259SOL    HW222677   1.970   5.179   6.086
 7260SOL     OW22678   4.572   1.930   2.422
 7260SOL    HW122679   4.517   2.009   2.448
 7260SOL    HW222680   4.561   1.857   2.490
 7261SOL     OW22681   1.996   4.463   1.467
 7261SOL    HW122682   1.943   4.389   1.508
 7261SOL    HW222683   1.977   4.549   1.515
 7262SOL     OW22684   6.374   1.679   5.864
 7262SOL    HW122685   6.372   1.773   5.899
 7262SOL    HW222686   6.469   1.650   5.851
 7263SOL     OW22687   5.170   5.945   1.857
 7263SOL    HW122688   5.141   6.032   1.818
 7263SOL    HW222689   5.240   5.962   1.927
 7264SOL     OW22690   1.594   6.756   4.483
 7264SOL    HW122691   1.654   6.690   4.528
 7264SOL    HW222692   1.602   6.748   4.384
 7265SOL     OW22693   4.440   3.555   6.279
 7265SOL    HW122694   4.539   3.559   6.293
 7265SOL    HW222695   4.413   3.623   6.211
 7266SOL     OW22696   4.663   1.401   1.064
 7266SOL    HW122697   4.672   1.358   1.153
 7266SOL    HW222698   4.654   1.500   1.075
 7267SOL     OW22699   0.213   3.149   4.347
 7267SOL    HW122700   0.222   3.080   4.275
 7267SOL    HW222701   0.166   3.109   4.425
 7268SOL     OW22702   3.312   0.220   0.590
 7268SOL    HW122703   3.229   0.189   0.544
 7268SOL    HW222704   3.292   0.303   0.642
 7269SOL     OW22705   1.250   6.621   2.394
 7269SOL    HW122706   1.287   6.535   2.360
 7269SOL    HW222707   1.305   6.654   2.471
 7270SOL     OW22708   3.261   1.583   2.359
 7270SOL    HW122709   3.224   1.649   2.294
 7270SOL    HW222710   3.330   1.526   2.313
 7271SOL     OW22711   6.229   4.760   4.200
 7271SOL    HW122712   6.309   4.731   4.147
 7271SOL    HW222713   6.152   4.699   4.181
 7272SOL     OW22714   6.021   1.869   1.362
 7272SOL    HW122715   6.007   1.907   1.271
 7272SOL    HW222716   6.095   1.919   1.408
 7273SOL     OW22717   5.581   6.151   6.043
 7273SOL    HW122718   5.665   6.160   6.096
 7273SOL    HW222719   5.539   6.062   6.060
 7274SOL     OW22720   6.570   4.645   4.584
 7274SOL    HW122721   6.637   4.701   4.633
 7274SOL    HW222722   6.547   4.565   4.640
 7275SOL     OW22723   5.523   6.146   1.159
 7275SOL    HW122724   5.446   6.089   1.130
 7275SOL    HW222725   5.489   6.220   1.217
 7276SOL     OW22726   2.645   1.567   3.914
 7276SOL    HW122727   2.648   1.518   3.826
 7276SOL    HW222728   2.725   1.543   3.968
 7277SOL     OW22729   5.352   1.653   4.017
 7277SOL    HW122730   5.270   1.710   4.016
 7277SOL    HW222731   5.414   1.684   4.089
 7278SOL     OW22732   2.436   1.714   3.718
 7278SOL    HW122733   2.486   1.629   3.699
 7278SOL    HW222734   2.437   1.771   3.636
 7279SOL     OW22735   4.195   4.463   1.042
 7279SOL    HW122736   4.185   4.562   1.034
 7279SOL    HW222737   4.191   4.436   1.138
 7280SOL     OW22738   6.781   2.237   5.624
 7280SOL    HW122739   6.881   2.231   5.633
 7280SOL    HW222740   6.754   2.212   5.531
 7281SOL     OW22741   4.126   5.787   2.319
 7281SOL    HW122742   4.071   5.763   2.399
 7281SOL    HW222743   4.073   5.770   2.236
 7282SOL     OW22744   6.715   3.843   2.350
 7282SOL    HW122745   6.794   3.902   2.369
 7282SOL    HW222746   6.644   3.859   2.419
 7283SOL     OW22747   4.099   5.427   3.560
 7283SOL    HW122748   4.057   5.403   3.647
 7283SOL    HW222749   4.088   5.525   3.543
 7284SOL     OW22750   0.763   1.498   2.426
 7284SOL    HW122751   0.679   1.459   2.389
 7284SOL    HW222752   0.762   1.597   2.413
 7285SOL     OW22753   4.873   2.811   1.737
 7285SOL    HW122754   4.795   2.825   1.797
 7285SOL    HW222755   4.848   2.751   1.661
 7286SOL     OW22756   6.481   1.457   3.509
 7286SOL    HW122757   6.475   1.475   3.410
 7286SOL    HW222758   6.573   1.428   3.532
 7287SOL     OW22759   3.095   1.004   3.646
 7287SOL    HW122760   3.178   1.026   3.594
 7287SOL    HW222761   3.037   0.944   3.591
 7288SOL     OW22762   2.854   1.703   1.874
 7288SOL    HW122763   2.769   1.682   1.923
 7288SOL    HW222764   2.929   1.651   1.915
 7289SOL     OW22765   6.164   2.966   1.740
 7289SOL    HW122766   6.255   2.993   1.771
 7289SOL    HW222767   6.096   2.985   1.811
 7290SOL     OW22768   4.173   1.432   5.197
 7290SOL    HW122769   4.086   1.432   5.148
 7290SOL    HW222770   4.160   1.475   5.287
 7291SOL     OW22771   1.948   1.233   0.722
 7291SOL    HW122772   1.931   1.170   0.797
 7291SOL    HW222773   1.931   1.187   0.635
 7292SOL     OW22774   2.484   0.903   2.624
 7292SOL    HW122775   2.389   0.922   2.647
 7292SOL    HW222776   2.540   0.984   2.641
 7293SOL     OW22777   6.344   1.520   3.944
 7293SOL    HW122778   6.284   1.514   4.023
 7293SOL    HW222779   6.318   1.451   3.876
 7294SOL     OW22780   3.753   6.459   2.183
 7294SOL    HW122781   3.665   6.485   2.221
 7294SOL    HW222782   3.783   6.373   2.223
 7295SOL     OW22783   5.130   4.071   1.441
 7295SOL    HW122784   5.138   4.057   1.540
 7295SOL    HW222785   5.209   4.030   1.395
 7296SOL     OW22786   3.820   6.005   1.913
 7296SOL    HW122787   3.793   6.051   1.828
 7296SOL    HW222788   3.742   5.954   1.949
 7297SOL     OW22789   4.185   6.524   0.690
 7297SOL    HW122790   4.221   6.476   0.770
 7297SOL    HW222791   4.085   6.521   0.692
 7298SOL     OW22792   4.144   5.472   0.884
 7298SOL    HW122793   4.083   5.470   0.963
 7298SOL    HW222794   4.221   5.533   0.902
 7299SOL     OW22795   0.737   3.007   5.418
 7299SOL    HW122796   0.638   2.998   5.424
 7299SOL    HW222797   0.766   3.090   5.466
 7300SOL     OW22798   0.275   5.069   2.292
 7300SOL    HW122799   0.317   5.013   2.364
 7300SOL    HW222800   0.346   5.120   2.244
 7301SOL     OW22801   3.974   2.077   6.260
 7301SOL    HW122802   3.923   1.991   6.271
 7301SOL    HW222803   4.007   2.083   6.166
 7302SOL     OW22804   5.447   2.347   6.452
 7302SOL    HW122805   5.349   2.352   6.437
 7302SOL    HW222806   5.481   2.257   6.425
 7303SOL     OW22807   3.255   1.967   1.467
 7303SOL    HW122808   3.205   1.908   1.531
 7303SOL    HW222809   3.350   1.975   1.498
 7304SOL     OW22810   2.336   4.898   0.702
 7304SOL    HW122811   2.354   4.834   0.627
 7304SOL    HW222812   2.268   4.965   0.672
 7305SOL     OW22813   5.977   0.868   6.757
 7305SOL    HW122814   5.979   0.769   6.740
 7305SOL    HW222815   6.071   0.901   6.770
 7306SOL     OW22816   1.185   2.891   1.377
 7306SOL    HW122817   1.180   2.983   1.338
 7306SOL    HW222818   1.135   2.828   1.317
 7307SOL     OW22819   1.996   0.599   1.962
 7307SOL    HW122820   1.984   0.597   1.863
 7307SOL    HW222821   2.072   0.539   1.988
 7308SOL     OW22822   3.458   1.554   3.062
 7308SOL    HW122823   3.460   1.646   3.102
 7308SOL    HW222824   3.515   1.493   3.118
 7309SOL     OW22825   1.787   5.170   3.752
 7309SOL    HW122826   1.764   5.228   3.831
 7309SOL    HW222827   1.786   5.225   3.669
 7310SOL     OW22828   2.776   2.702   6.613
 7310SOL    HW122829   2.810   2.695   6.519
 7310SOL    HW222830   2.734   2.792   6.627
 7311SOL     OW22831   0.249   6.080   5.936
 7311SOL    HW122832   0.346   6.070   5.957
 7311SOL    HW222833   0.202   6.117   6.016
 7312SOL     OW22834   6.055   1.936   3.841
 7312SOL    HW122835   6.004   1.944   3.927
 7312SOL    HW222836   6.027   1.853   3.793
 7313SOL     OW22837   2.933   0.712   2.774
 7313SOL    HW122838   2.991   0.680   2.699
 7313SOL    HW222839   2.901   0.805   2.754
 7314SOL     OW22840   1.548   4.568   5.930
 7314SOL    HW122841   1.572   4.649   5.877
 7314SOL    HW222842   1.459   4.581   5.973
 7315SOL     OW22843   2.822   5.294   2.463
 7315SOL    HW122844   2.830   5.195   2.475
 7315SOL    HW222845   2.910   5.337   2.479
 7316SOL     OW22846   3.904   1.475   1.260
 7316SOL    HW122847   3.983   1.422   1.292
 7316SOL    HW222848   3.838   1.414   1.216
 7317SOL     OW22849   4.222   2.078   0.415
 7317SOL    HW122850   4.157   2.130   0.360
 7317SOL    HW222851   4.258   2.002   0.361
 7318SOL     OW22852   5.077   0.012   0.487
 7318SOL    HW122853   5.163   6.985   0.482
 7318SOL    HW222854   5.068   0.055   0.577
 7319SOL     OW22855   5.364   6.320   6.972
 7319SOL    HW122856   5.417   6.239   6.997
 7319SOL    HW222857   5.425   6.399   6.962
 7320SOL     OW22858   0.628   2.938   0.689
 7320SOL    HW122859   0.726   2.942   0.668
 7320SOL    HW222860   0.577   2.989   0.620
 7321SOL     OW22861   2.275   1.994   6.626
 7321SOL    HW122862   2.295   1.980   6.529
 7321SOL    HW222863   2.325   2.075   6.658
 7322SOL     OW22864   1.120   3.203   3.697
 7322SOL    HW122865   1.167   3.291   3.684
 7322SOL    HW222866   1.059   3.186   3.620
 7323SOL     OW22867   1.682   2.776   0.396
 7323SOL    HW122868   1.746   2.843   0.359
 7323SOL    HW222869   1.731   2.711   0.453
 7324SOL     OW22870   4.823   3.941   3.708
 7324SOL    HW122871   4.771   4.026   3.716
 7324SOL    HW222872   4.814   3.889   3.792
 7325SOL     OW22873   3.584   1.437   6.197
 7325SOL    HW122874   3.595   1.429   6.098
 7325SOL    HW222875   3.669   1.409   6.242
 7326SOL     OW22876   3.666   0.302   0.743
 7326SOL    HW122877   3.705   0.346   0.662
 7326SOL    HW222878   3.609   0.225   0.716
 7327SOL     OW22879   1.696   4.221   3.292
 7327SOL    HW122880   1.755   4.157   3.243
 7327SOL    HW222881   1.660   4.177   3.374
 7328SOL     OW22882   4.696   5.131   5.676
 7328SOL    HW122883   4.726   5.093   5.763
 7328SOL    HW222884   4.596   5.121   5.667
 7329SOL     OW22885   2.749   3.617   0.359
 7329SOL    HW122886   2.820   3.668   0.311
 7329SOL    HW222887   2.758   3.631   0.458
 7330SOL     OW22888   2.274   2.737   1.003
 7330SOL    HW122889   2.307   2.698   1.089
 7330SOL    HW222890   2.218   2.669   0.956
 7331SOL     OW22891   5.466   1.864   2.485
 7331SOL    HW122892   5.383   1.809   2.473
 7331SOL    HW222893   5.448   1.958   2.453
 7332SOL     OW22894   2.964   6.322   6.199
 7332SOL    HW122895   3.057   6.349   6.225
 7332SOL    HW222896   2.900   6.394   6.226
 7333SOL     OW22897   0.371   0.774   1.196
 7333SOL    HW122898   0.388   0.698   1.132
 7333SOL    HW222899   0.386   0.742   1.289
 7334SOL     OW22900   1.202   4.942   4.013
 7334SOL    HW122901   1.286   4.996   4.015
 7334SOL    HW222902   1.128   4.993   4.056
 7335SOL     OW22903   0.360   3.635   2.004
 7335SOL    HW122904   0.272   3.669   2.036
 7335SOL    HW222905   0.411   3.597   2.082
 7336SOL     OW22906   2.400   0.101   1.149
 7336SOL    HW122907   2.388   0.027   1.083
 7336SOL    HW222908   2.439   0.064   1.233
 7337SOL     OW22909   3.350   1.006   3.512
 7337SOL    HW122910   3.353   0.944   3.433
 7337SOL    HW222911   3.437   1.002   3.560
 7338SOL     OW22912   5.031   4.216   1.228
 7338SOL    HW122913   4.936   4.202   1.258
 7338SOL    HW222914   5.093   4.184   1.299
 7339SOL     OW22915   0.134   6.332   4.956
 7339SOL    HW122916   0.082   6.381   5.027
 7339SOL    HW222917   0.230   6.357   4.963
 7340SOL     OW22918   2.836   6.071   0.354
 7340SOL    HW122919   2.897   6.019   0.295
 7340SOL    HW222920   2.824   6.024   0.441
 7341SOL     OW22921   6.651   6.143   4.995
 7341SOL    HW122922   6.636   6.242   4.995
 7341SOL    HW222923   6.568   6.097   5.026
 7342SOL     OW22924   0.831   5.246   1.194
 7342SOL    HW122925   0.849   5.203   1.106
 7342SOL    HW222926   0.783   5.333   1.180
 7343SOL     OW22927   5.628   2.286   3.004
 7343SOL    HW122928   5.724   2.279   3.030
 7343SOL    HW222929   5.621   2.292   2.904
 7344SOL     OW22930   2.222   1.268   0.148
 7344SOL    HW122931   2.224   1.174   0.114
 7344SOL    HW222932   2.316   1.301   0.161
 7345SOL     OW22933   2.687   6.229   6.936
 7345SOL    HW122934   2.643   6.319   6.928
 7345SOL    HW222935   2.719   6.216   0.008
 7346SOL     OW22936   4.001   5.270   2.114
 7346SOL    HW122937   4.077   5.241   2.055
 7346SOL    HW222938   3.941   5.191   2.130
 7347SOL     OW22939   6.257   2.801   2.070
 7347SOL    HW122940   6.261   2.722   2.008
 7347SOL    HW222941   6.340   2.804   2.126
 7348SOL     OW22942   0.046   1.415   4.980
 7348SOL    HW122943   0.095   1.466   4.910
 7348SOL    HW222944   0.099   1.333   5.005
 7349SOL     OW22945   3.407   1.437   0.754
 7349SOL    HW122946   3.354   1.476   0.679
 7349SOL    HW222947   3.348   1.425   0.834
 7350SOL     OW22948   2.156   1.214   2.848
 7350SOL    HW122949   2.162   1.281   2.922
 7350SOL    HW222950   2.248   1.200   2.809
 7351SOL     OW22951   4.090   4.970   0.218
 7351SOL    HW122952   4.003   4.926   0.199
 7351SOL    HW222953   4.080   5.034   0.294
 7352SOL     OW22954   6.466   0.673   3.390
 7352SOL    HW122955   6.523   0.669   3.309
 7352SOL    HW222956   6.466   0.767   3.426
 7353SOL     OW22957   5.012   2.225   4.721
 7353SOL    HW122958   4.964   2.157   4.667
 7353SOL    HW222959   5.027   2.307   4.666
 7354SOL     OW22960   6.545   4.089   4.628
 7354SOL    HW122961   6.492   4.018   4.583
 7354SOL    HW222962   6.490   4.173   4.633
 7355SOL     OW22963   0.742   5.113   1.471
 7355SOL    HW122964   0.813   5.122   1.541
 7355SOL    HW222965   0.776   5.151   1.384
 7356SOL     OW22966   0.276   2.385   6.149
 7356SOL    HW122967   0.347   2.394   6.079
 7356SOL    HW222968   0.285   2.297   6.195
 7357SOL     OW22969   0.595   1.641   7.001
 7357SOL    HW122970   0.627   1.552   6.971
 7357SOL    HW222971   0.662   1.681   0.041
 7358SOL     OW22972   3.357   0.668   3.828
 7358SOL    HW122973   3.288   0.741   3.826
 7358SOL    HW222974   3.321   0.586   3.785
 7359SOL     OW22975   3.625   3.001   3.392
 7359SOL    HW122976   3.695   3.031   3.326
 7359SOL    HW222977   3.567   2.932   3.350
 7360SOL     OW22978   0.275   3.870   5.972
 7360SOL    HW122979   0.304   3.821   6.054
 7360SOL    HW222980   0.320   3.960   5.969
 7361SOL     OW22981   5.069   6.305   1.486
 7361SOL    HW122982   5.116   6.340   1.567
 7361SOL    HW222983   5.016   6.224   1.511
 7362SOL     OW22984   1.696   6.638   6.453
 7362SOL    HW122985   1.716   6.730   6.486
 7362SOL    HW222986   1.751   6.571   6.503
 7363SOL     OW22987   5.219   2.865   6.685
 7363SOL    HW122988   5.272   2.860   6.600
 7363SOL    HW222989   5.123   2.845   6.665
 7364SOL     OW22990   5.338   0.895   1.315
 7364SOL    HW122991   5.344   0.804   1.273
 7364SOL    HW222992   5.255   0.900   1.370
 7365SOL     OW22993   3.721   0.635   1.819
 7365SOL    HW122994   3.701   0.572   1.893
 7365SOL    HW222995   3.794   0.698   1.847
 7366SOL     OW22996   0.855   5.815   6.998
 7366SOL    HW122997   0.779   5.761   0.012
 7366SOL    HW222998   0.886   5.774   6.912
 7367SOL     OW22999   4.429   3.234   6.704
 7367SOL    HW123000   4.502   3.174   6.673
 7367SOL    HW223001   4.411   3.304   6.636
 7368SOL     OW23002   2.924   3.322   3.270
 7368SOL    HW123003   2.910   3.330   3.171
 7368SOL    HW223004   2.953   3.410   3.307
 7369SOL     OW23005   4.985   1.934   6.199
 7369SOL    HW123006   4.939   2.022   6.199
 7369SOL    HW223007   5.009   1.908   6.292
 7370SOL     OW23008   1.680   5.502   1.454
 7370SOL    HW123009   1.597   5.448   1.466
 7370SOL    HW223010   1.759   5.442   1.454
 7371SOL     OW23011   2.256   4.901   4.227
 7371SOL    HW123012   2.314   4.982   4.238
 7371SOL    HW223013   2.194   4.894   4.306
 7372SOL     OW23014   3.081   6.192   5.614
 7372SOL    HW123015   3.092   6.253   5.693
 7372SOL    HW223016   3.067   6.099   5.647
 7373SOL     OW23017   3.781   0.451   1.437
 7373SOL    HW123018   3.784   0.370   1.379
 7373SOL    HW223019   3.874   0.484   1.452
 7374SOL     OW23020   2.179   3.361   6.605
 7374SOL    HW123021   2.085   3.351   6.637
 7374SOL    HW223022   2.181   3.366   6.506
 7375SOL     OW23023   2.104   6.375   2.907
 7375SOL    HW123024   2.201   6.386   2.887
 7375SOL    HW223025   2.050   6.432   2.845
 7376SOL     OW23026   3.333   4.621   6.065
 7376SOL    HW123027   3.418   4.603   6.015
 7376SOL    HW223028   3.255   4.606   6.005
 7377SOL     OW23029   5.495   4.760   2.220
 7377SOL    HW123030   5.491   4.672   2.174
 7377SOL    HW223031   5.571   4.759   2.286
 7378SOL     OW23032   6.898   2.936   6.069
 7378SOL    HW123033   6.824   3.000   6.049
 7378SOL    HW223034   6.966   2.980   6.127
 7379SOL     OW23035   4.164   1.031   0.828
 7379SOL    HW123036   4.084   1.015   0.770
 7379SOL    HW223037   4.133   1.062   0.918
 7380SOL     OW23038   6.382   2.461   5.400
 7380SOL    HW123039   6.422   2.551   5.384
 7380SOL    HW223040   6.407   2.400   5.325
 7381SOL     OW23041   4.453   2.471   6.866
 7381SOL    HW123042   4.385   2.402   6.841
 7381SOL    HW223043   4.527   2.428   6.918
 7382SOL     OW23044   0.504   6.131   3.788
 7382SOL    HW123045   0.462   6.084   3.710
 7382SOL    HW223046   0.595   6.093   3.805
 7383SOL     OW23047   0.092   5.294   3.271
 7383SOL    HW123048   0.176   5.241   3.272
 7383SOL    HW223049   0.042   5.275   3.186
 7384SOL     OW23050   6.208   2.017   1.485
 7384SOL    HW123051   6.308   2.014   1.490
 7384SOL    HW223052   6.173   2.079   1.555
 7385SOL     OW23053   5.195   0.617   1.535
 7385SOL    HW123054   5.269   0.628   1.602
 7385SOL    HW223055   5.138   0.539   1.561
 7386SOL     OW23056   0.063   3.007   5.731
 7386SOL    HW123057   0.155   2.968   5.739
 7386SOL    HW223058   0.069   3.107   5.735
 7387SOL     OW23059   5.056   6.233   3.830
 7387SOL    HW123060   5.062   6.151   3.774
 7387SOL    HW223061   5.127   6.298   3.802
 7388SOL     OW23062   5.510   4.428   4.824
 7388SOL    HW123063   5.522   4.340   4.779
 7388SOL    HW223064   5.433   4.477   4.783
 7389SOL     OW23065   0.656   4.430   4.395
 7389SOL    HW123066   0.738   4.483   4.418
 7389SOL    HW223067   0.615   4.393   4.478
 7390SOL     OW23068   2.896   0.319   6.111
 7390SOL    HW123069   2.914   0.347   6.205
 7390SOL    HW223070   2.901   0.399   6.050
 7391SOL     OW23071   6.823   4.390   0.254
 7391SOL    HW123072   6.759   4.318   0.285
 7391SOL    HW223073   6.917   4.360   0.272
 7392SOL     OW23074   2.384   4.296   2.981
 7392SOL    HW123075   2.445   4.364   3.022
 7392SOL    HW223076   2.289   4.319   3.003
 7393SOL     OW23077   0.290   3.587   0.040
 7393SOL    HW123078   0.381   3.586   7.021
 7393SOL    HW223079   0.293   3.639   0.126
 7394SOL     OW23080   2.909   3.214   6.517
 7394SOL    HW123081   2.911   3.154   6.437
 7394SOL    HW223082   2.930   3.308   6.489
 7395SOL     OW23083   1.986   6.623   0.222
 7395SOL    HW123084   1.991   6.523   0.227
 7395SOL    HW223085   2.079   6.660   0.214
 7396SOL     OW23086   0.064   6.868   1.745
 7396SOL    HW123087   0.008   6.856   1.827
 7396SOL    HW223088   0.065   6.784   1.692
 7397SOL     OW23089   5.864   4.257   4.741
 7397SOL    HW123090   5.823   4.183   4.794
 7397SOL    HW223091   5.925   4.311   4.799
 7398SOL     OW23092   4.477   6.478   3.021
 7398SOL    HW123093   4.382   6.449   3.026
 7398SOL    HW223094   4.532   6.404   2.982
 7399SOL     OW23095   5.291   4.749   4.966
 7399SOL    HW123096   5.233   4.799   5.031
 7399SOL    HW223097   5.235   4.715   4.891
 7400SOL     OW23098   2.339   5.061   6.783
 7400SOL    HW123099   2.353   4.987   6.718
 7400SOL    HW223100   2.428   5.095   6.815
 7401SOL     OW23101   5.782   1.760   4.817
 7401SOL    HW123102   5.745   1.852   4.811
 7401SOL    HW223103   5.713   1.699   4.855
 7402SOL     OW23104   2.251   6.548   4.132
 7402SOL    HW123105   2.341   6.529   4.094
 7402SOL    HW223106   2.181   6.538   4.061
 7403SOL     OW23107   2.116   3.042   1.139
 7403SOL    HW123108   2.094   3.138   1.153
 7403SOL    HW223109   2.153   3.029   1.047
 7404SOL     OW23110   1.427   1.532   2.428
 7404SOL    HW123111   1.385   1.492   2.509
 7404SOL    HW223112   1.525   1.545   2.444
 7405SOL     OW23113   3.357   5.184   6.359
 7405SOL    HW123114   3.366   5.147   6.452
 7405SOL    HW223115   3.423   5.138   6.299
 7406SOL     OW23116   0.524   6.187   1.934
 7406SOL    HW123117   0.471   6.102   1.928
 7406SOL    HW223118   0.593   6.177   2.006
 7407SOL     OW23119   2.317   0.772   5.767
 7407SOL    HW123120   2.398   0.747   5.821
 7407SOL    HW223121   2.310   0.872   5.764
 7408SOL     OW23122   0.425   3.731   5.141
 7408SOL    HW123123   0.465   3.668   5.208
 7408SOL    HW223124   0.353   3.684   5.089
 7409SOL     OW23125   2.906   6.515   5.628
 7409SOL    HW123126   2.941   6.533   5.720
 7409SOL    HW223127   2.857   6.595   5.595
 7410SOL     OW23128   5.083   4.742   6.764
 7410SOL    HW123129   5.097   4.789   6.677
 7410SOL    HW223130   5.101   4.806   6.839
 7411SOL     OW23131   4.954   4.947   5.623
 7411SOL    HW123132   4.944   5.004   5.704
 7411SOL    HW223133   4.998   4.998   5.550
 7412SOL     OW23134   1.685   1.459   6.800
 7412SOL    HW123135   1.698   1.380   6.860
 7412SOL    HW223136   1.756   1.459   6.730
 7413SOL     OW23137   0.211   3.376   4.122
 7413SOL    HW123138   0.238   3.426   4.204
 7413SOL    HW223139   0.192   3.281   4.146
 7414SOL     OW23140   6.906   5.334   2.747
 7414SOL    HW123141   6.944   5.418   2.785
 7414SOL    HW223142   6.941   5.320   2.655
 7415SOL     OW23143   2.457   1.669   3.234
 7415SOL    HW123144   2.478   1.571   3.242
 7415SOL    HW223145   2.408   1.685   3.148
 7416SOL     OW23146   5.570   0.069   3.484
 7416SOL    HW123147   5.518   0.101   3.563
 7416SOL    HW223148   5.506   0.036   3.414
 7417SOL     OW23149   0.906   5.883   1.139
 7417SOL    HW123150   0.843   5.869   1.063
 7417SOL    HW223151   0.854   5.893   1.224
 7418SOL     OW23152   0.718   3.645   0.261
 7418SOL    HW123153   0.740   3.549   0.247
 7418SOL    HW223154   0.754   3.699   0.184
 7419SOL     OW23155   5.753   1.275   5.683
 7419SOL    HW123156   5.824   1.236   5.741
 7419SOL    HW223157   5.730   1.367   5.714
 7420SOL     OW23158   6.642   5.704   2.106
 7420SOL    HW123159   6.677   5.798   2.105
 7420SOL    HW223160   6.666   5.660   2.019
 7421SOL     OW23161   3.699   2.735   1.507
 7421SOL    HW123162   3.658   2.713   1.419
 7421SOL    HW223163   3.739   2.827   1.503
 7422SOL     OW23164   0.729   1.754   1.185
 7422SOL    HW123165   0.750   1.816   1.260
 7422SOL    HW223166   0.772   1.787   1.101
 7423SOL     OW23167   2.137   5.219   0.040
 7423SOL    HW123168   2.115   5.131   7.020
 7423SOL    HW223169   2.075   5.289   0.006
 7424SOL     OW23170   5.582   0.832   4.790
 7424SOL    HW123171   5.491   0.865   4.767
 7424SOL    HW223172   5.610   0.871   4.878
 7425SOL     OW23173   4.297   0.430   5.373
 7425SOL    HW123174   4.210   0.436   5.323
 7425SOL    HW223175   4.278   0.401   5.467
 7426SOL     OW23176   1.124   1.401   0.141
 7426SOL    HW123177   1.053   1.366   0.202
 7426SOL    HW223178   1.214   1.381   0.180
 7427SOL     OW23179   4.494   5.613   5.012
 7427SOL    HW123180   4.528   5.572   4.927
 7427SOL    HW223181   4.474   5.541   5.078
 7428SOL     OW23182   3.131   1.250   5.723
 7428SOL    HW123183   3.112   1.342   5.758
 7428SOL    HW223184   3.215   1.216   5.765
 7429SOL     OW23185   6.641   0.101   4.278
 7429SOL    HW123186   6.595   0.137   4.359
 7429SOL    HW223187   6.668   0.006   4.294
 7430SOL     OW23188   0.306   4.796   4.316
 7430SOL    HW123189   0.384   4.855   4.297
 7430SOL    HW223190   0.262   4.770   4.230
 7431SOL     OW23191   1.114   4.546   2.131
 7431SOL    HW123192   1.120   4.469   2.195
 7431SOL    HW223193   1.019   4.576   2.124
 7432SOL     OW23194   1.444   6.471   4.931
 7432SOL    HW123195   1.456   6.437   5.024
 7432SOL    HW223196   1.448   6.571   4.931
 7433SOL     OW23197   6.909   6.161   1.116
 7433SOL    HW123198   6.854   6.243   1.131
 7433SOL    HW223199   6.851   6.080   1.124
 7434SOL     OW23200   4.275   6.980   6.838
 7434SOL    HW123201   4.197   6.928   6.802
 7434SOL    HW223202   4.245   0.049   6.864
 7435SOL     OW23203   1.188   5.596   6.924
 7435SOL    HW123204   1.258   5.530   6.949
 7435SOL    HW223205   1.100   5.551   6.915
 7436SOL     OW23206   4.780   3.180   0.198
 7436SOL    HW123207   4.723   3.244   0.249
 7436SOL    HW223208   4.864   3.163   0.249
 7437SOL     OW23209   6.937   5.431   5.771
 7437SOL    HW123210   6.969   5.524   5.793
 7437SOL    HW223211   7.016   5.372   5.754
 7438SOL     OW23212   5.989   4.458   1.807
 7438SOL    HW123213   5.941   4.513   1.876
 7438SOL    HW223214   6.037   4.382   1.852
 7439SOL     OW23215   1.160   5.928   3.566
 7439SOL    HW123216   1.073   5.925   3.517
 7439SOL    HW223217   1.228   5.872   3.518
 7440SOL     OW23218   0.658   1.712   3.493
 7440SOL    HW123219   0.715   1.725   3.574
 7440SOL    HW223220   0.703   1.648   3.430
 7441SOL     OW23221   5.969   6.918   4.074
 7441SOL    HW123222   5.901   6.990   4.064
 7441SOL    HW223223   6.061   6.958   4.081
 7442SOL     OW23224   2.084   0.848   6.443
 7442SOL    HW123225   2.058   0.920   6.379
 7442SOL    HW223226   2.003   0.795   6.468
 7443SOL     OW23227   6.892   1.579   0.637
 7443SOL    HW123228   6.910   1.664   0.686
 7443SOL    HW223229   6.960   1.510   0.663
 7444SOL     OW23230   0.715   2.352   5.779
 7444SOL    HW123231   0.774   2.345   5.859
 7444SOL    HW223232   0.768   2.387   5.702
 7445SOL     OW23233   5.819   2.293   1.466
 7445SOL    HW123234   5.877   2.316   1.543
 7445SOL    HW223235   5.767   2.373   1.437
 7446SOL     OW23236   6.741   3.173   1.577
 7446SOL    HW123237   6.784   3.084   1.560
 7446SOL    HW223238   6.715   3.180   1.673
 7447SOL     OW23239   6.896   3.735   6.182
 7447SOL    HW123240   6.976   3.713   6.125
 7447SOL    HW223241   6.813   3.703   6.137
 7448SOL     OW23242   6.498   6.364   6.079
 7448SOL    HW123243   6.595   6.355   6.055
 7448SOL    HW223244   6.489   6.406   6.169
 7449SOL     OW23245   4.348   0.766   1.695
 7449SOL    HW123246   4.356   0.808   1.785
 7449SOL    HW223247   4.252   0.766   1.667
 7450SOL     OW23248   3.409   0.251   1.842
 7450SOL    HW123249   3.493   0.294   1.876
 7450SOL    HW223250   3.371   0.306   1.768
 7451SOL     OW23251   1.525   1.109   2.684
 7451SOL    HW123252   1.492   1.023   2.724
 7451SOL    HW223253   1.450   1.175   2.681
 7452SOL     OW23254   1.599   6.716   4.134
 7452SOL    HW123255   1.561   6.727   4.043
 7452SOL    HW223256   1.526   6.695   4.199
 7453SOL     OW23257   5.962   5.942   5.411
 7453SOL    HW123258   5.944   5.897   5.499
 7453SOL    HW223259   6.020   5.883   5.355
 7454SOL     OW23260   0.814   3.030   7.019
 7454SOL    HW123261   0.876   3.109   7.016
 7454SOL    HW223262   0.863   2.950   6.985
 7455SOL     OW23263   5.290   1.394   0.513
 7455SOL    HW123264   5.309   1.368   0.608
 7455SOL    HW223265   5.347   1.472   0.488
 7456SOL     OW23266   1.670   3.054   5.678
 7456SOL    HW123267   1.722   3.107   5.612
 7456SOL    HW223268   1.572   3.074   5.668
 7457SOL     OW23269   6.425   6.777   6.340
 7457SOL    HW123270   6.365   6.850   6.307
 7457SOL    HW223271   6.458   6.800   6.431
 7458SOL     OW23272   2.305   0.534   0.948
 7458SOL    HW123273   2.288   0.616   1.002
 7458SOL    HW223274   2.323   0.457   1.009
 7459SOL     OW23275   4.475   0.109   4.463
 7459SOL    HW123276   4.568   0.074   4.465
 7459SOL    HW223277   4.472   0.196   4.414
 7460SOL     OW23278   0.597   5.285   6.570
 7460SOL    HW123279   0.682   5.240   6.543
 7460SOL    HW223280   0.522   5.256   6.510
 7461SOL     OW23281   4.925   0.860   4.281
 7461SOL    HW123282   4.994   0.857   4.209
 7461SOL    HW223283   4.851   0.796   4.260
 7462SOL     OW23284   1.633   1.134   2.144
 7462SOL    HW123285   1.683   1.051   2.170
 7462SOL    HW223286   1.583   1.118   2.059
 7463SOL     OW23287   3.453   4.183   1.988
 7463SOL    HW123288   3.484   4.230   2.071
 7463SOL    HW223289   3.529   4.176   1.923
 7464SOL     OW23290   4.714   7.007   6.639
 7464SOL    HW123291   4.791   7.018   6.702
 7464SOL    HW223292   4.745   6.959   6.557
 7465SOL     OW23293   3.527   1.165   2.302
 7465SOL    HW123294   3.612   1.118   2.279
 7465SOL    HW223295   3.450   1.121   2.255
 7466SOL     OW23296   0.262   0.484   6.745
 7466SOL    HW123297   0.329   0.435   6.690
 7466SOL    HW223298   0.265   0.450   6.839
 7467SOL     OW23299   5.315   1.316   1.414
 7467SOL    HW123300   5.221   1.335   1.386
 7467SOL    HW223301   5.360   1.262   1.343
 7468SOL     OW23302   5.995   3.399   4.209
 7468SOL    HW123303   6.089   3.376   4.185
 7468SOL    HW223304   5.995   3.462   4.287
 7469SOL     OW23305   6.077   1.132   1.685
 7469SOL    HW123306   6.151   1.198   1.670
 7469SOL    HW223307   6.003   1.150   1.620
 7470SOL     OW23308   0.173   2.487   2.333
 7470SOL    HW123309   0.118   2.479   2.416
 7470SOL    HW223310   0.113   2.500   2.254
 7471SOL     OW23311   5.861   4.644   5.652
 7471SOL    HW123312   5.867   4.624   5.749
 7471SOL    HW223313   5.947   4.619   5.607
 7472SOL     OW23314   3.551   5.219   3.232
 7472SOL    HW123315   3.565   5.306   3.185
 7472SOL    HW223316   3.639   5.181   3.260
 7473SOL     OW23317   0.959   3.359   5.088
 7473SOL    HW123318   0.974   3.269   5.046
 7473SOL    HW223319   1.002   3.429   5.031
 7474SOL     OW23320   4.009   1.543   2.949
 7474SOL    HW123321   3.947   1.546   2.870
 7474SOL    HW223322   3.962   1.580   3.030
 7475SOL     OW23323   4.299   1.261   0.209
 7475SOL    HW123324   4.310   1.233   0.304
 7475SOL    HW223325   4.272   1.358   0.206
 7476SOL     OW23326   3.379   6.907   5.143
 7476SOL    HW123327   3.476   6.926   5.128
 7476SOL    HW223328   3.327   6.934   5.063
 7477SOL     OW23329   5.021   3.255   3.453
 7477SOL    HW123330   5.005   3.165   3.495
 7477SOL    HW223331   5.001   3.250   3.355
 7478SOL     OW23332   1.688   4.862   1.458
 7478SOL    HW123333   1.684   4.961   1.448
 7478SOL    HW223334   1.652   4.818   1.376
 7479SOL     OW23335   4.706   0.866   6.094
 7479SOL    HW123336   4.622   0.874   6.041
 7479SOL    HW223337   4.713   0.773   6.131
 7480SOL     OW23338   6.743   4.998   0.915
 7480SOL    HW123339   6.717   4.949   0.832
 7480SOL    HW223340   6.728   5.096   0.901
 7481SOL     OW23341   6.153   5.848   0.663
 7481SOL    HW123342   6.101   5.867   0.746
 7481SOL    HW223343   6.153   5.749   0.645
 7482SOL     OW23344   4.986   0.510   3.856
 7482SOL    HW123345   5.000   0.468   3.766
 7482SOL    HW223346   4.926   0.452   3.911
 7483SOL     OW23347   3.232   6.829   5.979
 7483SOL    HW123348   3.297   6.905   5.984
 7483SOL    HW223349   3.145   6.862   5.941
 7484SOL     OW23350   2.936   0.188   2.138
 7484SOL    HW123351   2.893   0.216   2.224
 7484SOL    HW223352   2.986   0.265   2.099
 7485SOL     OW23353   1.175   6.595   6.137
 7485SOL    HW123354   1.233   6.587   6.056
 7485SOL    HW223355   1.104   6.525   6.134
 7486SOL     OW23356   1.809   0.338   5.164
 7486SOL    HW123357   1.824   0.422   5.112
 7486SOL    HW223358   1.870   0.337   5.243
 7487SOL     OW23359   3.909   5.369   3.363
 7487SOL    HW123360   3.852   5.451   3.361
 7487SOL    HW223361   3.978   5.378   3.435
 7488SOL     OW23362   3.311   0.859   5.552
 7488SOL    HW123363   3.285   0.784   5.492
 7488SOL    HW223364   3.393   0.904   5.515
 7489SOL     OW23365   6.315   3.388   3.315
 7489SOL    HW123366   6.252   3.401   3.238
 7489SOL    HW223367   6.374   3.310   3.298
 7490SOL     OW23368   5.816   1.205   2.378
 7490SOL    HW123369   5.734   1.252   2.409
 7490SOL    HW223370   5.839   1.235   2.285
 7491SOL     OW23371   0.067   6.625   6.670
 7491SOL    HW123372   7.000   6.590   6.643
 7491SOL    HW223373   0.091   6.589   6.760
 7492SOL     OW23374   2.110   2.652   4.051
 7492SOL    HW123375   2.184   2.705   4.094
 7492SOL    HW223376   2.146   2.601   3.973
 7493SOL     OW23377   5.616   4.524   0.276
 7493SOL    HW123378   5.571   4.441   0.242
 7493SOL    HW223379   5.584   4.603   0.225
 7494SOL     OW23380   4.667   1.920   1.207
 7494SOL    HW123381   4.721   2.004   1.200
 7494SOL    HW223382   4.575   1.937   1.172
 7495SOL     OW23383   0.297   1.656   2.458
 7495SOL    HW123384   0.334   1.648   2.365
 7495SOL    HW223385   0.198   1.673   2.453
 7496SOL     OW23386   0.811   4.243   5.183
 7496SOL    HW123387   0.781   4.334   5.154
 7496SOL    HW223388   0.891   4.251   5.242
 7497SOL     OW23389   2.331   5.242   2.454
 7497SOL    HW123390   2.363   5.312   2.390
 7497SOL    HW223391   2.410   5.197   2.496
 7498SOL     OW23392   5.176   0.934   4.489
 7498SOL    HW123393   5.081   0.908   4.505
 7498SOL    HW223394   5.195   0.933   4.391
 7499SOL     OW23395   4.428   5.891   3.874
 7499SOL    HW123396   4.362   5.875   3.801
 7499SOL    HW223397   4.394   5.851   3.959
 7500SOL     OW23398   5.082   4.414   1.832
 7500SOL    HW123399   5.070   4.315   1.843
 7500SOL    HW223400   5.006   4.450   1.777
 7501SOL     OW23401   0.631   4.341   3.831
 7501SOL    HW123402   0.696   4.398   3.781
 7501SOL    HW223403   0.543   4.387   3.835
 7502SOL     OW23404   2.342   1.779   4.474
 7502SOL    HW123405   2.441   1.764   4.476
 7502SOL    HW223406   2.295   1.692   4.463
 7503SOL     OW23407   2.061   2.551   6.575
 7503SOL    HW123408   2.050   2.455   6.601
 7503SOL    HW223409   1.977   2.583   6.530
 7504SOL     OW23410   4.094   5.820   3.906
 7504SOL    HW123411   4.127   5.905   3.946
 7504SOL    HW223412   4.014   5.788   3.957
 7505SOL     OW23413   1.815   2.230   4.466
 7505SOL    HW123414   1.886   2.253   4.533
 7505SOL    HW223415   1.745   2.172   4.510
 7506SOL     OW23416   3.938   1.934   3.353
 7506SOL    HW123417   4.007   1.926   3.426
 7506SOL    HW223418   3.877   2.010   3.374
 7507SOL     OW23419   1.729   6.300   5.989
 7507SOL    HW123420   1.647   6.334   6.035
 7507SOL    HW223421   1.805   6.363   6.006
 7508SOL     OW23422   4.906   6.229   4.356
 7508SOL    HW123423   4.932   6.142   4.397
 7508SOL    HW223424   4.883   6.215   4.259
 7509SOL     OW23425   4.214   3.755   5.979
 7509SOL    HW123426   4.275   3.785   6.052
 7509SOL    HW223427   4.220   3.656   5.968
 7510SOL     OW23428   3.004   3.956   4.597
 7510SOL    HW123429   3.079   3.997   4.649
 7510SOL    HW223430   2.918   3.971   4.646
 7511SOL     OW23431   1.394   0.873   2.468
 7511SOL    HW123432   1.390   0.850   2.566
 7511SOL    HW223433   1.313   0.926   2.444
 7512SOL     OW23434   2.291   2.953   1.784
 7512SOL    HW123435   2.251   2.977   1.872
 7512SOL    HW223436   2.327   3.035   1.740
 7513SOL     OW23437   0.542   3.518   6.273
 7513SOL    HW123438   0.502   3.441   6.224
 7513SOL    HW223439   0.612   3.485   6.336
 7514SOL     OW23440   2.765   5.737   2.980
 7514SOL    HW123441   2.675   5.746   3.022
 7514SOL    HW223442   2.755   5.739   2.880
 7515SOL     OW23443   6.988   4.970   3.071
 7515SOL    HW123444   6.906   4.920   3.041
 7515SOL    HW223445   6.971   5.068   3.067
 7516SOL     OW23446   1.186   1.092   2.824
 7516SOL    HW123447   1.221   1.083   2.918
 7516SOL    HW223448   1.247   1.151   2.772
 7517SOL     OW23449   0.585   4.897   1.576
 7517SOL    HW123450   0.642   4.975   1.550
 7517SOL    HW223451   0.610   4.866   1.668
 7518SOL     OW23452   5.314   5.557   2.752
 7518SOL    HW123453   5.263   5.487   2.801
 7518SOL    HW223454   5.250   5.627   2.718
 7519SOL     OW23455   1.957   6.026   3.520
 7519SOL    HW123456   2.019   5.958   3.560
 7519SOL    HW223457   1.867   6.018   3.564
 7520SOL     OW23458   2.390   6.920   4.072
 7520SOL    HW123459   2.345   6.879   4.151
 7520SOL    HW223460   2.346   7.007   4.049
 7521SOL     OW23461   5.232   3.913   6.112
 7521SOL    HW123462   5.222   3.919   6.012
 7521SOL    HW223463   5.308   3.852   6.134
 7522SOL     OW23464   1.732   0.586   2.185
 7522SOL    HW123465   1.693   0.626   2.102
 7522SOL    HW223466   1.680   0.618   2.265
 7523SOL     OW23467   5.620   0.060   6.880
 7523SOL    HW123468   5.566   7.006   6.916
 7523SOL    HW223469   5.562   0.116   6.821
 7524SOL     OW23470   6.063   1.444   4.529
 7524SOL    HW123471   6.098   1.353   4.551
 7524SOL    HW223472   6.053   1.453   4.430
 7525SOL     OW23473   1.228   6.034   1.016
 7525SOL    HW123474   1.265   5.996   1.101
 7525SOL    HW223475   1.253   5.974   0.940
 7526SOL     OW23476   3.435   2.761   5.299
 7526SOL    HW123477   3.516   2.705   5.286
 7526SOL    HW223478   3.359   2.703   5.329
 7527SOL     OW23479   5.547   5.196   2.386
 7527SOL    HW123480   5.543   5.243   2.475
 7527SOL    HW223481   5.468   5.223   2.331
 7528SOL     OW23482   6.024   3.016   5.937
 7528SOL    HW123483   6.109   2.965   5.949
 7528SOL    HW223484   5.947   2.962   5.969
 7529SOL     OW23485   3.049   0.244   5.248
 7529SOL    HW123486   3.100   0.169   5.290
 7529SOL    HW223487   2.998   0.211   5.169
 7530SOL     OW23488   6.864   3.080   2.786
 7530SOL    HW123489   6.814   3.062   2.871
 7530SOL    HW223490   6.928   3.155   2.800
 7531SOL     OW23491   3.297   1.921   4.116
 7531SOL    HW123492   3.252   1.985   4.054
 7531SOL    HW223493   3.395   1.920   4.098
 7532SOL     OW23494   4.923   4.738   2.091
 7532SOL    HW123495   5.019   4.723   2.066
 7532SOL    HW223496   4.897   4.674   2.163
 7533SOL     OW23497   3.403   0.150   4.628
 7533SOL    HW123498   3.418   0.053   4.642
 7533SOL    HW223499   3.454   0.202   4.697
 7534SOL     OW23500   5.450   6.879   4.508
 7534SOL    HW123501   5.386   6.934   4.454
 7534SOL    HW223502   5.406   6.792   4.532
 7535SOL     OW23503   3.444   4.752   6.921
 7535SOL    HW123504   3.439   4.693   7.002
 7535SOL    HW223505   3.353   4.763   6.882
 7536SOL     OW23506   3.851   5.894   4.389
 7536SOL    HW123507   3.768   5.950   4.386
 7536SOL    HW223508   3.831   5.803   4.354
 7537SOL     OW23509   1.789   4.592   5.581
 7537SOL    HW123510   1.870   4.537   5.601
 7537SOL    HW223511   1.815   4.671   5.525
 7538SOL     OW23512   3.304   3.060   3.134
 7538SOL    HW123513   3.339   2.984   3.189
 7538SOL    HW223514   3.221   3.096   3.176
 7539SOL     OW23515   1.853   2.355   3.988
 7539SOL    HW123516   1.806   2.320   4.069
 7539SOL    HW223517   1.854   2.455   3.991
 7540SOL     OW23518   1.806   1.562   0.229
 7540SOL    HW123519   1.862   1.626   0.177
 7540SOL    HW223520   1.863   1.490   0.268
 7541SOL     OW23521   0.075   2.723   5.259
 7541SOL    HW123522   0.013   2.696   5.185
 7541SOL    HW223523   0.045   2.810   5.298
 7542SOL     OW23524   2.107   0.263   6.719
 7542SOL    HW123525   2.168   0.188   6.692
 7542SOL    HW223526   2.092   0.259   6.818
 7543SOL     OW23527   4.033   2.950   0.029
 7543SOL    HW123528   3.995   2.872   7.002
 7543SOL    HW223529   4.130   2.935   0.047
 7544SOL     OW23530   1.708   2.113   2.877
 7544SOL    HW123531   1.771   2.095   2.801
 7544SOL    HW223532   1.616   2.129   2.841
 7545SOL     OW23533   5.217   6.823   3.742
 7545SOL    HW123534   5.248   6.884   3.815
 7545SOL    HW223535   5.157   6.752   3.779
 7546SOL     OW23536   5.050   0.228   6.593
 7546SOL    HW123537   5.039   0.134   6.624
 7546SOL    HW223538   5.105   0.229   6.509
 7547SOL     OW23539   3.098   0.175   0.398
 7547SOL    HW123540   3.014   0.122   0.404
 7547SOL    HW223541   3.102   0.220   0.308
 7548SOL     OW23542   1.260   2.822   1.002
 7548SOL    HW123543   1.234   2.895   1.066
 7548SOL    HW223544   1.239   2.851   0.909
 7549SOL     OW23545   6.018   1.925   1.904
 7549SOL    HW123546   5.946   1.994   1.913
 7549SOL    HW223547   6.033   1.905   1.808
 7550SOL     OW23548   1.193   5.229   1.319
 7550SOL    HW123549   1.135   5.287   1.376
 7550SOL    HW223550   1.201   5.270   1.228
 7551SOL     OW23551   4.403   3.809   6.164
 7551SOL    HW123552   4.460   3.882   6.126
 7551SOL    HW223553   4.388   3.824   6.261
 7552SOL     OW23554   2.984   5.350   4.006
 7552SOL    HW123555   2.933   5.436   4.012
 7552SOL    HW223556   2.920   5.273   4.008
 7553SOL     OW23557   4.754   4.430   6.339
 7553SOL    HW123558   4.772   4.335   6.314
 7553SOL    HW223559   4.708   4.433   6.427
 7554SOL     OW23560   6.535   1.311   0.679
 7554SOL    HW123561   6.561   1.407   0.681
 7554SOL    HW223562   6.610   1.257   0.640
 7555SOL     OW23563   1.265   5.590   5.990
 7555SOL    HW123564   1.272   5.623   6.085
 7555SOL    HW223565   1.275   5.491   5.988
 7556SOL     OW23566   6.966   3.227   3.901
 7556SOL    HW123567   6.936   3.300   3.964
 7556SOL    HW223568   0.035   3.198   3.926
 7557SOL     OW23569   4.520   3.398   6.905
 7557SOL    HW123570   4.606   3.438   6.874
 7557SOL    HW223571   4.496   3.321   6.846
 7558SOL     OW23572   1.633   3.406   3.396
 7558SOL    HW123573   1.581   3.491   3.410
 7558SOL    HW223574   1.570   3.328   3.398
 7559SOL     OW23575   0.829   5.086   0.543
 7559SOL    HW123576   0.858   4.994   0.568
 7559SOL    HW223577   0.764   5.081   0.467
 7560SOL     OW23578   4.743   6.499   5.781
 7560SOL    HW123579   4.676   6.437   5.821
 7560SOL    HW223580   4.698   6.558   5.714
 7561SOL     OW23581   0.666   3.587   0.639
 7561SOL    HW123582   0.634   3.532   0.562
 7561SOL    HW223583   0.758   3.558   0.665
 7562SOL     OW23584   5.049   5.944   5.614
 7562SOL    HW123585   5.145   5.962   5.631
 7562SOL    HW223586   5.011   5.894   5.693
 7563SOL     OW23587   2.509   1.102   2.348
 7563SOL    HW123588   2.476   1.045   2.273
 7563SOL    HW223589   2.433   1.124   2.409
 7564SOL     OW23590   5.139   6.800   4.098
 7564SOL    HW123591   5.232   6.771   4.118
 7564SOL    HW223592   5.087   6.809   4.183
 7565SOL     OW23593   4.806   4.509   0.502
 7565SOL    HW123594   4.719   4.489   0.458
 7565SOL    HW223595   4.790   4.557   0.588
 7566SOL     OW23596   1.924   5.569   5.141
 7566SOL    HW123597   2.005   5.616   5.105
 7566SOL    HW223598   1.939   5.545   5.237
 7567SOL     OW23599   2.497   2.933   7.016
 7567SOL    HW123600   2.596   2.922   7.012
 7567SOL    HW223601   2.475   3.019   0.038
 7568SOL     OW23602   4.564   4.441   3.247
 7568SOL    HW123603   4.529   4.534   3.240
 7568SOL    HW223604   4.596   4.425   3.341
 7569SOL     OW23605   3.841   0.944   1.070
 7569SOL    HW123606   3.807   1.034   1.043
 7569SOL    HW223607   3.922   0.954   1.128
 7570SOL     OW23608   5.976   4.709   4.753
 7570SOL    HW123609   5.980   4.753   4.663
 7570SOL    HW223610   6.004   4.613   4.744
 7571SOL     OW23611   5.039   4.157   1.880
 7571SOL    HW123612   5.050   4.135   1.977
 7571SOL    HW223613   4.944   4.144   1.853
 7572SOL     OW23614   1.327   1.694   4.281
 7572SOL    HW123615   1.261   1.640   4.335
 7572SOL    HW223616   1.278   1.764   4.230
 7573SOL     OW23617   3.068   5.371   5.557
 7573SOL    HW123618   2.971   5.380   5.581
 7573SOL    HW223619   3.085   5.425   5.474
 7574SOL     OW23620   5.278   5.767   2.478
 7574SOL    HW123621   5.198   5.826   2.468
 7574SOL    HW223622   5.359   5.812   2.439
 7575SOL     OW23623   4.543   2.527   4.814
 7575SOL    HW123624   4.543   2.561   4.908
 7575SOL    HW223625   4.536   2.427   4.815
 7576SOL     OW23626   6.336   3.555   1.450
 7576SOL    HW123627   6.334   3.652   1.472
 7576SOL    HW223628   6.281   3.505   1.516
 7577SOL     OW23629   4.078   0.730   5.003
 7577SOL    HW123630   4.097   0.709   4.907
 7577SOL    HW223631   4.024   0.655   5.044
 7578SOL     OW23632   2.398   5.120   4.353
 7578SOL    HW123633   2.490   5.144   4.382
 7578SOL    HW223634   2.333   5.188   4.386
 7579SOL     OW23635   4.216   1.984   3.494
 7579SOL    HW123636   4.203   2.038   3.577
 7579SOL    HW223637   4.258   2.040   3.423
 7580SOL     OW23638   2.116   3.407   2.701
 7580SOL    HW123639   2.090   3.371   2.790
 7580SOL    HW223640   2.126   3.331   2.636
 7581SOL     OW23641   6.167   0.910   0.968
 7581SOL    HW123642   6.249   0.889   1.021
 7581SOL    HW223643   6.110   0.976   1.017
 7582SOL     OW23644   2.937   1.999   1.058
 7582SOL    HW123645   2.905   1.996   1.153
 7582SOL    HW223646   3.019   2.055   1.052
 7583SOL     OW23647   6.788   3.388   2.584
 7583SOL    HW123648   6.874   3.337   2.586
 7583SOL    HW223649   6.790   3.459   2.655
 7584SOL     OW23650   2.195   1.390   1.256
 7584SOL    HW123651   2.106   1.376   1.214
 7584SOL    HW223652   2.259   1.321   1.221
 7585SOL     OW23653   1.657   5.223   6.089
 7585SOL    HW123654   1.705   5.309   6.107
 7585SOL    HW223655   1.624   5.185   6.176
 7586SOL     OW23656   2.253   1.194   1.763
 7586SOL    HW123657   2.224   1.279   1.719
 7586SOL    HW223658   2.198   1.179   1.846
 7587SOL     OW23659   2.098   1.113   5.905
 7587SOL    HW123660   2.120   1.170   5.984
 7587SOL    HW223661   2.144   1.150   5.824
 7588SOL     OW23662   0.505   4.307   1.440
 7588SOL    HW123663   0.441   4.326   1.514
 7588SOL    HW223664   0.584   4.258   1.476
 7589SOL     OW23665   5.539   6.453   0.354
 7589SOL    HW123666   5.574   6.397   0.430
 7589SOL    HW223667   5.456   6.500   0.383
 7590SOL     OW23668   2.072   0.595   6.958
 7590SOL    HW123669   2.144   0.571   6.894
 7590SOL    HW223670   2.107   0.662   0.001
 7591SOL     OW23671   0.059   5.139   0.209
 7591SOL    HW123672   0.114   5.057   0.220
 7591SOL    HW223673   7.006   5.139   0.274
 7592SOL     OW23674   5.608   5.929   6.832
 7592SOL    HW123675   5.702   5.948   6.803
 7592SOL    HW223676   5.551   5.914   6.752
 7593SOL     OW23677   6.025   3.407   0.184
 7593SOL    HW123678   6.080   3.482   0.145
 7593SOL    HW223679   6.067   3.376   0.269
 7594SOL     OW23680   1.206   6.243   3.392
 7594SOL    HW123681   1.145   6.171   3.424
 7594SOL    HW223682   1.300   6.209   3.389
 7595SOL     OW23683   6.528   2.225   0.205
 7595SOL    HW123684   6.495   2.141   0.162
 7595SOL    HW223685   6.451   2.283   0.229
 7596SOL     OW23686   4.829   4.565   1.851
 7596SOL    HW123687   4.875   4.653   1.863
 7596SOL    HW223688   4.832   4.514   1.937
 7597SOL     OW23689   2.898   5.767   2.100
 7597SOL    HW123690   2.880   5.856   2.143
 7597SOL    HW223691   2.922   5.780   2.004
 7598SOL     OW23692   6.694   0.334   3.514
 7598SOL    HW123693   6.777   0.355   3.462
 7598SOL    HW223694   6.659   0.244   3.486
 7599SOL     OW23695   6.613   2.335   2.237
 7599SOL    HW123696   6.529   2.384   2.261
 7599SOL    HW223697   6.593   2.238   2.227
 7600SOL     OW23698   2.482   1.802   1.925
 7600SOL    HW123699   2.385   1.789   1.904
 7600SOL    HW223700   2.505   1.899   1.914
 7601SOL     OW23701   1.685   0.027   4.471
 7601SOL    HW123702   1.588   0.042   4.455
 7601SOL    HW223703   1.698   6.965   4.523
 7602SOL     OW23704   2.180   3.024   5.211
 7602SOL    HW123705   2.264   3.027   5.157
 7602SOL    HW223706   2.158   3.117   5.241
 7603SOL     OW23707   0.636   0.719   2.327
 7603SOL    HW123708   0.593   0.713   2.237
 7603SOL    HW223709   0.621   0.633   2.377
 7604SOL     OW23710   4.478   6.556   6.637
 7604SOL    HW123711   4.470   6.654   6.617
 7604SOL    HW223712   4.547   6.515   6.577
 7605SOL     OW23713   5.838   4.390   5.474
 7605SOL    HW123714   5.930   4.421   5.497
 7605SOL    HW223715   5.827   4.390   5.374
 7606SOL     OW23716   6.485   1.910   2.859
 7606SOL    HW123717   6.505   1.814   2.880
 7606SOL    HW223718   6.386   1.924   2.856
 7607SOL     OW23719   4.944   7.003   6.791
 7607SOL    HW123720   4.973   6.913   6.823
 7607SOL    HW223721   4.983   0.051   6.849
 7608SOL     OW23722   3.635   3.359   3.450
 7608SOL    HW123723   3.602   3.382   3.541
 7608SOL    HW223724   3.560   3.320   3.397
 7609SOL     OW23725   1.527   2.814   4.540
 7609SOL    HW123726   1.620   2.790   4.512
 7609SOL    HW223727   1.489   2.742   4.598
 7610SOL     OW23728   5.370   0.634   1.312
 7610SOL    HW123729   5.448   0.637   1.374
 7610SOL    HW223730   5.287   0.615   1.365
 7611SOL     OW23731   1.723   1.795   1.355
 7611SOL    HW123732   1.702   1.840   1.268
 7611SOL    HW223733   1.638   1.779   1.404
 7612SOL     OW23734   4.394   1.590   2.804
 7612SOL    HW123735   4.304   1.574   2.763
 7612SOL    HW223736   4.393   1.560   2.899
 7613SOL     OW23737   5.451   1.275   2.307
 7613SOL    HW123738   5.516   1.348   2.283
 7613SOL    HW223739   5.431   1.280   2.405
 7614SOL     OW23740   3.928   1.689   0.252
 7614SOL    HW123741   3.861   1.713   0.322
 7614SOL    HW223742   3.959   1.772   0.205
 7615SOL     OW23743   3.688   4.845   6.012
 7615SOL    HW123744   3.636   4.925   6.041
 7615SOL    HW223745   3.722   4.796   6.092
 7616SOL     OW23746   6.839   5.009   3.813
 7616SOL    HW123747   6.892   5.093   3.824
 7616SOL    HW223748   6.758   5.012   3.871
 7617SOL     OW23749   3.485   6.152   2.326
 7617SOL    HW123750   3.449   6.095   2.401
 7617SOL    HW223751   3.580   6.176   2.345
 7618SOL     OW23752   2.042   2.665   0.435
 7618SOL    HW123753   1.984   2.661   0.516
 7618SOL    HW223754   1.992   2.629   0.356
 7619SOL     OW23755   5.793   3.182   5.798
 7619SOL    HW123756   5.867   3.131   5.841
 7619SOL    HW223757   5.707   3.132   5.810
 7620SOL     OW23758   3.323   6.330   1.680
 7620SOL    HW123759   3.294   6.310   1.774
 7620SOL    HW223760   3.319   6.246   1.626
 7621SOL     OW23761   2.877   1.901   1.328
 7621SOL    HW123762   2.804   1.900   1.396
 7621SOL    HW223763   2.949   1.838   1.356
 7622SOL     OW23764   4.666   1.952   0.682
 7622SOL    HW123765   4.589   1.982   0.739
 7622SOL    HW223766   4.634   1.883   0.617
 7623SOL     OW23767   5.186   0.327   5.581
 7623SOL    HW123768   5.200   0.369   5.671
 7623SOL    HW223769   5.255   0.362   5.517
 7624SOL     OW23770   6.760   0.693   4.262
 7624SOL    HW123771   6.771   0.724   4.168
 7624SOL    HW223772   6.719   0.602   4.262
 7625SOL     OW23773   4.306   6.763   1.150
 7625SOL    HW123774   4.267   6.696   1.213
 7625SOL    HW223775   4.248   6.770   1.069
 7626SOL     OW23776   1.912   4.865   4.798
 7626SOL    HW123777   1.844   4.796   4.773
 7626SOL    HW223778   1.999   4.820   4.818
 7627SOL     OW23779   0.295   2.356   0.104
 7627SOL    HW123780   0.343   2.304   0.033
 7627SOL    HW223781   0.340   2.444   0.117
 7628SOL     OW23782   3.852   2.254   0.790
 7628SOL    HW123783   3.888   2.175   0.840
 7628SOL    HW223784   3.920   2.327   0.789
 7629SOL     OW23785   6.698   5.116   3.609
 7629SOL    HW123786   6.772   5.063   3.650
 7629SOL    HW223787   6.694   5.206   3.652
 7630SOL     OW23788   6.656   0.900   2.280
 7630SOL    HW123789   6.741   0.952   2.266
 7630SOL    HW223790   6.578   0.959   2.261
 7631SOL     OW23791   1.037   2.258   3.489
 7631SOL    HW123792   1.110   2.202   3.527
 7631SOL    HW223793   1.011   2.329   3.555
 7632SOL     OW23794   4.118   1.730   6.342
 7632SOL    HW123795   4.196   1.730   6.279
 7632SOL    HW223796   4.034   1.745   6.292
 7633SOL     OW23797   5.730   4.522   6.636
 7633SOL    HW123798   5.787   4.550   6.714
 7633SOL    HW223799   5.639   4.498   6.668
 7634SOL     OW23800   0.724   1.918   1.933
 7634SOL    HW123801   0.676   1.975   2.000
 7634SOL    HW223802   0.822   1.940   1.935
 7635SOL     OW23803   2.925   5.090   6.125
 7635SOL    HW123804   2.956   5.154   6.054
 7635SOL    HW223805   2.990   5.091   6.201
 7636SOL     OW23806   1.848   0.206   3.701
 7636SOL    HW123807   1.937   0.164   3.686
 7636SOL    HW223808   1.832   0.218   3.799
 7637SOL     OW23809   2.217   5.687   4.257
 7637SOL    HW123810   2.181   5.754   4.193
 7637SOL    HW223811   2.241   5.604   4.208
 7638SOL     OW23812   4.481   4.535   2.165
 7638SOL    HW123813   4.484   4.443   2.125
 7638SOL    HW223814   4.418   4.535   2.243
 7639SOL     OW23815   0.770   2.209   4.075
 7639SOL    HW123816   0.754   2.162   3.989
 7639SOL    HW223817   0.683   2.246   4.110
 7640SOL     OW23818   2.093   2.933   6.418
 7640SOL    HW123819   2.175   2.876   6.431
 7640SOL    HW223820   2.050   2.949   6.506
 7641SOL     OW23821   6.445   2.708   3.422
 7641SOL    HW123822   6.451   2.779   3.491
 7641SOL    HW223823   6.387   2.739   3.347
 7642SOL     OW23824   2.652   1.772   2.898
 7642SOL    HW123825   2.575   1.749   2.958
 7642SOL    HW223826   2.667   1.871   2.900
 7643SOL     OW23827   4.931   3.243   3.180
 7643SOL    HW123828   5.029   3.261   3.173
 7643SOL    HW223829   4.889   3.249   3.089
 7644SOL     OW23830   6.532   3.654   3.238
 7644SOL    HW123831   6.610   3.635   3.298
 7644SOL    HW223832   6.463   3.583   3.249
 7645SOL     OW23833   4.737   3.557   6.866
 7645SOL    HW123834   4.818   3.499   6.858
 7645SOL    HW223835   4.759   3.638   6.920
 7646SOL     OW23836   0.994   2.096   1.447
 7646SOL    HW123837   0.916   2.095   1.510
 7646SOL    HW223838   1.079   2.087   1.499
 7647SOL     OW23839   2.110   4.720   1.685
 7647SOL    HW123840   2.200   4.745   1.649
 7647SOL    HW223841   2.040   4.745   1.619
 7648SOL     OW23842   4.340   0.666   3.137
 7648SOL    HW123843   4.247   0.702   3.146
 7648SOL    HW223844   4.386   0.669   3.226
 7649SOL     OW23845   2.628   1.382   1.649
 7649SOL    HW123846   2.557   1.429   1.702
 7649SOL    HW223847   2.702   1.446   1.629
 7650SOL     OW23848   5.568   5.153   2.854
 7650SOL    HW123849   5.601   5.063   2.826
 7650SOL    HW223850   5.494   5.141   2.921
 7651SOL     OW23851   3.870   1.214   6.143
 7651SOL    HW123852   3.915   1.302   6.126
 7651SOL    HW223853   3.824   1.184   6.059
 7652SOL     OW23854   0.818   3.124   2.800
 7652SOL    HW123855   0.792   3.183   2.723
 7652SOL    HW223856   0.737   3.100   2.853
 7653SOL     OW23857   3.566   2.380   1.368
 7653SOL    HW123858   3.661   2.355   1.389
 7653SOL    HW223859   3.510   2.370   1.449
 7654SOL     OW23860   4.842   3.841   3.959
 7654SOL    HW123861   4.779   3.879   4.027
 7654SOL    HW223862   4.874   3.751   3.989
 7655SOL     OW23863   4.653   6.403   5.484
 7655SOL    HW123864   4.570   6.353   5.461
 7655SOL    HW223865   4.711   6.345   5.542
 7656SOL     OW23866   1.001   6.000   4.794
 7656SOL    HW123867   1.074   6.042   4.741
 7656SOL    HW223868   1.041   5.951   4.872
 7657SOL     OW23869   4.649   1.286   4.473
 7657SOL    HW123870   4.632   1.260   4.569
 7657SOL    HW223871   4.741   1.256   4.447
 7658SOL     OW23872   3.987   0.348   6.124
 7658SOL    HW123873   4.054   0.367   6.196
 7658SOL    HW223874   3.995   0.416   6.052
 7659SOL     OW23875   5.430   0.069   0.245
 7659SOL    HW123876   5.424   0.169   0.239
 7659SOL    HW223877   5.344   0.029   0.215
 7660SOL     OW23878   6.331   4.346   4.254
 7660SOL    HW123879   6.286   4.391   4.177
 7660SOL    HW223880   6.399   4.408   4.294
 7661SOL     OW23881   5.481   3.675   3.535
 7661SOL    HW123882   5.476   3.612   3.458
 7661SOL    HW223883   5.391   3.716   3.551
 7662SOL     OW23884   7.022   5.627   1.590
 7662SOL    HW123885   6.995   5.720   1.616
 7662SOL    HW223886   7.015   5.567   1.670
 7663SOL     OW23887   7.020   5.281   6.804
 7663SOL    HW123888   0.032   5.339   6.877
 7663SOL    HW223889   0.072   5.259   6.741
 7664SOL     OW23890   2.581   5.344   4.666
 7664SOL    HW123891   2.495   5.393   4.654
 7664SOL    HW223892   2.657   5.409   4.663
 7665SOL     OW23893   2.233   6.271   4.488
 7665SOL    HW123894   2.276   6.350   4.531
 7665SOL    HW223895   2.257   6.268   4.391
 7666SOL     OW23896   1.557   1.559   1.203
 7666SOL    HW123897   1.496   1.484   1.228
 7666SOL    HW223898   1.550   1.633   1.270
 7667SOL     OW23899   4.966   5.361   6.245
 7667SOL    HW123900   4.888   5.329   6.192
 7667SOL    HW223901   4.992   5.452   6.214
 7668SOL     OW23902   2.593   3.931   1.310
 7668SOL    HW123903   2.538   3.965   1.234
 7668SOL    HW223904   2.603   4.002   1.379
 7669SOL     OW23905   4.390   6.219   4.873
 7669SOL    HW123906   4.473   6.216   4.818
 7669SOL    HW223907   4.342   6.305   4.857
 7670SOL     OW23908   1.924   5.072   1.015
 7670SOL    HW123909   1.932   5.169   0.993
 7670SOL    HW223910   1.974   5.018   0.948
 7671SOL     OW23911   5.379   2.649   4.684
 7671SOL    HW123912   5.336   2.717   4.743
 7671SOL    HW223913   5.309   2.588   4.648
 7672SOL     OW23914   5.344   0.186   2.274
 7672SOL    HW123915   5.270   0.209   2.337
 7672SOL    HW223916   5.311   0.189   2.180
 7673SOL     OW23917   0.090   4.596   0.543
 7673SOL    HW123918   0.177   4.646   0.538
 7673SOL    HW223919   0.106   4.508   0.588
 7674SOL     OW23920   6.724   1.039   4.652
 7674SOL    HW123921   6.713   0.974   4.577
 7674SOL    HW223922   6.787   1.111   4.624
 7675SOL     OW23923   4.618   0.324   3.247
 7675SOL    HW123924   4.619   0.227   3.271
 7675SOL    HW223925   4.705   0.349   3.205
 7676SOL     OW23926   1.745   7.022   0.975
 7676SOL    HW123927   1.781   7.000   0.885
 7676SOL    HW223928   1.786   6.961   1.043
 7677SOL     OW23929   2.070   2.747   2.729
 7677SOL    HW123930   1.996   2.807   2.698
 7677SOL    HW223931   2.149   2.802   2.756
 7678SOL     OW23932   5.802   6.972   6.573
 7678SOL    HW123933   5.821   0.046   6.589
 7678SOL    HW223934   5.888   6.922   6.561
 7679SOL     OW23935   0.586   5.235   5.362
 7679SOL    HW123936   0.567   5.312   5.302
 7679SOL    HW223937   0.531   5.156   5.334
 7680SOL     OW23938   4.068   2.133   6.518
 7680SOL    HW123939   4.037   2.078   6.440
 7680SOL    HW223940   4.123   2.210   6.485
 7681SOL     OW23941   2.239   1.752   6.675
 7681SOL    HW123942   2.247   1.848   6.651
 7681SOL    HW223943   2.299   1.732   6.753
 7682SOL     OW23944   3.417   6.824   0.911
 7682SOL    HW123945   3.425   6.771   0.995
 7682SOL    HW223946   3.497   6.883   0.902
 7683SOL     OW23947   6.153   1.550   3.298
 7683SOL    HW123948   6.103   1.601   3.228
 7683SOL    HW223949   6.228   1.499   3.254
 7684SOL     OW23950   4.045   1.451   5.678
 7684SOL    HW123951   3.997   1.448   5.590
 7684SOL    HW223952   4.142   1.472   5.662
 7685SOL     OW23953   3.706   3.953   1.033
 7685SOL    HW123954   3.658   3.927   1.116
 7685SOL    HW223955   3.759   3.875   0.999
 7686SOL     OW23956   3.188   0.352   3.738
 7686SOL    HW123957   3.243   0.280   3.696
 7686SOL    HW223958   3.154   0.414   3.667
 7687SOL     OW23959   4.552   5.260   5.383
 7687SOL    HW123960   4.487   5.321   5.428
 7687SOL    HW223961   4.621   5.231   5.448
 7688SOL     OW23962   6.868   0.237   4.238
 7688SOL    HW123963   6.790   0.176   4.224
 7688SOL    HW223964   6.947   0.203   4.188
 7689SOL     OW23965   4.033   6.712   4.498
 7689SOL    HW123966   4.128   6.683   4.487
 7689SOL    HW223967   3.972   6.637   4.473
 7690SOL     OW23968   0.348   6.018   3.583
 7690SOL    HW123969   0.306   6.103   3.615
 7690SOL    HW223970   0.278   5.959   3.543
 7691SOL     OW23971   5.533   4.347   5.101
 7691SOL    HW123972   5.496   4.260   5.132
 7691SOL    HW223973   5.488   4.374   5.016
 7692SOL     OW23974   1.912   6.468   1.199
 7692SOL    HW123975   1.959   6.498   1.116
 7692SOL    HW223976   1.940   6.375   1.221
 7693SOL     OW23977   5.622   0.650   6.864
 7693SOL    HW123978   5.633   0.740   6.906
 7693SOL    HW223979   5.610   0.581   6.935
 7694SOL     OW23980   6.021   4.839   4.514
 7694SOL    HW123981   6.020   4.937   4.533
 7694SOL    HW223982   6.037   4.824   4.417
 7695SOL     OW23983   3.798   0.355   6.845
 7695SOL    HW123984   3.881   0.349   6.788
 7695SOL    HW223985   3.824   0.375   6.939
 7696SOL     OW23986   0.430   3.458   5.913
 7696SOL    HW123987   0.334   3.428   5.916
 7696SOL    HW223988   0.489   3.380   5.933
 7697SOL     OW23989   4.137   1.814   1.653
 7697SOL    HW123990   4.117   1.717   1.641
 7697SOL    HW223991   4.235   1.827   1.660
 7698SOL     OW23992   0.100   3.513   5.639
 7698SOL    HW123993   0.179   3.549   5.589
 7698SOL    HW223994   0.040   3.589   5.664
 7699SOL     OW23995   2.221   4.606   0.018
 7699SOL    HW123996   2.125   4.628   7.020
 7699SOL    HW223997   2.225   4.526   0.077
 7700SOL     OW23998   5.404   6.911   5.424
 7700SOL    HW123999   5.346   6.834   5.398
 7700SOL    HW224000   5.421   6.908   5.522
 7701SOL     OW24001   6.443   2.324   5.184
 7701SOL    HW124002   6.483   2.339   5.093
 7701SOL    HW224003   6.486   2.244   5.226
 7702SOL     OW24004   2.373   6.165   5.877
 7702SOL    HW124005   2.273   6.164   5.879
 7702SOL    HW224006   2.407   6.071   5.881
 7703SOL     OW24007   0.304   2.160   6.320
 7703SOL    HW124008   0.248   2.154   6.403
 7703SOL    HW224009   0.400   2.151   6.343
 7704SOL     OW24010   4.454   4.994   0.308
 7704SOL    HW124011   4.372   5.036   0.348
 7704SOL    HW224012   4.508   4.952   0.381
 7705SOL     OW24013   3.666   5.218   5.335
 7705SOL    HW124014   3.582   5.167   5.356
 7705SOL    HW224015   3.745   5.157   5.346
 7706SOL     OW24016   6.767   0.642   5.454
 7706SOL    HW124017   6.673   0.652   5.422
 7706SOL    HW224018   6.767   0.604   5.546
 7707SOL     OW24019   0.292   5.011   6.211
 7707SOL    HW124020   0.218   4.961   6.167
 7707SOL    HW224021   0.297   5.103   6.172
 7708SOL     OW24022   4.682   6.912   4.849
 7708SOL    HW124023   4.637   6.868   4.770
 7708SOL    HW224024   4.623   6.905   4.929
 7709SOL     OW24025   3.623   1.997   1.979
 7709SOL    HW124026   3.683   1.935   2.030
 7709SOL    HW224027   3.671   2.084   1.965
 7710SOL     OW24028   2.834   2.138   6.712
 7710SOL    HW124029   2.822   2.047   6.753
 7710SOL    HW224030   2.866   2.202   6.783
 7711SOL     OW24031   5.203   6.521   6.299
 7711SOL    HW124032   5.281   6.459   6.294
 7711SOL    HW224033   5.211   6.592   6.230
 7712SOL     OW24034   4.857   5.429   1.199
 7712SOL    HW124035   4.775   5.484   1.186
 7712SOL    HW224036   4.893   5.443   1.291
 7713SOL     OW24037   1.272   4.683   6.877
 7713SOL    HW124038   1.289   4.587   6.855
 7713SOL    HW224039   1.243   4.691   6.972
 7714SOL     OW24040   5.363   4.571   3.756
 7714SOL    HW124041   5.266   4.554   3.775
 7714SOL    HW224042   5.405   4.615   3.835
 7715SOL     OW24043   4.422   1.731   1.324
 7715SOL    HW124044   4.488   1.679   1.270
 7715SOL    HW224045   4.395   1.813   1.274
 7716SOL     OW24046   4.815   2.645   3.199
 7716SOL    HW124047   4.863   2.609   3.279
 7716SOL    HW224048   4.863   2.725   3.164
 7717SOL     OW24049   3.686   0.655   6.196
 7717SOL    HW124050   3.614   0.687   6.136
 7717SOL    HW224051   3.708   0.560   6.174
 7718SOL     OW24052   3.245   5.821   3.575
 7718SOL    HW124053   3.215   5.773   3.492
 7718SOL    HW224054   3.239   5.758   3.653
 7719SOL     OW24055   6.559   2.134   5.331
 7719SOL    HW124056   6.531   2.048   5.289
 7719SOL    HW224057   6.517   2.141   5.422
 7720SOL     OW24058   5.529   5.681   1.834
 7720SOL    HW124059   5.430   5.692   1.820
 7720SOL    HW224060   5.548   5.586   1.857
 7721SOL     OW24061   1.596   4.830   2.575
 7721SOL    HW124062   1.553   4.748   2.612
 7721SOL    HW224063   1.636   4.883   2.649
 7722SOL     OW24064   0.650   5.676   4.248
 7722SOL    HW124065   0.637   5.583   4.281
 7722SOL    HW224066   0.595   5.739   4.303
 7723SOL     OW24067   6.564   3.140   0.432
 7723SOL    HW124068   6.518   3.067   0.381
 7723SOL    HW224069   6.533   3.139   0.527
 7724SOL     OW24070   1.613   5.269   0.988
 7724SOL    HW124071   1.553   5.325   0.931
 7724SOL    HW224072   1.577   5.176   0.994
 7725SOL     OW24073   5.240   3.551   4.540
 7725SOL    HW124074   5.290   3.633   4.568
 7725SOL    HW224075   5.285   3.509   4.461
 7726SOL     OW24076   5.890   4.031   3.489
 7726SOL    HW124077   5.913   3.990   3.577
 7726SOL    HW224078   5.961   4.009   3.422
 7727SOL     OW24079   6.742   2.801   2.076
 7727SOL    HW124080   6.648   2.772   2.091
 7727SOL    HW224081   6.803   2.749   2.137
 7728SOL     OW24082   2.654   2.026   2.845
 7728SOL    HW124083   2.723   2.050   2.777
 7728SOL    HW224084   2.580   2.094   2.843
 7729SOL     OW24085   5.712   2.398   0.768
 7729SOL    HW124086   5.801   2.410   0.811
 7729SOL    HW224087   5.652   2.347   0.829
 7730SOL     OW24088   4.719   0.194   2.073
 7730SOL    HW124089   4.746   0.110   2.120
 7730SOL    HW224090   4.800   0.251   2.057
 7731SOL     OW24091   6.362   1.044   5.913
 7731SOL    HW124092   6.368   0.974   5.985
 7731SOL    HW224093   6.420   1.122   5.937
 7732SOL     OW24094   4.216   4.716   0.309
 7732SOL    HW124095   4.255   4.806   0.290
 7732SOL    HW224096   4.268   4.672   0.383
 7733SOL     OW24097   3.247   6.947   1.315
 7733SOL    HW124098   3.205   6.956   1.405
 7733SOL    HW224099   3.193   6.886   1.258
 7734SOL     OW24100   1.454   1.725   3.042
 7734SOL    HW124101   1.427   1.820   3.049
 7734SOL    HW224102   1.534   1.717   2.982
 7735SOL     OW24103   4.847   4.075   0.808
 7735SOL    HW124104   4.917   4.127   0.859
 7735SOL    HW224105   4.819   4.127   0.728
 7736SOL     OW24106   5.942   4.588   5.905
 7736SOL    HW124107   5.901   4.651   5.971
 7736SOL    HW224108   5.922   4.494   5.933
 7737SOL     OW24109   5.449   1.668   0.446
 7737SOL    HW124110   5.525   1.678   0.382
 7737SOL    HW224111   5.379   1.737   0.425
 7738SOL     OW24112   2.376   4.858   6.618
 7738SOL    HW124113   2.355   4.862   6.520
 7738SOL    HW224114   2.404   4.765   6.642
 7739SOL     OW24115   6.159   3.577   1.734
 7739SOL    HW124116   6.067   3.539   1.725
 7739SOL    HW224117   6.219   3.509   1.778
 7740SOL     OW24118   0.646   6.730   3.425
 7740SOL    HW124119   0.559   6.752   3.468
 7740SOL    HW224120   0.716   6.795   3.455
 7741SOL     OW24121   2.985   5.397   4.673
 7741SOL    HW124122   2.925   5.452   4.731
 7741SOL    HW224123   2.951   5.303   4.669
 7742SOL     OW24124   6.054   0.944   4.256
 7742SOL    HW124125   6.074   1.041   4.266
 7742SOL    HW224126   6.127   0.900   4.204
 7743SOL     OW24127   4.839   2.741   2.821
 7743SOL    HW124128   4.930   2.766   2.789
 7743SOL    HW224129   4.832   2.761   2.919
 7744SOL     OW24130   0.040   6.869   5.127
 7744SOL    HW124131   0.000   6.960   5.139
 7744SOL    HW224132   0.139   6.874   5.135
 7745SOL     OW24133   5.238   3.298   5.460
 7745SOL    HW124134   5.162   3.236   5.480
 7745SOL    HW224135   5.205   3.392   5.456
 7746SOL     OW24136   1.475   0.587   0.588
 7746SOL    HW124137   1.470   0.617   0.493
 7746SOL    HW224138   1.550   0.523   0.599
 7747SOL     OW24139   5.101   5.265   1.185
 7747SOL    HW124140   5.011   5.308   1.189
 7747SOL    HW224141   5.110   5.213   1.100
 7748SOL     OW24142   3.252   3.435   6.407
 7748SOL    HW124143   3.288   3.526   6.384
 7748SOL    HW224144   3.153   3.441   6.421
 7749SOL     OW24145   5.371   3.400   6.681
 7749SOL    HW124146   5.324   3.489   6.683
 7749SOL    HW224147   5.465   3.413   6.648
 7750SOL     OW24148   6.015   5.103   2.908
 7750SOL    HW124149   5.995   5.155   2.992
 7750SOL    HW224150   6.039   5.009   2.933
 7751SOL     OW24151   0.143   2.562   1.848
 7751SOL    HW124152   0.134   2.586   1.751
 7751SOL    HW224153   0.182   2.471   1.856
 7752SOL     OW24154   4.631   2.145   3.120
 7752SOL    HW124155   4.649   2.131   3.217
 7752SOL    HW224156   4.712   2.121   3.067
 7753SOL     OW24157   3.484   1.808   4.763
 7753SOL    HW124158   3.517   1.729   4.710
 7753SOL    HW224159   3.395   1.837   4.727
 7754SOL     OW24160   5.307   6.114   2.345
 7754SOL    HW124161   5.398   6.074   2.358
 7754SOL    HW224162   5.260   6.119   2.433
 7755SOL     OW24163   0.722   5.077   4.468
 7755SOL    HW124164   0.684   5.069   4.376
 7755SOL    HW224165   0.661   5.130   4.526
 7756SOL     OW24166   3.090   5.379   2.399
 7756SOL    HW124167   3.104   5.430   2.314
 7756SOL    HW224168   3.136   5.426   2.474
 7757SOL     OW24169   6.891   4.862   2.176
 7757SOL    HW124170   6.922   4.928   2.244
 7757SOL    HW224171   6.964   4.847   2.109
 7758SOL     OW24172   1.565   1.883   4.891
 7758SOL    HW124173   1.483   1.907   4.839
 7758SOL    HW224174   1.539   1.852   4.982
 7759SOL     OW24175   3.555   2.015   1.277
 7759SOL    HW124176   3.650   1.986   1.267
 7759SOL    HW224177   3.533   2.026   1.374
 7760SOL     OW24178   4.817   3.230   0.533
 7760SOL    HW124179   4.908   3.233   0.493
 7760SOL    HW224180   4.786   3.135   0.539
 7761SOL     OW24181   4.555   5.156   3.801
 7761SOL    HW124182   4.612   5.145   3.719
 7761SOL    HW224183   4.459   5.145   3.775
 7762SOL     OW24184   5.487   1.443   1.999
 7762SOL    HW124185   5.535   1.464   1.914
 7762SOL    HW224186   5.474   1.344   2.007
 7763SOL     OW24187   2.257   0.223   4.505
 7763SOL    HW124188   2.210   0.310   4.489
 7763SOL    HW224189   2.254   0.167   4.422
 7764SOL     OW24190   2.591   4.499   5.646
 7764SOL    HW124191   2.594   4.567   5.572
 7764SOL    HW224192   2.616   4.544   5.732
 7765SOL     OW24193   5.104   3.419   4.170
 7765SOL    HW124194   5.160   3.360   4.113
 7765SOL    HW224195   5.032   3.364   4.213
 7766SOL     OW24196   6.570   3.445   6.511
 7766SOL    HW124197   6.594   3.514   6.579
 7766SOL    HW224198   6.648   3.384   6.497
 7767SOL     OW24199   3.808   0.724   3.894
 7767SOL    HW124200   3.783   0.788   3.822
 7767SOL    HW224201   3.729   0.705   3.951
 7768SOL     OW24202   3.815   5.855   3.617
 7768SOL    HW124203   3.899   5.806   3.594
 7768SOL    HW224204   3.752   5.791   3.662
 7769SOL     OW24205   3.490   3.104   5.866
 7769SOL    HW124206   3.392   3.114   5.849
 7769SOL    HW224207   3.541   3.141   5.789
 7770SOL     OW24208   1.380   3.333   4.088
 7770SOL    HW124209   1.390   3.276   4.006
 7770SOL    HW224210   1.359   3.427   4.061
 7771SOL     OW24211   2.100   3.688   6.314
 7771SOL    HW124212   2.022   3.684   6.251
 7771SOL    HW224213   2.079   3.750   6.389
 7772SOL     OW24214   5.136   6.453   2.135
 7772SOL    HW124215   5.154   6.547   2.106
 7772SOL    HW224216   5.037   6.437   2.134
 7773SOL     OW24217   2.538   6.494   6.879
 7773SOL    HW124218   2.483   6.520   6.800
 7773SOL    HW224219   2.485   6.512   6.963
 7774SOL     OW24220   5.300   1.251   2.605
 7774SOL    HW124221   5.272   1.311   2.530
 7774SOL    HW224222   5.322   1.305   2.686
 7775SOL     OW24223   2.690   2.312   1.177
 7775SOL    HW124224   2.785   2.305   1.208
 7775SOL    HW224225   2.677   2.251   1.099
 7776SOL     OW24226   2.732   1.402   4.607
 7776SOL    HW124227   2.785   1.432   4.687
 7776SOL    HW224228   2.772   1.443   4.524
 7777SOL     OW24229   6.350   6.155   3.342
 7777SOL    HW124230   6.329   6.187   3.250
 7777SOL    HW224231   6.443   6.117   3.344
 7778SOL     OW24232   6.975   4.814   2.535
 7778SOL    HW124233   7.007   4.902   2.500
 7778SOL    HW224234   0.025   4.746   2.526
 7779SOL     OW24235   4.113   6.277   1.904
 7779SOL    HW124236   4.121   6.377   1.905
 7779SOL    HW224237   4.190   6.238   1.855
 7780SOL     OW24238   6.094   6.630   5.258
 7780SOL    HW124239   6.135   6.542   5.281
 7780SOL    HW224240   6.049   6.668   5.338
 7781SOL     OW24241   1.675   3.385   0.895
 7781SOL    HW124242   1.745   3.316   0.910
 7781SOL    HW224243   1.618   3.358   0.817
 7782SOL     OW24244   5.166   3.076   4.398
 7782SOL    HW124245   5.259   3.073   4.437
 7782SOL    HW224246   5.107   3.131   4.457
 7783SOL     OW24247   1.769   6.582   4.621
 7783SOL    HW124248   1.831   6.534   4.559
 7783SOL    HW224249   1.822   6.629   4.692
 7784SOL     OW24250   1.720   1.792   1.819
 7784SOL    HW124251   1.773   1.816   1.739
 7784SOL    HW224252   1.715   1.693   1.828
 7785SOL     OW24253   6.893   6.671   2.915
 7785SOL    HW124254   6.866   6.706   2.825
 7785SOL    HW224255   6.982   6.709   2.940
 7786SOL     OW24256   4.296   1.068   6.153
 7786SOL    HW124257   4.318   1.093   6.058
 7786SOL    HW224258   4.288   0.969   6.160
 7787SOL     OW24259   2.568   2.508   2.101
 7787SOL    HW124260   2.646   2.449   2.123
 7787SOL    HW224261   2.574   2.538   2.006
 7788SOL     OW24262   0.722   3.993   1.883
 7788SOL    HW124263   0.673   4.074   1.914
 7788SOL    HW224264   0.752   4.006   1.789
 7789SOL     OW24265   3.336   1.313   6.276
 7789SOL    HW124266   3.405   1.364   6.226
 7789SOL    HW224267   3.293   1.246   6.216
 7790SOL     OW24268   4.266   4.898   2.103
 7790SOL    HW124269   4.196   4.955   2.058
 7790SOL    HW224270   4.269   4.808   2.060
 7791SOL     OW24271   3.235   5.872   2.779
 7791SOL    HW124272   3.188   5.936   2.839
 7791SOL    HW224273   3.244   5.913   2.688
 7792SOL     OW24274   1.356   1.314   3.025
 7792SOL    HW124275   1.278   1.350   2.974
 7792SOL    HW224276   1.434   1.376   3.016
 7793SOL     OW24277   5.267   1.037   0.715
 7793SOL    HW124278   5.185   1.085   0.683
 7793SOL    HW224279   5.325   1.100   0.766
 7794SOL     OW24280   1.012   6.661   3.005
 7794SOL    HW124281   0.952   6.726   2.959
 7794SOL    HW224282   0.988   6.656   3.102
 7795SOL     OW24283   3.432   4.614   0.656
 7795SOL    HW124284   3.358   4.682   0.659
 7795SOL    HW224285   3.519   4.660   0.640
 7796SOL     OW24286   3.360   2.433   0.397
 7796SOL    HW124287   3.458   2.417   0.407
 7796SOL    HW224288   3.338   2.527   0.425
 7797SOL     OW24289   0.714   5.560   3.190
 7797SOL    HW124290   0.733   5.470   3.229
 7797SOL    HW224291   0.615   5.571   3.180
 7798SOL     OW24292   1.921   3.036   0.742
 7798SOL    HW124293   1.856   2.967   0.775
 7798SOL    HW224294   1.981   2.995   0.674
 7799SOL     OW24295   3.123   5.729   3.821
 7799SOL    HW124296   3.160   5.679   3.899
 7799SOL    HW224297   3.025   5.713   3.815
 7800SOL     OW24298   0.998   0.178   2.257
 7800SOL    HW124299   0.947   0.262   2.239
 7800SOL    HW224300   1.073   0.170   2.192
 7801SOL     OW24301   0.753   1.998   1.326
 7801SOL    HW124302   0.851   2.017   1.337
 7801SOL    HW224303   0.706   2.082   1.299
 7802SOL     OW24304   0.277   3.891   3.735
 7802SOL    HW124305   0.219   3.956   3.687
 7802SOL    HW224306   0.222   3.841   3.803
 7803SOL     OW24307   2.790   2.584   5.597
 7803SOL    HW124308   2.758   2.497   5.636
 7803SOL    HW224309   2.882   2.604   5.631
 7804SOL     OW24310   3.735   1.927   5.213
 7804SOL    HW124311   3.670   1.979   5.158
 7804SOL    HW224312   3.803   1.884   5.153
 7805SOL     OW24313   5.144   2.993   0.309
 7805SOL    HW124314   5.123   2.979   0.406
 7805SOL    HW224315   5.235   2.958   0.289
 7806SOL     OW24316   6.947   1.562   5.804
 7806SOL    HW124317   0.017   1.539   5.835
 7806SOL    HW224318   6.906   1.628   5.867
 7807SOL     OW24319   1.872   5.550   5.652
 7807SOL    HW124320   1.889   5.452   5.653
 7807SOL    HW224321   1.934   5.595   5.717
 7808SOL     OW24322   6.412   3.906   3.449
 7808SOL    HW124323   6.389   3.842   3.375
 7808SOL    HW224324   6.405   3.860   3.537
 7809SOL     OW24325   4.900   5.800   2.399
 7809SOL    HW124326   4.815   5.835   2.362
 7809SOL    HW224327   4.973   5.807   2.330
 7810SOL     OW24328   2.707   6.834   6.394
 7810SOL    HW124329   2.691   6.927   6.428
 7810SOL    HW224330   2.646   6.817   6.316
 7811SOL     OW24331   1.587   5.658   2.457
 7811SOL    HW124332   1.593   5.568   2.500
 7811SOL    HW224333   1.629   5.726   2.516
 7812SOL     OW24334   2.873   0.532   5.902
 7812SOL    HW124335   2.895   0.581   5.817
 7812SOL    HW224336   2.917   0.577   5.979
 7813SOL     OW24337   5.718   0.532   1.138
 7813SOL    HW124338   5.662   0.450   1.155
 7813SOL    HW224339   5.701   0.565   1.045
 7814SOL     OW24340   6.100   2.408   2.192
 7814SOL    HW124341   6.013   2.363   2.171
 7814SOL    HW224342   6.130   2.380   2.284
 7815SOL     OW24343   5.245   5.618   4.258
 7815SOL    HW124344   5.334   5.619   4.212
 7815SOL    HW224345   5.202   5.529   4.246
 7816SOL     OW24346   0.984   1.202   5.517
 7816SOL    HW124347   0.978   1.175   5.421
 7816SOL    HW224348   0.900   1.174   5.565
 7817SOL     OW24349   3.798   2.979   0.203
 7817SOL    HW124350   3.842   2.990   0.114
 7817SOL    HW224351   3.840   2.901   0.251
 7818SOL     OW24352   5.726   1.078   3.089
 7818SOL    HW124353   5.819   1.094   3.054
 7818SOL    HW224354   5.715   1.125   3.176
 7819SOL     OW24355   1.494   3.396   4.994
 7819SOL    HW124356   1.560   3.426   5.062
 7819SOL    HW224357   1.414   3.357   5.040
 7820SOL     OW24358   1.190   1.036   5.562
 7820SOL    HW124359   1.179   0.942   5.595
 7820SOL    HW224360   1.100   1.074   5.541
 7821SOL     OW24361   3.985   6.537   6.448
 7821SOL    HW124362   3.972   6.438   6.443
 7821SOL    HW224363   3.976   6.567   6.543
 7822SOL     OW24364   0.354   1.585   5.275
 7822SOL    HW124365   0.258   1.591   5.247
 7822SOL    HW224366   0.407   1.542   5.202
 7823SOL     OW24367   2.531   3.309   5.642
 7823SOL    HW124368   2.473   3.382   5.678
 7823SOL    HW224369   2.476   3.246   5.587
 7824SOL     OW24370   5.361   3.731   2.930
 7824SOL    HW124371   5.457   3.743   2.904
 7824SOL    HW224372   5.319   3.821   2.941
 7825SOL     OW24373   3.524   3.495   2.684
 7825SOL    HW124374   3.521   3.465   2.780
 7825SOL    HW224375   3.534   3.415   2.625
 7826SOL     OW24376   6.983   0.492   0.957
 7826SOL    HW124377   6.904   0.492   1.019
 7826SOL    HW224378   6.966   0.430   0.881
 7827SOL     OW24379   4.384   3.412   0.527
 7827SOL    HW124380   4.372   3.313   0.525
 7827SOL    HW224381   4.464   3.437   0.473
 7828SOL     OW24382   0.481   5.634   0.913
 7828SOL    HW124383   0.453   5.629   1.009
 7828SOL    HW224384   0.476   5.730   0.882
 7829SOL     OW24385   4.042   3.838   2.891
 7829SOL    HW124386   4.051   3.904   2.966
 7829SOL    HW224387   4.126   3.784   2.883
 7830SOL     OW24388   5.674   3.842   0.253
 7830SOL    HW124389   5.739   3.844   0.330
 7830SOL    HW224390   5.724   3.822   0.168
 7831SOL     OW24391   1.579   2.739   6.571
 7831SOL    HW124392   1.508   2.687   6.523
 7831SOL    HW224393   1.555   2.836   6.570
 7832SOL     OW24394   3.001   2.804   5.417
 7832SOL    HW124395   2.914   2.757   5.402
 7832SOL    HW224396   2.993   2.865   5.496
 7833SOL     OW24397   0.365   0.235   1.225
 7833SOL    HW124398   0.396   0.233   1.320
 7833SOL    HW224399   0.444   0.241   1.165
 7834SOL     OW24400   6.600   0.391   1.651
 7834SOL    HW124401   6.699   0.375   1.655
 7834SOL    HW224402   6.582   0.468   1.590
 7835SOL     OW24403   2.608   2.402   4.465
 7835SOL    HW124404   2.517   2.370   4.490
 7835SOL    HW224405   2.655   2.437   4.546
 7836SOL     OW24406   2.218   0.890   0.423
 7836SOL    HW124407   2.288   0.918   0.489
 7836SOL    HW224408   2.206   0.791   0.427
 7837SOL     OW24409   5.031   6.832   2.368
 7837SOL    HW124410   5.031   6.869   2.461
 7837SOL    HW224411   5.121   6.793   2.348
 7838SOL     OW24412   3.757   6.297   4.062
 7838SOL    HW124413   3.754   6.198   4.077
 7838SOL    HW224414   3.818   6.318   3.986
 7839SOL     OW24415   6.930   4.503   3.839
 7839SOL    HW124416   6.962   4.443   3.913
 7839SOL    HW224417   6.996   4.502   3.764
 7840SOL     OW24418   4.969   3.223   5.532
 7840SOL    HW124419   4.925   3.166   5.600
 7840SOL    HW224420   4.900   3.270   5.477
 7841SOL     OW24421   1.344   1.785   6.373
 7841SOL    HW124422   1.257   1.769   6.420
 7841SOL    HW224423   1.418   1.740   6.425
 7842SOL     OW24424   3.228   0.628   1.922
 7842SOL    HW124425   3.169   0.700   1.959
 7842SOL    HW224426   3.306   0.615   1.983
 7843SOL     OW24427   0.109   3.174   1.564
 7843SOL    HW124428   0.170   3.169   1.643
 7843SOL    HW224429   0.040   3.101   1.570
 7844SOL     OW24430   3.843   1.112   4.412
 7844SOL    HW124431   3.801   1.108   4.321
 7844SOL    HW224432   3.771   1.102   4.481
 7845SOL     OW24433   1.062   1.099   4.250
 7845SOL    HW124434   1.032   1.181   4.201
 7845SOL    HW224435   1.137   1.056   4.201
 7846SOL     OW24436   4.074   6.437   1.609
 7846SOL    HW124437   4.102   6.366   1.673
 7846SOL    HW224438   4.019   6.505   1.657
 7847SOL     OW24439   0.146   0.249   0.378
 7847SOL    HW124440   0.154   0.176   0.447
 7847SOL    HW224441   0.177   0.215   0.290
 7848SOL     OW24442   4.134   4.523   0.752
 7848SOL    HW124443   4.205   4.515   0.821
 7848SOL    HW224444   4.148   4.454   0.681
 7849SOL     OW24445   5.606   3.769   4.717
 7849SOL    HW124446   5.668   3.756   4.795
 7849SOL    HW224447   5.646   3.834   4.653
 7850SOL     OW24448   0.925   1.941   4.432
 7850SOL    HW124449   0.861   1.895   4.371
 7850SOL    HW224450   0.887   1.943   4.525
 7851SOL     OW24451   4.879   6.569   1.117
 7851SOL    HW124452   4.949   6.565   1.188
 7851SOL    HW224453   4.897   6.498   1.048
 7852SOL     OW24454   2.436   6.536   0.104
 7852SOL    HW124455   2.353   6.593   0.106
 7852SOL    HW224456   2.498   6.566   0.176
 7853SOL     OW24457   1.764   2.698   0.084
 7853SOL    HW124458   1.819   2.642   0.146
 7853SOL    HW224459   1.804   2.693   7.014
 7854SOL     OW24460   3.246   3.927   2.699
 7854SOL    HW124461   3.244   3.827   2.702
 7854SOL    HW224462   3.302   3.957   2.622
 7855SOL     OW24463   4.044   6.975   5.429
 7855SOL    HW124464   4.141   6.962   5.449
 7855SOL    HW224465   4.009   0.030   5.482
 7856SOL     OW24466   3.720   3.645   6.564
 7856SOL    HW124467   3.799   3.699   6.535
 7856SOL    HW224468   3.679   3.686   6.646
 7857SOL     OW24469   1.056   2.373   4.966
 7857SOL    HW124470   1.046   2.434   5.044
 7857SOL    HW224471   1.041   2.424   4.881
 7858SOL     OW24472   5.671   4.418   2.994
 7858SOL    HW124473   5.655   4.373   3.082
 7858SOL    HW224474   5.584   4.434   2.949
 7859SOL     OW24475   0.719   5.338   7.004
 7859SOL    HW124476   0.761   5.247   7.001
 7859SOL    HW224477   0.642   5.342   6.941
 7860SOL     OW24478   4.194   6.930   1.975
 7860SOL    HW124479   4.137   6.972   2.046
 7860SOL    HW224480   4.290   6.949   1.994
 7861SOL     OW24481   5.149   3.948   0.619
 7861SOL    HW124482   5.081   3.910   0.682
 7861SOL    HW224483   5.128   4.045   0.603
 7862SOL     OW24484   2.765   3.986   1.603
 7862SOL    HW124485   2.806   4.013   1.516
 7862SOL    HW224486   2.725   4.066   1.647
 7863SOL     OW24487   5.856   5.776   2.549
 7863SOL    HW124488   5.850   5.680   2.523
 7863SOL    HW224489   5.951   5.807   2.540
 7864SOL     OW24490   1.018   5.753   3.898
 7864SOL    HW124491   0.967   5.709   3.972
 7864SOL    HW224492   0.994   5.711   3.811
 7865SOL     OW24493   3.579   1.295   2.944
 7865SOL    HW124494   3.541   1.363   2.882
 7865SOL    HW224495   3.663   1.257   2.905
 7866SOL     OW24496   2.245   2.429   4.461
 7866SOL    HW124497   2.312   2.432   4.535
 7866SOL    HW224498   2.170   2.491   4.481
 7867SOL     OW24499   5.449   3.815   2.111
 7867SOL    HW124500   5.458   3.908   2.076
 7867SOL    HW224501   5.365   3.774   2.074
 7868SOL     OW24502   5.829   0.327   0.595
 7868SOL    HW124503   5.811   0.352   0.690
 7868SOL    HW224504   5.762   0.371   0.535
 7869SOL     OW24505   6.595   1.951   3.898
 7869SOL    HW124506   6.512   1.896   3.882
 7869SOL    HW224507   6.656   1.901   3.959
 7870SOL     OW24508   6.833   6.960   3.158
 7870SOL    HW124509   6.786   7.022   3.095
 7870SOL    HW224510   6.846   7.006   3.246
 7871SOL     OW24511   5.637   3.259   3.683
 7871SOL    HW124512   5.657   3.184   3.746
 7871SOL    HW224513   5.600   3.337   3.733
 7872SOL     OW24514   6.654   3.360   3.794
 7872SOL    HW124515   6.754   3.364   3.800
 7872SOL    HW224516   6.628   3.281   3.739
 7873SOL     OW24517   6.650   5.812   4.913
 7873SOL    HW124518   6.706   5.850   4.987
 7873SOL    HW224519   6.709   5.778   4.840
 7874SOL     OW24520   6.105   1.844   0.898
 7874SOL    HW124521   6.109   1.751   0.936
 7874SOL    HW224522   6.071   1.839   0.804
 7875SOL     OW24523   4.503   2.627   0.332
 7875SOL    HW124524   4.583   2.599   0.385
 7875SOL    HW224525   4.480   2.721   0.354
 7876SOL     OW24526   0.382   0.629   5.298
 7876SOL    HW124527   0.298   0.639   5.352
 7876SOL    HW224528   0.461   0.656   5.354
 7877SOL     OW24529   6.007   2.668   2.760
 7877SOL    HW124530   6.075   2.688   2.690
 7877SOL    HW224531   5.996   2.569   2.768
 7878SOL     OW24532   4.428   3.950   1.373
 7878SOL    HW124533   4.382   3.902   1.448
 7878SOL    HW224534   4.377   4.032   1.349
 7879SOL     OW24535   5.584   0.712   5.241
 7879SOL    HW124536   5.486   0.723   5.255
 7879SOL    HW224537   5.634   0.771   5.305
 7880SOL     OW24538   1.438   6.614   6.505
 7880SOL    HW124539   1.526   6.639   6.465
 7880SOL    HW224540   1.437   6.516   6.525
 7881SOL     OW24541   0.718   5.090   3.067
 7881SOL    HW124542   0.769   5.148   3.004
 7881SOL    HW224543   0.621   5.090   3.043
 7882SOL     OW24544   1.094   4.236   1.784
 7882SOL    HW124545   1.167   4.301   1.807
 7882SOL    HW224546   1.046   4.209   1.868
 7883SOL     OW24547   3.553   2.163   3.446
 7883SOL    HW124548   3.519   2.076   3.480
 7883SOL    HW224549   3.629   2.147   3.383
 7884SOL     OW24550   0.741   3.591   4.270
 7884SOL    HW124551   0.800   3.516   4.241
 7884SOL    HW224552   0.757   3.670   4.211
 7885SOL     OW24553   5.689   4.835   3.042
 7885SOL    HW124554   5.754   4.883   3.100
 7885SOL    HW224555   5.687   4.878   2.951
 7886SOL     OW24556   4.947   3.322   2.578
 7886SOL    HW124557   4.961   3.418   2.553
 7886SOL    HW224558   5.030   3.270   2.556
 7887SOL     OW24559   1.724   2.762   1.619
 7887SOL    HW124560   1.625   2.748   1.625
 7887SOL    HW224561   1.744   2.859   1.626
 7888SOL     OW24562   6.335   0.745   4.923
 7888SOL    HW124563   6.270   0.670   4.915
 7888SOL    HW224564   6.296   0.828   4.883
 7889SOL     OW24565   5.638   5.064   6.957
 7889SOL    HW124566   5.571   4.990   6.962
 7889SOL    HW224567   5.657   5.097   0.027
 7890SOL     OW24568   2.166   3.037   4.031
 7890SOL    HW124569   2.117   2.991   3.958
 7890SOL    HW224570   2.230   2.973   4.075
 7891SOL     OW24571   6.410   2.041   4.409
 7891SOL    HW124572   6.372   1.978   4.476
 7891SOL    HW224573   6.509   2.030   4.405
 7892SOL     OW24574   0.703   1.581   5.099
 7892SOL    HW124575   0.611   1.552   5.072
 7892SOL    HW224576   0.696   1.665   5.153
 7893SOL     OW24577   5.594   0.328   0.177
 7893SOL    HW124578   5.541   0.366   0.101
 7893SOL    HW224579   5.663   0.266   0.140
 7894SOL     OW24580   3.233   0.715   6.774
 7894SOL    HW124581   3.327   0.733   6.803
 7894SOL    HW224582   3.184   0.802   6.765
 7895SOL     OW24583   6.131   6.641   3.380
 7895SOL    HW124584   6.199   6.705   3.344
 7895SOL    HW224585   6.042   6.685   3.386
 7896SOL     OW24586   2.493   2.222   0.395
 7896SOL    HW124587   2.513   2.142   0.339
 7896SOL    HW224588   2.528   2.304   0.350
 7897SOL     OW24589   3.001   2.892   0.854
 7897SOL    HW124590   2.962   2.944   0.778
 7897SOL    HW224591   2.952   2.806   0.865
 7898SOL     OW24592   5.455   0.079   2.935
 7898SOL    HW124593   5.399   0.008   2.892
 7898SOL    HW224594   5.542   0.039   2.965
 7899SOL     OW24595   6.394   4.311   4.590
 7899SOL    HW124596   6.418   4.382   4.657
 7899SOL    HW224597   6.326   4.347   4.526
 7900SOL     OW24598   0.830   4.067   0.846
 7900SOL    HW124599   0.849   4.153   0.892
 7900SOL    HW224600   0.806   3.997   0.914
 7901SOL     OW24601   0.664   1.839   6.712
 7901SOL    HW124602   0.588   1.853   6.776
 7901SOL    HW224603   0.637   1.870   6.621
 7902SOL     OW24604   1.840   6.835   2.458
 7902SOL    HW124605   1.927   6.858   2.502
 7902SOL    HW224606   1.855   6.821   2.360
 7903SOL     OW24607   2.786   1.931   5.165
 7903SOL    HW124608   2.836   1.991   5.102
 7903SOL    HW224609   2.779   1.840   5.126
 7904SOL     OW24610   4.838   2.063   2.947
 7904SOL    HW124611   4.924   2.066   2.998
 7904SOL    HW224612   4.813   2.155   2.917
 7905SOL     OW24613   5.236   1.731   1.072
 7905SOL    HW124614   5.302   1.724   1.146
 7905SOL    HW224615   5.161   1.667   1.088
 7906SOL     OW24616   1.549   4.894   0.120
 7906SOL    HW124617   1.555   4.910   0.219
 7906SOL    HW224618   1.591   4.971   0.072
 7907SOL     OW24619   6.056   6.539   2.339
 7907SOL    HW124620   5.974   6.506   2.386
 7907SOL    HW224621   6.031   6.614   2.278
 7908SOL     OW24622   1.828   6.870   6.534
 7908SOL    HW124623   1.798   6.954   6.579
 7908SOL    HW224624   1.898   6.892   6.466
 7909SOL     OW24625   5.985   4.100   2.353
 7909SOL    HW124626   6.056   4.160   2.390
 7909SOL    HW224627   5.901   4.152   2.341
 7910SOL     OW24628   0.856   3.872   6.474
 7910SOL    HW124629   0.784   3.811   6.507
 7910SOL    HW224630   0.896   3.921   6.551
 7911SOL     OW24631   0.096   4.619   5.881
 7911SOL    HW124632   0.013   4.673   5.890
 7911SOL    HW224633   0.072   4.524   5.859
 7912SOL     OW24634   6.137   5.400   1.283
 7912SOL    HW124635   6.080   5.329   1.325
 7912SOL    HW224636   6.082   5.453   1.219
 7913SOL     OW24637   1.397   4.949   0.561
 7913SOL    HW124638   1.326   4.883   0.536
 7913SOL    HW224639   1.355   5.035   0.590
 7914SOL     OW24640   0.986   6.542   5.323
 7914SOL    HW124641   1.046   6.551   5.244
 7914SOL    HW224642   0.983   6.628   5.374
 7915SOL     OW24643   3.623   5.215   2.463
 7915SOL    HW124644   3.524   5.234   2.461
 7915SOL    HW224645   3.673   5.301   2.471
 7916SOL     OW24646   1.317   0.159   4.128
 7916SOL    HW124647   1.360   0.130   4.042
 7916SOL    HW224648   1.246   0.226   4.109
 7917SOL     OW24649   4.200   2.167   1.466
 7917SOL    HW124650   4.278   2.205   1.515
 7917SOL    HW224651   4.215   2.174   1.368
 7918SOL     OW24652   1.900   2.234   3.757
 7918SOL    HW124653   1.865   2.265   3.845
 7918SOL    HW224654   1.900   2.310   3.692
 7919SOL     OW24655   1.553   6.064   5.138
 7919SOL    HW124656   1.622   6.002   5.099
 7919SOL    HW224657   1.506   6.018   5.213
 7920SOL     OW24658   5.063   0.243   1.159
 7920SOL    HW124659   5.053   0.307   1.234
 7920SOL    HW224660   4.988   0.176   1.161
 7921SOL     OW24661   5.248   2.501   1.155
 7921SOL    HW124662   5.242   2.595   1.122
 7921SOL    HW224663   5.292   2.500   1.245
 7922SOL     OW24664   2.661   6.867   1.588
 7922SOL    HW124665   2.742   6.926   1.597
 7922SOL    HW224666   2.663   6.797   1.659
 7923SOL     OW24667   4.796   1.518   6.845
 7923SOL    HW124668   4.824   1.549   6.754
 7923SOL    HW224669   4.844   1.571   6.915
 7924SOL     OW24670   5.892   6.071   0.577
 7924SOL    HW124671   5.930   6.011   0.506
 7924SOL    HW224672   5.905   6.166   0.550
 7925SOL     OW24673   1.591   5.187   6.596
 7925SOL    HW124674   1.505   5.222   6.634
 7925SOL    HW224675   1.627   5.116   6.657
 7926SOL     OW24676   4.971   5.953   6.781
 7926SOL    HW124677   4.941   6.010   6.704
 7926SOL    HW224678   5.071   5.951   6.784
 7927SOL     OW24679   3.964   0.334   2.618
 7927SOL    HW124680   4.022   0.303   2.693
 7927SOL    HW224681   3.868   0.331   2.646
 7928SOL     OW24682   5.901   2.225   3.088
 7928SOL    HW124683   5.871   2.167   3.164
 7928SOL    HW224684   5.929   2.167   3.011
 7929SOL     OW24685   4.563   4.501   6.159
 7929SOL    HW124686   4.512   4.585   6.176
 7929SOL    HW224687   4.619   4.480   6.239
 7930SOL     OW24688   4.109   6.771   6.097
 7930SOL    HW124689   4.140   6.735   6.185
 7930SOL    HW224690   4.017   6.808   6.107
 7931SOL     OW24691   3.864   2.269   1.428
 7931SOL    HW124692   3.882   2.286   1.524
 7931SOL    HW224693   3.827   2.176   1.417
 7932SOL     OW24694   1.451   3.354   1.553
 7932SOL    HW124695   1.519   3.426   1.570
 7932SOL    HW224696   1.359   3.393   1.561
 7933SOL     OW24697   1.057   1.975   7.015
 7933SOL    HW124698   1.091   1.911   0.062
 7933SOL    HW224699   1.130   2.038   6.989
 7934SOL     OW24700   0.760   5.494   1.138
 7934SOL    HW124701   0.720   5.565   1.196
 7934SOL    HW224702   0.810   5.536   1.062
 7935SOL     OW24703   5.465   2.759   2.968
 7935SOL    HW124704   5.497   2.832   2.908
 7935SOL    HW224705   5.520   2.677   2.951
 7936SOL     OW24706   2.833   5.635   3.813
 7936SOL    HW124707   2.760   5.699   3.837
 7936SOL    HW224708   2.799   5.568   3.748
 7937SOL     OW24709   3.514   1.169   0.263
 7937SOL    HW124710   3.578   1.228   0.214
 7937SOL    HW224711   3.428   1.219   0.279
 7938SOL     OW24712   3.273   6.825   3.767
 7938SOL    HW124713   3.355   6.798   3.717
 7938SOL    HW224714   3.289   6.813   3.865
 7939SOL     OW24715   0.799   0.956   3.119
 7939SOL    HW124716   0.809   0.983   3.215
 7939SOL    HW224717   0.858   1.012   3.062
 7940SOL     OW24718   5.682   1.587   4.072
 7940SOL    HW124719   5.624   1.652   4.120
 7940SOL    HW224720   5.656   1.583   3.975
 7941SOL     OW24721   3.622   0.392   1.010
 7941SOL    HW124722   3.591   0.486   1.025
 7941SOL    HW224723   3.610   0.369   0.913
 7942SOL     OW24724   0.952   4.888   0.733
 7942SOL    HW124725   0.910   4.818   0.790
 7942SOL    HW224726   0.970   4.970   0.787
 7943SOL     OW24727   1.411   6.045   6.192
 7943SOL    HW124728   1.449   6.042   6.100
 7943SOL    HW224729   1.317   6.078   6.188
 7944SOL     OW24730   1.248   2.401   0.978
 7944SOL    HW124731   1.178   2.337   1.010
 7944SOL    HW224732   1.235   2.419   0.880
 7945SOL     OW24733   6.322   4.256   3.222
 7945SOL    HW124734   6.226   4.265   3.193
 7945SOL    HW224735   6.362   4.175   3.179
 7946SOL     OW24736   4.084   1.064   6.551
 7946SOL    HW124737   3.995   1.019   6.558
 7946SOL    HW224738   4.105   1.081   6.454
 7947SOL     OW24739   0.001   4.223   6.693
 7947SOL    HW124740   6.952   4.154   6.685
 7947SOL    HW224741   0.089   4.178   6.712
 7948SOL     OW24742   2.186   5.211   3.038
 7948SOL    HW124743   2.107   5.151   3.026
 7948SOL    HW224744   2.154   5.303   3.062
 7949SOL     OW24745   2.759   6.154   6.219
 7949SOL    HW124746   2.846   6.203   6.223
 7949SOL    HW224747   2.744   6.120   6.126
 7950SOL     OW24748   6.074   4.841   5.166
 7950SOL    HW124749   5.975   4.845   5.155
 7950SOL    HW224750   6.109   4.931   5.190
 7951SOL     OW24751   4.442   6.275   2.143
 7951SOL    HW124752   4.350   6.289   2.179
 7951SOL    HW224753   4.476   6.360   2.102
 7952SOL     OW24754   6.082   4.142   5.693
 7952SOL    HW124755   6.133   4.085   5.757
 7952SOL    HW224756   5.984   4.131   5.709
 7953SOL     OW24757   1.583   6.426   0.444
 7953SOL    HW124758   1.668   6.422   0.497
 7953SOL    HW224759   1.604   6.412   0.347
 7954SOL     OW24760   3.737   4.099   6.770
 7954SOL    HW124761   3.829   4.101   6.809
 7954SOL    HW224762   3.721   4.010   6.727
 7955SOL     OW24763   1.570   1.424   6.328
 7955SOL    HW124764   1.565   1.491   6.402
 7955SOL    HW224765   1.499   1.443   6.261
 7956SOL     OW24766   6.668   6.179   0.394
 7956SOL    HW124767   6.579   6.219   0.413
 7956SOL    HW224768   6.728   6.248   0.353
 7957SOL     OW24769   5.093   1.546   6.088
 7957SOL    HW124770   5.104   1.546   5.989
 7957SOL    HW224771   4.998   1.524   6.111
 7958SOL     OW24772   5.642   3.075   0.511
 7958SOL    HW124773   5.665   3.063   0.414
 7958SOL    HW224774   5.688   3.005   0.565
 7959SOL     OW24775   6.067   2.306   6.899
 7959SOL    HW124776   6.109   2.334   6.812
 7959SOL    HW224777   5.988   2.248   6.880
 7960SOL     OW24778   0.959   1.462   5.644
 7960SOL    HW124779   1.018   1.412   5.580
 7960SOL    HW224780   0.866   1.467   5.606
 7961SOL     OW24781   6.250   6.707   0.159
 7961SOL    HW124782   6.178   6.638   0.145
 7961SOL    HW224783   6.329   6.685   0.102
 7962SOL     OW24784   5.815   6.984   5.147
 7962SOL    HW124785   5.753   6.954   5.074
 7962SOL    HW224786   5.782   0.048   5.186
 7963SOL     OW24787   6.468   6.959   4.045
 7963SOL    HW124788   6.445   0.029   4.015
 7963SOL    HW224789   6.437   6.893   3.977
 7964SOL     OW24790   6.115   4.062   1.635
 7964SOL    HW124791   6.131   3.965   1.655
 7964SOL    HW224792   6.024   4.088   1.665
 7965SOL     OW24793   4.358   2.591   6.253
 7965SOL    HW124794   4.438   2.598   6.313
 7965SOL    HW224795   4.275   2.584   6.308
 7966SOL     OW24796   4.951   3.788   4.874
 7966SOL    HW124797   4.925   3.815   4.782
 7966SOL    HW224798   4.886   3.722   4.910
 7967SOL     OW24799   1.629   4.991   1.046
 7967SOL    HW124800   1.722   5.000   1.012
 7967SOL    HW224801   1.566   4.984   0.969
 7968SOL     OW24802   0.560   2.777   4.763
 7968SOL    HW124803   0.573   2.716   4.841
 7968SOL    HW224804   0.642   2.832   4.749
 7969SOL     OW24805   3.440   5.576   6.462
 7969SOL    HW124806   3.366   5.511   6.445
 7969SOL    HW224807   3.486   5.552   6.548
 7970SOL     OW24808   6.563   2.579   3.836
 7970SOL    HW124809   6.619   2.656   3.866
 7970SOL    HW224810   6.532   2.528   3.916
 7971SOL     OW24811   2.717   1.582   6.430
 7971SOL    HW124812   2.709   1.541   6.521
 7971SOL    HW224813   2.742   1.678   6.439
 7972SOL     OW24814   3.563   4.080   4.266
 7972SOL    HW124815   3.607   4.169   4.251
 7972SOL    HW224816   3.630   4.008   4.251
 7973SOL     OW24817   5.608   4.369   2.709
 7973SOL    HW124818   5.538   4.418   2.761
 7973SOL    HW224819   5.650   4.300   2.768
 7974SOL     OW24820   0.172   2.587   5.507
 7974SOL    HW124821   0.174   2.648   5.586
 7974SOL    HW224822   0.104   2.619   5.442
 7975SOL     OW24823   5.991   0.490   1.083
 7975SOL    HW124824   5.903   0.531   1.108
 7975SOL    HW224825   6.065   0.556   1.099
 7976SOL     OW24826   0.684   0.646   0.877
 7976SOL    HW124827   0.698   0.610   0.785
 7976SOL    HW224828   0.703   0.744   0.878
 7977SOL     OW24829   5.516   5.846   3.980
 7977SOL    HW124830   5.600   5.883   4.019
 7977SOL    HW224831   5.448   5.918   3.972
 7978SOL     OW24832   0.093   4.397   1.507
 7978SOL    HW124833   0.145   4.481   1.523
 7978SOL    HW224834   7.018   4.415   1.523
 7979SOL     OW24835   1.997   2.297   4.668
 7979SOL    HW124836   2.001   2.387   4.624
 7979SOL    HW224837   2.031   2.304   4.762
 7980SOL     OW24838   3.970   5.774   0.428
 7980SOL    HW124839   4.036   5.803   0.497
 7980SOL    HW224840   3.996   5.684   0.393
 7981SOL     OW24841   1.541   4.177   3.548
 7981SOL    HW124842   1.557   4.103   3.613
 7981SOL    HW224843   1.565   4.265   3.590
 7982SOL     OW24844   6.768   0.685   5.767
 7982SOL    HW124845   6.683   0.647   5.732
 7982SOL    HW224846   6.753   0.780   5.796
 7983SOL     OW24847   4.664   1.247   1.341
 7983SOL    HW124848   4.602   1.203   1.276
 7983SOL    HW224849   4.610   1.294   1.411
 7984SOL     OW24850   0.431   2.237   2.720
 7984SOL    HW124851   0.457   2.318   2.772
 7984SOL    HW224852   0.412   2.261   2.626
 7985SOL     OW24853   3.292   2.960   5.171
 7985SOL    HW124854   3.359   2.891   5.198
 7985SOL    HW224855   3.332   3.020   5.102
 7986SOL     OW24856   3.717   0.625   4.227
 7986SOL    HW124857   3.649   0.668   4.167
 7986SOL    HW224858   3.772   0.695   4.272
 7987SOL     OW24859   0.768   3.474   6.969
 7987SOL    HW124860   0.831   3.449   0.019
 7987SOL    HW224861   0.696   3.405   6.961
 7988SOL     OW24862   6.894   1.074   2.263
 7988SOL    HW124863   6.842   1.148   2.221
 7988SOL    HW224864   6.973   1.051   2.206
 7989SOL     OW24865   0.125   4.121   1.408
 7989SOL    HW124866   0.125   4.108   1.309
 7989SOL    HW224867   0.084   4.209   1.430
 7990SOL     OW24868   4.858   5.996   5.382
 7990SOL    HW124869   4.912   6.021   5.462
 7990SOL    HW224870   4.844   6.076   5.325
 7991SOL     OW24871   5.703   0.880   5.030
 7991SOL    HW124872   5.799   0.857   5.046
 7991SOL    HW224873   5.646   0.831   5.095
 7992SOL     OW24874   2.216   6.812   6.873
 7992SOL    HW124875   2.274   6.826   6.793
 7992SOL    HW224876   2.124   6.788   6.844
 7993SOL     OW24877   5.989   5.536   1.088
 7993SOL    HW124878   6.000   5.629   1.054
 7993SOL    HW224879   5.953   5.478   1.015
 7994SOL     OW24880   6.204   0.001   4.128
 7994SOL    HW124881   6.294   7.006   4.089
 7994SOL    HW224882   6.194   0.099   4.145
 7995SOL     OW24883   0.889   5.180   1.703
 7995SOL    HW124884   0.891   5.191   1.802
 7995SOL    HW224885   0.851   5.262   1.660
 7996SOL     OW24886   3.239   6.780   3.084
 7996SOL    HW124887   3.280   6.698   3.044
 7996SOL    HW224888   3.179   6.754   3.160
 7997SOL     OW24889   1.825   1.695   5.802
 7997SOL    HW124890   1.832   1.782   5.754
 7997SOL    HW224891   1.750   1.641   5.764
 7998SOL     OW24892   2.713   0.970   0.556
 7998SOL    HW124893   2.733   1.062   0.522
 7998SOL    HW224894   2.768   0.903   0.506
 7999SOL     OW24895   1.354   0.311   4.456
 7999SOL    HW124896   1.306   0.369   4.390
 7999SOL    HW224897   1.322   0.333   4.548
 8000SOL     OW24898   4.051   5.530   0.322
 8000SOL    HW124899   4.078   5.454   0.381
 8000SOL    HW224900   4.118   5.540   0.248
 8001SOL     OW24901   4.372   4.947   0.944
 8001SOL    HW124902   4.291   4.955   1.002
 8001SOL    HW224903   4.451   4.922   1.000
 8002SOL     OW24904   0.986   6.947   4.327
 8002SOL    HW124905   1.003   6.986   4.418
 8002SOL    HW224906   1.070   6.904   4.294
 8003SOL     OW24907   2.769   5.989   2.219
 8003SOL    HW124908   2.728   5.902   2.247
 8003SOL    HW224909   2.701   6.062   2.226
 8004SOL     OW24910   1.157   3.004   3.867
 8004SOL    HW124911   1.072   2.953   3.883
 8004SOL    HW224912   1.139   3.077   3.801
 8005SOL     OW24913   2.471   0.879   2.931
 8005SOL    HW124914   2.488   0.874   2.833
 8005SOL    HW224915   2.373   0.886   2.948
 8006SOL     OW24916   4.258   4.293   5.614
 8006SOL    HW124917   4.224   4.387   5.619
 8006SOL    HW224918   4.232   4.243   5.696
 8007SOL     OW24919   0.390   0.224   0.839
 8007SOL    HW124920   0.294   0.219   0.867
 8007SOL    HW224921   0.410   0.315   0.803
 8008SOL     OW24922   5.202   5.563   0.395
 8008SOL    HW124923   5.149   5.525   0.471
 8008SOL    HW224924   5.268   5.628   0.430
 8009SOL     OW24925   5.673   0.879   7.021
 8009SOL    HW124926   5.766   0.847   0.016
 8009SOL    HW224927   5.663   0.972   0.032
 8010SOL     OW24928   2.758   0.227   5.423
 8010SOL    HW124929   2.757   0.314   5.472
 8010SOL    HW224930   2.677   0.174   5.447
 8011SOL     OW24931   3.775   2.155   3.300
 8011SOL    HW124932   3.746   2.185   3.209
 8011SOL    HW224933   3.849   2.214   3.333
 8012SOL     OW24934   6.080   1.752   4.711
 8012SOL    HW124935   6.168   1.719   4.743
 8012SOL    HW224936   6.031   1.795   4.787
 8013SOL     OW24937   3.493   1.429   2.735
 8013SOL    HW124938   3.517   1.356   2.672
 8013SOL    HW224939   3.503   1.517   2.689
 8014SOL     OW24940   2.441   2.570   2.883
 8014SOL    HW124941   2.409   2.637   2.950
 8014SOL    HW224942   2.393   2.583   2.797
 8015SOL     OW24943   3.652   6.963   5.107
 8015SOL    HW124944   3.732   7.012   5.142
 8015SOL    HW224945   3.671   6.930   5.014
 8016SOL     OW24946   3.644   2.277   5.297
 8016SOL    HW124947   3.639   2.376   5.305
 8016SOL    HW224948   3.723   2.252   5.241
 8017SOL     OW24949   6.876   5.758   0.967
 8017SOL    HW124950   6.867   5.670   1.013
 8017SOL    HW224951   6.973   5.781   0.958
 8018SOL     OW24952   4.221   2.520   6.693
 8018SOL    HW124953   4.147   2.509   6.759
 8018SOL    HW224954   4.249   2.616   6.691
 8019SOL     OW24955   2.644   3.580   0.616
 8019SOL    HW124956   2.687   3.603   0.703
 8019SOL    HW224957   2.663   3.484   0.594
 8020SOL     OW24958   0.775   0.668   5.841
 8020SOL    HW124959   0.851   0.604   5.833
 8020SOL    HW224960   0.734   0.660   5.932
 8021SOL     OW24961   1.475   3.020   0.673
 8021SOL    HW124962   1.529   2.984   0.749
 8021SOL    HW224963   1.378   3.008   0.692
 8022SOL     OW24964   4.279   1.080   1.890
 8022SOL    HW124965   4.372   1.047   1.873
 8022SOL    HW224966   4.278   1.134   1.974
 8023SOL     OW24967   4.781   6.419   1.494
 8023SOL    HW124968   4.861   6.469   1.461
 8023SOL    HW224969   4.761   6.446   1.588
 8024SOL     OW24970   2.606   1.069   6.964
 8024SOL    HW124971   2.651   1.032   6.883
 8024SOL    HW224972   2.519   1.022   6.978
 8025SOL     OW24973   1.373   5.686   1.590
 8025SOL    HW124974   1.298   5.746   1.563
 8025SOL    HW224975   1.460   5.726   1.563
 8026SOL     OW24976   0.569   5.940   6.182
 8026SOL    HW124977   0.542   6.004   6.254
 8026SOL    HW224978   0.669   5.936   6.177
 8027SOL     OW24979   3.780   0.133   0.386
 8027SOL    HW124980   3.682   0.152   0.393
 8027SOL    HW224981   3.795   0.034   0.378
 8028SOL     OW24982   3.678   5.736   5.381
 8028SOL    HW124983   3.623   5.725   5.299
 8028SOL    HW224984   3.619   5.730   5.462
 8029SOL     OW24985   0.852   0.127   1.228
 8029SOL    HW124986   0.859   0.159   1.322
 8029SOL    HW224987   0.888   0.196   1.166
 8030SOL     OW24988   0.734   4.523   1.030
 8030SOL    HW124989   0.656   4.553   0.975
 8030SOL    HW224990   0.711   4.530   1.127
 8031SOL     OW24991   0.263   0.171   3.135
 8031SOL    HW124992   0.356   0.193   3.106
 8031SOL    HW224993   0.264   0.133   3.227
 8032SOL     OW24994   0.363   2.922   1.376
 8032SOL    HW124995   0.460   2.935   1.396
 8032SOL    HW224996   0.331   2.997   1.317
 8033SOL     OW24997   4.332   4.224   1.321
 8033SOL    HW124998   4.333   4.257   1.415
 8033SOL    HW224999   4.365   4.296   1.260
 8034SOL     OW25000   0.070   6.993   6.100
 8034SOL    HW125001   0.075   0.041   6.172
 8034SOL    HW225002   0.084   6.903   6.141
 8035SOL     OW25003   6.027   0.651   3.734
 8035SOL    HW125004   5.961   0.593   3.687
 8035SOL    HW225005   6.009   0.747   3.711
 8036SOL     OW25006   5.085   2.730   4.356
 8036SOL    HW125007   5.132   2.758   4.272
 8036SOL    HW225008   5.026   2.803   4.387
 8037SOL     OW25009   1.976   1.467   5.833
 8037SOL    HW125010   1.927   1.549   5.863
 8037SOL    HW225011   1.976   1.399   5.907
 8038SOL     OW25012   6.502   5.494   2.304
 8038SOL    HW125013   6.556   5.563   2.255
 8038SOL    HW225014   6.429   5.460   2.244
 8039SOL     OW25015   1.551   2.322   5.159
 8039SOL    HW125016   1.625   2.279   5.211
 8039SOL    HW225017   1.470   2.264   5.162
 8040SOL     OW25018   1.243   5.520   6.523
 8040SOL    HW125019   1.176   5.539   6.594
 8040SOL    HW225020   1.197   5.507   6.436
 8041SOL     OW25021   3.266   1.428   2.935
 8041SOL    HW125022   3.340   1.474   2.984
 8041SOL    HW225023   3.299   1.394   2.848
 8042SOL     OW25024   4.223   4.182   5.865
 8042SOL    HW125025   4.151   4.179   5.934
 8042SOL    HW225026   4.294   4.116   5.888
 8043SOL     OW25027   5.312   5.659   6.396
 8043SOL    HW125028   5.283   5.569   6.363
 8043SOL    HW225029   5.281   5.672   6.490
 8044SOL     OW25030   2.597   3.200   1.404
 8044SOL    HW125031   2.686   3.186   1.361
 8044SOL    HW225032   2.529   3.144   1.358
 8045SOL     OW25033   7.008   2.750   4.141
 8045SOL    HW125034   0.077   2.783   4.163
 8045SOL    HW225035   6.951   2.828   4.112
 8046SOL     OW25036   6.708   4.198   1.961
 8046SOL    HW125037   6.783   4.216   1.898
 8046SOL    HW225038   6.621   4.200   1.912
 8047SOL     OW25039   3.607   6.191   6.757
 8047SOL    HW125040   3.540   6.170   6.686
 8047SOL    HW225041   3.565   6.178   6.847
 8048SOL     OW25042   3.696   2.224   5.957
 8048SOL    HW125043   3.678   2.312   5.915
 8048SOL    HW225044   3.634   2.211   6.035
 8049SOL     OW25045   1.981   1.661   0.491
 8049SOL    HW125046   1.987   1.588   0.423
 8049SOL    HW225047   1.917   1.636   0.563
 8050SOL     OW25048   0.487   4.814   5.537
 8050SOL    HW125049   0.552   4.865   5.481
 8050SOL    HW225050   0.463   4.869   5.617
 8051SOL     OW25051   4.258   0.370   3.313
 8051SOL    HW125052   4.340   0.317   3.336
 8051SOL    HW225053   4.241   0.364   3.215
 8052SOL     OW25054   3.122   1.708   2.615
 8052SOL    HW125055   3.153   1.629   2.562
 8052SOL    HW225056   3.184   1.784   2.599
 8053SOL     OW25057   1.825   2.651   6.494
 8053SOL    HW125058   1.738   2.680   6.534
 8053SOL    HW225059   1.826   2.674   6.397
 8054SOL     OW25060   5.028   3.345   5.133
 8054SOL    HW125061   5.087   3.270   5.163
 8054SOL    HW225062   4.985   3.321   5.046
 8055SOL     OW25063   5.886   0.454   0.049
 8055SOL    HW125064   5.829   0.372   0.045
 8055SOL    HW225065   5.838   0.525   0.101
 8056SOL     OW25066   2.291   0.720   3.918
 8056SOL    HW125067   2.264   0.636   3.870
 8056SOL    HW225068   2.389   0.732   3.911
 8057SOL     OW25069   3.110   2.140   2.051
 8057SOL    HW125070   3.041   2.198   2.095
 8057SOL    HW225071   3.101   2.147   1.951
 8058SOL     OW25072   3.721   6.122   1.686
 8058SOL    HW125073   3.639   6.071   1.711
 8058SOL    HW225074   3.728   6.204   1.743
 8059SOL     OW25075   3.046   2.572   5.727
 8059SOL    HW125076   3.041   2.523   5.814
 8059SOL    HW225077   3.132   2.549   5.681
 8060SOL     OW25078   6.321   0.812   6.331
 8060SOL    HW125079   6.365   0.828   6.243
 8060SOL    HW225080   6.384   0.837   6.405
 8061SOL     OW25081   6.973   0.676   2.921
 8061SOL    HW125082   6.890   0.713   2.964
 8061SOL    HW225083   0.031   0.707   2.972
 8062SOL     OW25084   4.056   5.723   5.304
 8062SOL    HW125085   4.086   5.645   5.250
 8062SOL    HW225086   4.125   5.744   5.374
 8063SOL     OW25087   2.574   4.823   3.049
 8063SOL    HW125088   2.611   4.854   2.962
 8063SOL    HW225089   2.647   4.818   3.117
 8064SOL     OW25090   6.545   2.070   0.846
 8064SOL    HW125091   6.606   2.024   0.782
 8064SOL    HW225092   6.464   2.103   0.797
 8065SOL     OW25093   4.306   6.114   6.389
 8065SOL    HW125094   4.314   6.016   6.369
 8065SOL    HW225095   4.324   6.129   6.486
 8066SOL     OW25096   0.748   6.771   6.035
 8066SOL    HW125097   0.828   6.778   5.975
 8066SOL    HW225098   0.742   6.678   6.072
 8067SOL     OW25099   5.703   1.633   3.564
 8067SOL    HW125100   5.775   1.679   3.512
 8067SOL    HW225101   5.617   1.684   3.555
 8068SOL     OW25102   5.659   3.944   1.560
 8068SOL    HW125103   5.743   3.972   1.514
 8068SOL    HW225104   5.629   3.855   1.526
 8069SOL     OW25105   1.901   3.942   2.922
 8069SOL    HW125106   1.883   4.024   2.975
 8069SOL    HW225107   1.998   3.940   2.896
 8070SOL     OW25108   4.695   4.689   0.695
 8070SOL    HW125109   4.651   4.636   0.768
 8070SOL    HW225110   4.747   4.764   0.735
 8071SOL     OW25111   2.377   6.894   6.287
 8071SOL    HW125112   2.405   6.825   6.354
 8071SOL    HW225113   2.368   6.852   6.197
 8072SOL     OW25114   2.713   1.709   5.050
 8072SOL    HW125115   2.620   1.737   5.026
 8072SOL    HW225116   2.718   1.609   5.054
 8073SOL     OW25117   5.201   0.238   6.243
 8073SOL    HW125118   5.119   0.295   6.237
 8073SOL    HW225119   5.269   0.281   6.302
 8074SOL     OW25120   1.155   0.656   6.906
 8074SOL    HW125121   1.206   0.737   6.876
 8074SOL    HW225122   1.063   0.684   6.934
 8075SOL     OW25123   6.852   6.846   1.420
 8075SOL    HW125124   6.905   6.773   1.464
 8075SOL    HW225125   6.914   6.921   1.395
 8076SOL     OW25126   7.018   6.702   0.442
 8076SOL    HW125127   0.073   6.643   0.464
 8076SOL    HW225128   6.984   6.745   0.526
 8077SOL     OW25129   5.010   4.687   0.386
 8077SOL    HW125130   4.974   4.780   0.392
 8077SOL    HW225131   4.945   4.624   0.427
 8078SOL     OW25132   0.144   1.177   1.068
 8078SOL    HW125133   0.165   1.079   1.068
 8078SOL    HW225134   0.224   1.228   1.098
 8079SOL     OW25135   1.846   0.801   6.156
 8079SOL    HW125136   1.880   0.856   6.233
 8079SOL    HW225137   1.746   0.803   6.156
 8080SOL     OW25138   0.776   3.056   3.309
 8080SOL    HW125139   0.703   3.082   3.373
 8080SOL    HW225140   0.751   2.971   3.264
 8081SOL     OW25141   6.158   0.138   5.295
 8081SOL    HW125142   6.225   0.192   5.344
 8081SOL    HW225143   6.178   0.140   5.197
 8082SOL     OW25144   4.156   1.577   3.758
 8082SOL    HW125145   4.173   1.596   3.854
 8082SOL    HW225146   4.077   1.516   3.750
 8083SOL     OW25147   6.046   1.836   4.407
 8083SOL    HW125148   6.063   1.798   4.316
 8083SOL    HW225149   6.046   1.762   4.474
 8084SOL     OW25150   4.069   0.895   5.884
 8084SOL    HW125151   4.049   0.840   5.965
 8084SOL    HW225152   4.013   0.863   5.807
 8085SOL     OW25153   1.707   6.180   4.496
 8085SOL    HW125154   1.672   6.240   4.424
 8085SOL    HW225155   1.713   6.087   4.462
 8086SOL     OW25156   6.856   1.031   2.545
 8086SOL    HW125157   6.863   1.008   2.448
 8086SOL    HW225158   6.922   0.976   2.597
 8087SOL     OW25159   0.811   0.317   6.912
 8087SOL    HW125160   0.828   0.352   6.820
 8087SOL    HW225161   0.723   0.350   6.944
 8088SOL     OW25162   6.913   0.577   5.245
 8088SOL    HW125163   6.999   0.549   5.288
 8088SOL    HW225164   6.846   0.600   5.316
 8089SOL     OW25165   6.525   1.827   6.198
 8089SOL    HW125166   6.458   1.894   6.166
 8089SOL    HW225167   6.478   1.750   6.240
 8090SOL     OW25168   4.162   2.159   5.290
 8090SOL    HW125169   4.236   2.095   5.310
 8090SOL    HW225170   4.108   2.174   5.372
 8091SOL     OW25171   1.284   4.909   3.749
 8091SOL    HW125172   1.381   4.927   3.765
 8091SOL    HW225173   1.235   4.909   3.836
 8092SOL     OW25174   5.131   1.553   6.381
 8092SOL    HW125175   5.216   1.606   6.380
 8092SOL    HW225176   5.097   1.542   6.288
 8093SOL     OW25177   3.620   5.979   3.102
 8093SOL    HW125178   3.671   6.062   3.120
 8093SOL    HW225179   3.534   5.981   3.152
 8094SOL     OW25180   2.167   3.866   3.981
 8094SOL    HW125181   2.076   3.898   3.955
 8094SOL    HW225182   2.160   3.775   4.020
 8095SOL     OW25183   1.123   4.747   5.270
 8095SOL    HW125184   1.123   4.844   5.297
 8095SOL    HW225185   1.050   4.731   5.204
 8096SOL     OW25186   0.671   5.510   0.707
 8096SOL    HW125187   0.747   5.493   0.770
 8096SOL    HW225188   0.594   5.549   0.757
 8097SOL     OW25189   4.612   6.149   0.052
 8097SOL    HW125190   4.704   6.136   0.015
 8097SOL    HW225191   4.618   6.195   0.141
 8098SOL     OW25192   1.939   5.704   4.746
 8098SOL    HW125193   1.868   5.647   4.786
 8098SOL    HW225194   1.916   5.801   4.757
 8099SOL     OW25195   1.847   3.919   2.466
 8099SOL    HW125196   1.826   3.835   2.517
 8099SOL    HW225197   1.910   3.975   2.519
 8100SOL     OW25198   6.997   1.057   6.621
 8100SOL    HW125199   6.981   0.966   6.582
 8100SOL    HW225200   6.934   1.072   6.698
 8101SOL     OW25201   3.159   5.512   0.673
 8101SOL    HW125202   3.087   5.443   0.681
 8101SOL    HW225203   3.169   5.538   0.577
 8102SOL     OW25204   1.290   3.725   4.718
 8102SOL    HW125205   1.333   3.650   4.669
 8102SOL    HW225206   1.222   3.769   4.659
 8103SOL     OW25207   3.377   1.095   2.062
 8103SOL    HW125208   3.295   1.041   2.048
 8103SOL    HW225209   3.458   1.039   2.042
 8104SOL     OW25210   1.810   5.525   0.274
 8104SOL    HW125211   1.857   5.613   0.279
 8104SOL    HW225212   1.712   5.540   0.262
 8105SOL     OW25213   0.024   0.058   3.700
 8105SOL    HW125214   0.083   0.005   3.761
 8105SOL    HW225215   0.067   0.065   3.610
 8106SOL     OW25216   2.043   7.020   6.193
 8106SOL    HW125217   2.050   6.925   6.224
 8106SOL    HW225218   1.951   0.015   6.160
 8107SOL     OW25219   1.240   6.404   6.683
 8107SOL    HW125220   1.208   6.313   6.709
 8107SOL    HW225221   1.210   6.425   6.590
 8108SOL     OW25222   1.485   1.307   7.007
 8108SOL    HW125223   1.526   1.350   0.064
 8108SOL    HW225224   1.441   1.376   6.950
 8109SOL     OW25225   6.152   3.086   1.163
 8109SOL    HW125226   6.086   3.021   1.199
 8109SOL    HW225227   6.222   3.104   1.232
 8110SOL     OW25228   3.464   4.906   1.326
 8110SOL    HW125229   3.420   4.818   1.345
 8110SOL    HW225230   3.500   4.906   1.233
 8111SOL     OW25231   6.539   1.194   2.266
 8111SOL    HW125232   6.555   1.195   2.365
 8111SOL    HW225233   6.618   1.235   2.220
 8112SOL     OW25234   1.511   4.461   6.573
 8112SOL    HW125235   1.590   4.442   6.515
 8112SOL    HW225236   1.529   4.542   6.628
 8113SOL     OW25237   5.504   3.926   5.825
 8113SOL    HW125238   5.405   3.928   5.839
 8113SOL    HW225239   5.550   3.947   5.911
 8114SOL     OW25240   1.701   4.183   2.043
 8114SOL    HW125241   1.682   4.122   2.120
 8114SOL    HW225242   1.792   4.224   2.055
 8115SOL     OW25243   2.948   1.668   5.790
 8115SOL    HW125244   2.918   1.749   5.740
 8115SOL    HW225245   3.010   1.695   5.864
 8116SOL     OW25246   3.794   3.336   0.975
 8116SOL    HW125247   3.863   3.408   0.980
 8116SOL    HW225248   3.705   3.374   0.997
 8117SOL     OW25249   2.336   6.897   3.657
 8117SOL    HW125250   2.274   6.866   3.729
 8117SOL    HW225251   2.334   6.832   3.581
 8118SOL     OW25252   6.388   2.949   0.310
 8118SOL    HW125253   6.404   2.865   0.258
 8118SOL    HW225254   6.336   2.928   0.392
 8119SOL     OW25255   5.921   6.406   0.630
 8119SOL    HW125256   5.941   6.363   0.718
 8119SOL    HW225257   5.920   6.505   0.641
 8120SOL     OW25258   2.092   0.010   1.916
 8120SOL    HW125259   2.125   0.063   1.838
 8120SOL    HW225260   2.065   6.941   1.884
 8121SOL     OW25261   0.707   3.139   2.368
 8121SOL    HW125262   0.757   3.184   2.294
 8121SOL    HW225263   0.701   3.041   2.350
 8122SOL     OW25264   0.429   4.977   1.097
 8122SOL    HW125265   0.368   4.902   1.123
 8122SOL    HW225266   0.431   5.046   1.170
 8123SOL     OW25267   0.072   1.815   6.232
 8123SOL    HW125268   7.010   1.775   6.198
 8123SOL    HW225269   0.107   1.759   6.308
 8124SOL     OW25270   5.165   5.493   4.743
 8124SOL    HW125271   5.238   5.500   4.811
 8124SOL    HW225272   5.085   5.544   4.774
 8125SOL     OW25273   2.167   5.502   3.095
 8125SOL    HW125274   2.261   5.535   3.109
 8125SOL    HW225275   2.104   5.558   3.149
 8126SOL     OW25276   3.695   4.938   4.583
 8126SOL    HW125277   3.715   5.029   4.620
 8126SOL    HW225278   3.678   4.875   4.659
 8127SOL     OW25279   3.894   2.668   0.212
 8127SOL    HW125280   3.968   2.671   0.145
 8127SOL    HW225281   3.843   2.582   0.202
 8128SOL     OW25282   3.664   3.435   1.521
 8128SOL    HW125283   3.683   3.445   1.424
 8128SOL    HW225284   3.738   3.385   1.565
 8129SOL     OW25285   1.782   2.351   2.306
 8129SOL    HW125286   1.850   2.302   2.251
 8129SOL    HW225287   1.789   2.320   2.401
 8130SOL     OW25288   0.525   5.406   6.807
 8130SOL    HW125289   0.542   5.369   6.716
 8130SOL    HW225290   0.548   5.504   6.808
 8131SOL     OW25291   1.832   3.721   6.994
 8131SOL    HW125292   1.770   3.743   0.046
 8131SOL    HW225293   1.927   3.720   0.005
 8132SOL     OW25294   0.634   0.359   5.125
 8132SOL    HW125295   0.573   0.310   5.063
 8132SOL    HW225296   0.596   0.355   5.218
 8133SOL     OW25297   3.792   5.045   0.705
 8133SOL    HW125298   3.805   5.128   0.758
 8133SOL    HW225299   3.700   5.009   0.722
 8134SOL     OW25300   5.717   1.534   5.803
 8134SOL    HW125301   5.671   1.529   5.891
 8134SOL    HW225302   5.809   1.571   5.815
 8135SOL     OW25303   2.686   6.659   1.761
 8135SOL    HW125304   2.605   6.656   1.819
 8135SOL    HW225305   2.760   6.606   1.803
 8136SOL     OW25306   5.231   4.494   2.254
 8136SOL    HW125307   5.154   4.430   2.251
 8136SOL    HW225308   5.227   4.556   2.176
 8137SOL     OW25309   3.917   1.470   5.413
 8137SOL    HW125310   3.899   1.441   5.320
 8137SOL    HW225311   3.830   1.484   5.461
 8138SOL     OW25312   5.005   0.794   2.014
 8138SOL    HW125313   5.080   0.827   1.958
 8138SOL    HW225314   5.016   0.825   2.109
 8139SOL     OW25315   0.399   2.102   3.289
 8139SOL    HW125316   0.420   2.155   3.207
 8139SOL    HW225317   0.483   2.057   3.322
 8140SOL     OW25318   4.430   1.056   3.207
 8140SOL    HW125319   4.460   0.979   3.263
 8140SOL    HW225320   4.344   1.033   3.162
 8141SOL     OW25321   5.080   4.993   4.661
 8141SOL    HW125322   5.080   5.060   4.735
 8141SOL    HW225323   5.037   4.908   4.693
 8142SOL     OW25324   7.007   5.917   0.376
 8142SOL    HW125325   7.013   5.852   0.300
 8142SOL    HW225326   6.914   5.914   0.414
 8143SOL     OW25327   6.529   3.377   4.920
 8143SOL    HW125328   6.565   3.292   4.881
 8143SOL    HW225329   6.445   3.357   4.970
 8144SOL     OW25330   5.424   6.982   6.079
 8144SOL    HW125331   5.442   6.981   5.981
 8144SOL    HW225332   5.325   6.991   6.095
 8145SOL     OW25333   5.360   6.341   2.899
 8145SOL    HW125334   5.328   6.436   2.910
 8145SOL    HW225335   5.439   6.340   2.838
 8146SOL     OW25336   3.145   1.008   4.106
 8146SOL    HW125337   3.162   1.105   4.123
 8146SOL    HW225338   3.219   0.953   4.145
 8147SOL     OW25339   4.513   0.565   3.654
 8147SOL    HW125340   4.558   0.621   3.724
 8147SOL    HW225341   4.542   0.470   3.664
 8148SOL     OW25342   5.039   4.414   3.469
 8148SOL    HW125343   4.941   4.402   3.483
 8148SOL    HW225344   5.054   4.484   3.399
 8149SOL     OW25345   4.162   4.831   3.317
 8149SOL    HW125346   4.246   4.779   3.327
 8149SOL    HW225347   4.154   4.865   3.224
 8150SOL     OW25348   0.684   5.711   1.293
 8150SOL    HW125349   0.610   5.655   1.331
 8150SOL    HW225350   0.748   5.735   1.367
 8151SOL     OW25351   1.164   1.647   5.289
 8151SOL    HW125352   1.236   1.627   5.355
 8151SOL    HW225353   1.078   1.605   5.319
 8152SOL     OW25354   1.315   1.063   3.075
 8152SOL    HW125355   1.310   1.161   3.058
 8152SOL    HW225356   1.404   1.042   3.117
 8153SOL     OW25357   2.058   6.721   0.540
 8153SOL    HW125358   1.963   6.727   0.508
 8153SOL    HW225359   2.119   6.763   0.473
 8154SOL     OW25360   2.279   6.814   3.376
 8154SOL    HW125361   2.336   6.736   3.351
 8154SOL    HW225362   2.277   6.880   3.301
 8155SOL     OW25363   3.222   3.258   3.578
 8155SOL    HW125364   3.275   3.292   3.500
 8155SOL    HW225365   3.283   3.237   3.654
 8156SOL     OW25366   6.488   0.270   5.920
 8156SOL    HW125367   6.389   0.281   5.919
 8156SOL    HW225368   6.513   0.196   5.982
 8157SOL     OW25369   6.017   3.061   6.793
 8157SOL    HW125370   6.032   3.146   6.845
 8157SOL    HW225371   5.928   3.065   6.748
 8158SOL     OW25372   2.156   5.536   2.257
 8158SOL    HW125373   2.189   5.520   2.164
 8158SOL    HW225374   2.233   5.534   2.321
 8159SOL     OW25375   1.275   5.466   1.740
 8159SOL    HW125376   1.176   5.456   1.729
 8159SOL    HW225377   1.305   5.554   1.702
 8160SOL     OW25378   4.368   2.370   1.997
 8160SOL    HW125379   4.443   2.434   2.014
 8160SOL    HW225380   4.323   2.394   1.911
 8161SOL     OW25381   4.140   2.012   1.114
 8161SOL    HW125382   4.073   1.962   1.170
 8161SOL    HW225383   4.141   2.108   1.142
 8162SOL     OW25384   6.287   0.971   1.346
 8162SOL    HW125385   6.331   0.922   1.271
 8162SOL    HW225386   6.196   0.932   1.362
 8163SOL     OW25387   2.213   3.603   5.160
 8163SOL    HW125388   2.259   3.530   5.110
 8163SOL    HW225389   2.280   3.657   5.210
 8164SOL     OW25390   4.665   1.977   2.012
 8164SOL    HW125391   4.597   1.974   2.086
 8164SOL    HW225392   4.622   2.010   1.928
 8165SOL     OW25393   2.373   4.799   1.653
 8165SOL    HW125394   2.464   4.839   1.644
 8165SOL    HW225395   2.374   4.706   1.618
 8166SOL     OW25396   2.767   6.856   1.299
 8166SOL    HW125397   2.745   6.942   1.344
 8166SOL    HW225398   2.792   6.788   1.368
 8167SOL     OW25399   4.883   3.316   4.318
 8167SOL    HW125400   4.799   3.263   4.321
 8167SOL    HW225401   4.894   3.368   4.402
 8168SOL     OW25402   3.021   1.519   3.058
 8168SOL    HW125403   2.983   1.600   3.014
 8168SOL    HW225404   3.104   1.491   3.011
 8169SOL     OW25405   4.934   4.052   5.982
 8169SOL    HW125406   5.003   4.070   5.912
 8169SOL    HW225407   4.936   4.125   6.051
 8170SOL     OW25408   0.325   5.042   3.700
 8170SOL    HW125409   0.256   4.982   3.659
 8170SOL    HW225410   0.397   4.987   3.742
 8171SOL     OW25411   1.606   1.335   5.840
 8171SOL    HW125412   1.650   1.257   5.795
 8171SOL    HW225413   1.619   1.328   5.939
 8172SOL     OW25414   7.015   6.493   1.283
 8172SOL    HW125415   0.083   6.453   1.269
 8172SOL    HW225416   7.000   6.567   1.218
 8173SOL     OW25417   5.264   3.172   6.788
 8173SOL    HW125418   5.315   3.248   6.749
 8173SOL    HW225419   5.205   3.131   6.718
 8174SOL     OW25420   5.488   0.358   1.943
 8174SOL    HW125421   5.440   0.273   1.969
 8174SOL    HW225422   5.426   0.436   1.956
 8175SOL     OW25423   1.596   3.509   5.590
 8175SOL    HW125424   1.524   3.519   5.659
 8175SOL    HW225425   1.667   3.578   5.605
 8176SOL     OW25426   3.867   5.361   2.906
 8176SOL    HW125427   3.966   5.378   2.908
 8176SOL    HW225428   3.849   5.270   2.869
 8177SOL     OW25429   1.600   0.110   6.125
 8177SOL    HW125430   1.656   0.188   6.153
 8177SOL    HW225431   1.659   0.030   6.111
 8178SOL     OW25432   1.876   6.513   6.245
 8178SOL    HW125433   1.784   6.490   6.278
 8178SOL    HW225434   1.942   6.454   6.291
 8179SOL     OW25435   3.206   0.828   0.221
 8179SOL    HW125436   3.156   0.871   0.296
 8179SOL    HW225437   3.303   0.847   0.229
 8180SOL     OW25438   4.739   5.398   5.222
 8180SOL    HW125439   4.663   5.410   5.286
 8180SOL    HW225440   4.824   5.387   5.272
 8181SOL     OW25441   2.750   2.319   2.465
 8181SOL    HW125442   2.689   2.379   2.517
 8181SOL    HW225443   2.706   2.294   2.379
 8182SOL     OW25444   4.256   2.070   5.785
 8182SOL    HW125445   4.310   2.127   5.723
 8182SOL    HW225446   4.159   2.089   5.771
 8183SOL     OW25447   1.771   2.949   3.999
 8183SOL    HW125448   1.797   3.039   3.965
 8183SOL    HW225449   1.803   2.879   3.935
 8184SOL     OW25450   6.203   5.659   5.763
 8184SOL    HW125451   6.288   5.674   5.814
 8184SOL    HW225452   6.211   5.702   5.673
 8185SOL     OW25453   1.630   1.666   2.827
 8185SOL    HW125454   1.720   1.684   2.866
 8185SOL    HW225455   1.633   1.582   2.773
 8186SOL     OW25456   3.734   4.401   6.041
 8186SOL    HW125457   3.690   4.334   6.101
 8186SOL    HW225458   3.669   4.430   5.971
 8187SOL     OW25459   1.608   1.249   6.096
 8187SOL    HW125460   1.668   1.246   6.176
 8187SOL    HW225461   1.513   1.242   6.125
 8188SOL     OW25462   6.095   3.074   2.657
 8188SOL    HW125463   6.103   3.035   2.565
 8188SOL    HW225464   6.005   3.115   2.667
 8189SOL     OW25465   6.572   4.840   2.783
 8189SOL    HW125466   6.558   4.755   2.834
 8189SOL    HW225467   6.493   4.900   2.795
 8190SOL     OW25468   5.361   3.371   2.563
 8190SOL    HW125469   5.325   3.450   2.513
 8190SOL    HW225470   5.297   3.295   2.555
 8191SOL     OW25471   0.042   5.528   1.864
 8191SOL    HW125472   6.977   5.543   1.910
 8191SOL    HW225473   0.082   5.442   1.897
 8192SOL     OW25474   1.657   3.794   0.796
 8192SOL    HW125475   1.704   3.739   0.865
 8192SOL    HW225476   1.626   3.880   0.837
 8193SOL     OW25477   3.483   0.170   5.491
 8193SOL    HW125478   3.422   0.124   5.556
 8193SOL    HW225479   3.432   0.191   5.407
 8194SOL     OW25480   1.511   0.232   1.557
 8194SOL    HW125481   1.586   0.280   1.602
 8194SOL    HW225482   1.429   0.291   1.557
 8195SOL     OW25483   6.132   0.688   0.803
 8195SOL    HW125484   6.159   0.752   0.874
 8195SOL    HW225485   6.037   0.704   0.778
 8196SOL     OW25486   2.182   0.244   0.001
 8196SOL    HW125487   2.271   0.201   7.010
 8196SOL    HW225488   2.194   0.328   0.054
 8197SOL     OW25489   0.812   6.773   0.877
 8197SOL    HW125490   0.911   6.784   0.870
 8197SOL    HW225491   0.767   6.843   0.821
 8198SOL     OW25492   3.808   6.585   2.877
 8198SOL    HW125493   3.723   6.632   2.853
 8198SOL    HW225494   3.875   6.596   2.803
 8199SOL     OW25495   5.807   4.520   0.497
 8199SOL    HW125496   5.862   4.447   0.538
 8199SOL    HW225497   5.745   4.481   0.429
 8200SOL     OW25498   4.651   3.065   1.440
 8200SOL    HW125499   4.626   3.148   1.390
 8200SOL    HW225500   4.636   2.985   1.383
 8201SOL     OW25501   6.033   1.137   4.666
 8201SOL    HW125502   6.060   1.211   4.728
 8201SOL    HW225503   5.936   1.146   4.645
 8202SOL     OW25504   1.569   3.950   4.429
 8202SOL    HW125505   1.604   4.012   4.358
 8202SOL    HW225506   1.611   3.860   4.418
 8203SOL     OW25507   6.080   4.037   0.712
 8203SOL    HW125508   6.043   4.099   0.782
 8203SOL    HW225509   6.020   3.958   0.703
 8204SOL     OW25510   3.698   0.484   0.348
 8204SOL    HW125511   3.743   0.449   0.267
 8204SOL    HW225512   3.641   0.563   0.324
 8205SOL     OW25513   5.716   5.802   3.299
 8205SOL    HW125514   5.678   5.801   3.206
 8205SOL    HW225515   5.748   5.711   3.323
 8206SOL     OW25516   3.868   1.728   4.442
 8206SOL    HW125517   3.783   1.711   4.391
 8206SOL    HW225518   3.846   1.760   4.534
 8207SOL     OW25519   2.923   5.932   6.745
 8207SOL    HW125520   2.978   5.923   6.828
 8207SOL    HW225521   2.983   5.951   6.667
 8208SOL     OW25522   1.255   5.265   6.284
 8208SOL    HW125523   1.343   5.217   6.287
 8208SOL    HW225524   1.184   5.206   6.323
 8209SOL     OW25525   1.098   5.752   5.400
 8209SOL    HW125526   1.096   5.838   5.348
 8209SOL    HW225527   1.060   5.767   5.491
 8210SOL     OW25528   2.694   1.598   0.251
 8210SOL    HW125529   2.780   1.595   0.300
 8210SOL    HW225530   2.636   1.669   0.289
 8211SOL     OW25531   3.032   3.429   4.510
 8211SOL    HW125532   3.101   3.360   4.485
 8211SOL    HW225533   2.998   3.410   4.602
 8212SOL     OW25534   3.760   6.229   0.871
 8212SOL    HW125535   3.774   6.144   0.821
 8212SOL    HW225536   3.681   6.278   0.832
 8213SOL     OW25537   4.577   4.492   1.797
 8213SOL    HW125538   4.545   4.407   1.840
 8213SOL    HW225539   4.665   4.519   1.836
 8214SOL     OW25540   4.224   5.456   3.205
 8214SOL    HW125541   4.133   5.471   3.243
 8214SOL    HW225542   4.293   5.485   3.271
 8215SOL     OW25543   2.352   5.944   6.176
 8215SOL    HW125544   2.282   6.015   6.174
 8215SOL    HW225545   2.399   5.947   6.265
 8216SOL     OW25546   5.454   5.170   1.549
 8216SOL    HW125547   5.544   5.213   1.546
 8216SOL    HW225548   5.397   5.208   1.476
 8217SOL     OW25549   2.611   6.359   3.832
 8217SOL    HW125550   2.571   6.449   3.815
 8217SOL    HW225551   2.704   6.370   3.867
 8218SOL     OW25552   2.159   5.701   5.069
 8218SOL    HW125553   2.257   5.687   5.075
 8218SOL    HW225554   2.141   5.797   5.045
 8219SOL     OW25555   4.268   3.301   1.852
 8219SOL    HW125556   4.340   3.327   1.788
 8219SOL    HW225557   4.279   3.205   1.878
 8220SOL     OW25558   3.237   4.022   5.154
 8220SOL    HW125559   3.241   4.090   5.228
 8220SOL    HW225560   3.231   3.931   5.193
 8221SOL     OW25561   6.131   3.702   3.635
 8221SOL    HW125562   6.092   3.779   3.686
 8221SOL    HW225563   6.218   3.675   3.677
 8222SOL     OW25564   6.590   2.771   0.009
 8222SOL    HW125565   6.675   2.732   0.045
 8222SOL    HW225566   6.575   2.738   6.938
 8223SOL     OW25567   2.430   6.357   6.049
 8223SOL    HW125568   2.429   6.303   5.964
 8223SOL    HW225569   2.468   6.301   6.123
 8224SOL     OW25570   4.947   1.225   0.113
 8224SOL    HW125571   4.848   1.233   0.124
 8224SOL    HW225572   4.972   1.130   0.098
 8225SOL     OW25573   5.459   2.590   6.857
 8225SOL    HW125574   5.493   2.496   6.866
 8225SOL    HW225575   5.521   2.653   6.904
 8226SOL     OW25576   4.102   0.594   0.301
 8226SOL    HW125577   4.037   0.670   0.299
 8226SOL    HW225578   4.091   0.538   0.219
 8227SOL     OW25579   4.341   2.387   2.621
 8227SOL    HW125580   4.315   2.461   2.559
 8227SOL    HW225581   4.272   2.315   2.617
 8228SOL     OW25582   2.815   6.939   4.223
 8228SOL    HW125583   2.821   6.923   4.321
 8228SOL    HW225584   2.868   6.869   4.174
 8229SOL     OW25585   4.596   4.735   0.987
 8229SOL    HW125586   4.666   4.797   0.953
 8229SOL    HW225587   4.620   4.641   0.961
 8230SOL     OW25588   6.244   0.349   5.985
 8230SOL    HW125589   6.218   0.434   5.940
 8230SOL    HW225590   6.201   0.344   6.075
 8231SOL     OW25591   3.211   0.980   2.310
 8231SOL    HW125592   3.168   0.902   2.265
 8231SOL    HW225593   3.167   1.065   2.281
 8232SOL     OW25594   3.514   6.118   3.406
 8232SOL    HW125595   3.462   6.106   3.321
 8232SOL    HW225596   3.530   6.028   3.448
 8233SOL     OW25597   2.168   1.121   6.590
 8233SOL    HW125598   2.258   1.095   6.625
 8233SOL    HW225599   2.117   1.038   6.566
 8234SOL     OW25600   1.471   2.663   0.774
 8234SOL    HW125601   1.513   2.670   0.865
 8234SOL    HW225602   1.456   2.755   0.737
 8235SOL     OW25603   1.036   1.412   1.389
 8235SOL    HW125604   1.049   1.314   1.373
 8235SOL    HW225605   0.977   1.450   1.318
 8236SOL     OW25606   0.727   0.266   1.980
 8236SOL    HW125607   0.705   0.345   1.923
 8236SOL    HW225608   0.688   0.184   1.939
 8237SOL     OW25609   3.880   4.545   5.542
 8237SOL    HW125610   3.900   4.528   5.446
 8237SOL    HW225611   3.804   4.486   5.571
 8238SOL     OW25612   0.408   5.218   1.247
 8238SOL    HW125613   0.447   5.234   1.337
 8238SOL    HW225614   0.467   5.259   1.177
 8239SOL     OW25615   2.836   1.301   6.045
 8239SOL    HW125616   2.779   1.377   6.016
 8239SOL    HW225617   2.846   1.236   5.970
 8240SOL     OW25618   3.866   3.032   4.507
 8240SOL    HW125619   3.790   3.015   4.445
 8240SOL    HW225620   3.853   2.977   4.591
 8241SOL     OW25621   2.017   3.522   6.070
 8241SOL    HW125622   1.977   3.558   5.986
 8241SOL    HW225623   1.949   3.525   6.143
 8242SOL     OW25624   0.707   2.894   2.286
 8242SOL    HW125625   0.632   2.867   2.347
 8242SOL    HW225626   0.675   2.895   2.192
 8243SOL     OW25627   1.002   6.454   3.717
 8243SOL    HW125628   1.009   6.540   3.666
 8243SOL    HW225629   0.972   6.382   3.655
 8244SOL     OW25630   6.940   1.287   3.250
 8244SOL    HW125631   6.961   1.213   3.186
 8244SOL    HW225632   6.987   1.269   3.337
 8245SOL     OW25633   5.089   2.796   2.767
 8245SOL    HW125634   5.154   2.862   2.805
 8245SOL    HW225635   5.131   2.706   2.764
 8246SOL     OW25636   1.708   5.030   6.803
 8246SOL    HW125637   1.610   5.013   6.790
 8246SOL    HW225638   1.721   5.088   6.884
 8247SOL     OW25639   2.861   5.254   3.428
 8247SOL    HW125640   2.783   5.274   3.486
 8247SOL    HW225641   2.858   5.158   3.399
 8248SOL     OW25642   6.681   5.503   3.992
 8248SOL    HW125643   6.635   5.574   3.939
 8248SOL    HW225644   6.699   5.536   4.085
 8249SOL     OW25645   3.550   1.002   6.956
 8249SOL    HW125646   3.563   1.044   6.866
 8249SOL    HW225647   3.639   0.991   7.001
 8250SOL     OW25648   1.102   2.150   6.368
 8250SOL    HW125649   1.195   2.143   6.331
 8250SOL    HW225650   1.075   2.063   6.408
 8251SOL     OW25651   0.580   2.184   5.124
 8251SOL    HW125652   0.518   2.238   5.068
 8251SOL    HW225653   0.672   2.189   5.086
 8252SOL     OW25654   0.499   2.389   6.345
 8252SOL    HW125655   0.452   2.369   6.259
 8252SOL    HW225656   0.539   2.305   6.382
 8253SOL     OW25657   5.156   4.518   6.388
 8253SOL    HW125658   5.127   4.425   6.408
 8253SOL    HW225659   5.084   4.566   6.338
 8254SOL     OW25660   6.226   5.784   0.141
 8254SOL    HW125661   6.323   5.761   0.129
 8254SOL    HW225662   6.218   5.871   0.189
 8255SOL     OW25663   1.793   0.150   5.830
 8255SOL    HW125664   1.701   0.188   5.842
 8255SOL    HW225665   1.856   0.195   5.893
 8256SOL     OW25666   0.862   5.950   4.528
 8256SOL    HW125667   0.918   5.992   4.599
 8256SOL    HW225668   0.845   6.016   4.455
 8257SOL     OW25669   4.907   3.955   3.447
 8257SOL    HW125670   4.857   3.941   3.532
 8257SOL    HW225671   4.978   4.024   3.461
 8258SOL     OW25672   0.464   2.716   3.632
 8258SOL    HW125673   0.391   2.780   3.609
 8258SOL    HW225674   0.485   2.658   3.554
 8259SOL     OW25675   5.748   2.215   4.430
 8259SOL    HW125676   5.733   2.310   4.454
 8259SOL    HW225677   5.781   2.209   4.336
 8260SOL     OW25678   5.090   3.036   0.583
 8260SOL    HW125679   5.146   2.956   0.563
 8260SOL    HW225680   5.137   3.095   0.648
 8261SOL     OW25681   6.242   1.120   2.517
 8261SOL    HW125682   6.273   1.052   2.450
 8261SOL    HW225683   6.248   1.082   2.609
 8262SOL     OW25684   5.237   4.151   2.191
 8262SOL    HW125685   5.258   4.125   2.285
 8262SOL    HW225686   5.314   4.128   2.132
 8263SOL     OW25687   6.907   1.794   6.000
 8263SOL    HW125688   6.863   1.882   6.017
 8263SOL    HW225689   6.987   1.807   5.942
 8264SOL     OW25690   3.080   0.395   2.059
 8264SOL    HW125691   3.132   0.433   1.983
 8264SOL    HW225692   3.124   0.419   2.146
 8265SOL     OW25693   4.633   5.492   0.361
 8265SOL    HW125694   4.573   5.540   0.296
 8265SOL    HW225695   4.581   5.468   0.443
 8266SOL     OW25696   3.588   1.089   3.641
 8266SOL    HW125697   3.620   0.996   3.659
 8266SOL    HW225698   3.649   1.135   3.577
 8267SOL     OW25699   1.709   2.450   3.467
 8267SOL    HW125700   1.633   2.511   3.489
 8267SOL    HW225701   1.682   2.389   3.392
 8268SOL     OW25702   3.114   4.705   6.782
 8268SOL    HW125703   3.096   4.802   6.761
 8268SOL    HW225704   3.143   4.658   6.699
 8269SOL     OW25705   6.134   2.364   5.108
 8269SOL    HW125706   6.232   2.343   5.116
 8269SOL    HW225707   6.090   2.297   5.049
 8270SOL     OW25708   4.576   5.310   0.002
 8270SOL    HW125709   4.494   5.292   0.056
 8270SOL    HW225710   4.583   5.408   7.006
 8271SOL     OW25711   3.199   6.641   6.183
 8271SOL    HW125712   3.203   6.719   6.121
 8271SOL    HW225713   3.127   6.657   6.251
 8272SOL     OW25714   0.837   0.428   2.217
 8272SOL    HW125715   0.777   0.362   2.172
 8272SOL    HW225716   0.789   0.471   2.293
 8273SOL     OW25717   3.587   0.191   6.808
 8273SOL    HW125718   3.612   0.104   6.765
 8273SOL    HW225719   3.670   0.245   6.823
 8274SOL     OW25720   5.331   5.955   5.653
 8274SOL    HW125721   5.374   5.900   5.725
 8274SOL    HW225722   5.402   6.000   5.598
 8275SOL     OW25723   5.356   1.223   4.946
 8275SOL    HW125724   5.305   1.293   4.996
 8275SOL    HW225725   5.368   1.143   5.004
 8276SOL     OW25726   6.362   2.009   6.795
 8276SOL    HW125727   6.266   2.032   6.785
 8276SOL    HW225728   6.418   2.088   6.771
 8277SOL     OW25729   1.617   6.677   1.140
 8277SOL    HW125730   1.572   6.722   1.217
 8277SOL    HW225731   1.549   6.650   1.072
 8278SOL     OW25732   2.247   1.215   1.045
 8278SOL    HW125733   2.317   1.168   1.100
 8278SOL    HW225734   2.242   1.173   0.955
 8279SOL     OW25735   4.441   6.034   5.747
 8279SOL    HW125736   4.435   6.133   5.733
 8279SOL    HW225737   4.522   5.998   5.699
 8280SOL     OW25738   5.211   4.021   0.031
 8280SOL    HW125739   5.138   4.067   0.082
 8280SOL    HW225740   5.210   4.054   6.959
 8281SOL     OW25741   2.722   5.700   6.351
 8281SOL    HW125742   2.648   5.682   6.287
 8281SOL    HW225743   2.713   5.793   6.388
 8282SOL     OW25744   3.126   3.049   2.076
 8282SOL    HW125745   3.177   2.963   2.084
 8282SOL    HW225746   3.093   3.059   1.982
 8283SOL     OW25747   0.442   0.190   3.458
 8283SOL    HW125748   0.502   0.132   3.403
 8283SOL    HW225749   0.445   0.283   3.423
 8284SOL     OW25750   4.499   1.732   1.731
 8284SOL    HW125751   4.454   1.644   1.717
 8284SOL    HW225752   4.445   1.789   1.793
 8285SOL     OW25753   1.296   4.390   0.508
 8285SOL    HW125754   1.262   4.296   0.515
 8285SOL    HW225755   1.395   4.391   0.520
 8286SOL     OW25756   6.569   2.551   6.130
 8286SOL    HW125757   6.596   2.487   6.057
 8286SOL    HW225758   6.617   2.638   6.117
 8287SOL     OW25759   1.574   1.324   3.326
 8287SOL    HW125760   1.587   1.225   3.320
 8287SOL    HW225761   1.602   1.356   3.416
 8288SOL     OW25762   1.833   0.620   3.000
 8288SOL    HW125763   1.755   0.564   3.026
 8288SOL    HW225764   1.917   0.568   3.013
 8289SOL     OW25765   5.775   0.201   0.018
 8289SOL    HW125766   5.696   0.160   6.994
 8289SOL    HW225767   5.859   0.156   7.009
 8290SOL     OW25768   4.553   2.568   1.972
 8290SOL    HW125769   4.628   2.556   2.038
 8290SOL    HW225770   4.580   2.635   1.904
 8291SOL     OW25771   4.868   6.127   6.589
 8291SOL    HW125772   4.902   6.128   6.495
 8291SOL    HW225773   4.771   6.104   6.590
 8292SOL     OW25774   0.491   3.037   5.514
 8292SOL    HW125775   0.441   3.007   5.595
 8292SOL    HW225776   0.546   3.117   5.536
 8293SOL     OW25777   2.751   5.509   4.464
 8293SOL    HW125778   2.658   5.489   4.434
 8293SOL    HW225779   2.815   5.488   4.391
 8294SOL     OW25780   5.526   3.725   5.398
 8294SOL    HW125781   5.501   3.650   5.459
 8294SOL    HW225782   5.482   3.809   5.429
 8295SOL     OW25783   4.561   4.914   2.839
 8295SOL    HW125784   4.632   4.912   2.768
 8295SOL    HW225785   4.526   4.822   2.853
 8296SOL     OW25786   3.858   0.215   2.266
 8296SOL    HW125787   3.884   0.310   2.245
 8296SOL    HW225788   3.829   0.209   2.362
 8297SOL     OW25789   5.584   4.303   2.449
 8297SOL    HW125790   5.594   4.283   2.546
 8297SOL    HW225791   5.488   4.299   2.424
 8298SOL     OW25792   6.678   0.043   0.418
 8298SOL    HW125793   6.660   0.135   0.453
 8298SOL    HW225794   6.774   0.036   0.390
 8299SOL     OW25795   1.208   3.371   6.860
 8299SOL    HW125796   1.137   3.303   6.881
 8299SOL    HW225797   1.275   3.372   6.934
 8300SOL     OW25798   6.089   4.999   4.073
 8300SOL    HW125799   5.996   4.985   4.107
 8300SOL    HW225800   6.152   4.940   4.123
 8301SOL     OW25801   6.147   6.180   0.100
 8301SOL    HW125802   6.059   6.200   0.143
 8301SOL    HW225803   6.211   6.254   0.120
 8302SOL     OW25804   3.942   6.600   5.191
 8302SOL    HW125805   3.953   6.609   5.092
 8302SOL    HW225806   4.023   6.558   5.230
 8303SOL     OW25807   0.265   4.981   3.373
 8303SOL    HW125808   0.224   4.938   3.454
 8303SOL    HW225809   0.356   5.017   3.397
 8304SOL     OW25810   6.193   3.089   3.499
 8304SOL    HW125811   6.248   3.156   3.549
 8304SOL    HW225812   6.244   3.003   3.491
 8305SOL     OW25813   4.839   0.216   5.894
 8305SOL    HW125814   4.866   0.124   5.920
 8305SOL    HW225815   4.743   0.231   5.916
 8306SOL     OW25816   6.361   1.020   4.130
 8306SOL    HW125817   6.460   1.026   4.120
 8306SOL    HW225818   6.317   1.051   4.045
 8307SOL     OW25819   1.324   3.717   3.402
 8307SOL    HW125820   1.398   3.775   3.436
 8307SOL    HW225821   1.256   3.774   3.355
 8308SOL     OW25822   1.316   5.197   0.654
 8308SOL    HW125823   1.220   5.203   0.679
 8308SOL    HW225824   1.350   5.288   0.629
 8309SOL     OW25825   6.238   5.175   4.290
 8309SOL    HW125826   6.292   5.230   4.227
 8309SOL    HW225827   6.141   5.191   4.275
 8310SOL     OW25828   2.808   0.210   2.861
 8310SOL    HW125829   2.812   0.224   2.960
 8310SOL    HW225830   2.873   0.139   2.835
 8311SOL     OW25831   4.201   5.785   3.132
 8311SOL    HW125832   4.189   5.689   3.158
 8311SOL    HW225833   4.276   5.825   3.185
 8312SOL     OW25834   5.973   2.150   0.567
 8312SOL    HW125835   5.904   2.108   0.509
 8312SOL    HW225836   6.064   2.125   0.533
 8313SOL     OW25837   5.492   2.529   6.131
 8313SOL    HW125838   5.425   2.455   6.138
 8313SOL    HW225839   5.505   2.570   6.221
 8314SOL     OW25840   4.468   5.886   4.299
 8314SOL    HW125841   4.425   5.937   4.225
 8314SOL    HW225842   4.485   5.792   4.269
 8315SOL     OW25843   3.276   3.001   5.450
 8315SOL    HW125844   3.180   2.981   5.467
 8315SOL    HW225845   3.296   2.994   5.353
 8316SOL     OW25846   2.113   1.852   5.259
 8316SOL    HW125847   2.019   1.822   5.244
 8316SOL    HW225848   2.144   1.820   5.349
 8317SOL     OW25849   1.149   1.790   4.066
 8317SOL    HW125850   1.150   1.869   4.128
 8317SOL    HW225851   1.155   1.822   3.971
 8318SOL     OW25852   4.254   6.598   5.912
 8318SOL    HW125853   4.216   6.507   5.894
 8318SOL    HW225854   4.197   6.645   5.978
 8319SOL     OW25855   1.826   5.416   6.198
 8319SOL    HW125856   1.816   5.503   6.151
 8319SOL    HW225857   1.797   5.426   6.293
 8320SOL     OW25858   3.731   3.697   5.467
 8320SOL    HW125859   3.805   3.632   5.451
 8320SOL    HW225860   3.645   3.648   5.477
 8321SOL     OW25861   0.758   0.437   1.075
 8321SOL    HW125862   0.744   0.525   1.029
 8321SOL    HW225863   0.768   0.452   1.173
 8322SOL     OW25864   1.410   0.353   1.110
 8322SOL    HW125865   1.402   0.433   1.169
 8322SOL    HW225866   1.482   0.293   1.145
 8323SOL     OW25867   5.492   4.314   6.539
 8323SOL    HW125868   5.511   4.247   6.611
 8323SOL    HW225869   5.524   4.278   6.452
 8324SOL     OW25870   5.544   6.732   0.302
 8324SOL    HW125871   5.577   6.640   0.322
 8324SOL    HW225872   5.593   6.798   0.360
 8325SOL     OW25873   1.497   6.747   4.865
 8325SOL    HW125874   1.596   6.738   4.876
 8325SOL    HW225875   1.476   6.780   4.773
 8326SOL     OW25876   2.328   2.755   6.533
 8326SOL    HW125877   2.310   2.778   6.629
 8326SOL    HW225878   2.367   2.663   6.528
 8327SOL     OW25879   0.470   6.370   5.005
 8327SOL    HW125880   0.495   6.278   5.036
 8327SOL    HW225881   0.448   6.367   4.908
 8328SOL     OW25882   1.490   6.163   0.451
 8328SOL    HW125883   1.422   6.117   0.393
 8328SOL    HW225884   1.482   6.261   0.439
 8329SOL     OW25885   1.768   2.334   4.987
 8329SOL    HW125886   1.769   2.416   4.930
 8329SOL    HW225887   1.675   2.318   5.020
 8330SOL     OW25888   2.775   6.544   6.997
 8330SOL    HW125889   2.679   6.536   6.968
 8330SOL    HW225890   2.835   6.544   6.917
 8331SOL     OW25891   2.666   2.247   6.342
 8331SOL    HW125892   2.650   2.196   6.258
 8331SOL    HW225893   2.606   2.327   6.345
 8332SOL     OW25894   6.200   4.243   1.472
 8332SOL    HW125895   6.181   4.185   1.551
 8332SOL    HW225896   6.168   4.336   1.491
 8333SOL     OW25897   2.208   4.477   6.749
 8333SOL    HW125898   2.248   4.500   6.661
 8333SOL    HW225899   2.280   4.453   6.814
 8334SOL     OW25900   3.368   2.229   5.331
 8334SOL    HW125901   3.302   2.274   5.271
 8334SOL    HW225902   3.460   2.238   5.292
 8335SOL     OW25903   5.582   4.837   5.574
 8335SOL    HW125904   5.580   4.831   5.474
 8335SOL    HW225905   5.584   4.745   5.613
 8336SOL     OW25906   1.328   3.582   4.019
 8336SOL    HW125907   1.235   3.576   3.983
 8336SOL    HW225908   1.342   3.672   4.061
 8337SOL     OW25909   6.271   1.047   4.518
 8337SOL    HW125910   6.180   1.035   4.559
 8337SOL    HW225911   6.321   0.961   4.522
 8338SOL     OW25912   2.370   5.629   1.030
 8338SOL    HW125913   2.467   5.615   1.051
 8338SOL    HW225914   2.349   5.726   1.034
 8339SOL     OW25915   5.916   0.202   1.712
 8339SOL    HW125916   5.883   0.286   1.668
 8339SOL    HW225917   5.987   0.226   1.779
 8340SOL     OW25918   5.906   2.481   6.280
 8340SOL    HW125919   5.977   2.552   6.285
 8340SOL    HW225920   5.921   2.425   6.198
 8341SOL     OW25921   3.655   1.549   0.828
 8341SOL    HW125922   3.569   1.501   0.811
 8341SOL    HW225923   3.648   1.599   0.915
 8342SOL     OW25924   4.118   0.423   0.505
 8342SOL    HW125925   4.115   0.487   0.428
 8342SOL    HW225926   4.097   0.331   0.473
 8343SOL     OW25927   5.465   4.733   3.196
 8343SOL    HW125928   5.542   4.750   3.134
 8343SOL    HW225929   5.400   4.809   3.191
 8344SOL     OW25930   1.301   4.812   5.788
 8344SOL    HW125931   1.269   4.868   5.712
 8344SOL    HW225932   1.400   4.800   5.781
 8345SOL     OW25933   5.562   0.239   3.736
 8345SOL    HW125934   5.601   0.275   3.821
 8345SOL    HW225935   5.617   0.271   3.659
 8346SOL     OW25936   5.366   3.406   4.345
 8346SOL    HW125937   5.307   3.376   4.270
 8346SOL    HW225938   5.461   3.406   4.315
 8347SOL     OW25939   2.138   1.867   5.950
 8347SOL    HW125940   2.088   1.939   5.903
 8347SOL    HW225941   2.235   1.871   5.924
 8348SOL     OW25942   2.687   5.692   1.693
 8348SOL    HW125943   2.639   5.701   1.780
 8348SOL    HW225944   2.716   5.597   1.681
 8349SOL     OW25945   5.334   6.318   1.979
 8349SOL    HW125946   5.287   6.244   1.930
 8349SOL    HW225947   5.268   6.365   2.038
 8350SOL     OW25948   1.302   0.389   0.626
 8350SOL    HW125949   1.369   0.459   0.602
 8350SOL    HW225950   1.316   0.308   0.569
 8351SOL     OW25951   0.315   2.009   2.992
 8351SOL    HW125952   0.352   2.101   3.004
 8351SOL    HW225953   0.379   1.955   2.937
 8352SOL     OW25954   2.361   6.223   0.000
 8352SOL    HW125955   2.404   6.301   6.977
 8352SOL    HW225956   2.382   6.226   0.098
 8353SOL     OW25957   0.427   5.906   1.928
 8353SOL    HW125958   0.512   5.865   1.895
 8353SOL    HW225959   0.404   5.867   2.017
 8354SOL     OW25960   3.922   1.425   3.498
 8354SOL    HW125961   3.878   1.506   3.460
 8354SOL    HW225962   3.871   1.344   3.471
 8355SOL     OW25963   3.213   5.428   6.407
 8355SOL    HW125964   3.128   5.454   6.361
 8355SOL    HW225965   3.236   5.334   6.383
 8356SOL     OW25966   2.820   4.499   0.944
 8356SOL    HW125967   2.786   4.419   0.894
 8356SOL    HW225968   2.749   4.570   0.945
 8357SOL     OW25969   4.822   0.026   5.476
 8357SOL    HW125970   4.836   6.954   5.445
 8357SOL    HW225971   4.885   0.046   5.551
 8358SOL     OW25972   1.027   0.572   5.892
 8358SOL    HW125973   1.021   0.485   5.943
 8358SOL    HW225974   1.109   0.571   5.835
 8359SOL     OW25975   4.456   1.865   5.837
 8359SOL    HW125976   4.511   1.912   5.905
 8359SOL    HW225977   4.379   1.923   5.810
 8360SOL     OW25978   4.338   0.119   1.173
 8360SOL    HW125979   4.253   0.158   1.138
 8360SOL    HW225980   4.372   0.050   1.108
 8361SOL     OW25981   4.527   1.819   0.102
 8361SOL    HW125982   4.453   1.755   0.082
 8361SOL    HW225983   4.559   1.804   0.196
 8362SOL     OW25984   6.602   3.924   1.367
 8362SOL    HW125985   6.515   3.950   1.411
 8362SOL    HW225986   6.653   4.006   1.343
 8363SOL     OW25987   1.672   2.396   1.349
 8363SOL    HW125988   1.643   2.490   1.330
 8363SOL    HW225989   1.738   2.396   1.424
 8364SOL     OW25990   0.516   1.903   4.451
 8364SOL    HW125991   0.443   1.926   4.387
 8364SOL    HW225992   0.567   1.985   4.475
 8365SOL     OW25993   1.523   2.393   1.670
 8365SOL    HW125994   1.469   2.317   1.634
 8365SOL    HW225995   1.577   2.433   1.596
 8366SOL     OW25996   5.467   4.972   2.070
 8366SOL    HW125997   5.481   4.894   2.132
 8366SOL    HW225998   5.552   4.994   2.023
 8367SOL     OW25999   2.169   4.474   3.768
 8367SOL    HW126000   2.073   4.451   3.752
 8367SOL    HW226001   2.191   4.560   3.721
 8368SOL     OW26002   5.870   5.787   5.663
 8368SOL    HW126003   5.784   5.822   5.700
 8368SOL    HW226004   5.923   5.745   5.737
 8369SOL     OW26005   2.259   6.594   0.650
 8369SOL    HW126006   2.173   6.629   0.614
 8369SOL    HW226007   2.333   6.616   0.586
 8370SOL     OW26008   2.748   3.357   1.029
 8370SOL    HW126009   2.658   3.323   1.059
 8370SOL    HW226010   2.820   3.309   1.079
 8371SOL     OW26011   2.543   3.561   6.415
 8371SOL    HW126012   2.598   3.630   6.369
 8371SOL    HW226013   2.587   3.535   6.501
 8372SOL     OW26014   1.620   6.351   1.167
 8372SOL    HW126015   1.677   6.432   1.184
 8372SOL    HW226016   1.637   6.316   1.075
 8373SOL     OW26017   6.595   1.519   3.820
 8373SOL    HW126018   6.510   1.551   3.862
 8373SOL    HW226019   6.593   1.420   3.811
 8374SOL     OW26020   0.148   0.901   3.872
 8374SOL    HW126021   0.113   0.894   3.778
 8374SOL    HW226022   0.242   0.868   3.874
 8375SOL     OW26023   2.250   1.457   4.925
 8375SOL    HW126024   2.198   1.534   4.963
 8375SOL    HW226025   2.187   1.386   4.895
 8376SOL     OW26026   0.880   1.852   4.069
 8376SOL    HW126027   0.819   1.843   4.148
 8376SOL    HW226028   0.954   1.786   4.077
 8377SOL     OW26029   4.081   5.368   6.681
 8377SOL    HW126030   4.138   5.404   6.607
 8377SOL    HW226031   3.993   5.338   6.643
 8378SOL     OW26032   4.611   6.149   4.715
 8378SOL    HW126033   4.659   6.086   4.777
 8378SOL    HW226034   4.597   6.106   4.627
 8379SOL     OW26035   5.919   1.814   1.643
 8379SOL    HW126036   5.958   1.792   1.554
 8379SOL    HW226037   5.873   1.903   1.638
 8380SOL     OW26038   0.354   6.338   1.496
 8380SOL    HW126039   0.308   6.364   1.411
 8380SOL    HW226040   0.439   6.389   1.505
 8381SOL     OW26041   0.525   1.476   2.944
 8381SOL    HW126042   0.493   1.571   2.943
 8381SOL    HW226043   0.464   1.419   2.891
 8382SOL     OW26044   0.971   0.204   1.463
 8382SOL    HW126045   0.962   0.125   1.524
 8382SOL    HW226046   1.059   0.201   1.417
 8383SOL     OW26047   2.790   6.890   6.089
 8383SOL    HW126048   2.761   6.983   6.111
 8383SOL    HW226049   2.712   6.838   6.055
 8384SOL     OW26050   0.747   3.696   2.844
 8384SOL    HW126051   0.799   3.780   2.825
 8384SOL    HW226052   0.649   3.714   2.834
 8385SOL     OW26053   4.171   2.324   1.793
 8385SOL    HW126054   4.226   2.282   1.721
 8385SOL    HW226055   4.117   2.253   1.840
 8386SOL     OW26056   2.495   5.903   1.718
 8386SOL    HW126057   2.510   5.988   1.770
 8386SOL    HW226058   2.583   5.862   1.695
 8387SOL     OW26059   1.093   1.485   3.741
 8387SOL    HW126060   1.183   1.520   3.768
 8387SOL    HW226061   1.102   1.393   3.703
 8388SOL     OW26062   3.937   5.516   0.689
 8388SOL    HW126063   3.926   5.615   0.700
 8388SOL    HW226064   4.007   5.483   0.752
 8389SOL     OW26065   0.535   2.775   4.347
 8389SOL    HW126066   0.619   2.728   4.372
 8389SOL    HW226067   0.461   2.745   4.407
 8390SOL     OW26068   2.676   0.037   5.851
 8390SOL    HW126069   2.704   0.083   5.935
 8390SOL    HW226070   2.746   0.051   5.780
 8391SOL     OW26071   5.332   5.596   1.019
 8391SOL    HW126072   5.408   5.538   1.048
 8391SOL    HW226073   5.365   5.689   1.003
 8392SOL     OW26074   4.710   6.480   6.982
 8392SOL    HW126075   4.774   6.430   6.924
 8392SOL    HW226076   4.754   6.504   0.046
 8393SOL     OW26077   0.214   4.856   2.858
 8393SOL    HW126078   0.190   4.759   2.858
 8393SOL    HW226079   0.219   4.889   2.952
 8394SOL     OW26080   0.921   1.479   2.653
 8394SOL    HW126081   0.861   1.469   2.573
 8394SOL    HW226082   0.878   1.436   2.732
 8395SOL     OW26083   1.036   6.165   5.580
 8395SOL    HW126084   1.132   6.174   5.552
 8395SOL    HW226085   0.996   6.257   5.587
 8396SOL     OW26086   4.387   2.703   1.582
 8396SOL    HW126087   4.348   2.749   1.502
 8396SOL    HW226088   4.315   2.689   1.650
 8397SOL     OW26089   2.254   4.951   3.677
 8397SOL    HW126090   2.293   4.970   3.767
 8397SOL    HW226091   2.158   4.977   3.676
 8398SOL     OW26092   5.818   1.358   0.166
 8398SOL    HW126093   5.869   1.411   0.233
 8398SOL    HW226094   5.721   1.383   0.170
 8399SOL     OW26095   5.702   5.952   0.287
 8399SOL    HW126096   5.654   6.038   0.272
 8399SOL    HW226097   5.800   5.966   0.276
 8400SOL     OW26098   5.696   6.783   4.466
 8400SOL    HW126099   5.755   6.855   4.501
 8400SOL    HW226100   5.606   6.821   4.444
 8401SOL     OW26101   2.648   4.313   6.085
 8401SOL    HW126102   2.747   4.325   6.097
 8401SOL    HW226103   2.630   4.255   6.006
 8402SOL     OW26104   4.715   1.125   6.175
 8402SOL    HW126105   4.710   1.033   6.136
 8402SOL    HW226106   4.681   1.124   6.269
 8403SOL     OW26107   1.120   2.095   4.939
 8403SOL    HW126108   1.039   2.039   4.954
 8403SOL    HW226109   1.096   2.192   4.952
 8404SOL     OW26110   4.564   5.076   5.204
 8404SOL    HW126111   4.536   5.128   5.123
 8404SOL    HW226112   4.556   5.133   5.285
 8405SOL     OW26113   1.130   2.491   4.614
 8405SOL    HW126114   1.076   2.410   4.590
 8405SOL    HW226115   1.146   2.545   4.532
 8406SOL     OW26116   4.990   3.782   1.293
 8406SOL    HW126117   4.964   3.840   1.370
 8406SOL    HW226118   5.011   3.690   1.325
 8407SOL     OW26119   4.826   3.074   2.566
 8407SOL    HW126120   4.751   3.067   2.632
 8407SOL    HW226121   4.861   3.168   2.567
 8408SOL     OW26122   5.036   4.057   4.179
 8408SOL    HW126123   5.094   4.127   4.222
 8408SOL    HW226124   4.966   4.102   4.124
 8409SOL     OW26125   0.545   1.634   3.957
 8409SOL    HW126126   0.530   1.731   3.976
 8409SOL    HW226127   0.475   1.603   3.892
 8410SOL     OW26128   2.306   6.502   2.499
 8410SOL    HW126129   2.224   6.558   2.490
 8410SOL    HW226130   2.297   6.420   2.443
 8411SOL     OW26131   1.711   2.803   3.431
 8411SOL    HW126132   1.688   2.726   3.492
 8411SOL    HW226133   1.627   2.849   3.402
 8412SOL     OW26134   6.233   2.947   2.423
 8412SOL    HW126135   6.171   2.903   2.358
 8412SOL    HW226136   6.310   2.988   2.374
 8413SOL     OW26137   2.443   4.544   1.583
 8413SOL    HW126138   2.539   4.517   1.584
 8413SOL    HW226139   2.391   4.479   1.527
 8414SOL     OW26140   5.701   0.081   2.747
 8414SOL    HW126141   5.709   0.095   2.648
 8414SOL    HW226142   5.608   0.106   2.776
 8415SOL     OW26143   6.219   3.830   1.764
 8415SOL    HW126144   6.263   3.846   1.852
 8415SOL    HW226145   6.192   3.734   1.757
 8416SOL     OW26146   4.844   4.556   2.292
 8416SOL    HW126147   4.908   4.508   2.350
 8416SOL    HW226148   4.788   4.491   2.241
 8417SOL     OW26149   2.375   5.535   6.378
 8417SOL    HW126150   2.398   5.481   6.297
 8417SOL    HW226151   2.349   5.473   6.452
 8418SOL     OW26152   6.072   5.972   2.896
 8418SOL    HW126153   6.119   5.960   2.809
 8418SOL    HW226154   5.985   5.923   2.893
 8419SOL     OW26155   4.837   0.352   4.029
 8419SOL    HW126156   4.882   0.272   3.991
 8419SOL    HW226157   4.746   0.362   3.989
 8420SOL     OW26158   3.600   1.994   5.741
 8420SOL    HW126159   3.644   2.057   5.677
 8420SOL    HW226160   3.623   2.020   5.835
 8421SOL     OW26161   0.980   6.928   1.434
 8421SOL    HW126162   0.921   6.965   1.506
 8421SOL    HW226163   1.009   6.836   1.459
 8422SOL     OW26164   4.337   0.043   1.433
 8422SOL    HW126165   4.239   0.046   1.449
 8422SOL    HW226166   4.356   0.069   1.338
 8423SOL     OW26167   1.628   3.786   1.473
 8423SOL    HW126168   1.655   3.697   1.509
 8423SOL    HW226169   1.630   3.784   1.373
 8424SOL     OW26170   2.984   2.229   2.353
 8424SOL    HW126171   2.905   2.268   2.400
 8424SOL    HW226172   3.002   2.281   2.269
 8425SOL     OW26173   6.325   4.644   6.643
 8425SOL    HW126174   6.241   4.678   6.600
 8425SOL    HW226175   6.323   4.664   6.741
 8426SOL     OW26176   3.946   3.879   2.448
 8426SOL    HW126177   3.975   3.784   2.454
 8426SOL    HW226178   3.921   3.912   2.538
 8427SOL     OW26179   2.299   2.522   6.385
 8427SOL    HW126180   2.223   2.509   6.449
 8427SOL    HW226181   2.264   2.563   6.300
 8428SOL     OW26182   6.333   4.556   1.820
 8428SOL    HW126183   6.327   4.599   1.910
 8428SOL    HW226184   6.243   4.556   1.777
 8429SOL     OW26185   2.587   6.533   2.946
 8429SOL    HW126186   2.582   6.583   3.033
 8429SOL    HW226187   2.568   6.436   2.962
 8430SOL     OW26188   5.216   4.292   3.112
 8430SOL    HW126189   5.274   4.364   3.150
 8430SOL    HW226190   5.229   4.208   3.165
 8431SOL     OW26191   2.641   3.650   1.758
 8431SOL    HW126192   2.659   3.633   1.661
 8431SOL    HW226193   2.570   3.588   1.790
 8432SOL     OW26194   4.779   6.935   0.328
 8432SOL    HW126195   4.817   6.890   0.409
 8432SOL    HW226196   4.797   0.010   0.332
 8433SOL     OW26197   1.160   1.604   4.496
 8433SOL    HW126198   1.152   1.661   4.578
 8433SOL    HW226199   1.070   1.569   4.469
 8434SOL     OW26200   5.239   6.019   6.479
 8434SOL    HW126201   5.198   6.075   6.551
 8434SOL    HW226202   5.235   6.068   6.392
 8435SOL     OW26203   5.274   2.873   1.702
 8435SOL    HW126204   5.206   2.846   1.635
 8435SOL    HW226205   5.323   2.954   1.670
 8436SOL     OW26206   3.082   4.405   1.665
 8436SOL    HW126207   3.123   4.315   1.646
 8436SOL    HW226208   2.999   4.393   1.719
 8437SOL     OW26209   6.853   1.724   0.999
 8437SOL    HW126210   6.910   1.731   0.917
 8437SOL    HW226211   6.824   1.816   1.027
 8438SOL     OW26212   2.081   6.511   0.967
 8438SOL    HW126213   2.049   6.416   0.965
 8438SOL    HW226214   2.165   6.517   1.020
 8439SOL     OW26215   6.523   0.155   2.219
 8439SOL    HW126216   6.575   0.070   2.218
 8439SOL    HW226217   6.487   0.173   2.127
 8440SOL     OW26218   6.926   2.047   3.960
 8440SOL    HW126219   6.861   2.063   4.035
 8440SOL    HW226220   6.876   2.014   3.880
 8441SOL     OW26221   4.237   5.367   1.807
 8441SOL    HW126222   4.266   5.427   1.881
 8441SOL    HW226223   4.285   5.391   1.723
 8442SOL     OW26224   1.930   3.501   0.253
 8442SOL    HW126225   1.883   3.546   0.329
 8442SOL    HW226226   1.863   3.454   0.196
 8443SOL     OW26227   0.604   2.109   2.109
 8443SOL    HW126228   0.602   2.055   2.193
 8443SOL    HW226229   0.677   2.178   2.114
 8444SOL     OW26230   4.655   0.770   2.655
 8444SOL    HW126231   4.727   0.798   2.718
 8444SOL    HW226232   4.577   0.832   2.665
 8445SOL     OW26233   4.417   5.705   1.750
 8445SOL    HW126234   4.376   5.751   1.829
 8445SOL    HW226235   4.412   5.766   1.670
 8446SOL     OW26236   6.783   4.498   3.316
 8446SOL    HW126237   6.734   4.429   3.368
 8446SOL    HW226238   6.733   4.585   3.320
 8447SOL     OW26239   4.574   3.295   1.320
 8447SOL    HW126240   4.549   3.290   1.223
 8447SOL    HW226241   4.620   3.382   1.339
 8448SOL     OW26242   1.563   2.679   5.529
 8448SOL    HW126243   1.568   2.586   5.494
 8448SOL    HW226244   1.656   2.716   5.537
 8449SOL     OW26245   1.242   1.538   5.046
 8449SOL    HW126246   1.217   1.545   5.142
 8449SOL    HW226247   1.255   1.630   5.009
 8450SOL     OW26248   2.459   5.380   1.698
 8450SOL    HW126249   2.403   5.339   1.626
 8450SOL    HW226250   2.556   5.373   1.673
 8451SOL     OW26251   4.382   3.137   0.516
 8451SOL    HW126252   4.290   3.120   0.554
 8451SOL    HW226253   4.383   3.108   0.420
 8452SOL     OW26254   6.858   5.515   1.085
 8452SOL    HW126255   6.798   5.494   1.162
 8452SOL    HW226256   6.909   5.432   1.060
 8453SOL     OW26257   6.544   5.300   5.286
 8453SOL    HW126258   6.564   5.386   5.239
 8453SOL    HW226259   6.455   5.266   5.258
 8454SOL     OW26260   1.995   6.261   4.907
 8454SOL    HW126261   2.073   6.320   4.929
 8454SOL    HW226262   1.997   6.237   4.810
 8455SOL     OW26263   6.125   2.613   0.390
 8455SOL    HW126264   6.048   2.583   0.447
 8455SOL    HW226265   6.162   2.698   0.427
 8456SOL     OW26266   5.390   5.661   3.233
 8456SOL    HW126267   5.438   5.613   3.159
 8456SOL    HW226268   5.295   5.631   3.235
 8457SOL     OW26269   6.130   6.035   6.671
 8457SOL    HW126270   6.217   5.993   6.643
 8457SOL    HW226271   6.132   6.052   6.770
 8458SOL     OW26272   1.576   1.913   1.086
 8458SOL    HW126273   1.526   1.904   1.000
 8458SOL    HW226274   1.526   1.868   1.160
 8459SOL     OW26275   3.223   5.934   2.499
 8459SOL    HW126276   3.166   5.853   2.489
 8459SOL    HW226277   3.165   6.016   2.500
 8460SOL     OW26278   3.889   1.266   0.407
 8460SOL    HW126279   3.871   1.338   0.475
 8460SOL    HW226280   3.824   1.191   0.420
 8461SOL     OW26281   5.006   3.636   3.037
 8461SOL    HW126282   4.956   3.658   3.121
 8461SOL    HW226283   5.010   3.537   3.026
 8462SOL     OW26284   2.606   4.384   0.191
 8462SOL    HW126285   2.567   4.305   0.144
 8462SOL    HW226286   2.699   4.399   0.159
 8463SOL     OW26287   6.208   0.643   0.036
 8463SOL    HW126288   6.191   0.547   0.014
 8463SOL    HW226289   6.165   0.665   0.124
 8464SOL     OW26290   6.734   4.107   6.625
 8464SOL    HW126291   6.782   4.019   6.619
 8464SOL    HW226292   6.738   4.140   6.719
 8465SOL     OW26293   4.470   3.340   1.077
 8465SOL    HW126294   4.477   3.434   1.043
 8465SOL    HW226295   4.417   3.284   1.013
 8466SOL     OW26296   0.117   1.158   5.732
 8466SOL    HW126297   0.207   1.132   5.767
 8466SOL    HW226298   0.076   1.226   5.793
 8467SOL     OW26299   3.305   1.552   0.229
 8467SOL    HW126300   3.393   1.560   0.182
 8467SOL    HW226301   3.266   1.643   0.244
 8468SOL     OW26302   5.651   3.344   6.643
 8468SOL    HW126303   5.697   3.396   6.715
 8468SOL    HW226304   5.606   3.264   6.684
 8469SOL     OW26305   3.927   3.368   5.568
 8469SOL    HW126306   3.853   3.307   5.599
 8469SOL    HW226307   4.015   3.325   5.587
 8470SOL     OW26308   1.898   5.240   1.934
 8470SOL    HW126309   1.919   5.296   2.014
 8470SOL    HW226310   1.980   5.188   1.908
 8471SOL     OW26311   4.189   1.628   4.060
 8471SOL    HW126312   4.208   1.683   4.141
 8471SOL    HW226313   4.214   1.533   4.078
 8472SOL     OW26314   6.231   1.979   6.175
 8472SOL    HW126315   6.162   1.917   6.211
 8472SOL    HW226316   6.227   2.066   6.224
 8473SOL     OW26317   4.967   4.914   0.129
 8473SOL    HW126318   4.917   4.979   0.072
 8473SOL    HW226319   5.057   4.895   0.088
 8474SOL     OW26320   3.779   3.853   3.886
 8474SOL    HW126321   3.878   3.854   3.868
 8474SOL    HW226322   3.730   3.887   3.806
 8475SOL     OW26323   6.342   2.333   3.201
 8475SOL    HW126324   6.318   2.374   3.289
 8475SOL    HW226325   6.352   2.406   3.133
 8476SOL     OW26326   5.782   0.927   1.589
 8476SOL    HW126327   5.796   0.918   1.688
 8476SOL    HW226328   5.845   0.995   1.553
 8477SOL     OW26329   5.791   0.016   1.884
 8477SOL    HW126330   5.809   6.943   1.863
 8477SOL    HW226331   5.790   0.070   1.799
 8478SOL     OW26332   0.153   0.227   5.642
 8478SOL    HW126333   0.114   0.187   5.559
 8478SOL    HW226334   0.170   0.154   5.709
 8479SOL     OW26335   0.785   3.220   0.660
 8479SOL    HW126336   0.825   3.140   0.616
 8479SOL    HW226337   0.851   3.295   0.657
 8480SOL     OW26338   4.119   3.800   0.400
 8480SOL    HW126339   4.201   3.749   0.375
 8480SOL    HW226340   4.130   3.839   0.492
 8481SOL     OW26341   4.392   2.416   3.309
 8481SOL    HW126342   4.444   2.490   3.266
 8481SOL    HW226343   4.334   2.372   3.241
 8482SOL     OW26344   4.227   0.936   0.336
 8482SOL    HW126345   4.185   1.009   0.390
 8482SOL    HW226346   4.316   0.967   0.302
 8483SOL     OW26347   3.840   4.988   3.038
 8483SOL    HW126348   3.793   5.044   3.107
 8483SOL    HW226349   3.849   5.041   2.953
 8484SOL     OW26350   5.235   5.857   5.075
 8484SOL    HW126351   5.195   5.844   4.984
 8484SOL    HW226352   5.324   5.812   5.078
 8485SOL     OW26353   3.467   1.984   0.284
 8485SOL    HW126354   3.562   1.983   0.253
 8485SOL    HW226355   3.461   2.029   0.373
 8486SOL     OW26356   6.117   2.353   3.681
 8486SOL    HW126357   6.094   2.371   3.776
 8486SOL    HW226358   6.145   2.257   3.671
 8487SOL     OW26359   0.100   1.686   6.469
 8487SOL    HW126360   0.002   1.673   6.485
 8487SOL    HW226361   0.142   1.722   6.553
 8488SOL     OW26362   4.824   5.544   2.059
 8488SOL    HW126363   4.832   5.445   2.060
 8488SOL    HW226364   4.754   5.572   2.125
 8489SOL     OW26365   6.067   2.189   1.657
 8489SOL    HW126366   5.980   2.140   1.648
 8489SOL    HW226367   6.071   2.234   1.746
 8490SOL     OW26368   3.213   0.476   6.610
 8490SOL    HW126369   3.204   0.561   6.662
 8490SOL    HW226370   3.238   0.402   6.672
 8491SOL     OW26371   3.035   5.642   1.714
 8491SOL    HW126372   2.975   5.616   1.638
 8491SOL    HW226373   3.001   5.725   1.757
 8492SOL     OW26374   6.201   6.788   4.850
 8492SOL    HW126375   6.281   6.740   4.886
 8492SOL    HW226376   6.137   6.807   4.925
 8493SOL     OW26377   5.317   1.367   6.524
 8493SOL    HW126378   5.363   1.323   6.601
 8493SOL    HW226379   5.277   1.296   6.465
 8494SOL     OW26380   6.771   3.565   2.227
 8494SOL    HW126381   6.827   3.549   2.146
 8494SOL    HW226382   6.790   3.656   2.264
 8495SOL     OW26383   6.421   5.080   6.000
 8495SOL    HW126384   6.362   5.050   5.925
 8495SOL    HW226385   6.387   5.045   6.086
 8496SOL     OW26386   5.102   2.642   2.292
 8496SOL    HW126387   5.051   2.723   2.320
 8496SOL    HW226388   5.067   2.562   2.340
 8497SOL     OW26389   6.494   0.483   3.602
 8497SOL    HW126390   6.474   0.547   3.528
 8497SOL    HW226391   6.569   0.423   3.576
 8498SOL     OW26392   5.032   0.128   3.922
 8498SOL    HW126393   4.973   0.110   3.843
 8498SOL    HW226394   5.121   0.085   3.908
 8499SOL     OW26395   5.980   6.760   5.466
 8499SOL    HW126396   5.936   6.717   5.544
 8499SOL    HW226397   5.987   6.859   5.483
 8500SOL     OW26398   1.040   0.648   6.492
 8500SOL    HW126399   0.994   0.717   6.548
 8500SOL    HW226400   0.972   0.598   6.439
 8501SOL     OW26401   1.910   1.277   6.583
 8501SOL    HW126402   1.996   1.228   6.579
 8501SOL    HW226403   1.928   1.376   6.584
 8502SOL     OW26404   0.186   3.888   6.945
 8502SOL    HW126405   0.132   3.949   7.003
 8502SOL    HW226406   0.131   3.808   6.919
 8503SOL     OW26407   4.730   1.697   5.309
 8503SOL    HW126408   4.777   1.668   5.393
 8503SOL    HW226409   4.797   1.731   5.243
 8504SOL     OW26410   1.466   0.453   2.406
 8504SOL    HW126411   1.371   0.464   2.376
 8504SOL    HW226412   1.491   0.356   2.402
 8505SOL     OW26413   5.698   2.937   2.490
 8505SOL    HW126414   5.715   2.865   2.557
 8505SOL    HW226415   5.682   2.895   2.400
 8506SOL     OW26416   1.885   0.516   6.146
 8506SOL    HW126417   1.820   0.591   6.161
 8506SOL    HW226418   1.977   0.553   6.137
 8507SOL     OW26419   2.979   6.117   5.366
 8507SOL    HW126420   3.015   6.171   5.442
 8507SOL    HW226421   2.919   6.174   5.310
 8508SOL     OW26422   2.663   1.537   7.016
 8508SOL    HW126423   2.684   1.562   0.088
 8508SOL    HW226424   2.726   1.585   6.954
 8509SOL     OW26425   5.930   2.029   2.565
 8509SOL    HW126426   5.877   1.957   2.609
 8509SOL    HW226427   5.995   1.988   2.500
 8510SOL     OW26428   0.266   1.468   4.473
 8510SOL    HW126429   0.334   1.396   4.481
 8510SOL    HW226430   0.307   1.556   4.496
 8511SOL     OW26431   5.482   2.052   3.053
 8511SOL    HW126432   5.533   2.133   3.027
 8511SOL    HW226433   5.502   1.977   2.989
 8512SOL     OW26434   2.190   6.579   5.887
 8512SOL    HW126435   2.163   6.640   5.812
 8512SOL    HW226436   2.264   6.519   5.856
 8513SOL     OW26437   5.506   6.169   0.314
 8513SOL    HW126438   5.540   6.259   0.287
 8513SOL    HW226439   5.421   6.150   0.266
 8514SOL     OW26440   3.573   6.528   3.752
 8514SOL    HW126441   3.608   6.579   3.831
 8514SOL    HW226442   3.508   6.458   3.784
 8515SOL     OW26443   5.787   2.342   0.522
 8515SOL    HW126444   5.737   2.369   0.604
 8515SOL    HW226445   5.863   2.282   0.547
 8516SOL     OW26446   6.841   1.965   2.118
 8516SOL    HW126447   6.836   2.047   2.175
 8516SOL    HW226448   6.748   1.931   2.101
 8517SOL     OW26449   1.168   4.034   0.282
 8517SOL    HW126450   1.131   4.097   0.213
 8517SOL    HW226451   1.231   3.970   0.238
 8518SOL     OW26452   2.877   5.698   0.569
 8518SOL    HW126453   2.804   5.635   0.542
 8518SOL    HW226454   2.905   5.679   0.663
 8519SOL     OW26455   2.625   5.970   3.357
 8519SOL    HW126456   2.596   6.066   3.353
 8519SOL    HW226457   2.544   5.911   3.356
 8520SOL     OW26458   3.333   0.348   6.849
 8520SOL    HW126459   3.369   0.428   6.897
 8520SOL    HW226460   3.406   0.281   6.837
 8521SOL     OW26461   1.161   0.612   1.335
 8521SOL    HW126462   1.171   0.549   1.257
 8521SOL    HW226463   1.067   0.644   1.339
 8522SOL     OW26464   1.970   6.459   4.451
 8522SOL    HW126465   1.930   6.378   4.409
 8522SOL    HW226466   1.989   6.527   4.380
 8523SOL     OW26467   1.085   6.607   0.025
 8523SOL    HW126468   1.089   6.680   0.094
 8523SOL    HW226469   1.090   6.648   6.957
 8524SOL     OW26470   1.413   1.458   6.789
 8524SOL    HW126471   1.512   1.461   6.792
 8524SOL    HW226472   1.383   1.415   6.703
 8525SOL     OW26473   5.304   3.354   3.627
 8525SOL    HW126474   5.313   3.364   3.528
 8525SOL    HW226475   5.219   3.305   3.648
 8526SOL     OW26476   1.811   3.192   2.207
 8526SOL    HW126477   1.827   3.097   2.236
 8526SOL    HW226478   1.786   3.193   2.110
 8527SOL     OW26479   4.331   0.847   3.865
 8527SOL    HW126480   4.237   0.872   3.885
 8527SOL    HW226481   4.383   0.840   3.951
 8528SOL     OW26482   5.152   1.943   0.199
 8528SOL    HW126483   5.129   1.871   0.265
 8528SOL    HW226484   5.081   1.946   0.127
 8529SOL     OW26485   0.069   5.375   6.179
 8529SOL    HW126486   0.154   5.325   6.192
 8529SOL    HW226487   0.047   5.426   6.263
 8530SOL     OW26488   1.712   4.438   6.388
 8530SOL    HW126489   1.697   4.458   6.291
 8530SOL    HW226490   1.806   4.462   6.413
 8531SOL     OW26491   3.948   4.906   1.951
 8531SOL    HW126492   3.849   4.901   1.966
 8531SOL    HW226493   3.994   4.842   2.013
 8532SOL     OW26494   1.077   3.994   6.899
 8532SOL    HW126495   1.093   3.906   6.943
 8532SOL    HW226496   1.051   4.062   6.968
 8533SOL     OW26497   3.834   6.823   5.887
 8533SOL    HW126498   3.847   6.728   5.916
 8533SOL    HW226499   3.908   6.849   5.825
 8534SOL     OW26500   1.656   2.656   1.984
 8534SOL    HW126501   1.632   2.607   2.067
 8534SOL    HW226502   1.721   2.602   1.931
 8535SOL     OW26503   6.598   3.102   4.947
 8535SOL    HW126504   6.648   3.146   5.022
 8535SOL    HW226505   6.527   3.043   4.985
 8536SOL     OW26506   6.445   1.546   5.121
 8536SOL    HW126507   6.409   1.460   5.087
 8536SOL    HW226508   6.545   1.544   5.118
 8537SOL     OW26509   5.008   6.611   2.905
 8537SOL    HW126510   4.977   6.613   3.000
 8537SOL    HW226511   4.955   6.544   2.854
 8538SOL     OW26512   5.300   0.877   5.622
 8538SOL    HW126513   5.263   0.856   5.712
 8538SOL    HW226514   5.235   0.846   5.552
 8539SOL     OW26515   0.421   2.831   3.078
 8539SOL    HW126516   0.430   2.814   3.176
 8539SOL    HW226517   0.361   2.910   3.064
 8540SOL     OW26518   3.487   6.645   6.894
 8540SOL    HW126519   3.396   6.652   6.936
 8540SOL    HW226520   3.546   6.718   6.930
 8541SOL     OW26521   3.126   6.270   5.152
 8541SOL    HW126522   3.080   6.296   5.237
 8541SOL    HW226523   3.144   6.172   5.153
 8542SOL     OW26524   1.049   5.131   5.631
 8542SOL    HW126525   1.145   5.103   5.626
 8542SOL    HW226526   0.994   5.056   5.667
 8543SOL     OW26527   2.677   2.788   5.479
 8543SOL    HW126528   2.705   2.699   5.514
 8543SOL    HW226529   2.628   2.839   5.550
 8544SOL     OW26530   5.050   5.091   5.411
 8544SOL    HW126531   5.105   5.008   5.403
 8544SOL    HW226532   5.018   5.118   5.320
 8545SOL     OW26533   2.423   6.659   6.450
 8545SOL    HW126534   2.386   6.636   6.360
 8545SOL    HW226535   2.519   6.630   6.455
 8546SOL     OW26536   4.421   1.338   3.248
 8546SOL    HW126537   4.516   1.351   3.218
 8546SOL    HW226538   4.389   1.248   3.218
 8547SOL     OW26539   5.374   6.337   6.016
 8547SOL    HW126540   5.415   6.423   6.045
 8547SOL    HW226541   5.444   6.265   6.017
 8548SOL     OW26542   0.544   4.300   4.610
 8548SOL    HW126543   0.608   4.224   4.625
 8548SOL    HW226544   0.497   4.321   4.695
 8549SOL     OW26545   1.456   0.122   3.891
 8549SOL    HW126546   1.402   0.197   3.852
 8549SOL    HW226547   1.549   0.153   3.908
 8550SOL     OW26548   6.827   5.044   5.686
 8550SOL    HW126549   6.738   5.089   5.676
 8550SOL    HW226550   6.814   4.945   5.688
 8551SOL     OW26551   3.345   0.245   5.266
 8551SOL    HW126552   3.299   0.167   5.308
 8551SOL    HW226553   3.330   0.243   5.167
 8552SOL     OW26554   3.083   1.571   1.931
 8552SOL    HW126555   3.121   1.495   1.878
 8552SOL    HW226556   3.155   1.610   1.989
 8553SOL     OW26557   4.784   3.550   0.664
 8553SOL    HW126558   4.794   3.453   0.689
 8553SOL    HW226559   4.862   3.602   0.699
 8554SOL     OW26560   1.736   0.771   0.559
 8554SOL    HW126561   1.799   0.767   0.637
 8554SOL    HW226562   1.770   0.714   0.485
 8555SOL     OW26563   4.456   1.915   3.934
 8555SOL    HW126564   4.406   1.894   3.851
 8555SOL    HW226565   4.439   2.010   3.961
 8556SOL     OW26566   0.601   5.717   5.842
 8556SOL    HW126567   0.530   5.734   5.910
 8556SOL    HW226568   0.564   5.660   5.768
 8557SOL     OW26569   0.046   0.343   6.671
 8557SOL    HW126570   7.002   0.328   6.743
 8557SOL    HW226571   0.117   0.406   6.703
 8558SOL     OW26572   3.010   5.689   4.417
 8558SOL    HW126573   3.030   5.706   4.513
 8558SOL    HW226574   2.916   5.654   4.408
 8559SOL     OW26575   1.520   4.097   2.514
 8559SOL    HW126576   1.465   4.180   2.504
 8559SOL    HW226577   1.617   4.122   2.524
 8560SOL     OW26578   2.897   4.104   0.930
 8560SOL    HW126579   2.953   4.186   0.946
 8560SOL    HW226580   2.825   4.099   0.999
 8561SOL     OW26581   3.674   0.526   2.963
 8561SOL    HW126582   3.679   0.469   2.881
 8561SOL    HW226583   3.674   0.623   2.936
 8562SOL     OW26584   5.249   2.884   6.953
 8562SOL    HW126585   5.259   2.882   6.854
 8562SOL    HW226586   5.201   2.802   6.984
 8563SOL     OW26587   2.827   5.135   2.739
 8563SOL    HW126588   2.828   5.105   2.644
 8563SOL    HW226589   2.909   5.190   2.757
 8564SOL     OW26590   4.106   6.758   0.982
 8564SOL    HW126591   4.038   6.791   1.047
 8564SOL    HW226592   4.130   6.830   0.918
 8565SOL     OW26593   1.357   4.869   1.417
 8565SOL    HW126594   1.431   4.820   1.465
 8565SOL    HW226595   1.382   4.965   1.408
 8566SOL     OW26596   3.460   0.525   2.600
 8566SOL    HW126597   3.401   0.444   2.601
 8566SOL    HW226598   3.457   0.570   2.689
 8567SOL     OW26599   1.469   2.247   2.330
 8567SOL    HW126600   1.505   2.236   2.237
 8567SOL    HW226601   1.370   2.233   2.328
 8568SOL     OW26602   6.074   0.730   6.201
 8568SOL    HW126603   6.154   0.746   6.259
 8568SOL    HW226604   6.057   0.811   6.145
 8569SOL     OW26605   5.104   2.126   0.390
 8569SOL    HW126606   5.126   2.078   0.305
 8569SOL    HW226607   5.150   2.081   0.466
 8570SOL     OW26608   2.361   2.133   2.224
 8570SOL    HW126609   2.359   2.148   2.323
 8570SOL    HW226610   2.390   2.217   2.179
 8571SOL     OW26611   2.012   0.436   3.049
 8571SOL    HW126612   2.060   0.429   3.136
 8571SOL    HW226613   1.919   0.401   3.059
 8572SOL     OW26614   2.867   4.052   5.607
 8572SOL    HW126615   2.833   4.144   5.586
 8572SOL    HW226616   2.963   4.045   5.579
 8573SOL     OW26617   2.678   5.966   6.424
 8573SOL    HW126618   2.702   6.033   6.353
 8573SOL    HW226619   2.651   6.014   6.507
 8574SOL     OW26620   5.108   0.797   5.463
 8574SOL    HW126621   5.054   0.877   5.435
 8574SOL    HW226622   5.050   0.716   5.465
 8575SOL     OW26623   3.451   5.772   3.939
 8575SOL    HW126624   3.381   5.701   3.942
 8575SOL    HW226625   3.408   5.862   3.935
 8576SOL     OW26626   1.856   4.696   4.112
 8576SOL    HW126627   1.819   4.701   4.205
 8576SOL    HW226628   1.932   4.632   4.109
 8577SOL     OW26629   1.545   0.904   0.740
 8577SOL    HW126630   1.615   0.847   0.697
 8577SOL    HW226631   1.479   0.845   0.787
 8578SOL     OW26632   1.354   0.047   6.629
 8578SOL    HW126633   1.372   0.114   6.701
 8578SOL    HW226634   1.379   0.086   6.540
 8579SOL     OW26635   2.958   6.806   2.467
 8579SOL    HW126636   2.875   6.857   2.487
 8579SOL    HW226637   2.948   6.760   2.379
 8580SOL     OW26638   1.482   0.422   1.912
 8580SOL    HW126639   1.385   0.412   1.933
 8580SOL    HW226640   1.515   0.510   1.948
 8581SOL     OW26641   3.507   4.638   1.311
 8581SOL    HW126642   3.563   4.645   1.229
 8581SOL    HW226643   3.425   4.585   1.291
 8582SOL     OW26644   4.150   5.437   5.513
 8582SOL    HW126645   4.058   5.471   5.494
 8582SOL    HW226646   4.215   5.513   5.510
 8583SOL     OW26647   3.576   6.698   2.833
 8583SOL    HW126648   3.560   6.791   2.866
 8583SOL    HW226649   3.518   6.680   2.754
 8584SOL     OW26650   6.304   1.613   4.453
 8584SOL    HW126651   6.241   1.548   4.497
 8584SOL    HW226652   6.393   1.609   4.499
 8585SOL     OW26653   5.397   2.972   2.557
 8585SOL    HW126654   5.391   2.891   2.498
 8585SOL    HW226655   5.483   2.971   2.607
 8586SOL     OW26656   6.369   5.819   6.218
 8586SOL    HW126657   6.373   5.745   6.150
 8586SOL    HW226658   6.275   5.832   6.248
 8587SOL     OW26659   6.902   1.906   6.934
 8587SOL    HW126660   6.877   1.975   6.865
 8587SOL    HW226661   6.819   1.871   6.978
 8588SOL     OW26662   2.345   0.628   5.532
 8588SOL    HW126663   2.314   0.673   5.616
 8588SOL    HW226664   2.396   0.693   5.475
 8589SOL     OW26665   5.392   2.895   0.302
 8589SOL    HW126666   5.462   2.960   0.274
 8589SOL    HW226667   5.398   2.812   0.247
 8590SOL     OW26668   0.603   0.777   4.176
 8590SOL    HW126669   0.632   0.726   4.257
 8590SOL    HW226670   0.547   0.718   4.118
 8591SOL     OW26671   6.619   4.547   5.739
 8591SOL    HW126672   6.640   4.511   5.830
 8591SOL    HW226673   6.658   4.487   5.669
 8592SOL     OW26674   0.460   1.885   4.039
 8592SOL    HW126675   0.395   1.927   4.102
 8592SOL    HW226676   0.474   1.946   3.961
 8593SOL     OW26677   6.041   1.468   6.984
 8593SOL    HW126678   5.975   1.414   0.014
 8593SOL    HW226679   6.043   1.436   6.890
 8594SOL     OW26680   6.043   3.915   6.550
 8594SOL    HW126681   6.127   3.904   6.496
 8594SOL    HW226682   6.038   4.009   6.585
 8595SOL     OW26683   5.677   6.606   3.078
 8595SOL    HW126684   5.642   6.599   3.172
 8595SOL    HW226685   5.764   6.557   3.072
 8596SOL     OW26686   0.723   1.458   4.078
 8596SOL    HW126687   0.665   1.535   4.052
 8596SOL    HW226688   0.706   1.435   4.174
 8597SOL     OW26689   6.279   2.930   5.998
 8597SOL    HW126690   6.305   2.839   6.031
 8597SOL    HW226691   6.338   2.998   6.042
 8598SOL     OW26692   6.652   0.279   5.384
 8598SOL    HW126693   6.686   0.196   5.340
 8598SOL    HW226694   6.685   0.281   5.479
 8599SOL     OW26695   6.683   3.754   4.203
 8599SOL    HW126696   6.674   3.713   4.294
 8599SOL    HW226697   6.771   3.803   4.197
 8600SOL     OW26698   4.535   2.234   1.219
 8600SOL    HW126699   4.477   2.301   1.174
 8600SOL    HW226700   4.615   2.280   1.259
 8601SOL     OW26701   6.485   6.363   3.701
 8601SOL    HW126702   6.393   6.399   3.718
 8601SOL    HW226703   6.519   6.319   3.784
 8602SOL     OW26704   1.956   6.491   5.987
 8602SOL    HW126705   2.049   6.518   5.963
 8602SOL    HW226706   1.944   6.499   6.086
 8603SOL     OW26707   1.010   0.399   0.132
 8603SOL    HW126708   1.105   0.413   0.103
 8603SOL    HW226709   0.959   0.358   0.057
 8604SOL     OW26710   1.734   4.958   5.995
 8604SOL    HW126711   1.829   4.973   6.022
 8604SOL    HW226712   1.683   5.043   6.005
 8605SOL     OW26713   0.440   5.179   4.425
 8605SOL    HW126714   0.404   5.141   4.340
 8605SOL    HW226715   0.399   5.130   4.503
 8606SOL     OW26716   1.647   2.133   0.269
 8606SOL    HW126717   1.680   2.062   0.331
 8606SOL    HW226718   1.552   2.113   0.243
 8607SOL     OW26719   1.949   3.723   1.211
 8607SOL    HW126720   1.960   3.674   1.298
 8607SOL    HW226721   1.930   3.658   1.138
 8608SOL     OW26722   1.990   6.144   2.885
 8608SOL    HW126723   1.902   6.174   2.923
 8608SOL    HW226724   2.048   6.224   2.870
 8609SOL     OW26725   4.080   1.722   4.721
 8609SOL    HW126726   4.090   1.698   4.624
 8609SOL    HW226727   4.085   1.822   4.731
 8610SOL     OW26728   0.477   6.023   3.215
 8610SOL    HW126729   0.481   6.099   3.280
 8610SOL    HW226730   0.381   6.001   3.195
 8611SOL     OW26731   2.261   1.150   5.162
 8611SOL    HW126732   2.203   1.070   5.145
 8611SOL    HW226733   2.242   1.219   5.093
 8612SOL     OW26734   3.208   3.041   4.251
 8612SOL    HW126735   3.248   2.964   4.201
 8612SOL    HW226736   3.177   3.010   4.340
 8613SOL     OW26737   3.992   3.153   2.752
 8613SOL    HW126738   3.963   3.107   2.668
 8613SOL    HW226739   4.067   3.216   2.731
 8614SOL     OW26740   0.803   2.380   3.070
 8614SOL    HW126741   0.758   2.377   3.159
 8614SOL    HW226742   0.812   2.287   3.034
 8615SOL     OW26743   3.487   1.979   5.412
 8615SOL    HW126744   3.513   1.908   5.347
 8615SOL    HW226745   3.431   2.048   5.366
 8616SOL     OW26746   5.324   4.025   3.567
 8616SOL    HW126747   5.422   4.004   3.569
 8616SOL    HW226748   5.293   4.048   3.659
 8617SOL     OW26749   2.259   0.471   3.504
 8617SOL    HW126750   2.356   0.464   3.478
 8617SOL    HW226751   2.251   0.472   3.603
 8618SOL     OW26752   5.381   4.238   1.320
 8618SOL    HW126753   5.379   4.338   1.331
 8618SOL    HW226754   5.388   4.195   1.410
 8619SOL     OW26755   5.367   5.349   0.653
 8619SOL    HW126756   5.359   5.304   0.564
 8619SOL    HW226757   5.399   5.282   0.721
 8620SOL     OW26758   2.147   0.095   4.297
 8620SOL    HW126759   2.158   7.021   4.273
 8620SOL    HW226760   2.079   0.104   4.370
 8621SOL     OW26761   5.361   3.733   1.295
 8621SOL    HW126762   5.361   3.824   1.253
 8621SOL    HW226763   5.267   3.709   1.322
 8622SOL     OW26764   0.041   5.060   2.428
 8622SOL    HW126765   0.132   5.041   2.390
 8622SOL    HW226766   7.011   5.114   2.363
 8623SOL     OW26767   1.837   2.632   4.020
 8623SOL    HW126768   1.934   2.626   4.039
 8623SOL    HW226769   1.823   2.678   3.932
 8624SOL     OW26770   3.549   3.724   4.884
 8624SOL    HW126771   3.605   3.653   4.839
 8624SOL    HW226772   3.608   3.781   4.941
 8625SOL     OW26773   3.575   2.988   5.477
 8625SOL    HW126774   3.481   2.994   5.445
 8625SOL    HW226775   3.587   2.906   5.533
 8626SOL     OW26776   4.039   2.458   1.286
 8626SOL    HW126777   3.950   2.413   1.270
 8626SOL    HW226778   4.034   2.512   1.370
 8627SOL     OW26779   2.223   1.411   2.392
 8627SOL    HW126780   2.269   1.435   2.306
 8627SOL    HW226781   2.127   1.388   2.373
 8628SOL     OW26782   1.095   6.452   0.816
 8628SOL    HW126783   1.154   6.373   0.799
 8628SOL    HW226784   1.036   6.433   0.895
 8629SOL     OW26785   0.594   6.518   4.762
 8629SOL    HW126786   0.672   6.459   4.742
 8629SOL    HW226787   0.510   6.474   4.732
 8630SOL     OW26788   4.765   2.733   2.153
 8630SOL    HW126789   4.778   2.733   2.252
 8630SOL    HW226790   4.759   2.827   2.120
 8631SOL     OW26791   2.453   5.688   6.119
 8631SOL    HW126792   2.442   5.787   6.126
 8631SOL    HW226793   2.468   5.650   6.210
 8632SOL     OW26794   5.751   5.999   4.045
 8632SOL    HW126795   5.751   6.081   4.102
 8632SOL    HW226796   5.776   5.920   4.101
 8633SOL     OW26797   5.815   3.540   5.104
 8633SOL    HW126798   5.803   3.612   5.173
 8633SOL    HW226799   5.728   3.493   5.090
 8634SOL     OW26800   5.041   4.199   0.159
 8634SOL    HW126801   5.078   4.149   0.237
 8634SOL    HW226802   4.950   4.233   0.181
 8635SOL     OW26803   5.314   2.242   6.826
 8635SOL    HW126804   5.397   2.237   6.771
 8635SOL    HW226805   5.249   2.173   6.795
 8636SOL     OW26806   5.138   6.467   1.722
 8636SOL    HW126807   5.060   6.509   1.769
 8636SOL    HW226808   5.223   6.507   1.756
 8637SOL     OW26809   1.700   1.985   6.083
 8637SOL    HW126810   1.781   1.982   6.141
 8637SOL    HW226811   1.662   1.893   6.074
 8638SOL     OW26812   4.789   3.015   3.694
 8638SOL    HW126813   4.701   2.982   3.661
 8638SOL    HW226814   4.852   3.023   3.617
 8639SOL     OW26815   3.713   3.796   0.044
 8639SOL    HW126816   3.716   3.750   0.133
 8639SOL    HW226817   3.668   3.885   0.055
 8640SOL     OW26818   3.243   2.868   1.122
 8640SOL    HW126819   3.176   2.819   1.067
 8640SOL    HW226820   3.284   2.941   1.067
 8641SOL     OW26821   3.967   4.779   2.184
 8641SOL    HW126822   4.016   4.771   2.271
 8641SOL    HW226823   3.890   4.715   2.183
 8642SOL     OW26824   0.961   5.893   2.925
 8642SOL    HW126825   0.905   5.921   2.846
 8642SOL    HW226826   1.018   5.970   2.954
 8643SOL     OW26827   3.917   6.888   1.219
 8643SOL    HW126828   3.942   6.984   1.223
 8643SOL    HW226829   3.819   6.878   1.240
 8644SOL     OW26830   6.293   2.665   6.076
 8644SOL    HW126831   6.240   2.586   6.046
 8644SOL    HW226832   6.390   2.641   6.083
 8645SOL     OW26833   6.155   5.876   3.308
 8645SOL    HW126834   6.072   5.838   3.351
 8645SOL    HW226835   6.138   5.971   3.282
 8646SOL     OW26836   6.605   2.645   4.792
 8646SOL    HW126837   6.596   2.571   4.859
 8646SOL    HW226838   6.514   2.670   4.758
 8647SOL     OW26839   2.115   5.556   1.812
 8647SOL    HW126840   2.051   5.511   1.750
 8647SOL    HW226841   2.137   5.647   1.777
 8648SOL     OW26842   5.072   5.387   0.204
 8648SOL    HW126843   5.108   5.443   0.280
 8648SOL    HW226844   5.014   5.444   0.146
 8649SOL     OW26845   5.436   1.146   1.218
 8649SOL    HW126846   5.402   1.053   1.226
 8649SOL    HW226847   5.531   1.150   1.250
 8650SOL     OW26848   2.113   6.980   5.642
 8650SOL    HW126849   2.080   6.997   5.550
 8650SOL    HW226850   2.160   0.039   5.677
 8651SOL     OW26851   4.134   2.629   1.670
 8651SOL    HW126852   4.053   2.609   1.614
 8651SOL    HW226853   4.160   2.546   1.719
 8652SOL     OW26854   0.931   2.729   3.261
 8652SOL    HW126855   0.904   2.657   3.326
 8652SOL    HW226856   0.974   2.686   3.181
 8653SOL     OW26857   6.083   1.781   6.312
 8653SOL    HW126858   6.006   1.722   6.335
 8653SOL    HW226859   6.160   1.761   6.373
 8654SOL     OW26860   0.500   4.028   2.148
 8654SOL    HW126861   0.463   3.974   2.224
 8654SOL    HW226862   0.544   3.966   2.083
 8655SOL     OW26863   0.608   0.238   4.704
 8655SOL    HW126864   0.675   0.170   4.733
 8655SOL    HW226865   0.578   0.218   4.611
 8656SOL     OW26866   5.346   6.555   1.276
 8656SOL    HW126867   5.294   6.621   1.330
 8656SOL    HW226868   5.359   6.471   1.330
 8657SOL     OW26869   3.434   2.018   3.811
 8657SOL    HW126870   3.392   1.932   3.840
 8657SOL    HW226871   3.363   2.087   3.795
 8658SOL     OW26872   5.330   4.577   1.373
 8658SOL    HW126873   5.290   4.567   1.464
 8658SOL    HW226874   5.260   4.608   1.309
 8659SOL     OW26875   3.479   0.683   2.064
 8659SOL    HW126876   3.544   0.645   2.130
 8659SOL    HW226877   3.500   0.779   2.048
 8660SOL     OW26878   0.060   4.854   1.977
 8660SOL    HW126879   0.062   4.950   1.949
 8660SOL    HW226880   0.062   4.796   1.895
 8661SOL     OW26881   6.927   3.658   2.512
 8661SOL    HW126882   6.866   3.693   2.583
 8661SOL    HW226883   6.891   3.572   2.477
 8662SOL     OW26884   1.759   2.913   3.014
 8662SOL    HW126885   1.717   2.991   3.061
 8662SOL    HW226886   1.750   2.924   2.915
 8663SOL     OW26887   3.716   4.976   2.652
 8663SOL    HW126888   3.675   5.003   2.565
 8663SOL    HW226889   3.644   4.943   2.714
 8664SOL     OW26890   4.292   6.466   3.451
 8664SOL    HW126891   4.221   6.509   3.506
 8664SOL    HW226892   4.267   6.470   3.354
 8665SOL     OW26893   5.023   3.793   6.524
 8665SOL    HW126894   4.985   3.869   6.576
 8665SOL    HW226895   5.007   3.808   6.426
 8666SOL     OW26896   4.255   6.811   2.732
 8666SOL    HW126897   4.254   6.727   2.678
 8666SOL    HW226898   4.349   6.830   2.762
 8667SOL     OW26899   5.347   2.248   2.671
 8667SOL    HW126900   5.315   2.342   2.653
 8667SOL    HW226901   5.338   2.194   2.587
 8668SOL     OW26902   5.044   2.247   5.167
 8668SOL    HW126903   5.041   2.247   5.267
 8668SOL    HW226904   4.986   2.175   5.132
 8669SOL     OW26905   6.084   6.347   6.217
 8669SOL    HW126906   6.126   6.321   6.130
 8669SOL    HW226907   6.140   6.312   6.292
 8670SOL     OW26908   6.457   4.878   5.267
 8670SOL    HW126909   6.382   4.839   5.322
 8670SOL    HW226910   6.533   4.814   5.265
 8671SOL     OW26911   0.211   3.247   2.840
 8671SOL    HW126912   0.136   3.303   2.876
 8671SOL    HW226913   0.219   3.163   2.895
 8672SOL     OW26914   0.255   0.987   2.334
 8672SOL    HW126915   0.348   0.957   2.355
 8672SOL    HW226916   0.227   1.058   2.399
 8673SOL     OW26917   1.253   1.891   0.981
 8673SOL    HW126918   1.331   1.916   0.923
 8673SOL    HW226919   1.249   1.954   1.058
 8674SOL     OW26920   6.867   3.750   3.200
 8674SOL    HW126921   6.900   3.723   3.109
 8674SOL    HW226922   6.938   3.728   3.268
 8675SOL     OW26923   4.215   2.302   4.848
 8675SOL    HW126924   4.247   2.213   4.881
 8675SOL    HW226925   4.210   2.366   4.925
 8676SOL     OW26926   5.073   1.601   0.640
 8676SOL    HW126927   5.027   1.567   0.557
 8676SOL    HW226928   5.044   1.545   0.718
 8677SOL     OW26929   2.337   6.785   6.029
 8677SOL    HW126930   2.282   6.707   6.002
 8677SOL    HW226931   2.380   6.825   5.947
 8678SOL     OW26932   2.447   2.563   0.273
 8678SOL    HW126933   2.490   2.630   0.334
 8678SOL    HW226934   2.455   2.594   0.178
 8679SOL     OW26935   1.396   1.704   6.082
 8679SOL    HW126936   1.369   1.697   6.178
 8679SOL    HW226937   1.488   1.666   6.071
 8680SOL     OW26938   0.174   0.682   6.984
 8680SOL    HW126939   0.198   0.590   7.015
 8680SOL    HW226940   0.255   0.725   6.943
 8681SOL     OW26941   4.777   5.695   0.816
 8681SOL    HW126942   4.776   5.752   0.734
 8681SOL    HW226943   4.872   5.673   0.839
 8682SOL     OW26944   2.158   0.794   2.210
 8682SOL    HW126945   2.170   0.796   2.110
 8682SOL    HW226946   2.119   0.706   2.236
 8683SOL     OW26947   2.321   4.337   4.462
 8683SOL    HW126948   2.349   4.332   4.558
 8683SOL    HW226949   2.282   4.249   4.434
 8684SOL     OW26950   2.300   4.221   3.826
 8684SOL    HW126951   2.297   4.175   3.915
 8684SOL    HW226952   2.267   4.315   3.835
 8685SOL     OW26953   4.624   2.663   4.585
 8685SOL    HW126954   4.590   2.754   4.607
 8685SOL    HW226955   4.606   2.602   4.662
 8686SOL     OW26956   1.457   5.424   3.257
 8686SOL    HW126957   1.469   5.328   3.230
 8686SOL    HW226958   1.419   5.428   3.349
 8687SOL     OW26959   5.572   4.823   4.874
 8687SOL    HW126960   5.490   4.801   4.926
 8687SOL    HW226961   5.547   4.839   4.778
 8688SOL     OW26962   1.473   3.893   5.166
 8688SOL    HW126963   1.459   3.884   5.265
 8688SOL    HW226964   1.390   3.932   5.125
 8689SOL     OW26965   4.120   3.184   0.477
 8689SOL    HW126966   4.051   3.241   0.522
 8689SOL    HW226967   4.098   3.178   0.379
 8690SOL     OW26968   1.660   1.686   2.407
 8690SOL    HW126969   1.590   1.688   2.335
 8690SOL    HW226970   1.743   1.644   2.371
 8691SOL     OW26971   3.412   2.749   5.878
 8691SOL    HW126972   3.354   2.793   5.809
 8691SOL    HW226973   3.468   2.817   5.923
 8692SOL     OW26974   4.918   2.647   4.587
 8692SOL    HW126975   4.823   2.668   4.563
 8692SOL    HW226976   4.979   2.698   4.526
 8693SOL     OW26977   6.665   6.836   5.903
 8693SOL    HW126978   6.747   6.781   5.890
 8693SOL    HW226979   6.593   6.779   5.942
 8694SOL     OW26980   5.309   2.777   5.375
 8694SOL    HW126981   5.342   2.839   5.446
 8694SOL    HW226982   5.315   2.683   5.409
 8695SOL     OW26983   3.410   4.959   0.799
 8695SOL    HW126984   3.470   4.935   0.875
 8695SOL    HW226985   3.398   5.058   0.796
 8696SOL     OW26986   2.470   5.273   5.763
 8696SOL    HW126987   2.536   5.220   5.816
 8696SOL    HW226988   2.441   5.353   5.816
 8697SOL     OW26989   1.274   3.817   5.454
 8697SOL    HW126990   1.365   3.801   5.494
 8697SOL    HW226991   1.242   3.908   5.481
 8698SOL     OW26992   4.806   4.997   6.488
 8698SOL    HW126993   4.730   4.950   6.533
 8698SOL    HW226994   4.789   5.095   6.489
 8699SOL     OW26995   1.724   2.402   6.993
 8699SOL    HW126996   1.693   2.496   6.982
 8699SOL    HW226997   1.799   2.399   0.036
 8700SOL     OW26998   1.104   1.249   4.528
 8700SOL    HW126999   1.143   1.183   4.592
 8700SOL    HW227000   1.095   1.206   4.438
 8701SOL     OW27001   1.413   3.104   6.778
 8701SOL    HW127002   1.405   3.061   6.868
 8701SOL    HW227003   1.463   3.191   6.788
 8702SOL     OW27004   5.420   4.732   0.947
 8702SOL    HW127005   5.382   4.718   1.039
 8702SOL    HW227006   5.460   4.823   0.941
 8703SOL     OW27007   3.210   5.677   0.891
 8703SOL    HW127008   3.294   5.728   0.873
 8703SOL    HW227009   3.187   5.622   0.812
 8704SOL     OW27010   0.038   0.883   5.051
 8704SOL    HW127011   0.084   0.798   5.028
 8704SOL    HW227012   0.078   0.922   5.133
 8705SOL     OW27013   3.901   2.081   0.066
 8705SOL    HW127014   3.882   2.064   6.992
 8705SOL    HW227015   3.943   2.171   0.077
 8706SOL     OW27016   4.963   2.931   6.567
 8706SOL    HW127017   4.905   2.875   6.627
 8706SOL    HW227018   4.997   3.010   6.618
 8707SOL     OW27019   2.395   1.128   4.204
 8707SOL    HW127020   2.439   1.212   4.175
 8707SOL    HW227021   2.371   1.073   4.124
 8708SOL     OW27022   6.147   2.511   0.694
 8708SOL    HW127023   6.174   2.418   0.718
 8708SOL    HW227024   6.223   2.573   0.713
 8709SOL     OW27025   6.043   6.819   5.076
 8709SOL    HW127026   5.982   6.886   5.118
 8709SOL    HW227027   6.053   6.740   5.136
 8710SOL     OW27028   2.131   1.805   3.341
 8710SOL    HW127029   2.201   1.819   3.271
 8710SOL    HW227030   2.069   1.732   3.312
 8711SOL     OW27031   1.133   1.690   1.869
 8711SOL    HW127032   1.159   1.689   1.773
 8711SOL    HW227033   1.042   1.649   1.879
 8712SOL     OW27034   1.440   4.532   4.573
 8712SOL    HW127035   1.463   4.483   4.657
 8712SOL    HW227036   1.382   4.610   4.594
 8713SOL     OW27037   0.282   3.131   1.204
 8713SOL    HW127038   0.290   3.207   1.268
 8713SOL    HW227039   0.277   3.166   1.110
 8714SOL     OW27040   6.582   4.153   6.409
 8714SOL    HW127041   6.629   4.123   6.492
 8714SOL    HW227042   6.527   4.233   6.429
 8715SOL     OW27043   2.163   4.020   1.581
 8715SOL    HW127044   2.063   4.010   1.584
 8715SOL    HW227045   2.194   4.059   1.668
 8716SOL     OW27046   6.800   0.277   2.599
 8716SOL    HW127047   6.719   0.318   2.639
 8716SOL    HW227048   6.832   0.202   2.657
 8717SOL     OW27049   3.180   3.062   0.312
 8717SOL    HW127050   3.174   3.007   0.229
 8717SOL    HW227051   3.266   3.041   0.360
 8718SOL     OW27052   2.765   5.271   6.306
 8718SOL    HW127053   2.761   5.313   6.216
 8718SOL    HW227054   2.793   5.176   6.297
 8719SOL     OW27055   3.444   0.987   4.428
 8719SOL    HW127056   3.363   1.047   4.425
 8719SOL    HW227057   3.489   0.996   4.517
 8720SOL     OW27058   0.434   5.559   4.535
 8720SOL    HW127059   0.469   5.572   4.627
 8720SOL    HW227060   0.335   5.575   4.534
 8721SOL     OW27061   0.235   6.595   0.199
 8721SOL    HW127062   0.238   6.531   0.122
 8721SOL    HW227063   0.174   6.671   0.176
 8722SOL     OW27064   3.013   1.160   1.175
 8722SOL    HW127065   2.996   1.082   1.116
 8722SOL    HW227066   2.996   1.245   1.125
 8723SOL     OW27067   3.869   6.925   1.951
 8723SOL    HW127068   3.811   6.911   1.871
 8723SOL    HW227069   3.913   6.839   1.976
 8724SOL     OW27070   3.905   1.409   5.138
 8724SOL    HW127071   3.836   1.482   5.141
 8724SOL    HW227072   3.863   1.324   5.107
 8725SOL     OW27073   6.889   0.277   3.782
 8725SOL    HW127074   6.834   0.291   3.699
 8725SOL    HW227075   6.947   0.196   3.770
 8726SOL     OW27076   6.379   1.406   1.117
 8726SOL    HW127077   6.426   1.329   1.072
 8726SOL    HW227078   6.374   1.483   1.053
 8727SOL     OW27079   5.295   6.101   0.156
 8727SOL    HW127080   5.211   6.152   0.139
 8727SOL    HW227081   5.278   6.003   0.145
 8728SOL     OW27082   6.643   0.398   4.859
 8728SOL    HW127083   6.617   0.418   4.953
 8728SOL    HW227084   6.613   0.306   4.834
 8729SOL     OW27085   5.680   5.796   6.496
 8729SOL    HW127086   5.713   5.885   6.468
 8729SOL    HW227087   5.758   5.737   6.518
 8730SOL     OW27088   4.772   5.108   1.229
 8730SOL    HW127089   4.768   5.078   1.325
 8730SOL    HW227090   4.754   5.206   1.224
 8731SOL     OW27091   6.994   1.481   3.925
 8731SOL    HW127092   0.025   1.400   3.902
 8731SOL    HW227093   6.988   1.541   3.845
 8732SOL     OW27094   5.291   6.658   6.559
 8732SOL    HW127095   5.241   6.740   6.583
 8732SOL    HW227096   5.245   6.612   6.483
 8733SOL     OW27097   6.472   4.242   2.385
 8733SOL    HW127098   6.441   4.309   2.317
 8733SOL    HW227099   6.539   4.181   2.344
 8734SOL     OW27100   1.033   4.266   1.062
 8734SOL    HW127101   1.050   4.362   1.084
 8734SOL    HW227102   0.935   4.247   1.068
 8735SOL     OW27103   0.610   3.071   4.964
 8735SOL    HW127104   0.573   3.131   4.893
 8735SOL    HW227105   0.709   3.078   4.965
 8736SOL     OW27106   1.612   5.963   3.044
 8736SOL    HW127107   1.535   5.904   3.070
 8736SOL    HW227108   1.679   5.963   3.118
 8737SOL     OW27109   1.028   5.962   0.176
 8737SOL    HW127110   0.965   5.897   0.132
 8737SOL    HW227111   1.002   6.055   0.152
 8738SOL     OW27112   1.460   2.992   2.760
 8738SOL    HW127113   1.438   2.954   2.849
 8738SOL    HW227114   1.558   2.984   2.742
 8739SOL     OW27115   5.832   4.914   4.139
 8739SOL    HW127116   5.763   4.913   4.066
 8739SOL    HW227117   5.788   4.904   4.227
 8740SOL     OW27118   3.519   1.356   4.096
 8740SOL    HW127119   3.566   1.292   4.036
 8740SOL    HW227120   3.584   1.396   4.161
 8741SOL     OW27121   1.179   1.482   2.757
 8741SOL    HW127122   1.203   1.572   2.794
 8741SOL    HW227123   1.091   1.487   2.711
 8742SOL     OW27124   2.648   2.424   1.797
 8742SOL    HW127125   2.663   2.351   1.730
 8742SOL    HW227126   2.736   2.450   1.837
 8743SOL     OW27127   0.858   2.665   1.082
 8743SOL    HW127128   0.865   2.582   1.138
 8743SOL    HW227129   0.767   2.705   1.094
 8744SOL     OW27130   3.466   3.686   5.588
 8744SOL    HW127131   3.405   3.631   5.646
 8744SOL    HW227132   3.469   3.780   5.624
 8745SOL     OW27133   5.892   1.797   6.012
 8745SOL    HW127134   5.944   1.719   6.046
 8745SOL    HW227135   5.924   1.821   5.921
 8746SOL     OW27136   4.174   4.684   5.380
 8746SOL    HW127137   4.151   4.760   5.440
 8746SOL    HW227138   4.093   4.627   5.365
 8747SOL     OW27139   1.500   0.550   3.274
 8747SOL    HW127140   1.446   0.633   3.290
 8747SOL    HW227141   1.480   0.483   3.345
 8748SOL     OW27142   5.096   1.719   4.409
 8748SOL    HW127143   5.159   1.787   4.372
 8748SOL    HW227144   5.027   1.764   4.465
 8749SOL     OW27145   2.877   1.462   4.365
 8749SOL    HW127146   2.802   1.442   4.302
 8749SOL    HW227147   2.922   1.547   4.338
 8750SOL     OW27148   3.877   4.153   0.970
 8750SOL    HW127149   3.797   4.093   0.983
 8750SOL    HW227150   3.941   4.140   1.045
 8751SOL     OW27151   2.659   6.972   0.295
 8751SOL    HW127152   2.645   6.985   0.197
 8751SOL    HW227153   2.757   6.970   0.315
 8752SOL     OW27154   0.040   2.930   5.417
 8752SOL    HW127155   0.018   2.956   5.511
 8752SOL    HW227156   0.115   2.988   5.383
 8753SOL     OW27157   2.476   2.232   0.699
 8753SOL    HW127158   2.434   2.151   0.740
 8753SOL    HW227159   2.478   2.222   0.599
 8754SOL     OW27160   0.950   5.425   6.867
 8754SOL    HW127161   0.867   5.411   6.921
 8754SOL    HW227162   0.924   5.440   6.771
 8755SOL     OW27163   0.419   2.640   2.239
 8755SOL    HW127164   0.334   2.600   2.273
 8755SOL    HW227165   0.493   2.621   2.303
 8756SOL     OW27166   1.857   1.507   2.309
 8756SOL    HW127167   1.935   1.565   2.286
 8756SOL    HW227168   1.810   1.480   2.225
 8757SOL     OW27169   5.654   6.235   5.699
 8757SOL    HW127170   5.600   6.217   5.782
 8757SOL    HW227171   5.692   6.149   5.665
 8758SOL     OW27172   3.382   5.739   5.555
 8758SOL    HW127173   3.320   5.715   5.629
 8758SOL    HW227174   3.369   5.835   5.531
 8759SOL     OW27175   6.097   1.557   1.507
 8759SOL    HW127176   6.070   1.644   1.467
 8759SOL    HW227177   6.098   1.565   1.607
 8760SOL     OW27178   2.468   2.560   4.250
 8760SOL    HW127179   2.380   2.524   4.222
 8760SOL    HW227180   2.504   2.506   4.325
 8761SOL     OW27181   4.685   1.914   2.722
 8761SOL    HW127182   4.763   1.863   2.686
 8761SOL    HW227183   4.692   1.921   2.822
 8762SOL     OW27184   3.498   5.903   3.592
 8762SOL    HW127185   3.517   5.846   3.672
 8762SOL    HW227186   3.400   5.899   3.571
 8763SOL     OW27187   0.394   0.703   6.645
 8763SOL    HW127188   0.333   0.628   6.671
 8763SOL    HW227189   0.413   0.760   6.724
 8764SOL     OW27190   3.380   4.851   5.852
 8764SOL    HW127191   3.373   4.944   5.889
 8764SOL    HW227192   3.313   4.793   5.896
 8765SOL     OW27193   4.256   0.143   3.651
 8765SOL    HW127194   4.249   0.239   3.680
 8765SOL    HW227195   4.301   0.089   3.722
 8766SOL     OW27196   4.905   6.798   5.392
 8766SOL    HW127197   4.894   6.748   5.307
 8766SOL    HW227198   4.985   6.763   5.441
 8767SOL     OW27199   1.551   1.590   3.286
 8767SOL    HW127200   1.549   1.490   3.297
 8767SOL    HW227201   1.543   1.613   3.189
 8768SOL     OW27202   0.157   2.179   6.537
 8768SOL    HW127203   0.096   2.247   6.578
 8768SOL    HW227204   0.104   2.115   6.482
 8769SOL     OW27205   6.038   6.846   6.578
 8769SOL    HW127206   6.118   6.880   6.529
 8769SOL    HW227207   6.053   6.751   6.606
 8770SOL     OW27208   5.324   2.356   0.269
 8770SOL    HW127209   5.266   2.307   0.204
 8770SOL    HW227210   5.337   2.300   0.351
 8771SOL     OW27211   0.582   2.899   6.824
 8771SOL    HW127212   0.533   2.932   6.904
 8771SOL    HW227213   0.671   2.863   6.851
 8772SOL     OW27214   0.244   0.507   4.796
 8772SOL    HW127215   0.245   0.578   4.726
 8772SOL    HW227216   0.202   0.543   4.880
 8773SOL     OW27217   6.957   0.924   4.040
 8773SOL    HW127218   0.013   0.936   3.979
 8773SOL    HW227219   6.971   0.978   4.123
 8774SOL     OW27220   1.146   1.706   0.074
 8774SOL    HW127221   1.133   1.611   0.100
 8774SOL    HW227222   1.214   1.713   0.001
 8775SOL     OW27223   5.252   2.733   3.676
 8775SOL    HW127224   5.158   2.761   3.656
 8775SOL    HW227225   5.315   2.780   3.615
 8776SOL     OW27226   4.544   2.877   0.805
 8776SOL    HW127227   4.453   2.847   0.834
 8776SOL    HW227228   4.592   2.801   0.761
 8777SOL     OW27229   0.032   1.994   3.555
 8777SOL    HW127230   0.061   1.968   3.462
 8777SOL    HW227231   0.105   1.974   3.619
 8778SOL     OW27232   3.089   4.034   6.729
 8778SOL    HW127233   3.120   3.965   6.795
 8778SOL    HW227234   3.164   4.059   6.669
 8779SOL     OW27235   4.291   4.951   2.725
 8779SOL    HW127236   4.268   4.853   2.721
 8779SOL    HW227237   4.386   4.961   2.756
 8780SOL     OW27238   0.940   4.129   3.591
 8780SOL    HW127239   1.016   4.195   3.590
 8780SOL    HW227240   0.919   4.100   3.498
 8781SOL     OW27241   2.644   0.929   1.262
 8781SOL    HW127242   2.690   1.016   1.281
 8781SOL    HW227243   2.551   0.947   1.229
 8782SOL     OW27244   5.925   2.562   0.549
 8782SOL    HW127245   6.006   2.556   0.606
 8782SOL    HW227246   5.895   2.470   0.524
 8783SOL     OW27247   4.874   4.343   5.046
 8783SOL    HW127248   4.853   4.250   5.016
 8783SOL    HW227249   4.788   4.391   5.067
 8784SOL     OW27250   4.784   0.743   0.268
 8784SOL    HW127251   4.726   0.798   0.327
 8784SOL    HW227252   4.805   0.795   0.185
 8785SOL     OW27253   0.187   5.547   4.939
 8785SOL    HW127254   0.268   5.581   4.892
 8785SOL    HW227255   0.205   5.454   4.973
 8786SOL     OW27256   5.676   1.531   2.697
 8786SOL    HW127257   5.667   1.508   2.794
 8786SOL    HW227258   5.712   1.453   2.647
 8787SOL     OW27259   3.444   5.815   1.491
 8787SOL    HW127260   3.436   5.716   1.487
 8787SOL    HW227261   3.504   5.846   1.417
 8788SOL     OW27262   0.552   6.617   4.156
 8788SOL    HW127263   0.645   6.650   4.136
 8788SOL    HW227264   0.504   6.600   4.071
 8789SOL     OW27265   1.356   2.106   5.928
 8789SOL    HW127266   1.278   2.150   5.885
 8789SOL    HW227267   1.332   2.013   5.955
 8790SOL     OW27268   4.186   2.888   5.469
 8790SOL    HW127269   4.200   2.986   5.482
 8790SOL    HW227270   4.092   2.864   5.493
 8791SOL     OW27271   3.412   6.263   4.562
 8791SOL    HW127272   3.390   6.248   4.465
 8791SOL    HW227273   3.504   6.300   4.570
 8792SOL     OW27274   5.714   4.978   2.396
 8792SOL    HW127275   5.771   5.020   2.468
 8792SOL    HW227276   5.670   5.051   2.342
 8793SOL     OW27277   6.851   6.245   5.184
 8793SOL    HW127278   6.918   6.189   5.136
 8793SOL    HW227279   6.898   6.305   5.249
 8794SOL     OW27280   6.863   1.307   2.647
 8794SOL    HW127281   6.889   1.219   2.606
 8794SOL    HW227282   6.926   1.378   2.616
 8795SOL     OW27283   0.865   6.422   0.076
 8795SOL    HW127284   0.837   6.381   7.012
 8795SOL    HW227285   0.943   6.483   0.060
 8796SOL     OW27286   5.925   3.640   4.413
 8796SOL    HW127287   5.915   3.721   4.470
 8796SOL    HW227288   6.022   3.625   4.392
 8797SOL     OW27289   4.463   6.718   4.400
 8797SOL    HW127290   4.532   6.724   4.472
 8797SOL    HW227291   4.384   6.667   4.434
 8798SOL     OW27292   2.743   6.529   5.982
 8798SOL    HW127293   2.831   6.531   5.934
 8798SOL    HW227294   2.689   6.451   5.950
 8799SOL     OW27295   1.804   5.763   1.859
 8799SOL    HW127296   1.710   5.735   1.837
 8799SOL    HW227297   1.861   5.757   1.778
 8800SOL     OW27298   6.105   6.350   5.110
 8800SOL    HW127299   6.015   6.387   5.090
 8800SOL    HW227300   6.175   6.403   5.062
 8801SOL     OW27301   5.849   3.289   5.310
 8801SOL    HW127302   5.781   3.314   5.241
 8801SOL    HW227303   5.804   3.282   5.399
 8802SOL     OW27304   1.182   5.935   6.560
 8802SOL    HW127305   1.267   5.925   6.508
 8802SOL    HW227306   1.110   5.879   6.518
 8803SOL     OW27307   5.953   6.070   5.886
 8803SOL    HW127308   5.996   6.080   5.796
 8803SOL    HW227309   5.973   5.979   5.923
 8804SOL     OW27310   1.447   5.982   1.589
 8804SOL    HW127311   1.396   5.989   1.504
 8804SOL    HW227312   1.518   5.912   1.580
 8805SOL     OW27313   4.750   4.890   3.387
 8805SOL    HW127314   4.749   4.943   3.302
 8805SOL    HW227315   4.787   4.799   3.370
 8806SOL     OW27316   1.207   0.204   1.709
 8806SOL    HW127317   1.118   0.161   1.719
 8806SOL    HW227318   1.214   0.282   1.772
 8807SOL     OW27319   5.996   2.906   0.559
 8807SOL    HW127320   5.975   2.966   0.636
 8807SOL    HW227321   5.919   2.845   0.542
 8808SOL     OW27322   1.998   2.383   6.081
 8808SOL    HW127323   1.915   2.408   6.030
 8808SOL    HW227324   1.974   2.364   6.176
 8809SOL     OW27325   0.042   3.401   3.028
 8809SOL    HW127326   0.104   3.445   3.094
 8809SOL    HW227327   6.996   3.348   3.077
 8810SOL     OW27328   0.462   1.489   5.025
 8810SOL    HW127329   0.399   1.413   5.011
 8810SOL    HW227330   0.444   1.561   4.958
 8811SOL     OW27331   4.174   4.731   2.363
 8811SOL    HW127332   4.253   4.679   2.396
 8811SOL    HW227333   4.202   4.790   2.288
 8812SOL     OW27334   5.297   0.941   6.642
 8812SOL    HW127335   5.239   0.933   6.561
 8812SOL    HW227336   5.323   0.850   6.673
 8813SOL     OW27337   2.133   3.288   2.991
 8813SOL    HW127338   2.122   3.353   3.067
 8813SOL    HW227339   2.186   3.210   3.022
 8814SOL     OW27340   4.869   0.025   4.990
 8814SOL    HW127341   4.934   6.991   5.041
 8814SOL    HW227342   4.797   6.990   4.951
 8815SOL     OW27343   5.790   0.719   1.331
 8815SOL    HW127344   5.765   0.647   1.266
 8815SOL    HW227345   5.727   0.719   1.408
 8816SOL     OW27346   0.937   6.343   4.560
 8816SOL    HW127347   0.890   6.330   4.647
 8816SOL    HW227348   0.889   6.292   4.488
 8817SOL     OW27349   1.186   2.850   3.381
 8817SOL    HW127350   1.098   2.808   3.362
 8817SOL    HW227351   1.213   2.909   3.305
 8818SOL     OW27352   1.001   0.080   6.186
 8818SOL    HW127353   0.982   7.022   6.240
 8818SOL    HW227354   1.090   0.118   6.212
 8819SOL     OW27355   4.272   5.293   6.214
 8819SOL    HW127356   4.300   5.334   6.300
 8819SOL    HW227357   4.178   5.320   6.193
 8820SOL     OW27358   4.635   6.826   5.787
 8820SOL    HW127359   4.561   6.762   5.807
 8820SOL    HW227360   4.723   6.783   5.806
 8821SOL     OW27361   0.303   4.652   6.074
 8821SOL    HW127362   0.384   4.593   6.076
 8821SOL    HW227363   0.248   4.631   5.994
 8822SOL     OW27364   6.666   0.382   5.126
 8822SOL    HW127365   6.702   0.345   5.212
 8822SOL    HW227366   6.589   0.443   5.145
 8823SOL     OW27367   3.417   1.767   3.202
 8823SOL    HW127368   3.435   1.844   3.140
 8823SOL    HW227369   3.334   1.786   3.255
 8824SOL     OW27370   1.656   0.094   2.951
 8824SOL    HW127371   1.667   0.066   3.047
 8824SOL    HW227372   1.595   0.174   2.947
 8825SOL     OW27373   0.099   0.041   0.545
 8825SOL    HW127374   0.042   0.012   0.622
 8825SOL    HW227375   0.187   7.016   0.550
 8826SOL     OW27376   0.293   4.776   1.184
 8826SOL    HW127377   0.229   4.701   1.171
 8826SOL    HW227378   0.363   4.749   1.251
 8827SOL     OW27379   4.448   6.942   3.111
 8827SOL    HW127380   4.490   6.925   3.022
 8827SOL    HW227381   4.349   6.939   3.102
 8828SOL     OW27382   4.919   2.341   6.587
 8828SOL    HW127383   4.932   2.438   6.609
 8828SOL    HW227384   4.853   2.332   6.513
 8829SOL     OW27385   0.252   1.004   2.866
 8829SOL    HW127386   0.161   0.998   2.906
 8829SOL    HW227387   0.265   0.930   2.800
 8830SOL     OW27388   3.228   0.598   3.558
 8830SOL    HW127389   3.318   0.607   3.514
 8830SOL    HW227390   3.164   0.555   3.495
 8831SOL     OW27391   0.424   3.047   2.511
 8831SOL    HW127392   0.440   3.139   2.547
 8831SOL    HW227393   0.419   3.051   2.411
 8832SOL     OW27394   5.625   0.160   6.031
 8832SOL    HW127395   5.609   0.231   6.100
 8832SOL    HW227396   5.591   0.072   6.065
 8833SOL     OW27397   4.758   2.270   0.941
 8833SOL    HW127398   4.783   2.205   1.013
 8833SOL    HW227399   4.661   2.291   0.947
 8834SOL     OW27400   5.892   4.351   6.023
 8834SOL    HW127401   5.805   4.362   6.071
 8834SOL    HW227402   5.886   4.274   5.960
 8835SOL     OW27403   6.893   0.406   5.579
 8835SOL    HW127404   6.973   0.350   5.602
 8835SOL    HW227405   6.905   0.444   5.487
 8836SOL     OW27406   4.508   1.350   1.546
 8836SOL    HW127407   4.425   1.295   1.553
 8836SOL    HW227408   4.483   1.447   1.542
 8837SOL     OW27409   4.443   6.683   0.876
 8837SOL    HW127410   4.488   6.633   0.803
 8837SOL    HW227411   4.448   6.631   0.962
 8838SOL     OW27412   1.879   3.524   3.521
 8838SOL    HW127413   1.899   3.578   3.603
 8838SOL    HW227414   1.782   3.499   3.521
 8839SOL     OW27415   4.940   6.088   1.560
 8839SOL    HW127416   5.016   6.027   1.539
 8839SOL    HW227417   4.881   6.046   1.629
 8840SOL     OW27418   6.455   1.086   0.517
 8840SOL    HW127419   6.545   1.077   0.474
 8840SOL    HW227420   6.451   1.171   0.570
 8841SOL     OW27421   3.183   1.428   0.567
 8841SOL    HW127422   3.233   1.370   0.503
 8841SOL    HW227423   3.160   1.515   0.523
 8842SOL     OW27424   3.258   3.313   4.388
 8842SOL    HW127425   3.212   3.347   4.306
 8842SOL    HW227426   3.318   3.237   4.363
 8843SOL     OW27427   2.317   5.640   5.620
 8843SOL    HW127428   2.243   5.706   5.606
 8843SOL    HW227429   2.283   5.563   5.674
 8844SOL     OW27430   3.432   2.458   6.293
 8844SOL    HW127431   3.382   2.510   6.224
 8844SOL    HW227432   3.463   2.519   6.366
 8845SOL     OW27433   0.503   3.296   2.269
 8845SOL    HW127434   0.420   3.256   2.308
 8845SOL    HW227435   0.583   3.243   2.298
 8846SOL     OW27436   5.345   4.582   4.644
 8846SOL    HW127437   5.346   4.508   4.576
 8846SOL    HW227438   5.406   4.655   4.614
 8847SOL     OW27439   1.407   2.489   4.127
 8847SOL    HW127440   1.346   2.411   4.135
 8847SOL    HW227441   1.470   2.475   4.051
 8848SOL     OW27442   5.704   1.422   0.576
 8848SOL    HW127443   5.625   1.417   0.515
 8848SOL    HW227444   5.775   1.359   0.544
 8849SOL     OW27445   3.329   5.229   4.475
 8849SOL    HW127446   3.422   5.265   4.478
 8849SOL    HW227447   3.326   5.142   4.524
 8850SOL     OW27448   3.181   1.541   1.288
 8850SOL    HW127449   3.163   1.448   1.257
 8850SOL    HW227450   3.261   1.541   1.348
 8851SOL     OW27451   6.861   5.021   2.811
 8851SOL    HW127452   6.799   5.099   2.806
 8851SOL    HW227453   6.947   5.044   2.765
 8852SOL     OW27454   4.495   2.498   4.421
 8852SOL    HW127455   4.536   2.566   4.481
 8852SOL    HW227456   4.457   2.423   4.476
 8853SOL     OW27457   4.475   1.582   5.773
 8853SOL    HW127458   4.574   1.584   5.784
 8853SOL    HW227459   4.437   1.673   5.790
 8854SOL     OW27460   1.843   1.207   6.818
 8854SOL    HW127461   1.934   1.198   6.859
 8854SOL    HW227462   1.852   1.222   6.719
 8855SOL     OW27463   6.310   4.996   0.069
 8855SOL    HW127464   6.388   4.940   0.095
 8855SOL    HW227465   6.325   5.090   0.100
 8856SOL     OW27466   5.352   1.076   5.177
 8856SOL    HW127467   5.266   1.126   5.189
 8856SOL    HW227468   5.337   0.979   5.193
 8857SOL     OW27469   0.215   2.501   4.976
 8857SOL    HW127470   0.121   2.526   4.949
 8857SOL    HW227471   0.251   2.572   5.037
 8858SOL     OW27472   7.002   3.995   5.885
 8858SOL    HW127473   6.908   3.966   5.904
 8858SOL    HW227474   0.003   4.072   5.944
 8859SOL     OW27475   2.947   5.639   5.590
 8859SOL    HW127476   2.963   5.641   5.491
 8859SOL    HW227477   2.849   5.652   5.608
 8860SOL     OW27478   1.404   2.235   1.351
 8860SOL    HW127479   1.398   2.193   1.442
 8860SOL    HW227480   1.498   2.268   1.336
 8861SOL     OW27481   2.695   3.020   1.171
 8861SOL    HW127482   2.789   3.053   1.163
 8861SOL    HW227483   2.632   3.093   1.147
 8862SOL     OW27484   6.482   2.320   4.851
 8862SOL    HW127485   6.480   2.325   4.751
 8862SOL    HW227486   6.574   2.340   4.884
 8863SOL     OW27487   0.992   5.511   5.242
 8863SOL    HW127488   1.013   5.598   5.287
 8863SOL    HW227489   1.046   5.503   5.158
 8864SOL     OW27490   1.625   3.333   5.968
 8864SOL    HW127491   1.604   3.421   5.925
 8864SOL    HW227492   1.721   3.311   5.955
 8865SOL     OW27493   2.407   2.004   5.489
 8865SOL    HW127494   2.410   1.991   5.390
 8865SOL    HW227495   2.317   1.976   5.523
 8866SOL     OW27496   4.521   6.627   5.954
 8866SOL    HW127497   4.422   6.619   5.941
 8866SOL    HW227498   4.544   6.606   6.049
 8867SOL     OW27499   6.755   1.648   3.485
 8867SOL    HW127500   6.791   1.637   3.578
 8867SOL    HW227501   6.689   1.723   3.483
 8868SOL     OW27502   4.795   3.542   1.134
 8868SOL    HW127503   4.787   3.634   1.095
 8868SOL    HW227504   4.871   3.540   1.199
 8869SOL     OW27505   4.798   2.849   4.134
 8869SOL    HW127506   4.862   2.818   4.203
 8869SOL    HW227507   4.846   2.907   4.068
 8870SOL     OW27508   4.323   1.152   1.584
 8870SOL    HW127509   4.356   1.071   1.535
 8870SOL    HW227510   4.302   1.127   1.679
 8871SOL     OW27511   1.130   2.582   4.337
 8871SOL    HW127512   1.148   2.492   4.297
 8871SOL    HW227513   1.192   2.650   4.297
 8872SOL     OW27514   2.021   2.873   3.133
 8872SOL    HW127515   1.933   2.875   3.088
 8872SOL    HW227516   2.043   2.779   3.161
 8873SOL     OW27517   0.044   6.095   5.050
 8873SOL    HW127518   0.065   6.169   4.987
 8873SOL    HW227519   0.098   6.014   5.027
 8874SOL     OW27520   1.114   1.448   6.901
 8874SOL    HW127521   1.200   1.440   6.851
 8874SOL    HW227522   1.125   1.409   6.993
 8875SOL     OW27523   1.513   1.266   4.351
 8875SOL    HW127524   1.609   1.294   4.358
 8875SOL    HW227525   1.460   1.308   4.425
 8876SOL     OW27526   2.476   0.986   4.977
 8876SOL    HW127527   2.510   0.977   5.070
 8876SOL    HW227528   2.543   1.036   4.921
 8877SOL     OW27529   2.772   6.356   4.265
 8877SOL    HW127530   2.789   6.386   4.359
 8877SOL    HW227531   2.854   6.311   4.230
 8878SOL     OW27532   5.599   4.446   5.560
 8878SOL    HW127533   5.695   4.441   5.533
 8878SOL    HW227534   5.587   4.520   5.626
 8879SOL     OW27535   4.081   5.486   5.143
 8879SOL    HW127536   4.043   5.398   5.173
 8879SOL    HW227537   4.094   5.484   5.043
 8880SOL     OW27538   6.843   6.214   5.705
 8880SOL    HW127539   6.825   6.143   5.636
 8880SOL    HW227540   6.756   6.240   5.748
 8881SOL     OW27541   0.158   0.503   1.543
 8881SOL    HW127542   0.160   0.592   1.589
 8881SOL    HW227543   0.147   0.430   1.610
 8882SOL     OW27544   5.630   2.086   6.353
 8882SOL    HW127545   5.708   2.054   6.299
 8882SOL    HW227546   5.555   2.019   6.345
 8883SOL     OW27547   0.014   0.940   5.602
 8883SOL    HW127548   6.985   0.968   5.521
 8883SOL    HW227549   0.062   1.019   5.641
 8884SOL     OW27550   6.630   0.432   5.685
 8884SOL    HW127551   6.729   0.449   5.678
 8884SOL    HW227552   6.614   0.347   5.734
 8885SOL     OW27553   5.286   3.372   1.626
 8885SOL    HW127554   5.299   3.390   1.723
 8885SOL    HW227555   5.233   3.446   1.585
 8886SOL     OW27556   2.976   6.215   6.534
 8886SOL    HW127557   2.976   6.116   6.519
 8886SOL    HW227558   3.065   6.252   6.507
 8887SOL     OW27559   2.245   0.430   1.321
 8887SOL    HW127560   2.185   0.509   1.315
 8887SOL    HW227561   2.248   0.396   1.415
 8888SOL     OW27562   3.488   1.550   3.699
 8888SOL    HW127563   3.479   1.527   3.603
 8888SOL    HW227564   3.584   1.557   3.724
 8889SOL     OW27565   3.150   6.642   4.711
 8889SOL    HW127566   3.234   6.595   4.739
 8889SOL    HW227567   3.120   6.606   4.623
 8890SOL     OW27568   1.490   4.422   3.736
 8890SOL    HW127569   1.530   4.478   3.662
 8890SOL    HW227570   1.547   4.431   3.818
 8891SOL     OW27571   2.530   1.994   6.868
 8891SOL    HW127572   2.473   1.975   6.947
 8891SOL    HW227573   2.497   2.077   6.822
 8892SOL     OW27574   1.530   6.704   2.344
 8892SOL    HW127575   1.540   6.755   2.430
 8892SOL    HW227576   1.532   6.768   2.268
 8893SOL     OW27577   0.556   1.205   1.021
 8893SOL    HW127578   0.643   1.210   1.071
 8893SOL    HW227579   0.549   1.116   0.975
 8894SOL     OW27580   4.129   2.815   6.369
 8894SOL    HW127581   4.212   2.862   6.341
 8894SOL    HW227582   4.050   2.857   6.325
 8895SOL     OW27583   0.888   0.792   2.342
 8895SOL    HW127584   0.790   0.775   2.328
 8895SOL    HW227585   0.919   0.743   2.423
 8896SOL     OW27586   2.167   4.229   4.908
 8896SOL    HW127587   2.222   4.146   4.917
 8896SOL    HW227588   2.128   4.253   4.997
 8897SOL     OW27589   1.379   1.776   1.269
 8897SOL    HW127590   1.313   1.847   1.247
 8897SOL    HW227591   1.334   1.703   1.320
 8898SOL     OW27592   6.834   3.195   4.557
 8898SOL    HW127593   6.736   3.200   4.577
 8898SOL    HW227594   6.878   3.132   4.621
 8899SOL     OW27595   2.867   4.436   0.051
 8899SOL    HW127596   2.935   4.402   7.008
 8899SOL    HW227597   2.912   4.494   0.119
 8900SOL     OW27598   6.371   1.446   3.193
 8900SOL    HW127599   6.416   1.365   3.233
 8900SOL    HW227600   6.438   1.519   3.183
 8901SOL     OW27601   1.884   6.560   1.722
 8901SOL    HW127602   1.821   6.495   1.764
 8901SOL    HW227603   1.904   6.532   1.628
 8902SOL     OW27604   2.859   5.271   5.340
 8902SOL    HW127605   2.886   5.205   5.409
 8902SOL    HW227606   2.882   5.235   5.249
 8903SOL     OW27607   0.750   1.645   3.804
 8903SOL    HW127608   0.663   1.657   3.851
 8903SOL    HW227609   0.818   1.610   3.868
 8904SOL     OW27610   1.038   5.395   3.336
 8904SOL    HW127611   0.948   5.373   3.300
 8904SOL    HW227612   1.106   5.386   3.264
 8905SOL     OW27613   2.488   4.501   5.226
 8905SOL    HW127614   2.585   4.500   5.248
 8905SOL    HW227615   2.443   4.421   5.268
 8906SOL     OW27616   1.397   5.070   4.508
 8906SOL    HW127617   1.374   5.129   4.585
 8906SOL    HW227618   1.493   5.042   4.514
 8907SOL     OW27619   3.959   2.605   6.007
 8907SOL    HW127620   3.913   2.556   6.082
 8907SOL    HW227621   3.892   2.661   5.958
 8908SOL     OW27622   6.991   3.076   1.989
 8908SOL    HW127623   6.900   3.117   1.997
 8908SOL    HW227624   0.016   3.115   1.910
 8909SOL     OW27625   2.393   6.413   5.727
 8909SOL    HW127626   2.493   6.408   5.729
 8909SOL    HW227627   2.355   6.326   5.758
 8910SOL     OW27628   3.705   3.220   6.622
 8910SOL    HW127629   3.707   3.280   6.542
 8910SOL    HW227630   3.684   3.273   6.704
 8911SOL     OW27631   4.407   2.186   3.935
 8911SOL    HW127632   4.402   2.236   4.021
 8911SOL    HW227633   4.482   2.222   3.880
 8912SOL     OW27634   5.098   2.224   6.185
 8912SOL    HW127635   5.111   2.179   6.097
 8912SOL    HW227636   5.095   2.323   6.171
 8913SOL     OW27637   4.792   4.340   1.004
 8913SOL    HW127638   4.772   4.293   1.090
 8913SOL    HW227639   4.872   4.298   0.961
 8914SOL     OW27640   5.042   2.104   3.417
 8914SOL    HW127641   5.023   2.171   3.489
 8914SOL    HW227642   4.963   2.098   3.356
 8915SOL     OW27643   1.224   5.565   2.013
 8915SOL    HW127644   1.263   5.528   1.929
 8915SOL    HW227645   1.250   5.507   2.090
 8916SOL     OW27646   6.561   3.680   1.807
 8916SOL    HW127647   6.563   3.768   1.759
 8916SOL    HW227648   6.609   3.689   1.894
 8917SOL     OW27649   6.111   5.534   6.228
 8917SOL    HW127650   6.160   5.498   6.149
 8917SOL    HW227651   6.052   5.462   6.266
 8918SOL     OW27652   5.042   4.663   5.935
 8918SOL    HW127653   5.044   4.742   5.997
 8918SOL    HW227654   5.006   4.584   5.983
 8919SOL     OW27655   2.181   3.836   1.356
 8919SOL    HW127656   2.167   3.894   1.437
 8919SOL    HW227657   2.101   3.844   1.296
 8920SOL     OW27658   6.303   5.379   5.512
 8920SOL    HW127659   6.288   5.433   5.595
 8920SOL    HW227660   6.298   5.282   5.535
 8921SOL     OW27661   1.299   5.734   3.441
 8921SOL    HW127662   1.354   5.657   3.473
 8921SOL    HW227663   1.218   5.700   3.394
 8922SOL     OW27664   6.540   4.444   6.985
 8922SOL    HW127665   6.622   4.502   6.991
 8922SOL    HW227666   6.508   4.423   0.055
 8923SOL     OW27667   2.032   4.458   4.794
 8923SOL    HW127668   2.063   4.373   4.835
 8923SOL    HW227669   2.029   4.531   4.863
 8924SOL     OW27670   2.661   5.945   5.216
 8924SOL    HW127671   2.663   5.851   5.252
 8924SOL    HW227672   2.601   6.001   5.274
 8925SOL     OW27673   5.917   6.659   1.559
 8925SOL    HW127674   5.867   6.735   1.517
 8925SOL    HW227675   6.015   6.668   1.538
 8926SOL     OW27676   5.161   1.376   0.256
 8926SOL    HW127677   5.088   1.310   0.238
 8926SOL    HW227678   5.176   1.382   0.355
 8927SOL     OW27679   2.613   1.632   4.382
 8927SOL    HW127680   2.614   1.626   4.482
 8927SOL    HW227681   2.694   1.681   4.351
 8928SOL     OW27682   0.994   6.826   4.872
 8928SOL    HW127683   0.976   6.728   4.864
 8928SOL    HW227684   0.985   6.853   4.968
 8929SOL     OW27685   5.172   4.266   4.265
 8929SOL    HW127686   5.250   4.204   4.249
 8929SOL    HW227687   5.190   4.353   4.219
 8930SOL     OW27688   1.291   5.116   4.961
 8930SOL    HW127689   1.292   5.018   4.943
 8930SOL    HW227690   1.264   5.165   4.878
 8931SOL     OW27691   5.571   1.088   1.581
 8931SOL    HW127692   5.658   1.037   1.583
 8931SOL    HW227693   5.571   1.155   1.655
 8932SOL     OW27694   6.784   1.079   6.825
 8932SOL    HW127695   6.786   1.139   6.905
 8932SOL    HW227696   6.802   0.985   6.854
 8933SOL     OW27697   1.495   0.503   5.695
 8933SOL    HW127698   1.543   0.429   5.647
 8933SOL    HW227699   1.474   0.576   5.630
 8934SOL     OW27700   4.907   6.598   3.178
 8934SOL    HW127701   4.859   6.686   3.181
 8934SOL    HW227702   4.867   6.536   3.246
 8935SOL     OW27703   5.807   2.364   2.539
 8935SOL    HW127704   5.857   2.301   2.480
 8935SOL    HW227705   5.749   2.424   2.484
 8936SOL     OW27706   1.877   3.692   2.859
 8936SOL    HW127707   1.888   3.789   2.880
 8936SOL    HW227708   1.826   3.647   2.933
 8937SOL     OW27709   4.332   0.006   5.443
 8937SOL    HW127710   4.368   0.075   5.380
 8937SOL    HW227711   4.408   6.986   5.492
 8938SOL     OW27712   6.005   0.024   2.053
 8938SOL    HW127713   5.925   0.030   1.994
 8938SOL    HW227714   5.979   0.050   2.146
 8939SOL     OW27715   0.379   2.556   3.844
 8939SOL    HW127716   0.447   2.572   3.916
 8939SOL    HW227717   0.396   2.618   3.768
 8940SOL     OW27718   6.440   3.036   1.392
 8940SOL    HW127719   6.531   2.996   1.390
 8940SOL    HW227720   6.447   3.136   1.398
 8941SOL     OW27721   5.009   2.408   2.393
 8941SOL    HW127722   5.019   2.327   2.335
 8941SOL    HW227723   4.918   2.409   2.434
 8942SOL     OW27724   4.876   4.374   4.373
 8942SOL    HW127725   4.936   4.417   4.306
 8942SOL    HW227726   4.926   4.302   4.421
 8943SOL     OW27727   4.326   2.803   0.945
 8943SOL    HW127728   4.310   2.743   0.867
 8943SOL    HW227729   4.285   2.763   1.027
 8944SOL     OW27730   4.751   5.775   5.094
 8944SOL    HW127731   4.685   5.702   5.108
 8944SOL    HW227732   4.825   5.767   5.162
 8945SOL     OW27733   6.178   3.896   2.867
 8945SOL    HW127734   6.142   3.896   2.774
 8945SOL    HW227735   6.115   3.947   2.926
 8946SOL     OW27736   4.655   0.886   5.569
 8946SOL    HW127737   4.737   0.835   5.597
 8946SOL    HW227738   4.630   0.860   5.476
 8947SOL     OW27739   1.536   4.692   6.698
 8947SOL    HW127740   1.480   4.774   6.692
 8947SOL    HW227741   1.619   4.711   6.750
 8948SOL     OW27742   5.407   1.024   2.488
 8948SOL    HW127743   5.375   1.113   2.521
 8948SOL    HW227744   5.488   0.996   2.540
 8949SOL     OW27745   4.049   6.010   0.968
 8949SOL    HW127746   3.973   6.051   1.020
 8949SOL    HW227747   4.118   5.977   1.032
 8950SOL     OW27748   3.274   3.801   1.935
 8950SOL    HW127749   3.197   3.802   1.999
 8950SOL    HW227750   3.243   3.772   1.845
 8951SOL     OW27751   1.507   0.094   4.711
 8951SOL    HW127752   1.447   0.115   4.789
 8951SOL    HW227753   1.602   0.112   4.737
 8952SOL     OW27754   0.837   4.693   4.199
 8952SOL    HW127755   0.834   4.595   4.182
 8952SOL    HW227756   0.903   4.713   4.271
 8953SOL     OW27757   1.080   4.998   1.208
 8953SOL    HW127758   1.075   5.086   1.255
 8953SOL    HW227759   1.099   4.926   1.275
 8954SOL     OW27760   2.242   4.437   5.412
 8954SOL    HW127761   2.315   4.450   5.479
 8954SOL    HW227762   2.231   4.520   5.357
 8955SOL     OW27763   5.575   2.671   4.938
 8955SOL    HW127764   5.575   2.580   4.897
 8955SOL    HW227765   5.495   2.722   4.908
 8956SOL     OW27766   0.484   5.897   0.837
 8956SOL    HW127767   0.432   5.958   0.897
 8956SOL    HW227768   0.497   5.942   0.748
 8957SOL     OW27769   1.086   6.130   2.973
 8957SOL    HW127770   1.165   6.166   3.023
 8957SOL    HW227771   1.042   6.204   2.922
 8958SOL     OW27772   1.170   4.090   5.193
 8958SOL    HW127773   1.209   4.100   5.285
 8958SOL    HW227774   1.079   4.051   5.199
 8959SOL     OW27775   5.844   2.360   3.694
 8959SOL    HW127776   5.844   2.370   3.794
 8959SOL    HW227777   5.935   2.382   3.659
 8960SOL     OW27778   4.824   5.065   2.966
 8960SOL    HW127779   4.736   5.112   2.978
 8960SOL    HW227780   4.865   5.093   2.879
 8961SOL     OW27781   2.841   1.736   4.672
 8961SOL    HW127782   2.857   1.732   4.770
 8961SOL    HW227783   2.868   1.826   4.637
 8962SOL     OW27784   6.442   5.834   2.265
 8962SOL    HW127785   6.456   5.813   2.361
 8962SOL    HW227786   6.506   5.782   2.209
 8963SOL     OW27787   3.819   6.544   6.209
 8963SOL    HW127788   3.894   6.599   6.246
 8963SOL    HW227789   3.736   6.561   6.262
 8964SOL     OW27790   2.144   3.309   4.041
 8964SOL    HW127791   2.101   3.309   4.131
 8964SOL    HW227792   2.166   3.215   4.014
 8965SOL     OW27793   3.657   5.658   0.131
 8965SOL    HW127794   3.671   5.566   0.169
 8965SOL    HW227795   3.652   5.724   0.206
 8966SOL     OW27796   5.428   6.710   5.028
 8966SOL    HW127797   5.335   6.696   4.995
 8966SOL    HW227798   5.441   6.661   5.115
 8967SOL     OW27799   3.317   7.017   3.284
 8967SOL    HW127800   3.235   0.044   3.311
 8967SOL    HW227801   3.295   6.951   3.212
 8968SOL     OW27802   3.755   5.102   2.130
 8968SOL    HW127803   3.666   5.057   2.125
 8968SOL    HW227804   3.803   5.072   2.213
 8969SOL     OW27805   0.537   0.494   3.058
 8969SOL    HW127806   0.618   0.509   3.114
 8969SOL    HW227807   0.515   0.577   3.007
 8970SOL     OW27808   1.709   1.065   3.584
 8970SOL    HW127809   1.626   1.073   3.528
 8970SOL    HW227810   1.788   1.049   3.525
 8971SOL     OW27811   2.744   4.318   0.735
 8971SOL    HW127812   2.813   4.246   0.732
 8971SOL    HW227813   2.703   4.329   0.644
 8972SOL     OW27814   5.262   4.114   6.798
 8972SOL    HW127815   5.220   4.166   6.724
 8972SOL    HW227816   5.356   4.145   6.812
 8973SOL     OW27817   2.119   2.110   3.339
 8973SOL    HW127818   2.152   2.022   3.305
 8973SOL    HW227819   2.140   2.118   3.437
 8974SOL     OW27820   2.013   4.189   4.010
 8974SOL    HW127821   1.941   4.130   4.045
 8974SOL    HW227822   2.095   4.179   4.066
 8975SOL     OW27823   6.785   4.767   5.664
 8975SOL    HW127824   6.861   4.723   5.615
 8975SOL    HW227825   6.733   4.697   5.713
 8976SOL     OW27826   5.846   0.374   2.244
 8976SOL    HW127827   5.786   0.400   2.168
 8976SOL    HW227828   5.851   0.274   2.248
 8977SOL     OW27829   6.142   4.407   6.617
 8977SOL    HW127830   6.048   4.419   6.586
 8977SOL    HW227831   6.204   4.412   6.538
 8978SOL     OW27832   5.938   5.694   6.808
 8978SOL    HW127833   5.934   5.794   6.804
 8978SOL    HW227834   6.024   5.666   6.852
 8979SOL     OW27835   1.536   4.888   3.955
 8979SOL    HW127836   1.473   4.819   3.991
 8979SOL    HW227837   1.617   4.843   3.918
 8980SOL     OW27838   3.650   0.735   0.230
 8980SOL    HW127839   3.736   0.751   0.277
 8980SOL    HW227840   3.588   0.812   0.246
 8981SOL     OW27841   4.552   2.953   6.321
 8981SOL    HW127842   4.478   2.976   6.384
 8981SOL    HW227843   4.515   2.901   6.244
 8982SOL     OW27844   0.113   1.485   1.770
 8982SOL    HW127845   0.069   1.524   1.690
 8982SOL    HW227846   0.124   1.386   1.758
 8983SOL     OW27847   1.624   6.546   1.991
 8983SOL    HW127848   1.668   6.590   2.069
 8983SOL    HW227849   1.536   6.589   1.974
 8984SOL     OW27850   6.856   1.369   4.819
 8984SOL    HW127851   6.935   1.353   4.878
 8984SOL    HW227852   6.772   1.347   4.869
 8985SOL     OW27853   4.938   1.209   2.421
 8985SOL    HW127854   4.957   1.124   2.470
 8985SOL    HW227855   4.881   1.268   2.479
 8986SOL     OW27856   6.449   4.806   0.324
 8986SOL    HW127857   6.496   4.894   0.325
 8986SOL    HW227858   6.507   4.738   0.281
 8987SOL     OW27859   2.182   6.722   1.477
 8987SOL    HW127860   2.138   6.810   1.463
 8987SOL    HW227861   2.135   6.652   1.423
 8988SOL     OW27862   2.977   0.321   0.809
 8988SOL    HW127863   3.059   0.374   0.785
 8988SOL    HW227864   2.904   0.341   0.744
 8989SOL     OW27865   5.809   1.660   2.383
 8989SOL    HW127866   5.791   1.725   2.309
 8989SOL    HW227867   5.801   1.706   2.471
 8990SOL     OW27868   3.382   0.659   2.875
 8990SOL    HW127869   3.329   0.620   2.950
 8990SOL    HW227870   3.453   0.718   2.912
 8991SOL     OW27871   1.263   2.240   0.586
 8991SOL    HW127872   1.361   2.222   0.601
 8991SOL    HW227873   1.241   2.221   0.490
 8992SOL     OW27874   6.323   4.404   6.424
 8992SOL    HW127875   6.404   4.440   6.470
 8992SOL    HW227876   6.293   4.469   6.355
 8993SOL     OW27877   5.182   4.171   4.887
 8993SOL    HW127878   5.162   4.194   4.982
 8993SOL    HW227879   5.130   4.232   4.827
 8994SOL     OW27880   1.781   6.158   2.562
 8994SOL    HW127881   1.731   6.096   2.623
 8994SOL    HW227882   1.717   6.196   2.495
 8995SOL     OW27883   1.884   3.898   4.884
 8995SOL    HW127884   1.960   3.835   4.902
 8995SOL    HW227885   1.830   3.909   4.967
 8996SOL     OW27886   1.447   3.988   1.501
 8996SOL    HW127887   1.513   3.914   1.489
 8996SOL    HW227888   1.479   4.050   1.572
 8997SOL     OW27889   4.530   1.027   5.769
 8997SOL    HW127890   4.578   0.982   5.694
 8997SOL    HW227891   4.433   1.034   5.747
 8998SOL     OW27892   0.976   1.580   6.458
 8998SOL    HW127893   0.885   1.563   6.423
 8998SOL    HW227894   0.984   1.541   6.550
 8999SOL     OW27895   5.029   1.781   5.099
 8999SOL    HW127896   5.097   1.814   5.163
 8999SOL    HW227897   5.056   1.691   5.063
 9000SOL     OW27898   2.915   4.839   0.770
 9000SOL    HW127899   2.914   4.785   0.686
 9000SOL    HW227900   2.973   4.794   0.838
 9001SOL     OW27901   1.910   4.123   3.551
 9001SOL    HW127902   1.884   4.037   3.509
 9001SOL    HW227903   2.009   4.137   3.541
 9002SOL     OW27904   5.347   4.114   5.171
 9002SOL    HW127905   5.258   4.144   5.135
 9002SOL    HW227906   5.360   4.017   5.151
 9003SOL     OW27907   5.996   3.246   6.408
 9003SOL    HW127908   6.029   3.285   6.494
 9003SOL    HW227909   6.044   3.289   6.332
 9004SOL     OW27910   4.456   5.481   0.744
 9004SOL    HW127911   4.469   5.564   0.689
 9004SOL    HW227912   4.510   5.407   0.705
 9005SOL     OW27913   4.577   2.524   3.114
 9005SOL    HW127914   4.661   2.574   3.136
 9005SOL    HW227915   4.581   2.494   3.018
 9006SOL     OW27916   2.396   6.941   0.938
 9006SOL    HW127917   2.361   6.993   0.860
 9006SOL    HW227918   2.388   6.843   0.919
 9007SOL     OW27919   2.435   6.517   4.473
 9007SOL    HW127920   2.421   6.454   4.396
 9007SOL    HW227921   2.502   6.587   4.447
 9008SOL     OW27922   0.147   4.145   2.247
 9008SOL    HW127923   0.141   4.164   2.149
 9008SOL    HW227924   0.225   4.086   2.264
 9009SOL     OW27925   4.303   6.404   0.452
 9009SOL    HW127926   4.272   6.450   0.535
 9009SOL    HW227927   4.396   6.370   0.465
 9010SOL     OW27928   0.518   5.488   5.252
 9010SOL    HW127929   0.517   5.543   5.168
 9010SOL    HW227930   0.429   5.495   5.297
 9011SOL     OW27931   4.743   2.170   2.258
 9011SOL    HW127932   4.728   2.259   2.302
 9011SOL    HW227933   4.677   2.104   2.295
 9012SOL     OW27934   5.709   5.397   2.276
 9012SOL    HW127935   5.655   5.336   2.334
 9012SOL    HW227936   5.781   5.344   2.230
 9013SOL     OW27937   4.149   6.509   2.198
 9013SOL    HW127938   4.052   6.486   2.204
 9013SOL    HW227939   4.166   6.562   2.115
 9014SOL     OW27940   2.378   0.976   1.147
 9014SOL    HW127941   2.385   0.904   1.078
 9014SOL    HW227942   2.324   0.942   1.225
 9015SOL     OW27943   6.118   0.942   4.819
 9015SOL    HW127944   6.115   1.025   4.765
 9015SOL    HW227945   6.047   0.879   4.788
 9016SOL     OW27946   6.971   5.529   6.407
 9016SOL    HW127947   7.007   5.615   6.443
 9016SOL    HW227948   6.883   5.509   6.451
 9017SOL     OW27949   0.094   4.023   3.288
 9017SOL    HW127950   7.019   4.021   3.310
 9017SOL    HW227951   0.114   4.103   3.232
 9018SOL     OW27952   4.011   1.468   6.359
 9018SOL    HW127953   4.086   1.533   6.343
 9018SOL    HW227954   4.044   1.375   6.347
 9019SOL     OW27955   1.271   5.591   0.390
 9019SOL    HW127956   1.193   5.534   0.364
 9019SOL    HW227957   1.267   5.677   0.339
 9020SOL     OW27958   0.943   4.913   3.186
 9020SOL    HW127959   0.884   4.840   3.221
 9020SOL    HW227960   0.887   4.980   3.137
 9021SOL     OW27961   6.365   6.077   5.457
 9021SOL    HW127962   6.292   6.123   5.407
 9021SOL    HW227963   6.450   6.082   5.405
 9022SOL     OW27964   3.566   0.058   6.429
 9022SOL    HW127965   3.602   0.030   6.518
 9022SOL    HW227966   3.539   0.155   6.434
 9023SOL     OW27967   3.382   2.859   3.312
 9023SOL    HW127968   3.390   2.896   3.405
 9023SOL    HW227969   3.333   2.772   3.316
 9024SOL     OW27970   1.201   0.013   6.967
 9024SOL    HW127971   1.293   7.012   6.936
 9024SOL    HW227972   1.176   0.103   6.932
 9025SOL     OW27973   0.187   3.928   0.924
 9025SOL    HW127974   0.186   3.936   0.824
 9025SOL    HW227975   0.281   3.914   0.955
 9026SOL     OW27976   3.064   3.316   5.699
 9026SOL    HW127977   3.031   3.299   5.606
 9026SOL    HW227978   2.987   3.317   5.762
 9027SOL     OW27979   2.486   2.475   3.230
 9027SOL    HW127980   2.521   2.397   3.282
 9027SOL    HW227981   2.490   2.454   3.132
 9028SOL     OW27982   2.685   4.654   4.569
 9028SOL    HW127983   2.629   4.601   4.506
 9028SOL    HW227984   2.651   4.642   4.662
 9029SOL     OW27985   5.861   5.810   2.845
 9029SOL    HW127986   5.921   5.739   2.884
 9029SOL    HW227987   5.846   5.791   2.748
 9030SOL     OW27988   3.535   1.693   2.047
 9030SOL    HW127989   3.491   1.781   2.062
 9030SOL    HW227990   3.635   1.704   2.049
 9031SOL     OW27991   1.455   1.539   0.914
 9031SOL    HW127992   1.450   1.448   0.954
 9031SOL    HW227993   1.481   1.606   0.984
 9032SOL     OW27994   1.090   2.956   2.493
 9032SOL    HW127995   1.030   2.937   2.570
 9032SOL    HW227996   1.097   3.054   2.479
 9033SOL     OW27997   1.129   3.924   1.818
 9033SOL    HW127998   1.069   3.882   1.885
 9033SOL    HW227999   1.107   4.022   1.810
 9034SOL     OW28000   1.394   6.793   6.714
 9034SOL    HW128001   1.396   6.732   6.634
 9034SOL    HW228002   1.411   6.887   6.684
 9035SOL     OW28003   0.154   0.544   4.534
 9035SOL    HW128004   0.099   0.539   4.450
 9035SOL    HW228005   0.188   0.453   4.557
 9036SOL     OW28006   1.567   1.437   4.743
 9036SOL    HW128007   1.508   1.397   4.672
 9036SOL    HW228008   1.547   1.394   4.831
 9037SOL     OW28009   2.629   4.155   5.873
 9037SOL    HW128010   2.653   4.173   5.778
 9037SOL    HW228011   2.530   4.145   5.881
 9038SOL     OW28012   5.008   6.461   5.643
 9038SOL    HW128013   5.064   6.387   5.680
 9038SOL    HW228014   4.936   6.483   5.708
 9039SOL     OW28015   2.134   4.960   6.507
 9039SOL    HW128016   2.130   4.881   6.447
 9039SOL    HW228017   2.173   4.934   6.595
 9040SOL     OW28018   3.061   1.984   2.420
 9040SOL    HW128019   3.043   2.081   2.405
 9040SOL    HW228020   2.996   1.929   2.367
 9041SOL     OW28021   1.776   2.973   6.391
 9041SOL    HW128022   1.767   3.018   6.302
 9041SOL    HW228023   1.726   2.887   6.390
 9042SOL     OW28024   2.414   5.364   3.284
 9042SOL    HW128025   2.420   5.393   3.189
 9042SOL    HW228026   2.468   5.281   3.297
 9043SOL     OW28027   6.709   2.453   0.569
 9043SOL    HW128028   6.714   2.489   0.662
 9043SOL    HW228029   6.630   2.492   0.522
 9044SOL     OW28030   6.468   4.575   0.716
 9044SOL    HW128031   6.399   4.646   0.720
 9044SOL    HW228032   6.469   4.523   0.801
 9045SOL     OW28033   3.036   5.422   4.289
 9045SOL    HW128034   3.113   5.479   4.315
 9045SOL    HW228035   2.990   5.463   4.209
 9046SOL     OW28036   3.996   4.479   5.971
 9046SOL    HW128037   4.003   4.549   5.900
 9046SOL    HW228038   3.905   4.482   6.012
 9047SOL     OW28039   1.212   4.661   4.724
 9047SOL    HW128040   1.185   4.602   4.647
 9047SOL    HW228041   1.187   4.617   4.810
 9048SOL     OW28042   2.099   1.957   4.853
 9048SOL    HW128043   2.130   1.998   4.767
 9048SOL    HW228044   2.121   2.017   4.929
 9049SOL     OW28045   4.949   6.074   6.324
 9049SOL    HW128046   5.007   6.136   6.271
 9049SOL    HW228047   4.996   5.987   6.336
 9050SOL     OW28048   0.063   5.185   5.222
 9050SOL    HW128049   7.010   5.214   5.281
 9050SOL    HW228050   0.045   5.215   5.128
 9051SOL     OW28051   5.447   6.600   6.065
 9051SOL    HW128052   5.494   6.655   6.134
 9051SOL    HW228053   5.408   6.661   5.995
 9052SOL     OW28054   2.163   5.215   4.845
 9052SOL    HW128055   2.246   5.182   4.890
 9052SOL    HW228056   2.148   5.311   4.870
 9053SOL     OW28057   3.118   1.713   3.661
 9053SOL    HW128058   3.179   1.705   3.582
 9053SOL    HW228059   3.134   1.801   3.706
 9054SOL     OW28060   2.693   0.272   0.686
 9054SOL    HW128061   2.663   0.186   0.644
 9054SOL    HW228062   2.651   0.282   0.776
 9055SOL     OW28063   0.399   1.704   4.861
 9055SOL    HW128064   0.431   1.712   4.766
 9055SOL    HW228065   0.437   1.779   4.915
 9056SOL     OW28066   4.599   2.151   2.646
 9056SOL    HW128067   4.558   2.162   2.737
 9056SOL    HW228068   4.651   2.066   2.643
 9057SOL     OW28069   4.879   6.344   6.830
 9057SOL    HW128070   4.959   6.321   6.886
 9057SOL    HW228071   4.868   6.277   6.757
 9058SOL     OW28072   2.230   2.469   4.194
 9058SOL    HW128073   2.208   2.448   4.290
 9058SOL    HW228074   2.149   2.503   4.148
 9059SOL     OW28075   0.080   1.037   2.115
 9059SOL    HW128076   0.136   1.006   2.192
 9059SOL    HW228077   0.124   1.117   2.073
 9060SOL     OW28078   0.849   5.560   1.895
 9060SOL    HW128079   0.892   5.553   1.805
 9060SOL    HW228080   0.873   5.649   1.936
 9061SOL     OW28081   5.152   4.244   2.582
 9061SOL    HW128082   5.139   4.233   2.681
 9061SOL    HW228083   5.064   4.237   2.536
 9062SOL     OW28084   0.448   5.545   2.796
 9062SOL    HW128085   0.396   5.463   2.777
 9062SOL    HW228086   0.401   5.625   2.758
 9063SOL     OW28087   4.308   1.959   1.829
 9063SOL    HW128088   4.320   2.049   1.788
 9063SOL    HW228089   4.305   1.968   1.928
 9064SOL     OW28090   0.454   5.679   3.147
 9064SOL    HW128091   0.410   5.604   3.097
 9064SOL    HW228092   0.384   5.746   3.174
 9065SOL     OW28093   3.168   3.938   6.155
 9065SOL    HW128094   3.070   3.957   6.153
 9065SOL    HW228095   3.192   3.878   6.079
 9066SOL     OW28096   4.850   5.282   4.253
 9066SOL    HW128097   4.792   5.300   4.174
 9066SOL    HW228098   4.896   5.194   4.242
 9067SOL     OW28099   1.179   6.224   4.621
 9067SOL    HW128100   1.135   6.314   4.620
 9067SOL    HW228101   1.230   6.210   4.536
 9068SOL     OW28102   3.985   0.359   5.838
 9068SOL    HW128103   3.923   0.281   5.831
 9068SOL    HW228104   4.068   0.340   5.785
 9069SOL     OW28105   4.793   2.647   1.486
 9069SOL    HW128106   4.711   2.676   1.437
 9069SOL    HW228107   4.874   2.675   1.434
 9070SOL     OW28108   2.198   1.196   5.655
 9070SOL    HW128109   2.247   1.166   5.573
 9070SOL    HW228110   2.231   1.287   5.682
 9071SOL     OW28111   5.756   2.492   6.733
 9071SOL    HW128112   5.796   2.426   6.669
 9071SOL    HW228113   5.793   2.583   6.715
 9072SOL     OW28114   5.417   0.593   2.685
 9072SOL    HW128115   5.339   0.645   2.720
 9072SOL    HW228116   5.389   0.499   2.664
 9073SOL     OW28117   4.776   2.628   4.877
 9073SOL    HW128118   4.695   2.581   4.843
 9073SOL    HW228119   4.799   2.703   4.816
 9074SOL     OW28120   1.770   0.950   2.712
 9074SOL    HW128121   1.758   0.856   2.745
 9074SOL    HW228122   1.680   0.994   2.706
 9075SOL     OW28123   5.455   5.847   0.962
 9075SOL    HW128124   5.524   5.870   0.893
 9075SOL    HW228125   5.495   5.857   1.053
 9076SOL     OW28126   0.459   6.731   2.363
 9076SOL    HW128127   0.418   6.723   2.454
 9076SOL    HW228128   0.388   6.755   2.296
 9077SOL     OW28129   6.397   1.750   6.830
 9077SOL    HW128130   6.444   1.698   6.759
 9077SOL    HW228131   6.396   1.847   6.807
 9078SOL     OW28132   5.130   0.200   6.865
 9078SOL    HW128133   5.094   0.240   6.781
 9078SOL    HW228134   5.111   0.261   6.942
 9079SOL     OW28135   1.595   1.129   6.697
 9079SOL    HW128136   1.677   1.140   6.753
 9079SOL    HW228137   1.547   1.045   6.725
 9080SOL     OW28138   6.226   3.798   2.417
 9080SOL    HW128139   6.127   3.802   2.428
 9080SOL    HW228140   6.264   3.890   2.414
 9081SOL     OW28141   5.114   1.180   0.539
 9081SOL    HW128142   5.138   1.123   0.460
 9081SOL    HW228143   5.168   1.265   0.536
 9082SOL     OW28144   3.397   5.865   6.415
 9082SOL    HW128145   3.334   5.841   6.341
 9082SOL    HW228146   3.448   5.784   6.444
 9083SOL     OW28147   3.876   6.295   0.272
 9083SOL    HW128148   3.856   6.237   0.351
 9083SOL    HW228149   3.974   6.290   0.252
 9084SOL     OW28150   0.226   3.101   4.908
 9084SOL    HW128151   0.271   3.013   4.927
 9084SOL    HW228152   0.292   3.175   4.919
 9085SOL     OW28153   2.706   4.848   0.452
 9085SOL    HW128154   2.675   4.770   0.508
 9085SOL    HW228155   2.744   4.814   0.366
 9086SOL     OW28156   7.011   3.702   0.886
 9086SOL    HW128157   6.938   3.678   0.822
 9086SOL    HW228158   7.014   3.801   0.897
 9087SOL     OW28159   5.487   0.801   1.541
 9087SOL    HW128160   5.519   0.881   1.592
 9087SOL    HW228161   5.467   0.827   1.447
 9088SOL     OW28162   5.973   5.915   0.341
 9088SOL    HW128163   6.059   5.961   0.321
 9088SOL    HW228164   5.989   5.842   0.408
 9089SOL     OW28165   5.817   5.474   3.267
 9089SOL    HW128166   5.799   5.453   3.171
 9089SOL    HW228167   5.744   5.437   3.324
 9090SOL     OW28168   4.970   5.867   5.875
 9090SOL    HW128169   4.884   5.832   5.838
 9090SOL    HW228170   4.950   5.925   5.954
 9091SOL     OW28171   2.402   1.830   1.607
 9091SOL    HW128172   2.310   1.816   1.570
 9091SOL    HW228173   2.409   1.784   1.696
 9092SOL     OW28174   2.419   0.898   5.404
 9092SOL    HW128175   2.483   0.974   5.392
 9092SOL    HW228176   2.327   0.934   5.418
 9093SOL     OW28177   2.206   4.213   0.840
 9093SOL    HW128178   2.266   4.274   0.790
 9093SOL    HW228179   2.142   4.169   0.777
 9094SOL     OW28180   6.425   4.234   1.312
 9094SOL    HW128181   6.407   4.207   1.218
 9094SOL    HW228182   6.338   4.251   1.359
 9095SOL     OW28183   2.640   2.969   0.386
 9095SOL    HW128184   2.617   3.034   0.313
 9095SOL    HW228185   2.571   2.973   0.458
 9096SOL     OW28186   5.895   3.375   3.321
 9096SOL    HW128187   5.962   3.302   3.336
 9096SOL    HW228188   5.805   3.344   3.349
 9097SOL     OW28189   0.380   4.946   5.744
 9097SOL    HW128190   0.329   5.021   5.785
 9097SOL    HW228191   0.431   4.897   5.815
 9098SOL     OW28192   3.299   3.566   3.529
 9098SOL    HW128193   3.375   3.524   3.579
 9098SOL    HW228194   3.221   3.579   3.590
 9099SOL     OW28195   2.249   2.777   0.316
 9099SOL    HW128196   2.323   2.713   0.299
 9099SOL    HW228197   2.179   2.733   0.373
 9100SOL     OW28198   1.271   3.296   0.483
 9100SOL    HW128199   1.287   3.358   0.560
 9100SOL    HW228200   1.177   3.262   0.488
 9101SOL     OW28201   1.979   2.016   6.676
 9101SOL    HW128202   2.079   2.018   6.686
 9101SOL    HW228203   1.946   2.107   6.654
 9102SOL     OW28204   4.312   5.968   2.347
 9102SOL    HW128205   4.233   5.907   2.345
 9102SOL    HW228206   4.368   5.953   2.266
 9103SOL     OW28207   0.299   3.818   6.671
 9103SOL    HW128208   0.343   3.729   6.667
 9103SOL    HW228209   0.286   3.845   6.767
 9104SOL     OW28210   4.123   6.796   1.744
 9104SOL    HW128211   4.140   6.852   1.825
 9104SOL    HW228212   4.189   6.820   1.673
 9105SOL     OW28213   2.575   1.680   5.344
 9105SOL    HW128214   2.556   1.761   5.288
 9105SOL    HW228215   2.515   1.679   5.424
 9106SOL     OW28216   6.401   5.012   1.173
 9106SOL    HW128217   6.452   5.066   1.105
 9106SOL    HW228218   6.466   4.958   1.227
 9107SOL     OW28219   4.472   0.836   1.440
 9107SOL    HW128220   4.428   0.839   1.530
 9107SOL    HW228221   4.560   0.790   1.448
 9108SOL     OW28222   4.732   5.589   6.692
 9108SOL    HW128223   4.677   5.519   6.647
 9108SOL    HW228224   4.787   5.548   6.764
 9109SOL     OW28225   2.910   1.998   4.619
 9109SOL    HW128226   2.904   2.043   4.530
 9109SOL    HW228227   2.949   2.062   4.685
 9110SOL     OW28228   1.850   3.214   2.938
 9110SOL    HW128229   1.806   3.224   2.849
 9110SOL    HW228230   1.949   3.204   2.925
 9111SOL     OW28231   4.176   4.413   1.637
 9111SOL    HW128232   4.192   4.509   1.657
 9111SOL    HW228233   4.265   4.366   1.628
 9112SOL     OW28234   0.132   5.089   2.727
 9112SOL    HW128235   0.144   5.077   2.629
 9112SOL    HW228236   0.148   5.002   2.774
 9113SOL     OW28237   3.379   6.415   0.526
 9113SOL    HW128238   3.446   6.427   0.452
 9113SOL    HW228239   3.385   6.491   0.590
 9114SOL     OW28240   2.448   4.314   1.866
 9114SOL    HW128241   2.424   4.224   1.905
 9114SOL    HW228242   2.459   4.380   1.940
 9115SOL     OW28243   1.631   4.223   4.254
 9115SOL    HW128244   1.562   4.292   4.273
 9115SOL    HW228245   1.703   4.228   4.322
 9116SOL     OW28246   1.330   1.157   6.232
 9116SOL    HW128247   1.379   1.091   6.290
 9116SOL    HW228248   1.258   1.110   6.182
 9117SOL     OW28249   6.425   2.981   6.988
 9117SOL    HW128250   6.395   3.035   0.044
 9117SOL    HW228251   6.468   2.897   7.019
 9118SOL     OW28252   6.445   5.952   1.589
 9118SOL    HW128253   6.543   5.949   1.605
 9118SOL    HW228254   6.412   6.046   1.598
 9119SOL     OW28255   6.850   0.275   1.155
 9119SOL    HW128256   6.766   0.220   1.159
 9119SOL    HW228257   6.861   0.325   1.240
 9120SOL     OW28258   5.606   1.419   6.207
 9120SOL    HW128259   5.507   1.415   6.192
 9120SOL    HW228260   5.624   1.426   6.305
 9121SOL     OW28261   1.073   1.088   6.858
 9121SOL    HW128262   1.152   1.036   6.824
 9121SOL    HW228263   1.102   1.143   6.936
 9122SOL     OW28264   0.929   2.428   1.257
 9122SOL    HW128265   0.860   2.434   1.329
 9122SOL    HW228266   1.020   2.432   1.298
 9123SOL     OW28267   2.682   5.709   7.003
 9123SOL    HW128268   2.749   5.637   6.993
 9123SOL    HW228269   2.724   5.798   6.985
 9124SOL     OW28270   6.032   5.565   5.135
 9124SOL    HW128271   6.046   5.538   5.230
 9124SOL    HW228272   5.943   5.531   5.103
 9125SOL     OW28273   4.968   5.547   3.540
 9125SOL    HW128274   4.907   5.626   3.535
 9125SOL    HW228275   4.925   5.468   3.498
 9126SOL     OW28276   6.176   0.602   1.623
 9126SOL    HW128277   6.076   0.602   1.627
 9126SOL    HW228278   6.212   0.669   1.688
 9127SOL     OW28279   5.057   0.971   0.027
 9127SOL    HW128280   5.049   0.954   6.952
 9127SOL    HW228281   5.040   0.886   0.077
 9128SOL     OW28282   4.482   2.569   5.085
 9128SOL    HW128283   4.471   2.656   5.132
 9128SOL    HW228284   4.391   2.528   5.070
 9129SOL     OW28285   2.185   2.195   6.006
 9129SOL    HW128286   2.253   2.161   6.071
 9129SOL    HW228287   2.110   2.239   6.055
 9130SOL     OW28288   6.031   4.849   0.751
 9130SOL    HW128289   6.011   4.935   0.799
 9130SOL    HW228290   6.034   4.774   0.817
 9131SOL     OW28291   0.980   4.207   4.489
 9131SOL    HW128292   1.053   4.182   4.552
 9131SOL    HW228293   0.984   4.150   4.408
 9132SOL     OW28294   0.106   3.048   4.564
 9132SOL    HW128295   0.184   2.996   4.597
 9132SOL    HW228296   0.049   3.075   4.642
 9133SOL     OW28297   2.006   4.309   1.172
 9133SOL    HW128298   1.929   4.246   1.161
 9133SOL    HW228299   2.015   4.334   1.268
 9134SOL     OW28300   2.995   5.759   5.946
 9134SOL    HW128301   2.954   5.803   6.026
 9134SOL    HW228302   3.001   5.826   5.872
 9135SOL     OW28303   6.691   6.639   4.647
 9135SOL    HW128304   6.608   6.669   4.601
 9135SOL    HW228305   6.753   6.717   4.659
 9136SOL     OW28306   4.771   4.628   5.134
 9136SOL    HW128307   4.776   4.675   5.223
 9136SOL    HW228308   4.728   4.539   5.146
 9137SOL     OW28309   4.282   1.220   2.138
 9137SOL    HW128310   4.232   1.300   2.169
 9137SOL    HW228311   4.381   1.236   2.145
 9138SOL     OW28312   3.718   4.954   0.330
 9138SOL    HW128313   3.676   5.038   0.362
 9138SOL    HW228314   3.812   4.949   0.361
 9139SOL     OW28315   3.049   1.603   5.523
 9139SOL    HW128316   3.138   1.557   5.522
 9139SOL    HW228317   3.023   1.624   5.617
 9140SOL     OW28318   0.058   2.035   3.080
 9140SOL    HW128319   0.075   1.954   3.135
 9140SOL    HW228320   0.144   2.068   3.041
 9141SOL     OW28321   5.932   0.244   6.053
 9141SOL    HW128322   5.857   0.288   6.003
 9141SOL    HW228323   5.988   0.191   5.989
 9142SOL     OW28324   6.610   3.050   5.598
 9142SOL    HW128325   6.628   3.144   5.629
 9142SOL    HW228326   6.672   2.987   5.645
 9143SOL     OW28327   4.647   3.909   0.747
 9143SOL    HW128328   4.714   3.973   0.783
 9143SOL    HW228329   4.609   3.854   0.822
 9144SOL     OW28330   1.988   4.831   5.427
 9144SOL    HW128331   2.068   4.785   5.388
 9144SOL    HW228332   2.016   4.880   5.510
 9145SOL     OW28333   0.248   4.728   6.336
 9145SOL    HW128334   0.275   4.716   6.241
 9145SOL    HW228335   0.211   4.820   6.350
 9146SOL     OW28336   6.169   1.943   2.138
 9146SOL    HW128337   6.101   1.934   2.065
 9146SOL    HW228338   6.241   2.006   2.109
 9147SOL     OW28339   3.829   5.945   5.271
 9147SOL    HW128340   3.922   5.934   5.306
 9147SOL    HW228341   3.769   5.877   5.312
 9148SOL     OW28342   4.048   5.718   3.555
 9148SOL    HW128343   4.112   5.753   3.624
 9148SOL    HW228344   4.052   5.776   3.474
 9149SOL     OW28345   5.435   3.638   3.889
 9149SOL    HW128346   5.498   3.711   3.862
 9149SOL    HW228347   5.400   3.656   3.981
 9150SOL     OW28348   5.081   0.089   2.994
 9150SOL    HW128349   5.149   0.158   2.969
 9150SOL    HW228350   5.040   0.113   3.082
 9151SOL     OW28351   1.447   4.194   1.913
 9151SOL    HW128352   1.412   4.102   1.893
 9151SOL    HW228353   1.544   4.188   1.939
 9152SOL     OW28354   1.954   5.716   3.224
 9152SOL    HW128355   1.874   5.656   3.226
 9152SOL    HW228356   2.012   5.695   3.303
 9153SOL     OW28357   1.797   3.013   6.098
 9153SOL    HW128358   1.863   2.941   6.076
 9153SOL    HW228359   1.825   3.098   6.055
 9154SOL     OW28360   1.914   5.747   7.006
 9154SOL    HW128361   1.927   5.845   6.992
 9154SOL    HW228362   1.976   5.715   0.055
 9155SOL     OW28363   1.070   3.899   0.497
 9155SOL    HW128364   1.068   3.974   0.430
 9155SOL    HW228365   0.983   3.850   0.494
 9156SOL     OW28366   4.800   2.304   1.324
 9156SOL    HW128367   4.762   2.394   1.306
 9156SOL    HW228368   4.848   2.304   1.411
 9157SOL     OW28369   5.222   3.936   5.849
 9157SOL    HW128370   5.170   3.991   5.783
 9157SOL    HW228371   5.222   3.840   5.820
 9158SOL     OW28372   0.902   3.723   4.068
 9158SOL    HW128373   0.860   3.796   4.014
 9158SOL    HW228374   0.948   3.658   4.008
 9159SOL     OW28375   0.144   4.615   3.112
 9159SOL    HW128376   0.181   4.682   3.176
 9159SOL    HW228377   0.220   4.566   3.068
 9160SOL     OW28378   0.499   0.099   6.911
 9160SOL    HW128379   0.445   0.086   6.994
 9160SOL    HW228380   0.579   0.039   6.914
 9161SOL     OW28381   4.905   4.091   4.505
 9161SOL    HW128382   4.886   4.000   4.542
 9161SOL    HW228383   4.910   4.087   4.405
 9162SOL     OW28384   4.811   2.704   2.427
 9162SOL    HW128385   4.756   2.676   2.505
 9162SOL    HW228386   4.877   2.774   2.455
 9163SOL     OW28387   2.948   1.965   3.801
 9163SOL    HW128388   2.866   1.923   3.840
 9163SOL    HW228389   2.966   2.052   3.848
 9164SOL     OW28390   3.371   0.411   0.157
 9164SOL    HW128391   3.298   0.347   0.132
 9164SOL    HW228392   3.347   0.458   0.242
 9165SOL     OW28393   5.938   0.037   6.826
 9165SOL    HW128394   5.855   0.009   6.777
 9165SOL    HW228395   5.987   0.105   6.773
 9166SOL     OW28396   2.887   5.505   1.090
 9166SOL    HW128397   2.965   5.507   1.152
 9166SOL    HW228398   2.910   5.448   1.010
 9167SOL     OW28399   1.724   4.184   5.450
 9167SOL    HW128400   1.784   4.222   5.379
 9167SOL    HW228401   1.634   4.226   5.444
 9168SOL     OW28402   2.367   0.833   6.546
 9168SOL    HW128403   2.298   0.850   6.475
 9168SOL    HW228404   2.428   0.759   6.516
 9169SOL     OW28405   0.524   0.536   3.624
 9169SOL    HW128406   0.434   0.517   3.662
 9169SOL    HW228407   0.573   0.600   3.684
 9170SOL     OW28408   6.894   5.631   6.771
 9170SOL    HW128409   6.820   5.663   6.831
 9170SOL    HW228410   6.860   5.556   6.715
 9171SOL     OW28411   3.040   5.977   0.199
 9171SOL    HW128412   3.055   5.959   0.101
 9171SOL    HW228413   3.042   5.890   0.248
 9172SOL     OW28414   3.169   1.536   4.055
 9172SOL    HW128415   3.147   1.541   3.958
 9172SOL    HW228416   3.259   1.578   4.071
 9173SOL     OW28417   0.469   5.674   4.027
 9173SOL    HW128418   0.390   5.682   4.087
 9173SOL    HW228419   0.549   5.645   4.081
 9174SOL     OW28420   0.221   4.925   0.305
 9174SOL    HW128421   0.249   4.871   0.226
 9174SOL    HW228422   0.299   4.936   0.367
 9175SOL     OW28423   2.364   5.887   5.924
 9175SOL    HW128424   2.339   5.921   6.015
 9175SOL    HW228425   2.384   5.789   5.929
 9176SOL     OW28426   2.239   0.179   5.747
 9176SOL    HW128427   2.210   0.253   5.686
 9176SOL    HW228428   2.239   0.212   5.841
 9177SOL     OW28429   0.997   4.282   3.332
 9177SOL    HW128430   1.027   4.369   3.294
 9177SOL    HW228431   1.061   4.254   3.404
 9178SOL     OW28432   2.044   4.970   0.792
 9178SOL    HW128433   2.126   4.915   0.809
 9178SOL    HW228434   2.066   5.043   0.727
 9179SOL     OW28435   3.422   5.106   4.130
 9179SOL    HW128436   3.347   5.042   4.112
 9179SOL    HW228437   3.493   5.060   4.183
 9180SOL     OW28438   5.560   2.191   3.817
 9180SOL    HW128439   5.480   2.250   3.819
 9180SOL    HW228440   5.587   2.173   3.722
 9181SOL     OW28441   4.453   2.193   2.404
 9181SOL    HW128442   4.448   2.234   2.495
 9181SOL    HW228443   4.473   2.265   2.337
 9182SOL     OW28444   0.872   6.303   1.750
 9182SOL    HW128445   0.873   6.274   1.654
 9182SOL    HW228446   0.790   6.357   1.767
 9183SOL     OW28447   5.453   6.850   0.738
 9183SOL    HW128448   5.455   6.774   0.803
 9183SOL    HW228449   5.544   6.890   0.730
 9184SOL     OW28450   5.034   0.110   0.744
 9184SOL    HW128451   4.988   0.198   0.734
 9184SOL    HW228452   5.133   0.125   0.748
 9185SOL     OW28453   3.402   0.818   5.212
 9185SOL    HW128454   3.331   0.811   5.142
 9185SOL    HW228455   3.383   0.751   5.284
 9186SOL     OW28456   6.454   1.066   5.650
 9186SOL    HW128457   6.405   1.048   5.735
 9186SOL    HW228458   6.548   1.034   5.657
 9187SOL     OW28459   2.441   6.639   1.875
 9187SOL    HW128460   2.405   6.603   1.789
 9187SOL    HW228461   2.395   6.594   1.952
 9188SOL     OW28462   2.280   6.455   1.175
 9188SOL    HW128463   2.289   6.376   1.115
 9188SOL    HW228464   2.347   6.525   1.149
 9189SOL     OW28465   5.217   5.490   2.473
 9189SOL    HW128466   5.192   5.575   2.427
 9189SOL    HW228467   5.264   5.511   2.559
 9190SOL     OW28468   1.849   5.071   0.425
 9190SOL    HW128469   1.877   5.167   0.427
 9190SOL    HW228470   1.916   5.017   0.374
 9191SOL     OW28471   6.881   0.504   5.940
 9191SOL    HW128472   6.906   0.422   5.888
 9191SOL    HW228473   6.827   0.565   5.882
 9192SOL     OW28474   6.860   4.409   4.190
 9192SOL    HW128475   6.809   4.357   4.259
 9192SOL    HW228476   6.937   4.353   4.157
 9193SOL     OW28477   2.727   3.393   0.223
 9193SOL    HW128478   2.715   3.471   0.284
 9193SOL    HW228479   2.823   3.366   0.222
 9194SOL     OW28480   3.561   0.703   4.014
 9194SOL    HW128481   3.483   0.692   3.953
 9194SOL    HW228482   3.559   0.794   4.056
 9195SOL     OW28483   1.487   2.001   3.975
 9195SOL    HW128484   1.566   1.982   3.917
 9195SOL    HW228485   1.514   1.996   4.071
 9196SOL     OW28486   4.721   2.267   5.308
 9196SOL    HW128487   4.768   2.289   5.393
 9196SOL    HW228488   4.772   2.194   5.261
 9197SOL     OW28489   2.284   3.664   1.643
 9197SOL    HW128490   2.296   3.599   1.718
 9197SOL    HW228491   2.199   3.715   1.657
 9198SOL     OW28492   6.193   5.055   4.837
 9198SOL    HW128493   6.204   5.150   4.808
 9198SOL    HW228494   6.272   5.002   4.808
 9199SOL     OW28495   6.695   4.238   5.405
 9199SOL    HW128496   6.795   4.247   5.401
 9199SOL    HW228497   6.663   4.195   5.321
 9200SOL     OW28498   3.527   0.086   0.717
 9200SOL    HW128499   3.553   0.018   0.648
 9200SOL    HW228500   3.433   0.115   0.702
 9201SOL     OW28501   1.421   4.236   0.271
 9201SOL    HW128502   1.442   4.279   0.359
 9201SOL    HW228503   1.349   4.167   0.284
 9202SOL     OW28504   2.250   0.469   3.222
 9202SOL    HW128505   2.292   0.394   3.173
 9202SOL    HW228506   2.258   0.453   3.321
 9203SOL     OW28507   6.571   5.599   0.506
 9203SOL    HW128508   6.491   5.644   0.546
 9203SOL    HW228509   6.576   5.504   0.539
 9204SOL     OW28510   5.226   1.187   6.344
 9204SOL    HW128511   5.151   1.122   6.337
 9204SOL    HW228512   5.313   1.139   6.338
 9205SOL     OW28513   6.781   3.535   2.799
 9205SOL    HW128514   6.783   3.632   2.776
 9205SOL    HW228515   6.691   3.510   2.833
 9206SOL     OW28516   3.838   6.020   0.712
 9206SOL    HW128517   3.877   6.056   0.628
 9206SOL    HW228518   3.897   5.948   0.749
 9207SOL     OW28519   5.227   5.845   0.044
 9207SOL    HW128520   5.300   5.789   0.005
 9207SOL    HW228521   5.174   5.790   0.109
 9208SOL     OW28522   1.030   3.622   3.653
 9208SOL    HW128523   0.936   3.623   3.621
 9208SOL    HW228524   1.071   3.712   3.640
 9209SOL     OW28525   2.838   1.206   6.325
 9209SOL    HW128526   2.823   1.225   6.228
 9209SOL    HW228527   2.899   1.275   6.363
 9210SOL     OW28528   6.794   0.999   3.524
 9210SOL    HW128529   6.711   1.028   3.571
 9210SOL    HW228530   6.774   0.987   3.426
 9211SOL     OW28531   0.455   1.495   3.496
 9211SOL    HW128532   0.493   1.404   3.480
 9211SOL    HW228533   0.525   1.564   3.474
 9212SOL     OW28534   3.128   5.165   4.878
 9212SOL    HW128535   3.047   5.145   4.823
 9212SOL    HW228536   3.169   5.251   4.848
 9213SOL     OW28537   5.767   3.738   6.054
 9213SOL    HW128538   5.736   3.655   6.008
 9213SOL    HW228539   5.688   3.791   6.084
 9214SOL     OW28540   0.364   5.348   0.814
 9214SOL    HW128541   0.442   5.381   0.868
 9214SOL    HW228542   0.335   5.259   0.848
 9215SOL     OW28543   1.120   0.916   0.393
 9215SOL    HW128544   1.189   0.958   0.452
 9215SOL    HW228545   1.124   0.817   0.402
 9216SOL     OW28546   2.380   6.658   2.801
 9216SOL    HW128547   2.457   6.623   2.855
 9216SOL    HW228548   2.415   6.707   2.722
 9217SOL     OW28549   1.526   2.466   6.655
 9217SOL    HW128550   1.605   2.419   6.694
 9217SOL    HW228551   1.447   2.405   6.653
 9218SOL     OW28552   3.330   0.618   0.362
 9218SOL    HW128553   3.267   0.562   0.416
 9218SOL    HW228554   3.277   0.681   0.305
 9219SOL     OW28555   0.304   2.164   1.239
 9219SOL    HW128556   0.239   2.096   1.273
 9219SOL    HW228557   0.257   2.225   1.176
 9220SOL     OW28558   3.585   6.542   1.864
 9220SOL    HW128559   3.576   6.456   1.914
 9220SOL    HW228560   3.581   6.619   1.928
 9221SOL     OW28561   2.490   5.514   4.339
 9221SOL    HW128562   2.418   5.472   4.284
 9221SOL    HW228563   2.458   5.602   4.375
 9222SOL     OW28564   2.587   2.187   6.063
 9222SOL    HW128565   2.667   2.159   6.011
 9222SOL    HW228566   2.552   2.273   6.026
 9223SOL     OW28567   2.780   3.005   5.345
 9223SOL    HW128568   2.737   2.933   5.399
 9223SOL    HW228569   2.709   3.062   5.303
 9224SOL     OW28570   2.019   5.084   4.651
 9224SOL    HW128571   2.095   5.139   4.687
 9224SOL    HW228572   1.982   5.028   4.724
 9225SOL     OW28573   2.373   5.795   6.445
 9225SOL    HW128574   2.413   5.813   6.535
 9225SOL    HW228575   2.372   5.697   6.427
 9226SOL     OW28576   4.902   0.005   1.179
 9226SOL    HW128577   4.816   0.038   1.219
 9226SOL    HW228578   4.883   6.951   1.117
 9227SOL     OW28579   1.967   5.471   2.917
 9227SOL    HW128580   2.042   5.476   2.982
 9227SOL    HW228581   1.981   5.393   2.856
 9228SOL     OW28582   1.266   0.440   0.066
 9228SOL    HW128583   1.272   0.499   7.008
 9228SOL    HW228584   1.357   0.407   0.091
 9229SOL     OW28585   0.443   5.567   4.864
 9229SOL    HW128586   0.446   5.467   4.864
 9229SOL    HW228587   0.502   5.601   4.938
 9230SOL     OW28588   5.654   0.671   4.233
 9230SOL    HW128589   5.745   0.678   4.193
 9230SOL    HW228590   5.615   0.763   4.244
 9231SOL     OW28591   1.528   2.769   3.734
 9231SOL    HW128592   1.437   2.798   3.705
 9231SOL    HW228593   1.531   2.669   3.738
 9232SOL     OW28594   3.574   4.666   1.025
 9232SOL    HW128595   3.526   4.751   1.050
 9232SOL    HW228596   3.672   4.684   1.021
 9233SOL     OW28597   5.519   4.959   0.423
 9233SOL    HW128598   5.442   4.918   0.471
 9233SOL    HW228599   5.516   5.059   0.433
 9234SOL     OW28600   2.558   5.590   3.680
 9234SOL    HW128601   2.473   5.586   3.733
 9234SOL    HW228602   2.581   5.686   3.662
 9235SOL     OW28603   0.734   2.086   3.008
 9235SOL    HW128604   0.728   2.016   3.079
 9235SOL    HW228605   0.679   2.059   2.929
 9236SOL     OW28606   2.999   3.301   5.136
 9236SOL    HW128607   3.031   3.206   5.126
 9236SOL    HW228608   2.922   3.316   5.075
 9237SOL     OW28609   1.944   3.911   3.855
 9237SOL    HW128610   1.935   3.822   3.811
 9237SOL    HW228611   1.915   3.983   3.792
 9238SOL     OW28612   4.752   3.031   6.099
 9238SOL    HW128613   4.802   3.020   6.185
 9238SOL    HW228614   4.675   2.967   6.097
 9239SOL     OW28615   1.170   4.196   0.845
 9239SOL    HW128616   1.259   4.164   0.879
 9239SOL    HW228617   1.110   4.213   0.923
 9240SOL     OW28618   4.450   1.663   2.185
 9240SOL    HW128619   4.449   1.758   2.156
 9240SOL    HW228620   4.379   1.648   2.254
 9241SOL     OW28621   0.526   5.692   6.783
 9241SOL    HW128622   0.523   5.784   6.743
 9241SOL    HW228623   0.492   5.695   6.877
 9242SOL     OW28624   6.277   5.902   2.003
 9242SOL    HW128625   6.253   5.909   1.906
 9242SOL    HW228626   6.370   5.934   2.016
 9243SOL     OW28627   6.133   5.626   4.898
 9243SOL    HW128628   6.116   5.723   4.877
 9243SOL    HW228629   6.077   5.599   4.976
 9244SOL     OW28630   3.560   5.073   6.204
 9244SOL    HW128631   3.583   5.166   6.177
 9244SOL    HW228632   3.639   5.030   6.248
 9245SOL     OW28633   0.368   5.629   1.661
 9245SOL    HW128634   0.314   5.637   1.745
 9245SOL    HW228635   0.463   5.650   1.681
 9246SOL     OW28636   0.199   5.404   4.055
 9246SOL    HW128637   0.111   5.417   4.010
 9246SOL    HW228638   0.202   5.455   4.140
 9247SOL     OW28639   1.958   6.727   2.778
 9247SOL    HW128640   1.911   6.787   2.844
 9247SOL    HW228641   1.894   6.658   2.744
 9248SOL     OW28642   2.751   1.869   6.461
 9248SOL    HW128643   2.699   1.868   6.546
 9248SOL    HW228644   2.799   1.956   6.452
 9249SOL     OW28645   4.596   0.274   3.928
 9249SOL    HW128646   4.612   0.252   3.832
 9249SOL    HW228647   4.601   0.191   3.983
 9250SOL     OW28648   5.136   3.647   3.842
 9250SOL    HW128649   5.100   3.663   3.750
 9250SOL    HW228650   5.236   3.657   3.842
 9251SOL     OW28651   3.340   2.040   2.804
 9251SOL    HW128652   3.248   2.078   2.817
 9251SOL    HW228653   3.345   1.995   2.715
 9252SOL     OW28654   0.472   0.343   5.349
 9252SOL    HW128655   0.456   0.355   5.447
 9252SOL    HW228656   0.430   0.419   5.299
 9253SOL     OW28657   1.455   6.851   6.149
 9253SOL    HW128658   1.476   6.935   6.198
 9253SOL    HW228659   1.393   6.795   6.205
 9254SOL     OW28660   5.895   4.026   1.443
 9254SOL    HW128661   5.993   4.014   1.429
 9254SOL    HW228662   5.874   4.124   1.451
 9255SOL     OW28663   5.509   4.510   0.796
 9255SOL    HW128664   5.442   4.559   0.852
 9255SOL    HW228665   5.482   4.517   0.699
 9256SOL     OW28666   4.261   4.657   2.023
 9256SOL    HW128667   4.342   4.606   2.051
 9256SOL    HW228668   4.179   4.603   2.044
 9257SOL     OW28669   1.399   4.357   1.273
 9257SOL    HW128670   1.343   4.425   1.226
 9257SOL    HW228671   1.342   4.277   1.293
 9258SOL     OW28672   4.121   3.597   3.157
 9258SOL    HW128673   4.117   3.569   3.253
 9258SOL    HW228674   4.143   3.694   3.152
 9259SOL     OW28675   1.169   2.920   0.742
 9259SOL    HW128676   1.163   2.866   0.658
 9259SOL    HW228677   1.081   2.918   0.789
 9260SOL     OW28678   5.238   3.674   5.720
 9260SOL    HW128679   5.230   3.648   5.817
 9260SOL    HW228680   5.329   3.649   5.687
 9261SOL     OW28681   4.399   0.365   6.585
 9261SOL    HW128682   4.398   0.443   6.522
 9261SOL    HW228683   4.434   0.284   6.539
 9262SOL     OW28684   4.785   1.422   5.627
 9262SOL    HW128685   4.800   1.331   5.666
 9262SOL    HW228686   4.757   1.485   5.699
 9263SOL     OW28687   5.183   3.625   1.543
 9263SOL    HW128688   5.249   3.652   1.614
 9263SOL    HW228689   5.090   3.642   1.575
 9264SOL     OW28690   6.439   3.744   0.161
 9264SOL    HW128691   6.402   3.756   0.069
 9264SOL    HW228692   6.365   3.756   0.228
 9265SOL     OW28693   2.335   1.359   6.873
 9265SOL    HW128694   2.236   1.354   6.886
 9265SOL    HW228695   2.382   1.328   6.956
 9266SOL     OW28696   2.179   6.331   3.175
 9266SOL    HW128697   2.155   6.340   3.079
 9266SOL    HW228698   2.179   6.234   3.201
 9267SOL     OW28699   1.007   4.751   4.401
 9267SOL    HW128700   1.034   4.666   4.446
 9267SOL    HW228701   1.089   4.799   4.369
 9268SOL     OW28702   0.795   6.894   2.996
 9268SOL    HW128703   0.765   6.916   2.903
 9268SOL    HW228704   0.720   6.851   3.046
 9269SOL     OW28705   3.195   1.543   6.217
 9269SOL    HW128706   3.105   1.547   6.173
 9269SOL    HW228707   3.209   1.451   6.253
 9270SOL     OW28708   6.804   6.820   6.388
 9270SOL    HW128709   6.775   6.888   6.455
 9270SOL    HW228710   6.903   6.809   6.392
 9271SOL     OW28711   1.570   5.171   0.412
 9271SOL    HW128712   1.669   5.174   0.421
 9271SOL    HW228713   1.529   5.152   0.501
 9272SOL     OW28714   2.593   4.890   5.750
 9272SOL    HW128715   2.504   4.863   5.787
 9272SOL    HW228716   2.585   4.905   5.651
 9273SOL     OW28717   4.046   5.504   4.864
 9273SOL    HW128718   4.075   5.518   4.770
 9273SOL    HW228719   3.953   5.539   4.876
 9274SOL     OW28720   6.422   2.278   6.720
 9274SOL    HW128721   6.495   2.325   6.769
 9274SOL    HW228722   6.341   2.337   6.718
 9275SOL     OW28723   1.515   0.476   6.733
 9275SOL    HW128724   1.486   0.547   6.797
 9275SOL    HW228725   1.557   0.519   6.653
 9276SOL     OW28726   4.244   5.844   5.038
 9276SOL    HW128727   4.324   5.849   4.978
 9276SOL    HW228728   4.274   5.824   5.131
 9277SOL     OW28729   3.694   3.001   6.856
 9277SOL    HW128730   3.629   2.971   6.786
 9277SOL    HW228731   3.738   2.922   6.897
 9278SOL     OW28732   1.136   1.982   2.696
 9278SOL    HW128733   1.225   2.025   2.685
 9278SOL    HW228734   1.109   1.986   2.793
 9279SOL     OW28735   3.268   0.017   1.909
 9279SOL    HW128736   3.325   0.089   1.869
 9279SOL    HW228737   3.280   6.955   1.857
 9280SOL     OW28738   1.956   6.456   3.304
 9280SOL    HW128739   1.993   6.523   3.369
 9280SOL    HW228740   2.032   6.410   3.258
 9281SOL     OW28741   1.970   2.348   0.092
 9281SOL    HW128742   2.043   2.396   0.043
 9281SOL    HW228743   2.009   2.273   0.145
 9282SOL     OW28744   4.350   1.754   5.462
 9282SOL    HW128745   4.255   1.768   5.491
 9282SOL    HW228746   4.374   1.658   5.472
 9283SOL     OW28747   5.627   2.740   2.233
 9283SOL    HW128748   5.691   2.677   2.189
 9283SOL    HW228749   5.635   2.830   2.191
 9284SOL     OW28750   3.104   3.287   1.138
 9284SOL    HW128751   3.121   3.301   1.040
 9284SOL    HW228752   3.187   3.307   1.189
 9285SOL     OW28753   6.196   2.842   6.837
 9285SOL    HW128754   6.263   2.903   6.880
 9285SOL    HW228755   6.115   2.896   6.811
 9286SOL     OW28756   5.244   6.743   5.273
 9286SOL    HW128757   5.205   6.833   5.252
 9286SOL    HW228758   5.219   6.679   5.200
 9287SOL     OW28759   3.299   6.550   1.339
 9287SOL    HW128760   3.222   6.486   1.336
 9287SOL    HW228761   3.350   6.537   1.424
 9288SOL     OW28762   4.917   2.407   5.867
 9288SOL    HW128763   4.993   2.423   5.930
 9288SOL    HW228764   4.895   2.492   5.818
 9289SOL     OW28765   5.016   2.863   2.499
 9289SOL    HW128766   4.967   2.947   2.520
 9289SOL    HW228767   5.063   2.830   2.580
 9290SOL     OW28768   4.739   1.815   4.528
 9290SOL    HW128769   4.739   1.722   4.491
 9290SOL    HW228770   4.825   1.832   4.577
 9291SOL     OW28771   0.449   1.294   4.408
 9291SOL    HW128772   0.446   1.198   4.437
 9291SOL    HW228773   0.427   1.300   4.311
 9292SOL     OW28774   0.295   3.245   6.429
 9292SOL    HW128775   0.345   3.246   6.342
 9292SOL    HW228776   0.345   3.189   6.495
 9293SOL     OW28777   5.460   4.029   0.185
 9293SOL    HW128778   5.372   3.990   0.159
 9293SOL    HW228779   5.528   3.956   0.195
 9294SOL     OW28780   5.584   6.486   6.899
 9294SOL    HW128781   5.682   6.470   6.910
 9294SOL    HW228782   5.566   6.584   6.899
 9295SOL     OW28783   4.796   1.800   2.993
 9295SOL    HW128784   4.886   1.758   2.990
 9295SOL    HW228785   4.805   1.899   2.981
 9296SOL     OW28786   5.680   6.864   5.881
 9296SOL    HW128787   5.776   6.843   5.900
 9296SOL    HW228788   5.622   6.790   5.915
 9297SOL     OW28789   0.335   1.011   0.807
 9297SOL    HW128790   0.300   0.933   0.755
 9297SOL    HW228791   0.265   1.042   0.871
 9298SOL     OW28792   1.341   5.997   4.995
 9298SOL    HW128793   1.339   6.058   4.915
 9298SOL    HW228794   1.415   6.024   5.056
 9299SOL     OW28795   1.849   3.285   4.141
 9299SOL    HW128796   1.900   3.219   4.196
 9299SOL    HW228797   1.754   3.289   4.173
 9300SOL     OW28798   5.115   4.530   4.790
 9300SOL    HW128799   5.091   4.439   4.756
 9300SOL    HW228800   5.193   4.566   4.738
 9301SOL     OW28801   5.240   4.508   2.656
 9301SOL    HW128802   5.198   4.589   2.615
 9301SOL    HW228803   5.200   4.426   2.616
 9302SOL     OW28804   2.397   2.170   2.550
 9302SOL    HW128805   2.433   2.259   2.577
 9302SOL    HW228806   2.297   2.174   2.547
 9303SOL     OW28807   3.584   5.626   6.880
 9303SOL    HW128808   3.507   5.576   6.841
 9303SOL    HW228809   3.600   5.596   6.974
 9304SOL     OW28810   3.828   3.714   0.980
 9304SOL    HW128811   3.905   3.658   0.948
 9304SOL    HW228812   3.774   3.661   1.045
 9305SOL     OW28813   5.490   3.125   1.982
 9305SOL    HW128814   5.494   3.037   1.934
 9305SOL    HW228815   5.573   3.137   2.036
 9306SOL     OW28816   6.924   3.882   4.173
 9306SOL    HW128817   6.975   3.963   4.204
 9306SOL    HW228818   6.980   3.800   4.186
 9307SOL     OW28819   1.540   1.866   0.157
 9307SOL    HW128820   1.468   1.810   0.197
 9307SOL    HW228821   1.624   1.855   0.209
 9308SOL     OW28822   0.268   3.006   0.686
 9308SOL    HW128823   0.257   3.104   0.701
 9308SOL    HW228824   0.290   2.989   0.590
 9309SOL     OW28825   4.906   3.377   5.856
 9309SOL    HW128826   4.897   3.430   5.771
 9309SOL    HW228827   4.946   3.434   5.927
 9310SOL     OW28828   4.481   5.993   6.926
 9310SOL    HW128829   4.550   5.933   6.886
 9310SOL    HW228830   4.525   6.062   6.983
 9311SOL     OW28831   6.028   3.367   0.957
 9311SOL    HW128832   6.079   3.434   1.012
 9311SOL    HW228833   5.960   3.322   1.015
 9312SOL     OW28834   1.373   4.062   6.328
 9312SOL    HW128835   1.420   4.110   6.253
 9312SOL    HW228836   1.275   4.057   6.308
 9313SOL     OW28837   6.632   6.825   3.084
 9313SOL    HW128838   6.562   6.826   3.155
 9313SOL    HW228839   6.716   6.865   3.119
 9314SOL     OW28840   4.758   4.730   0.110
 9314SOL    HW128841   4.671   4.753   0.152
 9314SOL    HW228842   4.826   4.799   0.134
 9315SOL     OW28843   0.327   6.709   5.960
 9315SOL    HW128844   0.246   6.715   5.900
 9315SOL    HW228845   0.377   6.625   5.939
 9316SOL     OW28846   4.014   6.065   4.021
 9316SOL    HW128847   3.923   6.065   3.980
 9316SOL    HW228848   4.006   6.055   4.120
 9317SOL     OW28849   6.660   4.949   4.016
 9317SOL    HW128850   6.724   4.906   4.081
 9317SOL    HW228851   6.650   5.045   4.039
 9318SOL     OW28852   0.440   0.640   6.383
 9318SOL    HW128853   0.420   0.667   6.477
 9318SOL    HW228854   0.361   0.589   6.346
 9319SOL     OW28855   0.436   3.194   5.830
 9319SOL    HW128856   0.399   3.258   5.762
 9319SOL    HW228857   0.362   3.161   5.888
 9320SOL     OW28858   4.238   2.377   6.080
 9320SOL    HW128859   4.160   2.391   6.140
 9320SOL    HW228860   4.321   2.413   6.123
 9321SOL     OW28861   6.494   5.874   3.259
 9321SOL    HW128862   6.397   5.896   3.263
 9321SOL    HW228863   6.547   5.958   3.272
 9322SOL     OW28864   1.073   6.537   6.470
 9322SOL    HW128865   1.128   6.620   6.462
 9322SOL    HW228866   0.983   6.553   6.430
 9323SOL     OW28867   0.925   0.794   6.713
 9323SOL    HW128868   0.846   0.830   6.664
 9323SOL    HW228869   0.942   0.850   6.794
 9324SOL     OW28870   1.252   5.790   0.201
 9324SOL    HW128871   1.327   5.851   0.226
 9324SOL    HW228872   1.168   5.843   0.189
 9325SOL     OW28873   5.935   2.480   0.913
 9325SOL    HW128874   5.925   2.546   0.988
 9325SOL    HW228875   6.024   2.492   0.869
 9326SOL     OW28876   1.443   6.762   1.335
 9326SOL    HW128877   1.426   6.859   1.355
 9326SOL    HW228878   1.491   6.720   1.412
 9327SOL     OW28879   4.292   0.877   2.839
 9327SOL    HW128880   4.238   0.841   2.764
 9327SOL    HW228881   4.372   0.925   2.803
 9328SOL     OW28882   3.597   1.267   1.533
 9328SOL    HW128883   3.547   1.354   1.538
 9328SOL    HW228884   3.569   1.217   1.451
 9329SOL     OW28885   1.190   3.172   1.907
 9329SOL    HW128886   1.259   3.132   1.848
 9329SOL    HW228887   1.178   3.115   1.989
 9330SOL     OW28888   5.955   0.776   0.055
 9330SOL    HW128889   5.978   0.713   0.129
 9330SOL    HW228890   6.030   0.842   0.044
 9331SOL     OW28891   0.636   1.018   6.930
 9331SOL    HW128892   0.630   1.088   6.858
 9331SOL    HW228893   0.643   0.928   6.888
 9332SOL     OW28894   3.070   3.232   4.055
 9332SOL    HW128895   3.066   3.188   3.965
 9332SOL    HW228896   3.081   3.163   4.126
 9333SOL     OW28897   5.971   4.744   0.491
 9333SOL    HW128898   5.904   4.670   0.489
 9333SOL    HW228899   6.001   4.760   0.584
 9334SOL     OW28900   2.881   0.178   4.441
 9334SOL    HW128901   2.914   0.087   4.417
 9334SOL    HW228902   2.902   0.242   4.367
 9335SOL     OW28903   1.039   0.390   0.404
 9335SOL    HW128904   1.012   0.367   0.310
 9335SOL    HW228905   1.033   0.308   0.461
 9336SOL     OW28906   2.586   6.682   6.153
 9336SOL    HW128907   2.492   6.672   6.121
 9336SOL    HW228908   2.648   6.641   6.087
 9337SOL     OW28909   5.496   0.378   2.436
 9337SOL    HW128910   5.448   0.453   2.390
 9337SOL    HW228911   5.506   0.302   2.372
 9338SOL     OW28912   3.708   0.055   2.107
 9338SOL    HW128913   3.782   0.002   2.064
 9338SOL    HW228914   3.742   0.144   2.135
 9339SOL     OW28915   4.424   6.473   1.104
 9339SOL    HW128916   4.495   6.497   1.169
 9339SOL    HW228917   4.335   6.473   1.150
 9340SOL     OW28918   6.003   3.505   6.619
 9340SOL    HW128919   6.060   3.586   6.628
 9340SOL    HW228920   5.954   3.509   6.532
 9341SOL     OW28921   0.167   5.389   6.472
 9341SOL    HW128922   0.213   5.417   6.556
 9341SOL    HW228923   0.071   5.416   6.477
 9342SOL     OW28924   1.420   6.291   6.392
 9342SOL    HW128925   1.419   6.230   6.471
 9342SOL    HW228926   1.373   6.248   6.315
 9343SOL     OW28927   5.857   5.353   4.790
 9343SOL    HW128928   5.847   5.450   4.766
 9343SOL    HW228929   5.954   5.328   4.787
 9344SOL     OW28930   5.553   6.817   1.597
 9344SOL    HW128931   5.536   6.793   1.501
 9344SOL    HW228932   5.616   6.750   1.638
 9345SOL     OW28933   6.516   3.224   1.127
 9345SOL    HW128934   6.575   3.217   1.207
 9345SOL    HW228935   6.500   3.133   1.089
 9346SOL     OW28936   5.732   6.972   0.664
 9346SOL    HW128937   5.832   6.973   0.674
 9346SOL    HW228938   5.707   7.011   0.575
 9347SOL     OW28939   1.412   0.023   1.343
 9347SOL    HW128940   1.319   0.039   1.310
 9347SOL    HW228941   1.436   0.092   1.411
 9348SOL     OW28942   2.955   4.963   6.756
 9348SOL    HW128943   2.857   4.944   6.764
 9348SOL    HW228944   2.985   5.017   6.834
 9349SOL     OW28945   1.982   0.116   2.725
 9349SOL    HW128946   1.951   0.089   2.816
 9349SOL    HW228947   2.001   0.034   2.671
 9350SOL     OW28948   0.610   2.645   5.976
 9350SOL    HW128949   0.689   2.672   6.030
 9350SOL    HW228950   0.581   2.553   6.003
 9351SOL     OW28951   3.214   1.961   6.579
 9351SOL    HW128952   3.297   2.016   6.586
 9351SOL    HW228953   3.162   1.967   6.664
 9352SOL     OW28954   2.349   5.178   5.429
 9352SOL    HW128955   2.293   5.243   5.481
 9352SOL    HW228956   2.445   5.208   5.432
 9353SOL     OW28957   6.454   0.415   1.086
 9353SOL    HW128958   6.440   0.437   0.990
 9353SOL    HW228959   6.530   0.471   1.122
 9354SOL     OW28960   6.979   2.471   6.600
 9354SOL    HW128961   6.903   2.532   6.625
 9354SOL    HW228962   6.953   2.415   6.522
 9355SOL     OW28963   0.120   1.627   5.145
 9355SOL    HW128964   0.143   1.713   5.100
 9355SOL    HW228965   0.090   1.561   5.076
 9356SOL     OW28966   5.094   6.975   2.113
 9356SOL    HW128967   5.041   7.005   2.192
 9356SOL    HW228968   5.033   6.966   2.034
 9357SOL     OW28969   0.815   2.346   6.773
 9357SOL    HW128970   0.778   2.291   6.848
 9357SOL    HW228971   0.770   2.435   6.772
 9358SOL     OW28972   0.801   3.520   1.384
 9358SOL    HW128973   0.814   3.562   1.473
 9358SOL    HW228974   0.708   3.483   1.378
 9359SOL     OW28975   1.440   0.181   5.675
 9359SOL    HW128976   1.421   0.249   5.606
 9359SOL    HW228977   1.520   0.127   5.648
 9360SOL     OW28978   1.040   6.920   6.403
 9360SOL    HW128979   1.105   6.853   6.368
 9360SOL    HW228980   1.055   6.932   6.502
 9361SOL     OW28981   1.898   6.170   3.856
 9361SOL    HW128982   1.877   6.086   3.906
 9361SOL    HW228983   1.825   6.188   3.790
 9362SOL     OW28984   1.855   0.347   2.639
 9362SOL    HW128985   1.891   0.274   2.697
 9362SOL    HW228986   1.893   0.339   2.547
 9363SOL     OW28987   2.385   4.983   2.189
 9363SOL    HW128988   2.341   4.927   2.118
 9363SOL    HW228989   2.343   5.074   2.189
 9364SOL     OW28990   1.658   2.171   0.865
 9364SOL    HW128991   1.727   2.149   0.933
 9364SOL    HW228992   1.598   2.244   0.900
 9365SOL     OW28993   3.423   1.880   4.400
 9365SOL    HW128994   3.368   1.920   4.327
 9365SOL    HW228995   3.365   1.866   4.481
 9366SOL     OW28996   4.088   5.519   1.421
 9366SOL    HW128997   4.044   5.599   1.462
 9366SOL    HW228998   4.018   5.452   1.396
 9367SOL     OW28999   0.160   0.917   1.066
 9367SOL    HW129000   0.091   0.904   1.136
 9367SOL    HW229001   0.243   0.866   1.091
 9368SOL     OW29002   3.447   0.205   3.000
 9368SOL    HW129003   3.348   0.193   3.007
 9368SOL    HW229004   3.479   0.256   3.080
 9369SOL     OW29005   2.814   5.438   0.309
 9369SOL    HW129006   2.831   5.372   0.383
 9369SOL    HW229007   2.723   5.421   0.271
 9370SOL     OW29008   4.512   1.339   4.254
 9370SOL    HW129009   4.569   1.377   4.181
 9370SOL    HW229010   4.562   1.341   4.341
 9371SOL     OW29011   4.471   5.376   0.982
 9371SOL    HW129012   4.432   5.399   0.892
 9371SOL    HW229013   4.397   5.354   1.045
 9372SOL     OW29014   4.682   6.525   1.712
 9372SOL    HW129015   4.692   6.608   1.768
 9372SOL    HW229016   4.602   6.534   1.653
 9373SOL     OW29017   0.293   2.305   0.994
 9373SOL    HW129018   0.238   2.384   0.967
 9373SOL    HW229019   0.301   2.243   0.916
 9374SOL     OW29020   0.248   5.366   5.747
 9374SOL    HW129021   0.344   5.354   5.719
 9374SOL    HW229022   0.200   5.278   5.739
 9375SOL     OW29023   0.550   0.813   0.383
 9375SOL    HW129024   0.644   0.795   0.356
 9375SOL    HW229025   0.527   0.908   0.359
 9376SOL     OW29026   1.962   3.756   1.673
 9376SOL    HW129027   1.924   3.725   1.761
 9376SOL    HW229028   1.916   3.840   1.645
 9377SOL     OW29029   1.871   0.980   3.803
 9377SOL    HW129030   1.818   0.977   3.718
 9377SOL    HW229031   1.968   0.975   3.782
 9378SOL     OW29032   3.217   0.783   4.284
 9378SOL    HW129033   3.148   0.841   4.327
 9378SOL    HW229034   3.302   0.789   4.335
 9379SOL     OW29035   4.257   6.517   4.473
 9379SOL    HW129036   4.278   6.433   4.423
 9379SOL    HW229037   4.190   6.498   4.544
 9380SOL     OW29038   4.895   5.933   0.049
 9380SOL    HW129039   4.952   5.861   0.088
 9380SOL    HW229040   4.935   5.963   6.985
 9381SOL     OW29041   5.854   1.476   5.327
 9381SOL    HW129042   5.921   1.535   5.283
 9381SOL    HW229043   5.802   1.426   5.258
 9382SOL     OW29044   3.041   5.858   5.379
 9382SOL    HW129045   2.988   5.942   5.367
 9382SOL    HW229046   3.011   5.790   5.313
 9383SOL     OW29047   5.789   4.566   2.686
 9383SOL    HW129048   5.828   4.525   2.768
 9383SOL    HW229049   5.713   4.510   2.653
 9384SOL     OW29050   2.463   0.934   2.145
 9384SOL    HW129051   2.372   0.919   2.106
 9384SOL    HW229052   2.520   0.981   2.077
 9385SOL     OW29053   4.664   1.478   3.603
 9385SOL    HW129054   4.569   1.493   3.577
 9385SOL    HW229055   4.672   1.391   3.652
 9386SOL     OW29056   4.729   6.621   0.450
 9386SOL    HW129057   4.773   6.688   0.509
 9386SOL    HW229058   4.717   6.660   0.359
 9387SOL     OW29059   2.811   2.579   0.500
 9387SOL    HW129060   2.713   2.593   0.510
 9387SOL    HW229061   2.845   2.526   0.578
 9388SOL     OW29062   2.325   6.333   5.055
 9388SOL    HW129063   2.289   6.351   4.963
 9388SOL    HW229064   2.348   6.420   5.099
 9389SOL     OW29065   2.645   4.985   1.830
 9389SOL    HW129066   2.639   4.894   1.872
 9389SOL    HW229067   2.554   5.027   1.828
 9390SOL     OW29068   5.361   5.389   4.455
 9390SOL    HW129069   5.343   5.336   4.372
 9390SOL    HW229070   5.348   5.330   4.536
 9391SOL     OW29071   1.264   4.875   4.373
 9391SOL    HW129072   1.273   4.938   4.450
 9391SOL    HW229073   1.354   4.847   4.341
 9392SOL     OW29074   5.117   4.574   3.209
 9392SOL    HW129075   5.100   4.551   3.114
 9392SOL    HW229076   5.209   4.543   3.235
 9393SOL     OW29077   2.537   6.257   6.301
 9393SOL    HW129078   2.560   6.323   6.373
 9393SOL    HW229079   2.621   6.220   6.262
 9394SOL     OW29080   3.459   0.918   0.313
 9394SOL    HW129081   3.449   1.016   0.299
 9394SOL    HW229082   3.449   0.896   0.410
 9395SOL     OW29083   2.020   1.844   0.755
 9395SOL    HW129084   1.956   1.867   0.828
 9395SOL    HW229085   2.008   1.749   0.729
 9396SOL     OW29086   0.825   6.668   6.815
 9396SOL    HW129087   0.833   6.569   6.833
 9396SOL    HW229088   0.912   6.702   6.780
 9397SOL     OW29089   3.501   0.455   5.177
 9397SOL    HW129090   3.578   0.419   5.126
 9397SOL    HW229091   3.435   0.382   5.194
 9398SOL     OW29092   0.826   1.967   0.101
 9398SOL    HW129093   0.824   1.868   0.114
 9398SOL    HW229094   0.912   1.993   0.058
 9399SOL     OW29095   0.800   2.906   4.126
 9399SOL    HW129096   0.707   2.927   4.156
 9399SOL    HW229097   0.861   2.981   4.153
 9400SOL     OW29098   5.692   1.262   0.782
 9400SOL    HW129099   5.618   1.225   0.727
 9400SOL    HW229100   5.725   1.347   0.741
 9401SOL     OW29101   0.718   2.417   3.774
 9401SOL    HW129102   0.622   2.405   3.746
 9401SOL    HW229103   0.722   2.472   3.857
 9402SOL     OW29104   2.493   6.617   3.832
 9402SOL    HW129105   2.551   6.691   3.867
 9402SOL    HW229106   2.397   6.639   3.850
 9403SOL     OW29107   5.871   2.277   2.092
 9403SOL    HW129108   5.881   2.186   2.132
 9403SOL    HW229109   5.809   2.273   2.013
 9404SOL     OW29110   2.121   2.545   0.855
 9404SOL    HW129111   2.139   2.520   0.760
 9404SOL    HW229112   2.068   2.472   0.899
 9405SOL     OW29113   6.832   5.695   5.354
 9405SOL    HW129114   6.926   5.692   5.321
 9405SOL    HW229115   6.828   5.662   5.448
 9406SOL     OW29116   0.918   2.552   0.071
 9406SOL    HW129117   0.855   2.621   0.035
 9406SOL    HW229118   0.977   2.520   7.019
 9407SOL     OW29119   1.275   4.998   5.538
 9407SOL    HW129120   1.215   5.020   5.462
 9407SOL    HW229121   1.348   5.066   5.544
 9408SOL     OW29122   0.268   3.677   4.565
 9408SOL    HW129123   0.311   3.599   4.611
 9408SOL    HW229124   0.340   3.737   4.529
 9409SOL     OW29125   6.460   4.829   3.074
 9409SOL    HW129126   6.505   4.919   3.069
 9409SOL    HW229127   6.442   4.807   3.170
 9410SOL     OW29128   3.521   1.149   0.914
 9410SOL    HW129129   3.613   1.187   0.907
 9410SOL    HW229130   3.462   1.215   0.960
 9411SOL     OW29131   2.938   3.394   3.014
 9411SOL    HW129132   2.944   3.492   2.993
 9411SOL    HW229133   2.928   3.343   2.929
 9412SOL     OW29134   5.733   6.228   1.337
 9412SOL    HW129135   5.675   6.201   1.261
 9412SOL    HW229136   5.762   6.323   1.324
 9413SOL     OW29137   5.039   3.997   3.092
 9413SOL    HW129138   5.012   3.935   3.166
 9413SOL    HW229139   5.021   3.954   3.004
 9414SOL     OW29140   1.796   2.118   3.364
 9414SOL    HW129141   1.891   2.095   3.388
 9414SOL    HW229142   1.768   2.063   3.285
 9415SOL     OW29143   4.790   1.305   1.914
 9415SOL    HW129144   4.838   1.365   1.849
 9415SOL    HW229145   4.810   1.336   2.007
 9416SOL     OW29146   5.680   5.227   5.301
 9416SOL    HW129147   5.749   5.189   5.362
 9416SOL    HW229148   5.595   5.175   5.309
 9417SOL     OW29149   3.060   5.260   2.729
 9417SOL    HW129150   3.108   5.181   2.689
 9417SOL    HW229151   3.113   5.295   2.806
 9418SOL     OW29152   3.704   1.618   5.125
 9418SOL    HW129153   3.627   1.597   5.065
 9418SOL    HW229154   3.674   1.681   5.197
 9419SOL     OW29155   1.441   3.158   6.333
 9419SOL    HW129156   1.361   3.218   6.326
 9419SOL    HW229157   1.466   3.125   6.242
 9420SOL     OW29158   5.756   4.211   6.317
 9420SOL    HW129159   5.807   4.290   6.353
 9420SOL    HW229160   5.659   4.232   6.314
 9421SOL     OW29161   4.183   6.603   6.737
 9421SOL    HW129162   4.102   6.545   6.731
 9421SOL    HW229163   4.264   6.550   6.713
 9422SOL     OW29164   1.953   6.049   5.701
 9422SOL    HW129165   1.893   5.977   5.735
 9422SOL    HW229166   1.906   6.101   5.630
 9423SOL     OW29167   4.450   4.578   2.446
 9423SOL    HW129168   4.478   4.510   2.513
 9423SOL    HW229169   4.520   4.649   2.439
 9424SOL     OW29170   6.292   0.368   4.116
 9424SOL    HW129171   6.307   0.418   4.202
 9424SOL    HW229172   6.258   0.432   4.047
 9425SOL     OW29173   6.745   4.141   1.275
 9425SOL    HW129174   6.693   4.227   1.272
 9425SOL    HW229175   6.796   4.131   1.190
 9426SOL     OW29176   6.803   2.673   6.075
 9426SOL    HW129177   6.871   2.603   6.099
 9426SOL    HW229178   6.848   2.762   6.070
 9427SOL     OW29179   4.621   4.378   2.641
 9427SOL    HW129180   4.717   4.403   2.647
 9427SOL    HW229181   4.597   4.319   2.718
 9428SOL     OW29182   1.204   5.833   5.876
 9428SOL    HW129183   1.213   5.737   5.902
 9428SOL    HW229184   1.247   5.848   5.787
 9429SOL     OW29185   2.338   2.742   4.387
 9429SOL    HW129186   2.391   2.684   4.326
 9429SOL    HW229187   2.356   2.717   4.482
 9430SOL     OW29188   1.486   1.651   4.581
 9430SOL    HW129189   1.557   1.717   4.556
 9430SOL    HW229190   1.524   1.582   4.642
 9431SOL     OW29191   0.669   4.220   5.445
 9431SOL    HW129192   0.752   4.257   5.487
 9431SOL    HW229193   0.679   4.219   5.346
 9432SOL     OW29194   6.916   1.257   3.652
 9432SOL    HW129195   6.919   1.159   3.674
 9432SOL    HW229196   6.950   1.309   3.730
 9433SOL     OW29197   4.298   6.195   1.675
 9433SOL    HW129198   4.228   6.141   1.629
 9433SOL    HW229199   4.362   6.232   1.608
 9434SOL     OW29200   4.570   5.699   4.085
 9434SOL    HW129201   4.539   5.636   4.155
 9434SOL    HW229202   4.583   5.649   3.999
 9435SOL     OW29203   6.691   3.779   0.807
 9435SOL    HW129204   6.615   3.743   0.862
 9435SOL    HW229205   6.734   3.705   0.756
 9436SOL     OW29206   2.533   1.080   3.264
 9436SOL    HW129207   2.502   0.986   3.271
 9436SOL    HW229208   2.569   1.097   3.172
 9437SOL     OW29209   5.184   0.436   5.005
 9437SOL    HW129210   5.256   0.464   4.941
 9437SOL    HW229211   5.217   0.360   5.060
 9438SOL     OW29212   4.691   6.786   2.331
 9438SOL    HW129213   4.768   6.780   2.267
 9438SOL    HW229214   4.654   6.694   2.346
 9439SOL     OW29215   1.772   4.080   1.236
 9439SOL    HW129216   1.675   4.070   1.258
 9439SOL    HW229217   1.817   4.130   1.310
 9440SOL     OW29218   2.115   5.191   3.336
 9440SOL    HW129219   2.040   5.128   3.353
 9440SOL    HW229220   2.142   5.186   3.239
 9441SOL     OW29221   0.069   0.114   4.542
 9441SOL    HW129222   0.115   0.083   4.459
 9441SOL    HW229223   0.129   0.175   4.592
 9442SOL     OW29224   5.959   3.053   0.785
 9442SOL    HW129225   5.969   3.145   0.747
 9442SOL    HW229226   5.927   3.060   0.880
 9443SOL     OW29227   1.999   4.288   2.360
 9443SOL    HW129228   2.031   4.367   2.412
 9443SOL    HW229229   2.078   4.237   2.326
 9444SOL     OW29230   1.642   4.950   6.285
 9444SOL    HW129231   1.695   4.942   6.200
 9444SOL    HW229232   1.698   4.923   6.363
 9445SOL     OW29233   0.021   1.393   4.421
 9445SOL    HW129234   0.118   1.414   4.435
 9445SOL    HW229235   7.003   1.465   4.365
 9446SOL     OW29236   6.353   3.695   4.290
 9446SOL    HW129237   6.409   3.654   4.218
 9446SOL    HW229238   6.412   3.741   4.356
 9447SOL     OW29239   5.036   4.318   2.268
 9447SOL    HW129240   4.968   4.274   2.327
 9447SOL    HW229241   5.088   4.249   2.218
 9448SOL     OW29242   6.211   1.323   6.197
 9448SOL    HW129243   6.228   1.387   6.122
 9448SOL    HW229244   6.288   1.259   6.204
 9449SOL     OW29245   4.905   6.743   2.142
 9449SOL    HW129246   4.966   6.756   2.220
 9449SOL    HW229247   4.959   6.735   2.059
 9450SOL     OW29248   1.366   6.277   2.718
 9450SOL    HW129249   1.451   6.285   2.666
 9450SOL    HW229250   1.371   6.332   2.801
 9451SOL     OW29251   3.980   4.958   6.423
 9451SOL    HW129252   3.993   4.964   6.522
 9451SOL    HW229253   3.944   5.045   6.389
 9452SOL     OW29254   5.888   4.406   6.438
 9452SOL    HW129255   5.902   4.487   6.380
 9452SOL    HW229256   5.830   4.430   6.516
 9453SOL     OW29257   5.396   4.581   1.857
 9453SOL    HW129258   5.370   4.502   1.912
 9453SOL    HW229259   5.361   4.665   1.900
 9454SOL     OW29260   6.204   4.612   0.141
 9454SOL    HW129261   6.155   4.691   0.178
 9454SOL    HW229262   6.208   4.619   0.042
 9455SOL     OW29263   3.895   1.221   1.679
 9455SOL    HW129264   3.832   1.285   1.722
 9455SOL    HW229265   3.858   1.191   1.591
 9456SOL     OW29266   6.892   2.273   3.068
 9456SOL    HW129267   6.841   2.267   3.153
 9456SOL    HW229268   6.951   2.192   3.058
 9457SOL     OW29269   6.346   6.702   5.072
 9457SOL    HW129270   6.365   6.604   5.086
 9457SOL    HW229271   6.257   6.724   5.110
 9458SOL     OW29272   6.100   3.891   6.954
 9458SOL    HW129273   6.158   3.923   0.007
 9458SOL    HW229274   6.025   3.955   6.940
 9459SOL     OW29275   4.616   4.381   5.088
 9459SOL    HW129276   4.603   4.296   5.036
 9459SOL    HW229277   4.527   4.423   5.105
 9460SOL     OW29278   1.148   3.205   2.439
 9460SOL    HW129279   1.152   3.226   2.342
 9460SOL    HW229280   1.177   3.285   2.492
 9461SOL     OW29281   1.524   1.741   1.536
 9461SOL    HW129282   1.473   1.826   1.551
 9461SOL    HW229283   1.494   1.672   1.602
 9462SOL     OW29284   0.186   1.149   4.280
 9462SOL    HW129285   0.252   1.082   4.247
 9462SOL    HW229286   0.191   1.155   4.379
 9463SOL     OW29287   5.835   4.320   1.571
 9463SOL    HW129288   5.890   4.367   1.640
 9463SOL    HW229289   5.841   4.369   1.484
 9464SOL     OW29290   1.522   0.668   1.994
 9464SOL    HW129291   1.591   0.739   1.984
 9464SOL    HW229292   1.469   0.684   2.078
 9465SOL     OW29293   6.260   5.123   0.839
 9465SOL    HW129294   6.170   5.082   0.849
 9465SOL    HW229295   6.271   5.195   0.908
 9466SOL     OW29296   4.268   3.639   5.403
 9466SOL    HW129297   4.310   3.550   5.386
 9466SOL    HW229298   4.215   3.666   5.322
 9467SOL     OW29299   1.760   3.003   0.249
 9467SOL    HW129300   1.759   2.952   0.163
 9467SOL    HW229301   1.668   3.003   0.289
 9468SOL     OW29302   6.041   1.493   0.704
 9468SOL    HW129303   5.962   1.553   0.694
 9468SOL    HW229304   6.107   1.534   0.767
 9469SOL     OW29305   6.785   6.393   1.148
 9469SOL    HW129306   6.729   6.457   1.096
 9469SOL    HW229307   6.864   6.441   1.187
 9470SOL     OW29308   3.245   3.245   7.011
 9470SOL    HW129309   3.272   3.263   0.084
 9470SOL    HW229310   3.317   3.279   6.950
 9471SOL     OW29311   6.327   2.739   4.713
 9471SOL    HW129312   6.278   2.652   4.709
 9471SOL    HW229313   6.275   2.804   4.768
 9472SOL     OW29314   1.893   3.278   5.983
 9472SOL    HW129315   1.933   3.352   6.038
 9472SOL    HW229316   1.959   3.204   5.973
 9473SOL     OW29317   2.508   3.759   0.946
 9473SOL    HW129318   2.596   3.777   0.903
 9473SOL    HW229319   2.517   3.685   1.013
 9474SOL     OW29320   5.585   4.372   1.019
 9474SOL    HW129321   5.524   4.407   0.948
 9474SOL    HW229322   5.676   4.413   1.008
 9475SOL     OW29323   4.918   4.451   6.052
 9475SOL    HW129324   4.977   4.385   6.098
 9475SOL    HW229325   4.829   4.453   6.097
 9476SOL     OW29326   4.382   3.891   0.589
 9476SOL    HW129327   4.299   3.849   0.628
 9476SOL    HW229328   4.443   3.919   0.663
 9477SOL     OW29329   2.289   4.479   0.412
 9477SOL    HW129330   2.361   4.540   0.378
 9477SOL    HW229331   2.240   4.439   0.334
 9478SOL     OW29332   5.713   3.710   5.726
 9478SOL    HW129333   5.792   3.749   5.680
 9478SOL    HW229334   5.646   3.782   5.746
 9479SOL     OW29335   4.410   0.553   2.080
 9479SOL    HW129336   4.494   0.604   2.101
 9479SOL    HW229337   4.423   0.457   2.101
 9480SOL     OW29338   6.235   0.995   0.679
 9480SOL    HW129339   6.332   1.006   0.658
 9480SOL    HW229340   6.222   0.985   0.777
 9481SOL     OW29341   4.036   0.253   2.879
 9481SOL    HW129342   4.099   0.176   2.887
 9481SOL    HW229343   3.947   0.227   2.916
 9482SOL     OW29344   5.866   5.685   0.229
 9482SOL    HW129345   5.778   5.706   0.186
 9482SOL    HW229346   5.910   5.769   0.259
 9483SOL     OW29347   6.748   6.502   0.100
 9483SOL    HW129348   6.760   6.439   0.177
 9483SOL    HW229349   6.784   6.592   0.125
 9484SOL     OW29350   3.502   5.847   4.211
 9484SOL    HW129351   3.575   5.800   4.260
 9484SOL    HW229352   3.480   5.796   4.127
 9485SOL     OW29353   6.974   1.028   6.193
 9485SOL    HW129354   7.004   1.097   6.259
 9485SOL    HW229355   0.027   0.964   6.175
 9486SOL     OW29356   5.894   5.234   6.623
 9486SOL    HW129357   5.864   5.240   6.718
 9486SOL    HW229358   5.932   5.144   6.604
 9487SOL     OW29359   3.153   3.682   2.932
 9487SOL    HW129360   3.059   3.653   2.912
 9487SOL    HW229361   3.159   3.713   3.027
 9488SOL     OW29362   1.769   1.162   1.183
 9488SOL    HW129363   1.733   1.077   1.223
 9488SOL    HW229364   1.723   1.240   1.225
 9489SOL     OW29365   5.440   3.314   0.693
 9489SOL    HW129366   5.499   3.323   0.774
 9489SOL    HW229367   5.494   3.278   0.617
 9490SOL     OW29368   5.623   3.420   4.809
 9490SOL    HW129369   5.723   3.423   4.819
 9490SOL    HW229370   5.587   3.513   4.802
 9491SOL     OW29371   5.363   6.983   2.703
 9491SOL    HW129372   5.379   6.884   2.710
 9491SOL    HW229373   5.406   7.018   2.620
 9492SOL     OW29374   5.075   2.792   3.361
 9492SOL    HW129375   5.004   2.732   3.399
 9492SOL    HW229376   5.151   2.736   3.326
 9493SOL     OW29377   4.133   5.874   1.205
 9493SOL    HW129378   4.040   5.911   1.211
 9493SOL    HW229379   4.199   5.948   1.220
 9494SOL     OW29380   5.770   1.786   2.125
 9494SOL    HW129381   5.675   1.756   2.127
 9494SOL    HW229382   5.827   1.715   2.084
 9495SOL     OW29383   6.941   2.565   1.171
 9495SOL    HW129384   7.021   2.615   1.204
 9495SOL    HW229385   6.873   2.630   1.137
 9496SOL     OW29386   5.559   1.979   0.886
 9496SOL    HW129387   5.491   1.976   0.960
 9496SOL    HW229388   5.633   2.042   0.911
 9497SOL     OW29389   4.647   4.437   4.702
 9497SOL    HW129390   4.713   4.510   4.685
 9497SOL    HW229391   4.575   4.471   4.762
 9498SOL     OW29392   0.886   5.632   4.097
 9498SOL    HW129393   0.803   5.649   4.149
 9498SOL    HW229394   0.952   5.584   4.154
 9499SOL     OW29395   5.898   5.990   4.627
 9499SOL    HW129396   5.846   5.968   4.709
 9499SOL    HW229397   5.926   6.086   4.631
 9500SOL     OW29398   3.276   1.967   0.807
 9500SOL    HW129399   3.189   2.016   0.806
 9500SOL    HW229400   3.281   1.909   0.887
 9501SOL     OW29401   1.740   3.825   5.102
 9501SOL    HW129402   1.747   3.725   5.104
 9501SOL    HW229403   1.649   3.853   5.133
 9502SOL     OW29404   5.464   5.076   4.360
 9502SOL    HW129405   5.433   5.120   4.445
 9502SOL    HW229406   5.386   5.059   4.301
 9503SOL     OW29407   6.290   1.243   0.064
 9503SOL    HW129408   6.259   1.262   0.157
 9503SOL    HW229409   6.321   1.328   0.021
 9504SOL     OW29410   5.912   5.234   2.129
 9504SOL    HW129411   5.866   5.160   2.081
 9504SOL    HW229412   5.953   5.297   2.063
 9505SOL     OW29413   4.445   4.816   5.941
 9505SOL    HW129414   4.435   4.817   5.841
 9505SOL    HW229415   4.403   4.734   5.978
 9506SOL     OW29416   2.999   0.945   1.467
 9506SOL    HW129417   2.909   0.942   1.422
 9506SOL    HW229418   3.070   0.923   1.401
 9507SOL     OW29419   5.488   0.018   2.469
 9507SOL    HW129420   5.460   0.057   2.381
 9507SOL    HW229421   5.527   6.950   2.454
 9508SOL     OW29422   4.487   2.201   2.894
 9508SOL    HW129423   4.388   2.196   2.907
 9508SOL    HW229424   4.532   2.213   2.983
 9509SOL     OW29425   5.441   1.044   3.131
 9509SOL    HW129426   5.494   0.970   3.173
 9509SOL    HW229427   5.490   1.077   3.050
 9510SOL     OW29428   1.789   2.749   3.775
 9510SOL    HW129429   1.693   2.757   3.747
 9510SOL    HW229430   1.848   2.767   3.697
 9511SOL     OW29431   0.187   1.592   1.406
 9511SOL    HW129432   0.197   1.596   1.307
 9511SOL    HW229433   0.277   1.579   1.448
 9512SOL     OW29434   6.598   2.213   1.285
 9512SOL    HW129435   6.666   2.285   1.296
 9512SOL    HW229436   6.530   2.242   1.218
 9513SOL     OW29437   4.416   4.065   5.599
 9513SOL    HW129438   4.353   3.988   5.601
 9513SOL    HW229439   4.364   4.151   5.597
 9514SOL     OW29440   3.821   2.943   6.588
 9514SOL    HW129441   3.810   2.947   6.488
 9514SOL    HW229442   3.814   3.035   6.626
 9515SOL     OW29443   0.781   5.692   3.429
 9515SOL    HW129444   0.747   5.653   3.344
 9515SOL    HW229445   0.708   5.744   3.473
 9516SOL     OW29446   0.404   4.398   6.594
 9516SOL    HW129447   0.432   4.311   6.553
 9516SOL    HW229448   0.484   4.441   6.636
 9517SOL     OW29449   0.204   6.191   1.665
 9517SOL    HW129450   0.248   6.209   1.578
 9517SOL    HW229451   0.245   6.249   1.736
 9518SOL     OW29452   1.187   1.048   1.190
 9518SOL    HW129453   1.284   1.044   1.164
 9518SOL    HW229454   1.132   1.005   1.118
 9519SOL     OW29455   1.236   3.124   5.486
 9519SOL    HW129456   1.203   3.188   5.554
 9519SOL    HW229457   1.314   3.164   5.438
 9520SOL     OW29458   4.602   0.284   1.819
 9520SOL    HW129459   4.655   0.271   1.903
 9520SOL    HW229460   4.526   0.345   1.837
 9521SOL     OW29461   5.253   5.425   3.534
 9521SOL    HW129462   5.326   5.492   3.545
 9521SOL    HW229463   5.169   5.471   3.505
 9522SOL     OW29464   3.377   6.151   0.638
 9522SOL    HW129465   3.351   6.239   0.597
 9522SOL    HW229466   3.307   6.083   0.617
 9523SOL     OW29467   2.002   6.319   5.497
 9523SOL    HW129468   1.948   6.259   5.439
 9523SOL    HW229469   1.947   6.397   5.525
 9524SOL     OW29470   4.535   2.415   0.947
 9524SOL    HW129471   4.546   2.513   0.929
 9524SOL    HW229472   4.448   2.384   0.912
 9525SOL     OW29473   3.729   0.306   5.471
 9525SOL    HW129474   3.742   0.299   5.372
 9525SOL    HW229475   3.634   0.284   5.494
 9526SOL     OW29476   4.704   5.934   2.251
 9526SOL    HW129477   4.614   5.915   2.212
 9526SOL    HW229478   4.775   5.898   2.190
 9527SOL     OW29479   6.377   2.253   1.099
 9527SOL    HW129480   6.367   2.153   1.095
 9527SOL    HW229481   6.445   2.283   1.033
 9528SOL     OW29482   6.515   0.758   1.869
 9528SOL    HW129483   6.511   0.789   1.774
 9528SOL    HW229484   6.600   0.707   1.883
 9529SOL     OW29485   1.094   3.745   4.515
 9529SOL    HW129486   1.018   3.687   4.545
 9529SOL    HW229487   1.144   3.698   4.442
 9530SOL     OW29488   1.587   2.544   4.304
 9530SOL    HW129489   1.515   2.529   4.236
 9530SOL    HW229490   1.637   2.628   4.282
 9531SOL     OW29491   2.917   6.152   3.338
 9531SOL    HW129492   2.838   6.103   3.301
 9531SOL    HW229493   2.941   6.114   3.427
 9532SOL     OW29494   2.536   1.160   1.511
 9532SOL    HW129495   2.556   1.217   1.591
 9532SOL    HW229496   2.617   1.154   1.453
 9533SOL     OW29497   1.607   0.594   4.931
 9533SOL    HW129498   1.691   0.553   4.896
 9533SOL    HW229499   1.545   0.613   4.855
 9534SOL     OW29500   4.660   2.186   4.255
 9534SOL    HW129501   4.727   2.257   4.236
 9534SOL    HW229502   4.680   2.144   4.344
 9535SOL     OW29503   2.929   2.299   4.609
 9535SOL    HW129504   3.012   2.261   4.649
 9535SOL    HW229505   2.881   2.354   4.677
 9536SOL     OW29506   3.057   6.724   6.600
 9536SOL    HW129507   3.034   6.819   6.623
 9536SOL    HW229508   3.125   6.723   6.527
 9537SOL     OW29509   2.234   6.314   0.648
 9537SOL    HW129510   2.237   6.405   0.691
 9537SOL    HW229511   2.175   6.254   0.702
 9538SOL     OW29512   6.100   3.554   3.909
 9538SOL    HW129513   6.001   3.548   3.913
 9538SOL    HW229514   6.131   3.631   3.966
 9539SOL     OW29515   0.240   4.292   0.706
 9539SOL    HW129516   0.146   4.261   0.688
 9539SOL    HW229517   0.258   4.289   0.804
 9540SOL     OW29518   5.579   3.033   5.324
 9540SOL    HW129519   5.632   3.101   5.274
 9540SOL    HW229520   5.627   2.945   5.321
 9541SOL     OW29521   0.192   1.473   3.520
 9541SOL    HW129522   0.177   1.519   3.608
 9541SOL    HW229523   0.288   1.483   3.494
 9542SOL     OW29524   4.698   4.169   4.693
 9542SOL    HW129525   4.735   4.138   4.605
 9542SOL    HW229526   4.646   4.253   4.680
 9543SOL     OW29527   5.500   2.366   1.632
 9543SOL    HW129528   5.486   2.339   1.727
 9543SOL    HW229529   5.490   2.287   1.572
 9544SOL     OW29530   3.801   1.796   2.063
 9544SOL    HW129531   3.845   1.828   1.979
 9544SOL    HW229532   3.872   1.771   2.130
 9545SOL     OW29533   1.427   0.035   4.335
 9545SOL    HW129534   1.437   0.110   4.401
 9545SOL    HW229535   1.388   0.072   4.250
 9546SOL     OW29536   2.185   4.380   1.749
 9546SOL    HW129537   2.281   4.385   1.778
 9546SOL    HW229538   2.178   4.407   1.653
 9547SOL     OW29539   6.446   5.556   3.574
 9547SOL    HW129540   6.375   5.486   3.573
 9547SOL    HW229541   6.482   5.569   3.482
 9548SOL     OW29542   4.518   6.911   2.852
 9548SOL    HW129543   4.574   6.968   2.792
 9548SOL    HW229544   4.556   6.819   2.855
 9549SOL     OW29545   2.634   5.568   0.548
 9549SOL    HW129546   2.619   5.578   0.449
 9549SOL    HW229547   2.550   5.593   0.596
 9550SOL     OW29548   1.564   0.652   6.957
 9550SOL    HW129549   1.532   0.706   0.013
 9550SOL    HW229550   1.651   0.689   6.924
 9551SOL     OW29551   1.127   6.144   6.179
 9551SOL    HW129552   1.125   6.198   6.095
 9551SOL    HW229553   1.109   6.048   6.157
 9552SOL     OW29554   0.446   5.124   2.959
 9552SOL    HW129555   0.367   5.091   3.011
 9552SOL    HW229556   0.441   5.088   2.866
 9553SOL     OW29557   5.217   4.307   5.695
 9553SOL    HW129558   5.128   4.306   5.741
 9553SOL    HW229559   5.203   4.300   5.596
 9554SOL     OW29560   1.991   1.647   1.326
 9554SOL    HW129561   2.024   1.553   1.314
 9554SOL    HW229562   1.895   1.645   1.355
 9555SOL     OW29563   0.059   2.929   6.517
 9555SOL    HW129564   0.059   2.948   6.615
 9555SOL    HW229565   6.988   2.913   6.486
 9556SOL     OW29566   6.260   1.577   0.838
 9556SOL    HW129567   6.347   1.584   0.888
 9556SOL    HW229568   6.275   1.598   0.742
 9557SOL     OW29569   5.766   2.281   1.831
 9557SOL    HW129570   5.667   2.272   1.828
 9557SOL    HW229571   5.794   2.359   1.776
 9558SOL     OW29572   5.530   4.453   2.179
 9558SOL    HW129573   5.434   4.454   2.209
 9558SOL    HW229574   5.586   4.410   2.250
 9559SOL     OW29575   6.558   3.442   2.918
 9559SOL    HW129576   6.460   3.425   2.929
 9559SOL    HW229577   6.607   3.409   2.999
 9560SOL     OW29578   3.994   2.131   5.067
 9560SOL    HW129579   4.052   2.141   4.986
 9560SOL    HW229580   4.052   2.130   5.149
 9561SOL     OW29581   3.273   6.433   6.794
 9561SOL    HW129582   3.193   6.381   6.763
 9561SOL    HW229583   3.351   6.413   6.735
 9562SOL     OW29584   6.178   4.434   4.044
 9562SOL    HW129585   6.155   4.364   3.976
 9562SOL    HW229586   6.095   4.462   4.092
 9563SOL     OW29587   0.196   6.220   6.722
 9563SOL    HW129588   0.198   6.298   6.659
 9563SOL    HW229589   0.282   6.216   6.772
 9564SOL     OW29590   2.044   0.463   6.526
 9564SOL    HW129591   2.057   0.392   6.595
 9564SOL    HW229592   2.069   0.426   6.436
 9565SOL     OW29593   3.701   5.964   3.989
 9565SOL    HW129594   3.618   5.919   4.022
 9565SOL    HW229595   3.780   5.907   4.009
 9566SOL     OW29596   3.316   5.103   5.992
 9566SOL    HW129597   3.378   5.151   5.930
 9566SOL    HW229598   3.367   5.074   6.074
 9567SOL     OW29599   6.161   5.362   4.810
 9567SOL    HW129600   6.190   5.355   4.714
 9567SOL    HW229601   6.164   5.457   4.838
 9568SOL     OW29602   4.751   4.123   6.357
 9568SOL    HW129603   4.683   4.056   6.386
 9568SOL    HW229604   4.823   4.130   6.426
 9569SOL     OW29605   5.231   6.733   2.173
 9569SOL    HW129606   5.328   6.725   2.150
 9569SOL    HW229607   5.201   6.827   2.155
 9570SOL     OW29608   0.691   1.200   6.727
 9570SOL    HW129609   0.623   1.270   6.703
 9570SOL    HW229610   0.713   1.147   6.645
 9571SOL     OW29611   2.188   2.933   0.109
 9571SOL    HW129612   2.225   2.875   0.182
 9571SOL    HW229613   2.254   2.940   0.035
 9572SOL     OW29614   0.233   3.552   1.221
 9572SOL    HW129615   0.175   3.541   1.140
 9572SOL    HW229616   0.222   3.645   1.257
 9573SOL     OW29617   5.582   1.177   2.064
 9573SOL    HW129618   5.600   1.083   2.037
 9573SOL    HW229619   5.569   1.182   2.163
 9574SOL     OW29620   2.712   1.932   3.903
 9574SOL    HW129621   2.715   1.984   3.989
 9574SOL    HW229622   2.648   1.856   3.913
 9575SOL     OW29623   4.679   1.136   2.379
 9575SOL    HW129624   4.776   1.154   2.394
 9575SOL    HW229625   4.670   1.061   2.314
 9576SOL     OW29626   4.370   2.716   5.607
 9576SOL    HW129627   4.304   2.784   5.573
 9576SOL    HW229628   4.403   2.661   5.531
 9577SOL     OW29629   0.547   6.273   3.431
 9577SOL    HW129630   0.600   6.210   3.486
 9577SOL    HW229631   0.608   6.344   3.393
 9578SOL     OW29632   6.194   4.292   2.114
 9578SOL    HW129633   6.101   4.318   2.138
 9578SOL    HW229634   6.194   4.200   2.074
 9579SOL     OW29635   1.971   5.873   2.959
 9579SOL    HW129636   1.976   5.972   2.948
 9579SOL    HW229637   1.938   5.852   3.051
 9580SOL     OW29638   4.169   3.260   5.753
 9580SOL    HW129639   4.257   3.222   5.783
 9580SOL    HW229640   4.117   3.291   5.832
 9581SOL     OW29641   1.090   5.542   5.683
 9581SOL    HW129642   1.036   5.481   5.741
 9581SOL    HW229643   1.062   5.530   5.588
 9582SOL     OW29644   4.063   5.019   3.628
 9582SOL    HW129645   3.978   4.968   3.640
 9582SOL    HW229646   4.059   5.072   3.544
 9583SOL     OW29647   2.098   5.077   1.830
 9583SOL    HW129648   2.169   5.105   1.764
 9583SOL    HW229649   2.107   4.979   1.847
 9584SOL     OW29650   5.003   5.101   6.877
 9584SOL    HW129651   5.059   5.106   6.795
 9584SOL    HW229652   5.049   5.147   6.953
 9585SOL     OW29653   1.058   0.504   3.259
 9585SOL    HW129654   1.033   0.514   3.163
 9585SOL    HW229655   1.046   0.592   3.306
 9586SOL     OW29656   5.265   3.564   2.398
 9586SOL    HW129657   5.339   3.617   2.439
 9586SOL    HW229658   5.285   3.548   2.301
 9587SOL     OW29659   5.048   6.224   1.858
 9587SOL    HW129660   5.077   6.313   1.821
 9587SOL    HW229661   4.949   6.223   1.867
 9588SOL     OW29662   6.605   0.436   3.155
 9588SOL    HW129663   6.623   0.338   3.157
 9588SOL    HW229664   6.507   0.453   3.163
 9589SOL     OW29665   3.140   1.825   4.861
 9589SOL    HW129666   3.175   1.892   4.926
 9589SOL    HW229667   3.075   1.765   4.907
 9590SOL     OW29668   0.490   5.295   4.788
 9590SOL    HW129669   0.425   5.297   4.712
 9590SOL    HW229670   0.469   5.217   4.848
 9591SOL     OW29671   1.394   4.620   2.678
 9591SOL    HW129672   1.372   4.686   2.750
 9591SOL    HW229673   1.326   4.628   2.604
 9592SOL     OW29674   5.311   6.004   1.118
 9592SOL    HW129675   5.330   5.974   1.025
 9592SOL    HW229676   5.251   5.938   1.163
 9593SOL     OW29677   2.371   2.633   3.419
 9593SOL    HW129678   2.388   2.596   3.510
 9593SOL    HW229679   2.395   2.565   3.350
 9594SOL     OW29680   6.357   6.987   0.944
 9594SOL    HW129681   6.385   0.017   1.025
 9594SOL    HW229682   6.343   0.026   0.867
 9595SOL     OW29683   0.870   4.418   4.144
 9595SOL    HW129684   0.908   4.377   4.062
 9595SOL    HW229685   0.790   4.366   4.174
 9596SOL     OW29686   5.356   5.371   2.265
 9596SOL    HW129687   5.337   5.407   2.356
 9596SOL    HW229688   5.376   5.447   2.202
 9597SOL     OW29689   1.884   4.303   0.605
 9597SOL    HW129690   1.873   4.239   0.529
 9597SOL    HW229691   1.844   4.391   0.580
 9598SOL     OW29692   1.109   5.882   6.111
 9598SOL    HW129693   1.151   5.897   6.022
 9598SOL    HW229694   1.157   5.809   6.159
 9599SOL     OW29695   4.381   1.391   4.737
 9599SOL    HW129696   4.298   1.408   4.790
 9599SOL    HW229697   4.371   1.429   4.645
 9600SOL     OW29698   2.193   6.012   6.498
 9600SOL    HW129699   2.173   5.955   6.577
 9600SOL    HW229700   2.228   5.955   6.423
 9601SOL     OW29701   0.451   6.731   6.425
 9601SOL    HW129702   0.474   6.727   6.522
 9601SOL    HW229703   0.503   6.805   6.382
 9602SOL     OW29704   0.380   5.095   6.687
 9602SOL    HW129705   0.353   5.191   6.692
 9602SOL    HW229706   0.301   5.037   6.707
 9603SOL     OW29707   0.855   5.278   2.887
 9603SOL    HW129708   0.839   5.376   2.899
 9603SOL    HW229709   0.945   5.263   2.847
 9604SOL     OW29710   6.832   6.758   0.131
 9604SOL    HW129711   6.757   6.768   0.196
 9604SOL    HW229712   6.801   6.786   0.040
 9605SOL     OW29713   2.874   5.312   0.573
 9605SOL    HW129714   2.835   5.223   0.599
 9605SOL    HW229715   2.802   5.381   0.576
 9606SOL     OW29716   6.749   0.114   5.622
 9606SOL    HW129717   6.840   0.073   5.620
 9606SOL    HW229718   6.680   0.043   5.637
 9607SOL     OW29719   0.112   1.908   2.154
 9607SOL    HW129720   0.023   1.890   2.112
 9607SOL    HW229721   0.153   1.989   2.112
 9608SOL     OW29722   6.510   0.047   2.739
 9608SOL    HW129723   6.426   0.067   2.790
 9608SOL    HW229724   6.500   0.081   2.645
 9609SOL     OW29725   1.614   2.151   3.573
 9609SOL    HW129726   1.660   2.126   3.659
 9609SOL    HW229727   1.681   2.156   3.500
 9610SOL     OW29728   3.619   0.338   5.754
 9610SOL    HW129729   3.572   0.406   5.698
 9610SOL    HW229730   3.554   0.292   5.813
 9611SOL     OW29731   5.562   5.889   1.218
 9611SOL    HW129732   5.531   5.890   1.313
 9611SOL    HW229733   5.590   5.981   1.191
 9612SOL     OW29734   5.208   3.298   3.093
 9612SOL    HW129735   5.209   3.260   3.001
 9612SOL    HW229736   5.278   3.369   3.101
 9613SOL     OW29737   5.689   0.077   5.557
 9613SOL    HW129738   5.721   0.136   5.631
 9613SOL    HW229739   5.614   0.020   5.590
 9614SOL     OW29740   3.157   2.779   1.808
 9614SOL    HW129741   3.184   2.789   1.904
 9614SOL    HW229742   3.085   2.710   1.801
 9615SOL     OW29743   0.419   6.402   3.813
 9615SOL    HW129744   0.492   6.426   3.750
 9615SOL    HW229745   0.424   6.305   3.835
 9616SOL     OW29746   1.449   2.843   1.484
 9616SOL    HW129747   1.481   2.934   1.511
 9616SOL    HW229748   1.354   2.848   1.453
 9617SOL     OW29749   0.143   2.908   2.557
 9617SOL    HW129750   0.126   2.810   2.559
 9617SOL    HW229751   0.242   2.924   2.553
 9618SOL     OW29752   4.474   4.272   0.720
 9618SOL    HW129753   4.526   4.193   0.687
 9618SOL    HW229754   4.400   4.241   0.780
 9619SOL     OW29755   0.805   0.025   1.610
 9619SOL    HW129756   0.786   7.017   1.704
 9619SOL    HW229757   0.720   0.056   1.567
 9620SOL     OW29758   3.245   1.773   6.911
 9620SOL    HW129759   3.290   1.731   6.832
 9620SOL    HW229760   3.208   1.862   6.884
 9621SOL     OW29761   0.591   0.698   1.986
 9621SOL    HW129762   0.648   0.763   1.936
 9621SOL    HW229763   0.517   0.748   2.032
 9622SOL     OW29764   6.648   5.482   6.075
 9622SOL    HW129765   6.664   5.391   6.035
 9622SOL    HW229766   6.733   5.534   6.074
 9623SOL     OW29767   3.842   6.384   5.607
 9623SOL    HW129768   3.787   6.388   5.690
 9623SOL    HW229769   3.793   6.430   5.533
 9624SOL     OW29770   4.348   5.467   5.200
 9624SOL    HW129771   4.360   5.370   5.221
 9624SOL    HW229772   4.253   5.483   5.173
 9625SOL     OW29773   4.410   4.159   6.434
 9625SOL    HW129774   4.318   4.136   6.403
 9625SOL    HW229775   4.471   4.081   6.420
 9626SOL     OW29776   2.451   2.228   6.754
 9626SOL    HW129777   2.481   2.269   6.840
 9626SOL    HW229778   2.472   2.290   6.678
 9627SOL     OW29779   0.465   5.043   0.700
 9627SOL    HW129780   0.381   5.060   0.751
 9627SOL    HW229781   0.483   4.945   0.696
 9628SOL     OW29782   0.228   2.022   6.109
 9628SOL    HW129783   0.260   2.089   6.177
 9628SOL    HW229784   0.174   1.952   6.156
 9629SOL     OW29785   0.242   6.358   4.143
 9629SOL    HW129786   0.204   6.383   4.054
 9629SOL    HW229787   0.334   6.322   4.131
 9630SOL     OW29788   5.680   1.737   6.313
 9630SOL    HW129789   5.595   1.788   6.316
 9630SOL    HW229790   5.664   1.647   6.272
 9631SOL     OW29791   4.328   6.774   0.627
 9631SOL    HW129792   4.317   6.675   0.637
 9631SOL    HW229793   4.354   6.814   0.715
 9632SOL     OW29794   2.983   4.797   2.484
 9632SOL    HW129795   3.077   4.807   2.452
 9632SOL    HW229796   2.981   4.797   2.584
 9633SOL     OW29797   3.794   3.093   3.557
 9633SOL    HW129798   3.710   3.101   3.502
 9633SOL    HW229799   3.862   3.040   3.505
 9634SOL     OW29800   5.108   4.844   3.132
 9634SOL    HW129801   5.153   4.903   3.198
 9634SOL    HW229802   5.113   4.749   3.163
 9635SOL     OW29803   0.558   4.771   3.680
 9635SOL    HW129804   0.589   4.728   3.596
 9635SOL    HW229805   0.625   4.841   3.708
 9636SOL     OW29806   5.829   3.892   4.013
 9636SOL    HW129807   5.900   3.823   4.025
 9636SOL    HW229808   5.870   3.978   3.984
 9637SOL     OW29809   1.338   3.634   0.026
 9637SOL    HW129810   1.369   3.539   0.029
 9637SOL    HW229811   1.303   3.654   6.957
 9638SOL     OW29812   5.888   5.370   6.162
 9638SOL    HW129813   5.813   5.311   6.132
 9638SOL    HW229814   5.962   5.368   6.095
 9639SOL     OW29815   4.412   2.003   1.121
 9639SOL    HW129816   4.314   1.989   1.111
 9639SOL    HW229817   4.430   2.096   1.153
 9640SOL     OW29818   3.681   0.643   3.467
 9640SOL    HW129819   3.743   0.588   3.522
 9640SOL    HW229820   3.728   0.726   3.437
 9641SOL     OW29821   6.886   2.540   4.011
 9641SOL    HW129822   6.956   2.598   4.055
 9641SOL    HW229823   6.803   2.540   4.066
 9642SOL     OW29824   0.793   1.665   4.598
 9642SOL    HW129825   0.867   1.714   4.644
 9642SOL    HW229826   0.830   1.617   4.518
 9643SOL     OW29827   5.444   5.294   3.895
 9643SOL    HW129828   5.348   5.317   3.908
 9643SOL    HW229829   5.488   5.365   3.840
 9644SOL     OW29830   0.786   5.311   3.281
 9644SOL    HW129831   0.738   5.314   3.369
 9644SOL    HW229832   0.747   5.237   3.225
 9645SOL     OW29833   0.942   4.946   5.975
 9645SOL    HW129834   0.849   4.982   5.977
 9645SOL    HW229835   0.974   4.933   6.069
 9646SOL     OW29836   3.586   6.047   0.463
 9646SOL    HW129837   3.546   6.082   0.379
 9646SOL    HW229838   3.531   6.075   0.541
 9647SOL     OW29839   6.146   6.400   3.279
 9647SOL    HW129840   6.192   6.434   3.197
 9647SOL    HW229841   6.110   6.477   3.331
 9648SOL     OW29842   3.110   1.484   0.840
 9648SOL    HW129843   3.098   1.583   0.852
 9648SOL    HW229844   3.136   1.465   0.745
 9649SOL     OW29845   0.171   5.525   0.914
 9649SOL    HW129846   0.166   5.519   1.014
 9649SOL    HW229847   0.257   5.485   0.882
 9650SOL     OW29848   0.967   4.714   3.826
 9650SOL    HW129849   0.906   4.736   3.901
 9650SOL    HW229850   1.062   4.713   3.858
 9651SOL     OW29851   3.477   1.888   0.015
 9651SOL    HW129852   3.460   1.895   0.114
 9651SOL    HW229853   3.395   1.855   6.992
 9652SOL     OW29854   0.440   3.973   0.559
 9652SOL    HW129855   0.441   3.903   0.488
 9652SOL    HW229856   0.356   3.963   0.614
 9653SOL     OW29857   4.804   4.482   5.641
 9653SOL    HW129858   4.725   4.543   5.649
 9653SOL    HW229859   4.887   4.531   5.669
 9654SOL     OW29860   3.585   3.572   3.273
 9654SOL    HW129861   3.616   3.489   3.320
 9654SOL    HW229862   3.615   3.652   3.324
 9655SOL     OW29863   4.665   1.614   0.806
 9655SOL    HW129864   4.593   1.614   0.875
 9655SOL    HW229865   4.732   1.684   0.828
 9656SOL     OW29866   4.941   4.173   6.522
 9656SOL    HW129867   4.910   4.251   6.576
 9656SOL    HW229868   5.041   4.175   6.514
 9657SOL     OW29869   5.149   4.826   4.030
 9657SOL    HW129870   5.141   4.731   4.001
 9657SOL    HW229871   5.176   4.882   3.952
 9658SOL     OW29872   4.828   1.368   2.167
 9658SOL    HW129873   4.795   1.439   2.230
 9658SOL    HW229874   4.860   1.289   2.220
 9659SOL     OW29875   2.604   2.971   6.596
 9659SOL    HW129876   2.578   2.949   6.502
 9659SOL    HW229877   2.618   3.070   6.604
 9660SOL     OW29878   1.299   6.727   1.647
 9660SOL    HW129879   1.271   6.667   1.722
 9660SOL    HW229880   1.370   6.683   1.592
 9661SOL     OW29881   4.121   4.106   1.227
 9661SOL    HW129882   4.038   4.133   1.276
 9661SOL    HW229883   4.201   4.136   1.280
 9662SOL     OW29884   4.919   6.425   6.318
 9662SOL    HW129885   5.019   6.425   6.311
 9662SOL    HW229886   4.881   6.364   6.248
 9663SOL     OW29887   1.378   5.210   2.654
 9663SOL    HW129888   1.288   5.235   2.619
 9663SOL    HW229889   1.427   5.156   2.586
 9664SOL     OW29890   3.535   4.963   2.094
 9664SOL    HW129891   3.567   4.893   2.030
 9664SOL    HW229892   3.439   4.983   2.077
 9665SOL     OW29893   6.694   4.020   5.894
 9665SOL    HW129894   6.653   4.066   5.815
 9665SOL    HW229895   6.723   4.088   5.961
 9666SOL     OW29896   5.196   3.678   0.537
 9666SOL    HW129897   5.185   3.629   0.623
 9666SOL    HW229898   5.210   3.775   0.556
 9667SOL     OW29899   5.633   6.089   0.565
 9667SOL    HW129900   5.726   6.053   0.571
 9667SOL    HW229901   5.605   6.093   0.469
 9668SOL     OW29902   1.447   0.998   5.948
 9668SOL    HW129903   1.351   0.988   5.976
 9668SOL    HW229904   1.451   1.007   5.848
 9669SOL     OW29905   3.036   0.731   0.020
 9669SOL    HW129906   3.094   0.735   6.961
 9669SOL    HW229907   3.092   0.748   0.101
 9670SOL     OW29908   0.876   0.246   0.735
 9670SOL    HW129909   0.942   0.321   0.738
 9670SOL    HW229910   0.900   0.184   0.660
 9671SOL     OW29911   0.803   5.118   6.528
 9671SOL    HW129912   0.808   5.089   6.432
 9671SOL    HW229913   0.895   5.121   6.566
 9672SOL     OW29914   0.937   3.939   4.367
 9672SOL    HW129915   0.988   3.867   4.415
 9672SOL    HW229916   0.991   3.972   4.289
 9673SOL     OW29917   2.142   3.848   7.008
 9673SOL    HW129918   2.147   3.802   6.919
 9673SOL    HW229919   2.156   3.780   0.058
 9674SOL     OW29920   1.990   6.448   3.902
 9674SOL    HW129921   1.936   6.500   3.968
 9674SOL    HW229922   1.950   6.357   3.890
 9675SOL     OW29923   6.064   3.718   5.682
 9675SOL    HW129924   6.040   3.642   5.621
 9675SOL    HW229925   6.002   3.795   5.666
 9676SOL     OW29926   0.717   3.233   6.165
 9676SOL    HW129927   0.741   3.331   6.164
 9676SOL    HW229928   0.714   3.199   6.071
 9677SOL     OW29929   6.374   5.177   2.462
 9677SOL    HW129930   6.352   5.259   2.515
 9677SOL    HW229931   6.472   5.177   2.440
 9678SOL     OW29932   3.731   3.796   5.089
 9678SOL    HW129933   3.666   3.720   5.099
 9678SOL    HW229934   3.729   3.852   5.172
 9679SOL     OW29935   1.889   0.738   3.968
 9679SOL    HW129936   1.829   0.738   4.048
 9679SOL    HW229937   1.876   0.823   3.917
 9680SOL     OW29938   4.182   0.728   2.081
 9680SOL    HW129939   4.233   0.648   2.114
 9680SOL    HW229940   4.136   0.705   1.996
 9681SOL     OW29941   1.193   2.461   1.412
 9681SOL    HW129942   1.188   2.494   1.318
 9681SOL    HW229943   1.264   2.390   1.419
 9682SOL     OW29944   5.123   6.480   5.991
 9682SOL    HW129945   5.121   6.566   6.043
 9682SOL    HW229946   5.211   6.435   6.004
 9683SOL     OW29947   3.284   6.330   3.401
 9683SOL    HW129948   3.241   6.414   3.435
 9683SOL    HW229949   3.381   6.346   3.383
 9684SOL     OW29950   6.514   3.390   5.229
 9684SOL    HW129951   6.421   3.353   5.239
 9684SOL    HW229952   6.576   3.317   5.200
 9685SOL     OW29953   3.307   4.516   1.578
 9685SOL    HW129954   3.392   4.482   1.620
 9685SOL    HW229955   3.229   4.483   1.631
 9686SOL     OW29956   6.751   1.000   5.646
 9686SOL    HW129957   6.815   0.943   5.595
 9686SOL    HW229958   6.785   1.095   5.647
 9687SOL     OW29959   5.187   1.181   3.192
 9687SOL    HW129960   5.123   1.130   3.250
 9687SOL    HW229961   5.269   1.126   3.175
 9688SOL     OW29962   0.530   5.115   1.895
 9688SOL    HW129963   0.501   5.210   1.909
 9688SOL    HW229964   0.579   5.083   1.976
 9689SOL     OW29965   2.135   6.109   1.431
 9689SOL    HW129966   2.065   6.069   1.490
 9689SOL    HW229967   2.092   6.158   1.356
 9690SOL     OW29968   0.371   4.779   4.574
 9690SOL    HW129969   0.362   4.776   4.474
 9690SOL    HW229970   0.465   4.757   4.599
 9691SOL     OW29971   2.923   3.425   1.926
 9691SOL    HW129972   2.893   3.331   1.910
 9691SOL    HW229973   2.893   3.483   1.851
 9692SOL     OW29974   5.194   4.532   0.893
 9692SOL    HW129975   5.185   4.473   0.973
 9692SOL    HW229976   5.221   4.478   0.814
 9693SOL     OW29977   4.399   3.156   5.378
 9693SOL    HW129978   4.452   3.193   5.301
 9693SOL    HW229979   4.453   3.162   5.462
 9694SOL     OW29980   3.014   6.447   1.337
 9694SOL    HW129981   2.914   6.453   1.329
 9694SOL    HW229982   3.039   6.422   1.430
 9695SOL     OW29983   0.913   2.837   3.889
 9695SOL    HW129984   0.843   2.806   3.824
 9695SOL    HW229985   0.870   2.857   3.977
 9696SOL     OW29986   5.437   2.543   3.764
 9696SOL    HW129987   5.378   2.623   3.753
 9696SOL    HW229988   5.501   2.538   3.687
 9697SOL     OW29989   6.842   6.348   1.431
 9697SOL    HW129990   6.757   6.315   1.390
 9697SOL    HW229991   6.896   6.396   1.361
 9698SOL     OW29992   0.128   3.444   2.189
 9698SOL    HW129993   0.054   3.474   2.129
 9698SOL    HW229994   0.168   3.523   2.235
 9699SOL     OW29995   1.808   5.782   1.327
 9699SOL    HW129996   1.795   5.871   1.284
 9699SOL    HW229997   1.826   5.713   1.257
 9700SOL     OW29998   5.165   0.006   6.134
 9700SOL    HW129999   5.168   0.093   6.183
 9700SOL    HW230000   5.073   7.015   6.096
 9701SOL     OW30001   4.990   3.954   6.769
 9701SOL    HW130002   4.975   3.892   6.846
 9701SOL    HW230003   5.085   3.986   6.770
 9702SOL     OW30004   3.744   4.042   2.403
 9702SOL    HW130005   3.759   4.134   2.441
 9702SOL    HW230006   3.814   3.980   2.437
 9703SOL     OW30007   5.987   4.749   3.616
 9703SOL    HW130008   5.942   4.711   3.535
 9703SOL    HW230009   5.944   4.836   3.641
 9704SOL     OW30010   1.498   4.620   2.213
 9704SOL    HW130011   1.407   4.618   2.255
 9704SOL    HW230012   1.557   4.684   2.262
 9705SOL     OW30013   0.373   2.931   5.735
 9705SOL    HW130014   0.348   2.835   5.741
 9705SOL    HW230015   0.439   2.953   5.807
 9706SOL     OW30016   0.800   1.437   2.881
 9706SOL    HW130017   0.711   1.478   2.901
 9706SOL    HW230018   0.872   1.489   2.928
 9707SOL     OW30019   0.992   5.046   2.620
 9707SOL    HW130020   1.012   5.056   2.717
 9707SOL    HW230021   1.023   4.956   2.589
 9708SOL     OW30022   2.595   0.635   1.956
 9708SOL    HW130023   2.692   0.634   1.980
 9708SOL    HW230024   2.541   0.599   2.033
 9709SOL     OW30025   5.330   1.981   1.637
 9709SOL    HW130026   5.270   2.061   1.642
 9709SOL    HW230027   5.281   1.906   1.592
 9710SOL     OW30028   5.513   5.649   4.417
 9710SOL    HW130029   5.478   5.733   4.458
 9710SOL    HW230030   5.444   5.577   4.424
 9711SOL     OW30031   2.948   1.154   6.738
 9711SOL    HW130032   2.965   1.239   6.788
 9711SOL    HW230033   3.010   1.149   6.660
 9712SOL     OW30034   5.863   1.106   6.863
 9712SOL    HW130035   5.874   1.027   6.802
 9712SOL    HW230036   5.940   1.110   6.926
 9713SOL     OW30037   2.596   0.219   2.495
 9713SOL    HW130038   2.602   0.255   2.401
 9713SOL    HW230039   2.507   0.243   2.533
 9714SOL     OW30040   2.273   4.103   4.125
 9714SOL    HW130041   2.278   4.083   4.222
 9714SOL    HW230042   2.264   4.017   4.074
 9715SOL     OW30043   7.018   3.274   6.419
 9715SOL    HW130044   0.090   3.249   6.443
 9715SOL    HW230045   6.965   3.288   6.502
 9716SOL     OW30046   2.639   6.194   0.183
 9716SOL    HW130047   2.707   6.151   0.242
 9716SOL    HW230048   2.594   6.268   0.233
 9717SOL     OW30049   3.705   2.172   5.553
 9717SOL    HW130050   3.803   2.184   5.569
 9717SOL    HW230051   3.683   2.203   5.460
 9718SOL     OW30052   4.664   2.080   5.788
 9718SOL    HW130053   4.726   2.002   5.798
 9718SOL    HW230054   4.637   2.089   5.692
 9719SOL     OW30055   4.936   7.007   5.975
 9719SOL    HW130056   4.969   6.957   5.895
 9719SOL    HW230057   4.867   6.952   6.022
 9720SOL     OW30058   2.245   2.948   2.826
 9720SOL    HW130059   2.343   2.955   2.808
 9720SOL    HW230060   2.223   2.993   2.912
 9721SOL     OW30061   0.806   1.250   0.899
 9721SOL    HW130062   0.763   1.160   0.893
 9721SOL    HW230063   0.737   1.320   0.883
 9722SOL     OW30064   3.951   2.375   5.375
 9722SOL    HW130065   3.921   2.388   5.469
 9722SOL    HW230066   3.949   2.462   5.326
 9723SOL     OW30067   6.721   0.772   5.152
 9723SOL    HW130068   6.750   0.816   5.067
 9723SOL    HW230069   6.790   0.705   5.181
 9724SOL     OW30070   1.568   4.344   0.501
 9724SOL    HW130071   1.648   4.404   0.496
 9724SOL    HW230072   1.593   4.258   0.547
 9725SOL     OW30073   4.534   5.306   4.320
 9725SOL    HW130074   4.537   5.254   4.235
 9725SOL    HW230075   4.575   5.252   4.394
 9726SOL     OW30076   6.949   0.346   3.405
 9726SOL    HW130077   6.967   0.322   3.310
 9726SOL    HW230078   6.986   0.437   3.424
 9727SOL     OW30079   6.265   2.851   1.509
 9727SOL    HW130080   6.231   2.895   1.592
 9727SOL    HW230081   6.323   2.914   1.459
 9728SOL     OW30082   5.402   2.327   4.251
 9728SOL    HW130083   5.362   2.238   4.231
 9728SOL    HW230084   5.428   2.372   4.166
 9729SOL     OW30085   0.366   4.411   2.997
 9729SOL    HW130086   0.436   4.432   3.065
 9729SOL    HW230087   0.336   4.317   3.009
 9730SOL     OW30088   1.140   5.117   2.883
 9730SOL    HW130089   1.221   5.169   2.852
 9730SOL    HW230090   1.142   5.109   2.982
 9731SOL     OW30091   5.569   2.710   1.586
 9731SOL    HW130092   5.500   2.667   1.643
 9731SOL    HW230093   5.527   2.745   1.502
 9732SOL     OW30094   1.050   3.717   2.708
 9732SOL    HW130095   0.989   3.641   2.734
 9732SOL    HW230096   1.143   3.696   2.737
 9733SOL     OW30097   6.041   4.846   1.844
 9733SOL    HW130098   6.080   4.838   1.936
 9733SOL    HW230099   5.945   4.820   1.846
 9734SOL     OW30100   4.851   5.065   5.892
 9734SOL    HW130101   4.833   5.153   5.935
 9734SOL    HW230102   4.923   5.017   5.943
 9735SOL     OW30103   0.159   2.155   0.264
 9735SOL    HW130104   0.228   2.214   0.223
 9735SOL    HW230105   0.087   2.137   0.197
 9736SOL     OW30106   4.817   2.303   4.905
 9736SOL    HW130107   4.737   2.342   4.859
 9736SOL    HW230108   4.891   2.291   4.839
 9737SOL     OW30109   5.992   2.671   3.852
 9737SOL    HW130110   5.892   2.671   3.852
 9737SOL    HW230111   6.026   2.581   3.880
 9738SOL     OW30112   2.500   6.259   1.732
 9738SOL    HW130113   2.404   6.249   1.705
 9738SOL    HW230114   2.558   6.256   1.651
 9739SOL     OW30115   6.034   6.664   0.861
 9739SOL    HW130116   6.099   6.596   0.825
 9739SOL    HW230117   5.973   6.693   0.787
 9740SOL     OW30118   5.884   0.523   2.471
 9740SOL    HW130119   5.856   0.490   2.381
 9740SOL    HW230120   5.914   0.618   2.464
 9741SOL     OW30121   2.096   1.987   3.932
 9741SOL    HW130122   2.020   1.924   3.921
 9741SOL    HW230123   2.177   1.937   3.962
 9742SOL     OW30124   3.836   1.854   6.300
 9742SOL    HW130125   3.738   1.874   6.307
 9742SOL    HW230126   3.859   1.780   6.363
 9743SOL     OW30127   5.812   4.166   3.935
 9743SOL    HW130128   5.838   4.261   3.918
 9743SOL    HW230129   5.733   4.143   3.878
 9744SOL     OW30130   2.091   1.978   2.410
 9744SOL    HW130131   2.123   1.969   2.316
 9744SOL    HW230132   2.041   1.896   2.437
 9745SOL     OW30133   0.302   0.202   6.002
 9745SOL    HW130134   0.333   0.143   6.076
 9745SOL    HW230135   0.244   0.274   6.040
 9746SOL     OW30136   3.572   6.146   6.138
 9746SOL    HW130137   3.657   6.196   6.153
 9746SOL    HW230138   3.586   6.050   6.162
 9747SOL     OW30139   2.728   1.410   3.021
 9747SOL    HW130140   2.728   1.370   2.930
 9747SOL    HW230141   2.808   1.469   3.031
 9748SOL     OW30142   1.664   1.354   3.003
 9748SOL    HW130143   1.684   1.287   3.074
 9748SOL    HW230144   1.590   1.321   2.945
 9749SOL     OW30145   6.954   0.153   2.153
 9749SOL    HW130146   6.885   0.142   2.225
 9749SOL    HW230147   7.014   0.230   2.176
 9750SOL     OW30148   5.641   2.500   5.208
 9750SOL    HW130149   5.735   2.534   5.208
 9750SOL    HW230150   5.585   2.557   5.147
 9751SOL     OW30151   3.446   6.844   1.552
 9751SOL    HW130152   3.382   6.921   1.553
 9751SOL    HW230153   3.395   6.760   1.534
 9752SOL     OW30154   2.835   3.006   0.655
 9752SOL    HW130155   2.771   3.074   0.692
 9752SOL    HW230156   2.832   3.008   0.555
 9753SOL     OW30157   6.384   6.421   5.023
 9753SOL    HW130158   6.481   6.443   5.034
 9753SOL    HW230159   6.366   6.396   4.928
 9754SOL     OW30160   3.290   1.251   2.604
 9754SOL    HW130161   3.385   1.237   2.573
 9754SOL    HW230162   3.264   1.175   2.664
 9755SOL     OW30163   3.553   3.915   0.326
 9755SOL    HW130164   3.484   3.986   0.338
 9755SOL    HW230165   3.643   3.957   0.315
 9756SOL     OW30166   5.872   0.458   5.531
 9756SOL    HW130167   5.911   0.383   5.584
 9756SOL    HW230168   5.784   0.429   5.492
 9757SOL     OW30169   4.936   3.674   4.389
 9757SOL    HW130170   4.991   3.696   4.309
 9757SOL    HW230171   4.962   3.584   4.424
 9758SOL     OW30172   2.244   1.131   2.460
 9758SOL    HW130173   2.173   1.102   2.523
 9758SOL    HW230174   2.212   1.209   2.406
 9759SOL     OW30175   6.483   1.980   1.767
 9759SOL    HW130176   6.495   1.984   1.668
 9759SOL    HW230177   6.527   2.060   1.808
 9760SOL     OW30178   4.714   0.485   0.142
 9760SOL    HW130179   4.665   0.433   0.212
 9760SOL    HW230180   4.743   0.572   0.180
 9761SOL     OW30181   1.181   2.593   1.196
 9761SOL    HW130182   1.257   2.596   1.132
 9761SOL    HW230183   1.098   2.625   1.150
 9762SOL     OW30184   2.991   1.303   5.419
 9762SOL    HW130185   2.920   1.374   5.411
 9762SOL    HW230186   3.065   1.337   5.476
 9763SOL     OW30187   6.719   2.452   1.341
 9763SOL    HW130188   6.802   2.503   1.319
 9763SOL    HW230189   6.712   2.440   1.440
 9764SOL     OW30190   0.554   2.016   2.808
 9764SOL    HW130191   0.517   2.099   2.766
 9764SOL    HW230192   0.534   1.937   2.751
 9765SOL     OW30193   6.865   0.179   1.886
 9765SOL    HW130194   6.889   0.185   1.983
 9765SOL    HW230195   6.765   0.172   1.876
 9766SOL     OW30196   1.478   2.245   2.824
 9766SOL    HW130197   1.500   2.316   2.891
 9766SOL    HW230198   1.443   2.287   2.740
 9767SOL     OW30199   2.535   1.357   5.173
 9767SOL    HW130200   2.441   1.390   5.167
 9767SOL    HW230201   2.587   1.388   5.093
 9768SOL     OW30202   5.830   3.276   0.560
 9768SOL    HW130203   5.759   3.209   0.581
 9768SOL    HW230204   5.800   3.334   0.484
 9769SOL     OW30205   3.343   1.701   5.484
 9769SOL    HW130206   3.318   1.793   5.515
 9769SOL    HW230207   3.366   1.704   5.386
 9770SOL     OW30208   1.868   2.853   5.452
 9770SOL    HW130209   1.862   2.947   5.416
 9770SOL    HW230210   1.918   2.854   5.538
 9771SOL     OW30211   3.109   0.369   1.300
 9771SOL    HW130212   3.086   0.368   1.398
 9771SOL    HW230213   3.025   0.360   1.246
 9772SOL     OW30214   0.892   0.627   1.325
 9772SOL    HW130215   0.792   0.618   1.325
 9772SOL    HW230216   0.922   0.663   1.236
 9773SOL     OW30217   6.058   5.434   2.578
 9773SOL    HW130218   6.134   5.450   2.514
 9773SOL    HW230219   6.090   5.379   2.655
 9774SOL     OW30220   1.644   4.574   4.320
 9774SOL    HW130221   1.665   4.562   4.417
 9774SOL    HW230222   1.547   4.559   4.305
 9775SOL     OW30223   2.256   1.406   3.330
 9775SOL    HW130224   2.197   1.379   3.255
 9775SOL    HW230225   2.335   1.455   3.295
 9776SOL     OW30226   2.509   5.298   1.090
 9776SOL    HW130227   2.578   5.226   1.096
 9776SOL    HW230228   2.422   5.259   1.061
 9777SOL     OW30229   4.451   1.186   5.477
 9777SOL    HW130230   4.393   1.233   5.543
 9777SOL    HW230231   4.408   1.100   5.450
 9778SOL     OW30232   1.160   3.946   3.384
 9778SOL    HW130233   1.221   4.024   3.369
 9778SOL    HW230234   1.069   3.967   3.349
 9779SOL     OW30235   3.004   0.786   3.501
 9779SOL    HW130236   3.029   0.835   3.418
 9779SOL    HW230237   3.085   0.740   3.538
 9780SOL     OW30238   0.591   2.583   1.656
 9780SOL    HW130239   0.669   2.646   1.656
 9780SOL    HW230240   0.535   2.599   1.737
 9781SOL     OW30241   1.741   1.394   2.113
 9781SOL    HW130242   1.764   1.388   2.016
 9781SOL    HW230243   1.686   1.314   2.139
 9782SOL     OW30244   0.486   2.249   0.383
 9782SOL    HW130245   0.543   2.178   0.342
 9782SOL    HW230246   0.469   2.227   0.479
 9783SOL     OW30247   4.570   1.363   2.813
 9783SOL    HW130248   4.569   1.294   2.885
 9783SOL    HW230249   4.517   1.443   2.842
 9784SOL     OW30250   1.793   1.259   6.330
 9784SOL    HW130251   1.713   1.320   6.331
 9784SOL    HW230252   1.839   1.263   6.419
 9785SOL     OW30253   0.753   4.063   4.631
 9785SOL    HW130254   0.766   3.965   4.646
 9785SOL    HW230255   0.835   4.102   4.589
 9786SOL     OW30256   2.441   4.522   6.318
 9786SOL    HW130257   2.527   4.564   6.347
 9786SOL    HW230258   2.431   4.433   6.362
 9787SOL     OW30259   2.882   3.433   2.388
 9787SOL    HW130260   2.879   3.345   2.341
 9787SOL    HW230261   2.878   3.507   2.321
 9788SOL     OW30262   3.956   0.087   1.737
 9788SOL    HW130263   3.938   0.012   1.800
 9788SOL    HW230264   3.879   0.151   1.739
 9789SOL     OW30265   3.421   1.406   6.842
 9789SOL    HW130266   3.363   1.407   6.923
 9789SOL    HW230267   3.363   1.412   6.760
 9790SOL     OW30268   5.606   6.033   4.441
 9790SOL    HW130269   5.652   5.995   4.361
 9790SOL    HW230270   5.522   5.981   4.458
 9791SOL     OW30271   0.684   6.974   1.847
 9791SOL    HW130272   0.598   6.926   1.830
 9791SOL    HW230273   0.727   6.938   1.930
 9792SOL     OW30274   3.979   4.772   0.722
 9792SOL    HW130275   4.027   4.860   0.723
 9792SOL    HW230276   4.046   4.698   0.730
 9793SOL     OW30277   6.194   0.883   3.648
 9793SOL    HW130278   6.099   0.908   3.627
 9793SOL    HW230279   6.253   0.961   3.630
 9794SOL     OW30280   4.412   4.657   4.561
 9794SOL    HW130281   4.320   4.629   4.589
 9794SOL    HW230282   4.453   4.714   4.633
 9795SOL     OW30283   1.080   3.406   2.937
 9795SOL    HW130284   1.017   3.436   2.866
 9795SOL    HW230285   1.130   3.325   2.906
 9796SOL     OW30286   3.198   3.870   4.200
 9796SOL    HW130287   3.279   3.813   4.188
 9796SOL    HW230288   3.134   3.825   4.262
 9797SOL     OW30289   2.532   5.065   0.466
 9797SOL    HW130290   2.600   4.991   0.470
 9797SOL    HW230291   2.440   5.026   0.469
 9798SOL     OW30292   0.041   4.347   6.299
 9798SOL    HW130293   0.002   4.402   6.372
 9798SOL    HW230294   0.141   4.352   6.303
 9799SOL     OW30295   3.181   0.231   0.123
 9799SOL    HW130296   3.183   0.132   0.114
 9799SOL    HW230297   3.111   0.270   0.063
 9800SOL     OW30298   6.873   3.432   4.073
 9800SOL    HW130299   6.833   3.409   4.163
 9800SOL    HW230300   6.945   3.500   4.085
 9801SOL     OW30301   5.081   6.658   0.449
 9801SOL    HW130302   5.090   6.732   0.515
 9801SOL    HW230303   5.030   6.583   0.491
 9802SOL     OW30304   3.934   3.806   6.873
 9802SOL    HW130305   3.970   3.898   6.890
 9802SOL    HW230306   3.851   3.792   6.927
 9803SOL     OW30307   0.939   3.033   6.513
 9803SOL    HW130308   1.009   3.054   6.445
 9803SOL    HW230309   0.849   3.036   6.469
 9804SOL     OW30310   0.364   4.913   2.511
 9804SOL    HW130311   0.434   4.925   2.582
 9804SOL    HW230312   0.289   4.858   2.547
 9805SOL     OW30313   0.771   5.437   3.891
 9805SOL    HW130314   0.723   5.476   3.813
 9805SOL    HW230315   0.832   5.505   3.931
 9806SOL     OW30316   3.737   1.971   0.262
 9806SOL    HW130317   3.801   1.969   0.338
 9806SOL    HW230318   3.786   1.990   0.177
 9807SOL     OW30319   3.898   3.210   2.998
 9807SOL    HW130320   3.947   3.162   2.926
 9807SOL    HW230321   3.902   3.308   2.983
 9808SOL     OW30322   3.973   5.773   2.084
 9808SOL    HW130323   3.972   5.864   2.042
 9808SOL    HW230324   3.915   5.711   2.031
 9809SOL     OW30325   6.792   3.211   0.590
 9809SOL    HW130326   6.712   3.228   0.533
 9809SOL    HW230327   6.777   3.128   0.645
 9810SOL     OW30328   2.778   1.967   0.149
 9810SOL    HW130329   2.690   2.013   0.159
 9810SOL    HW230330   2.798   1.915   0.233
 9811SOL     OW30331   5.715   3.749   4.243
 9811SOL    HW130332   5.753   3.802   4.167
 9811SOL    HW230333   5.788   3.724   4.307
 9812SOL     OW30334   3.446   6.297   5.945
 9812SOL    HW130335   3.478   6.266   6.034
 9812SOL    HW230336   3.399   6.222   5.898
 9813SOL     OW30337   5.049   0.490   1.989
 9813SOL    HW130338   5.148   0.505   1.990
 9813SOL    HW230339   5.002   0.577   2.004
 9814SOL     OW30340   6.451   1.122   6.905
 9814SOL    HW130341   6.521   1.177   6.860
 9814SOL    HW230342   6.395   1.180   6.964
 9815SOL     OW30343   4.656   2.595   4.197
 9815SOL    HW130344   4.680   2.685   4.162
 9815SOL    HW230345   4.573   2.601   4.252
 9816SOL     OW30346   2.315   1.013   1.548
 9816SOL    HW130347   2.395   1.065   1.517
 9816SOL    HW230348   2.271   1.061   1.624
 9817SOL     OW30349   6.349   6.958   2.467
 9817SOL    HW130350   6.284   6.884   2.484
 9817SOL    HW230351   6.442   6.926   2.487
 9818SOL     OW30352   5.267   2.409   5.107
 9818SOL    HW130353   5.241   2.490   5.054
 9818SOL    HW230354   5.194   2.340   5.099
 9819SOL     OW30355   4.534   0.527   2.672
 9819SOL    HW130356   4.595   0.606   2.672
 9819SOL    HW230357   4.448   0.552   2.718
 9820SOL     OW30358   4.294   2.957   6.199
 9820SOL    HW130359   4.276   2.931   6.104
 9820SOL    HW230360   4.267   3.052   6.213
 9821SOL     OW30361   6.559   5.259   6.876
 9821SOL    HW130362   6.556   5.264   6.976
 9821SOL    HW230363   6.466   5.261   6.840
 9822SOL     OW30364   0.480   6.781   2.645
 9822SOL    HW130365   0.528   6.866   2.662
 9822SOL    HW230366   0.545   6.705   2.646
 9823SOL     OW30367   3.744   0.244   1.734
 9823SOL    HW130368   3.741   0.318   1.667
 9823SOL    HW230369   3.702   0.275   1.820
 9824SOL     OW30370   1.533   3.812   5.534
 9824SOL    HW130371   1.617   3.863   5.547
 9824SOL    HW230372   1.511   3.761   5.617
 9825SOL     OW30373   4.277   5.205   5.250
 9825SOL    HW130374   4.188   5.181   5.210
 9825SOL    HW230375   4.350   5.162   5.196
 9826SOL     OW30376   5.220   0.742   6.123
 9826SOL    HW130377   5.254   0.650   6.142
 9826SOL    HW230378   5.297   0.805   6.113
 9827SOL     OW30379   1.122   3.546   4.318
 9827SOL    HW130380   1.030   3.555   4.281
 9827SOL    HW230381   1.147   3.449   4.322
 9828SOL     OW30382   3.205   3.042   6.829
 9828SOL    HW130383   3.291   3.029   6.778
 9828SOL    HW230384   3.215   3.120   6.891
 9829SOL     OW30385   3.217   4.780   0.689
 9829SOL    HW130386   3.181   4.732   0.769
 9829SOL    HW230387   3.238   4.875   0.714
 9830SOL     OW30388   6.020   0.142   0.642
 9830SOL    HW130389   6.082   0.196   0.701
 9830SOL    HW230390   5.944   0.200   0.612
 9831SOL     OW30391   6.201   6.984   0.529
 9831SOL    HW130392   6.207   6.996   0.430
 9831SOL    HW230393   6.129   0.021   0.565
 9832SOL     OW30394   4.399   4.709   0.786
 9832SOL    HW130395   4.469   4.697   0.856
 9832SOL    HW230396   4.330   4.774   0.818
 9833SOL     OW30397   3.936   4.113   5.442
 9833SOL    HW130398   3.935   4.149   5.535
 9833SOL    HW230399   4.024   4.068   5.425
 9834SOL     OW30400   0.873   3.585   4.551
 9834SOL    HW130401   0.810   3.574   4.474
 9834SOL    HW230402   0.900   3.495   4.585
 9835SOL     OW30403   5.084   1.313   4.075
 9835SOL    HW130404   5.009   1.260   4.114
 9835SOL    HW230405   5.065   1.411   4.086
 9836SOL     OW30406   5.015   5.517   3.113
 9836SOL    HW130407   5.053   5.573   3.187
 9836SOL    HW230408   4.940   5.462   3.149
 9837SOL     OW30409   1.571   6.361   4.329
 9837SOL    HW130410   1.529   6.329   4.245
 9837SOL    HW230411   1.534   6.450   4.354
 9838SOL     OW30412   0.142   5.798   5.612
 9838SOL    HW130413   0.219   5.757   5.564
 9838SOL    HW230414   0.130   5.893   5.582
 9839SOL     OW30415   6.578   1.896   2.067
 9839SOL    HW130416   6.548   1.902   1.972
 9839SOL    HW230417   6.537   1.816   2.110
 9840SOL     OW30418   6.654   0.543   1.241
 9840SOL    HW130419   6.714   0.467   1.267
 9840SOL    HW230420   6.611   0.580   1.323
 9841SOL     OW30421   1.704   3.819   4.105
 9841SOL    HW130422   1.746   3.728   4.112
 9841SOL    HW230423   1.769   3.888   4.136
 9842SOL     OW30424   3.661   2.875   2.245
 9842SOL    HW130425   3.673   2.799   2.181
 9842SOL    HW230426   3.672   2.961   2.197
 9843SOL     OW30427   6.030   2.893   2.192
 9843SOL    HW130428   5.983   2.816   2.236
 9843SOL    HW230429   6.107   2.859   2.139
 9844SOL     OW30430   5.101   6.935   2.642
 9844SOL    HW130431   5.195   6.968   2.654
 9844SOL    HW230432   5.037   7.009   2.664
 9845SOL     OW30433   0.770   2.225   3.418
 9845SOL    HW130434   0.869   2.217   3.429
 9845SOL    HW230435   0.731   2.133   3.406
 9846SOL     OW30436   2.945   3.254   2.773
 9846SOL    HW130437   2.877   3.251   2.700
 9846SOL    HW230438   3.002   3.172   2.770
 9847SOL     OW30439   2.030   4.387   5.127
 9847SOL    HW130440   2.050   4.379   5.224
 9847SOL    HW230441   1.984   4.474   5.110
 9848SOL     OW30442   4.743   3.619   0.395
 9848SOL    HW130443   4.753   3.598   0.492
 9848SOL    HW230444   4.831   3.606   0.350
 9849SOL     OW30445   0.545   0.080   5.771
 9849SOL    HW130446   0.525   0.167   5.817
 9849SOL    HW230447   0.531   0.004   5.835
 9850SOL     OW30448   3.966   6.347   2.434
 9850SOL    HW130449   4.013   6.435   2.446
 9850SOL    HW230450   4.032   6.272   2.442
 9851SOL     OW30451   5.784   1.933   5.201
 9851SOL    HW130452   5.785   2.030   5.176
 9851SOL    HW230453   5.856   1.915   5.269
 9852SOL     OW30454   4.999   1.871   3.684
 9852SOL    HW130455   5.052   1.854   3.600
 9852SOL    HW230456   4.918   1.813   3.684
 9853SOL     OW30457   6.228   4.096   1.937
 9853SOL    HW130458   6.282   4.019   1.972
 9853SOL    HW230459   6.209   4.081   1.840
 9854SOL     OW30460   4.858   5.715   3.839
 9854SOL    HW130461   4.917   5.767   3.901
 9854SOL    HW230462   4.827   5.775   3.765
 9855SOL     OW30463   1.273   3.144   1.253
 9855SOL    HW130464   1.203   3.216   1.250
 9855SOL    HW230465   1.361   3.184   1.277
 9856SOL     OW30466   4.162   2.695   1.154
 9856SOL    HW130467   4.075   2.679   1.107
 9856SOL    HW230468   4.165   2.640   1.237
 9857SOL     OW30469   5.086   4.150   3.459
 9857SOL    HW130470   5.071   4.248   3.447
 9857SOL    HW230471   5.142   4.135   3.541
 9858SOL     OW30472   4.994   0.470   0.975
 9858SOL    HW130473   5.020   0.407   1.048
 9858SOL    HW230474   4.912   0.437   0.929
 9859SOL     OW30475   6.569   0.451   2.079
 9859SOL    HW130476   6.501   0.524   2.082
 9859SOL    HW230477   6.609   0.439   2.170
 9860SOL     OW30478   0.630   0.931   2.695
 9860SOL    HW130479   0.652   1.008   2.755
 9860SOL    HW230480   0.714   0.899   2.652
 9861SOL     OW30481   3.734   6.750   4.508
 9861SOL    HW130482   3.778   6.661   4.492
 9861SOL    HW230483   3.731   6.801   4.423
 9862SOL     OW30484   1.024   2.469   0.578
 9862SOL    HW130485   1.111   2.488   0.623
 9862SOL    HW230486   1.032   2.382   0.528
 9863SOL     OW30487   3.121   6.740   1.193
 9863SOL    HW130488   3.175   6.703   1.117
 9863SOL    HW230489   3.101   6.666   1.258
 9864SOL     OW30490   4.550   5.758   2.466
 9864SOL    HW130491   4.616   5.828   2.438
 9864SOL    HW230492   4.517   5.777   2.558
 9865SOL     OW30493   0.172   1.537   4.798
 9865SOL    HW130494   0.251   1.478   4.779
 9865SOL    HW230495   0.203   1.632   4.803
 9866SOL     OW30496   4.554   4.396   3.684
 9866SOL    HW130497   4.522   4.461   3.615
 9866SOL    HW230498   4.520   4.423   3.774
 9867SOL     OW30499   4.293   0.821   6.674
 9867SOL    HW130500   4.212   0.800   6.619
 9867SOL    HW230501   4.277   0.906   6.724
 9868SOL     OW30502   0.067   5.379   0.029
 9868SOL    HW130503   0.162   5.380   0.062
 9868SOL    HW230504   0.013   5.318   0.087
 9869SOL     OW30505   1.706   3.848   3.211
 9869SOL    HW130506   1.744   3.764   3.171
 9869SOL    HW230507   1.765   3.925   3.187
 9870SOL     OW30508   4.894   4.767   2.813
 9870SOL    HW130509   4.912   4.832   2.886
 9870SOL    HW230510   4.843   4.812   2.740
 9871SOL     OW30511   1.887   1.125   5.111
 9871SOL    HW130512   1.961   1.069   5.073
 9871SOL    HW230513   1.844   1.077   5.187
 9872SOL     OW30514   1.873   4.598   3.595
 9872SOL    HW130515   1.952   4.659   3.601
 9872SOL    HW230516   1.901   4.512   3.552
 9873SOL     OW30517   1.207   2.732   0.489
 9873SOL    HW130518   1.280   2.747   0.422
 9873SOL    HW230519   1.222   2.643   0.533
 9874SOL     OW30520   0.719   2.741   3.715
 9874SOL    HW130521   0.786   2.712   3.646
 9874SOL    HW230522   0.627   2.718   3.684
 9875SOL     OW30523   1.278   0.765   3.493
 9875SOL    HW130524   1.328   0.846   3.522
 9875SOL    HW230525   1.206   0.792   3.428
 9876SOL     OW30526   6.890   6.072   2.614
 9876SOL    HW130527   6.989   6.059   2.603
 9876SOL    HW230528   6.842   6.016   2.548
 9877SOL     OW30529   3.352   0.003   2.166
 9877SOL    HW130530   3.332   0.005   2.068
 9877SOL    HW230531   3.451   7.018   2.180
 9878SOL     OW30532   0.681   6.261   5.273
 9878SOL    HW130533   0.657   6.247   5.177
 9878SOL    HW230534   0.664   6.356   5.299
 9879SOL     OW30535   4.491   5.981   6.132
 9879SOL    HW130536   4.561   5.975   6.203
 9879SOL    HW230537   4.516   5.924   6.054
 9880SOL     OW30538   1.681   1.460   5.440
 9880SOL    HW130539   1.638   1.470   5.350
 9880SOL    HW230540   1.765   1.513   5.444
 9881SOL     OW30541   0.422   2.861   6.066
 9881SOL    HW130542   0.469   2.811   5.994
 9881SOL    HW230543   0.379   2.797   6.130
 9882SOL     OW30544   1.379   1.569   3.922
 9882SOL    HW130545   1.416   1.661   3.931
 9882SOL    HW230546   1.400   1.533   3.831
 9883SOL     OW30547   1.957   0.856   1.820
 9883SOL    HW130548   2.035   0.841   1.881
 9883SOL    HW230549   1.964   0.947   1.778
 9884SOL     OW30550   3.968   0.420   4.153
 9884SOL    HW130551   4.006   0.499   4.201
 9884SOL    HW230552   3.905   0.371   4.214
 9885SOL     OW30553   6.393   4.950   4.317
 9885SOL    HW130554   6.340   5.031   4.341
 9885SOL    HW230555   6.332   4.880   4.280
 9886SOL     OW30556   1.300   4.030   2.141
 9886SOL    HW130557   1.280   4.127   2.127
 9886SOL    HW230558   1.216   3.982   2.167
 9887SOL     OW30559   3.959   0.692   6.967
 9887SOL    HW130560   4.002   0.773   7.005
 9887SOL    HW230561   3.885   0.720   6.906
 9888SOL     OW30562   0.420   4.155   0.217
 9888SOL    HW130563   0.372   4.078   0.261
 9888SOL    HW230564   0.495   4.185   0.276
 9889SOL     OW30565   6.596   5.040   0.248
 9889SOL    HW130566   6.569   5.131   0.215
 9889SOL    HW230567   6.679   5.048   0.303
 9890SOL     OW30568   1.494   2.699   1.065
 9890SOL    HW130569   1.514   2.710   1.163
 9890SOL    HW230570   1.417   2.757   1.041
 9891SOL     OW30571   4.781   2.358   0.672
 9891SOL    HW130572   4.767   2.300   0.752
 9891SOL    HW230573   4.878   2.362   0.650
 9892SOL     OW30574   6.815   5.382   6.616
 9892SOL    HW130575   6.901   5.338   6.641
 9892SOL    HW230576   6.745   5.312   6.599
 9893SOL     OW30577   2.485   1.625   0.664
 9893SOL    HW130578   2.479   1.691   0.739
 9893SOL    HW230579   2.397   1.578   0.654
 9894SOL     OW30580   1.585   2.429   0.366
 9894SOL    HW130581   1.518   2.466   0.302
 9894SOL    HW230582   1.640   2.360   0.319
 9895SOL     OW30583   5.464   3.271   5.597
 9895SOL    HW130584   5.425   3.256   5.687
 9895SOL    HW230585   5.390   3.281   5.530
 9896SOL     OW30586   5.973   0.003   0.075
 9896SOL    HW130587   5.962   7.019   6.998
 9896SOL    HW230588   6.069   0.019   0.097
 9897SOL     OW30589   5.605   5.390   3.406
 9897SOL    HW130590   5.574   5.435   3.490
 9897SOL    HW230591   5.541   5.317   3.383
 9898SOL     OW30592   3.511   6.340   5.400
 9898SOL    HW130593   3.480   6.286   5.322
 9898SOL    HW230594   3.603   6.374   5.383
 9899SOL     OW30595   0.131   5.600   6.906
 9899SOL    HW130596   0.054   5.612   6.844
 9899SOL    HW230597   0.112   5.523   6.967
 9900SOL     OW30598   2.168   3.741   3.365
 9900SOL    HW130599   2.193   3.786   3.451
 9900SOL    HW230600   2.189   3.801   3.288
 9901SOL     OW30601   2.393   1.847   5.211
 9901SOL    HW130602   2.405   1.835   5.112
 9901SOL    HW230603   2.296   1.840   5.234
 9902SOL     OW30604   2.476   4.616   6.659
 9902SOL    HW130605   2.522   4.589   6.575
 9902SOL    HW230606   2.484   4.543   6.727
 9903SOL     OW30607   5.235   0.858   3.093
 9903SOL    HW130608   5.313   0.907   3.132
 9903SOL    HW230609   5.214   0.895   3.003
 9904SOL     OW30610   6.390   3.043   6.717
 9904SOL    HW130611   6.357   3.136   6.698
 9904SOL    HW230612   6.395   3.029   6.816
 9905SOL     OW30613   3.880   1.449   0.612
 9905SOL    HW130614   3.869   1.535   0.562
 9905SOL    HW230615   3.831   1.454   0.699
 9906SOL     OW30616   4.071   3.317   3.748
 9906SOL    HW130617   4.097   3.293   3.655
 9906SOL    HW230618   3.972   3.313   3.758
 9907SOL     OW30619   0.671   6.976   2.320
 9907SOL    HW130620   0.644   6.903   2.384
 9907SOL    HW230621   0.713   6.935   2.239
 9908SOL     OW30622   5.301   3.031   3.128
 9908SOL    HW130623   5.282   3.126   3.153
 9908SOL    HW230624   5.281   2.972   3.206
 9909SOL     OW30625   2.034   6.892   4.964
 9909SOL    HW130626   2.062   6.862   5.055
 9909SOL    HW230627   2.018   6.991   4.966
 9910SOL     OW30628   1.430   4.245   2.974
 9910SOL    HW130629   1.419   4.202   2.885
 9910SOL    HW230630   1.464   4.178   3.040
 9911SOL     OW30631   3.423   6.570   1.575
 9911SOL    HW130632   3.384   6.504   1.638
 9911SOL    HW230633   3.523   6.558   1.572
 9912SOL     OW30634   4.536   1.720   0.569
 9912SOL    HW130635   4.466   1.653   0.545
 9912SOL    HW230636   4.574   1.699   0.659
 9913SOL     OW30637   5.839   3.496   6.820
 9913SOL    HW130638   5.895   3.490   6.738
 9913SOL    HW230639   5.876   3.436   6.891
 9914SOL     OW30640   0.787   2.916   4.690
 9914SOL    HW130641   0.726   2.984   4.649
 9914SOL    HW230642   0.882   2.943   4.674
 9915SOL     OW30643   5.666   1.432   3.740
 9915SOL    HW130644   5.567   1.443   3.750
 9915SOL    HW230645   5.697   1.487   3.663
 9916SOL     OW30646   2.296   2.762   2.418
 9916SOL    HW130647   2.358   2.691   2.386
 9916SOL    HW230648   2.317   2.848   2.372
 9917SOL     OW30649   6.600   4.179   5.693
 9917SOL    HW130650   6.633   4.210   5.604
 9917SOL    HW230651   6.500   4.177   5.694
 9918SOL     OW30652   3.881   2.113   2.551
 9918SOL    HW130653   3.794   2.140   2.591
 9918SOL    HW230654   3.867   2.081   2.457
 9919SOL     OW30655   6.043   5.810   1.024
 9919SOL    HW130656   5.993   5.877   0.970
 9919SOL    HW230657   6.053   5.843   1.118
 9920SOL     OW30658   4.765   1.397   2.618
 9920SOL    HW130659   4.683   1.363   2.665
 9920SOL    HW230660   4.803   1.475   2.668
 9921SOL     OW30661   3.491   5.531   6.005
 9921SOL    HW130662   3.394   5.550   6.015
 9921SOL    HW230663   3.526   5.582   5.925
 9922SOL     OW30664   0.205   5.717   0.614
 9922SOL    HW130665   0.257   5.634   0.594
 9922SOL    HW230666   0.115   5.692   0.650
 9923SOL     OW30667   4.759   5.107   7.022
 9923SOL    HW130668   4.697   5.185   7.016
 9923SOL    HW230669   4.824   5.110   6.946
 9924SOL     OW30670   0.713   3.434   4.922
 9924SOL    HW130671   0.777   3.421   4.997
 9924SOL    HW230672   0.681   3.528   4.920
 9925SOL     OW30673   5.427   2.738   4.254
 9925SOL    HW130674   5.354   2.779   4.198
 9925SOL    HW230675   5.402   2.743   4.350
 9926SOL     OW30676   1.750   4.477   0.025
 9926SOL    HW130677   1.807   4.462   6.967
 9926SOL    HW230678   1.692   4.397   0.040
 9927SOL     OW30679   6.314   0.247   3.430
 9927SOL    HW130680   6.380   0.173   3.423
 9927SOL    HW230681   6.357   0.327   3.473
 9928SOL     OW30682   4.630   4.410   1.433
 9928SOL    HW130683   4.556   4.474   1.412
 9928SOL    HW230684   4.690   4.450   1.502
 9929SOL     OW30685   2.535   4.535   4.359
 9929SOL    HW130686   2.454   4.510   4.411
 9929SOL    HW230687   2.570   4.454   4.312
 9930SOL     OW30688   7.003   0.484   4.339
 9930SOL    HW130689   6.965   0.392   4.329
 9930SOL    HW230690   6.932   0.552   4.325
 9931SOL     OW30691   0.717   4.416   4.862
 9931SOL    HW130692   0.789   4.356   4.894
 9931SOL    HW230693   0.643   4.419   4.930
 9932SOL     OW30694   0.736   6.523   6.185
 9932SOL    HW130695   0.763   6.438   6.140
 9932SOL    HW230696   0.637   6.524   6.197
 9933SOL     OW30697   0.909   5.430   2.296
 9933SOL    HW130698   0.927   5.344   2.344
 9933SOL    HW230699   0.952   5.506   2.345
 9934SOL     OW30700   6.653   1.611   5.916
 9934SOL    HW130701   6.702   1.666   5.983
 9934SOL    HW230702   6.701   1.524   5.904
 9935SOL     OW30703   2.589   1.121   6.402
 9935SOL    HW130704   2.677   1.168   6.387
 9935SOL    HW230705   2.547   1.101   6.313
 9936SOL     OW30706   0.584   4.095   4.847
 9936SOL    HW130707   0.645   4.052   4.781
 9936SOL    HW230708   0.587   4.044   4.933
 9937SOL     OW30709   0.000   2.478   6.047
 9937SOL    HW130710   0.003   2.400   5.985
 9937SOL    HW230711   0.049   2.454   6.132
 9938SOL     OW30712   6.644   6.271   3.092
 9938SOL    HW130713   6.591   6.233   3.017
 9938SOL    HW230714   6.649   6.371   3.083
 9939SOL     OW30715   3.318   2.834   2.076
 9939SOL    HW130716   3.408   2.824   2.034
 9939SOL    HW230717   3.328   2.867   2.170
 9940SOL     OW30718   6.738   1.161   0.596
 9940SOL    HW130719   6.749   1.201   0.505
 9940SOL    HW230720   6.824   1.120   0.626
 9941SOL     OW30721   3.150   4.627   5.781
 9941SOL    HW130722   3.117   4.555   5.843
 9941SOL    HW230723   3.077   4.653   5.718
 9942SOL     OW30724   2.645   5.560   3.363
 9942SOL    HW130725   2.624   5.503   3.283
 9942SOL    HW230726   2.651   5.502   3.444
 9943SOL     OW30727   0.799   6.273   6.075
 9943SOL    HW130728   0.781   6.201   6.141
 9943SOL    HW230729   0.829   6.233   5.988
 9944SOL     OW30730   1.013   4.147   0.077
 9944SOL    HW130731   0.982   4.232   0.033
 9944SOL    HW230732   0.939   4.108   0.130
 9945SOL     OW30733   6.667   5.526   0.259
 9945SOL    HW130734   6.764   5.549   0.261
 9945SOL    HW230735   6.625   5.550   0.346
 9946SOL     OW30736   4.777   0.498   5.280
 9946SOL    HW130737   4.682   0.503   5.312
 9946SOL    HW230738   4.782   0.435   5.202
 9947SOL     OW30739   6.534   4.549   4.339
 9947SOL    HW130740   6.553   4.589   4.429
 9947SOL    HW230741   6.514   4.622   4.274
 9948SOL     OW30742   5.036   4.612   5.042
 9948SOL    HW130743   5.051   4.554   4.962
 9948SOL    HW230744   4.942   4.601   5.074
 9949SOL     OW30745   5.531   5.155   3.223
 9949SOL    HW130746   5.598   5.085   3.248
 9949SOL    HW230747   5.542   5.178   3.126
 9950SOL     OW30748   4.174   6.130   5.404
 9950SOL    HW130749   4.136   6.110   5.314
 9950SOL    HW230750   4.100   6.138   5.471
 9951SOL     OW30751   5.652   2.226   2.712
 9951SOL    HW130752   5.717   2.268   2.649
 9951SOL    HW230753   5.559   2.246   2.684
 9952SOL     OW30754   6.792   4.617   0.389
 9952SOL    HW130755   6.806   4.540   0.326
 9952SOL    HW230756   6.838   4.698   0.354
 9953SOL     OW30757   6.829   1.203   3.970
 9953SOL    HW130758   6.874   1.169   4.052
 9953SOL    HW230759   6.840   1.302   3.964
 9954SOL     OW30760   5.037   0.208   5.340
 9954SOL    HW130761   4.967   0.155   5.388
 9954SOL    HW230762   5.080   0.272   5.403
 9955SOL     OW30763   0.312   4.067   4.916
 9955SOL    HW130764   0.402   4.103   4.891
 9955SOL    HW230765   0.310   3.968   4.901
 9956SOL     OW30766   1.542   6.629   1.554
 9956SOL    HW130767   1.603   6.562   1.511
 9956SOL    HW230768   1.594   6.681   1.622
 9957SOL     OW30769   6.732   3.990   3.928
 9957SOL    HW130770   6.653   4.050   3.939
 9957SOL    HW230771   6.794   4.002   4.006
 9958SOL     OW30772   2.593   4.160   1.434
 9958SOL    HW130773   2.499   4.177   1.403
 9958SOL    HW230774   2.596   4.164   1.534
 9959SOL     OW30775   3.950   3.584   0.414
 9959SOL    HW130776   4.001   3.664   0.381
 9959SOL    HW230777   4.005   3.535   0.482
 9960SOL     OW30778   0.301   1.485   2.684
 9960SOL    HW130779   0.389   1.449   2.653
 9960SOL    HW230780   0.271   1.557   2.621
 9961SOL     OW30781   1.949   5.334   4.545
 9961SOL    HW130782   1.967   5.268   4.617
 9961SOL    HW230783   1.915   5.286   4.464
 9962SOL     OW30784   4.829   6.250   5.227
 9962SOL    HW130785   4.873   6.323   5.279
 9962SOL    HW230786   4.730   6.258   5.235
 9963SOL     OW30787   3.018   0.968   0.943
 9963SOL    HW130788   3.092   1.014   0.895
 9963SOL    HW230789   2.930   0.991   0.901
 9964SOL     OW30790   4.325   5.886   5.349
 9964SOL    HW130791   4.415   5.925   5.332
 9964SOL    HW230792   4.264   5.958   5.384
 9965SOL     OW30793   4.363   0.159   0.499
 9965SOL    HW130794   4.403   0.074   0.465
 9965SOL    HW230795   4.263   0.155   0.489
 9966SOL     OW30796   0.917   6.775   2.422
 9966SOL    HW130797   0.946   6.685   2.388
 9966SOL    HW230798   0.940   6.845   2.354
 9967SOL     OW30799   1.108   5.495   0.738
 9967SOL    HW130800   1.202   5.478   0.707
 9967SOL    HW230801   1.044   5.445   0.679
 9968SOL     OW30802   4.070   3.244   2.457
 9968SOL    HW130803   4.067   3.301   2.375
 9968SOL    HW230804   4.104   3.297   2.534
 9969SOL     OW30805   0.786   3.365   1.913
 9969SOL    HW130806   0.728   3.328   1.840
 9969SOL    HW230807   0.879   3.375   1.880
 9970SOL     OW30808   5.735   4.390   1.319
 9970SOL    HW130809   5.703   4.297   1.307
 9970SOL    HW230810   5.791   4.417   1.241
 9971SOL     OW30811   1.906   4.781   0.319
 9971SOL    HW130812   1.814   4.815   0.336
 9971SOL    HW230813   1.942   4.738   0.402
 9972SOL     OW30814   6.655   4.410   2.113
 9972SOL    HW130815   6.663   4.332   2.052
 9972SOL    HW230816   6.559   4.420   2.142
 9973SOL     OW30817   5.830   0.895   4.722
 9973SOL    HW130818   5.830   0.988   4.686
 9973SOL    HW230819   5.737   0.870   4.749
 9974SOL     OW30820   1.961   1.010   4.367
 9974SOL    HW130821   1.868   0.989   4.397
 9974SOL    HW230822   1.967   1.002   4.268
 9975SOL     OW30823   0.575   3.062   0.359
 9975SOL    HW130824   0.629   2.991   0.313
 9975SOL    HW230825   0.636   3.136   0.388
 9976SOL     OW30826   1.986   0.146   5.022
 9976SOL    HW130827   1.924   0.194   5.084
 9976SOL    HW230828   2.058   0.209   4.992
 9977SOL     OW30829   6.782   4.557   4.747
 9977SOL    HW130830   6.859   4.568   4.810
 9977SOL    HW230831   6.792   4.470   4.697
 9978SOL     OW30832   6.597   1.626   4.199
 9978SOL    HW130833   6.637   1.534   4.196
 9978SOL    HW230834   6.500   1.621   4.176
 9979SOL     OW30835   6.752   3.839   5.201
 9979SOL    HW130836   6.807   3.848   5.284
 9979SOL    HW230837   6.689   3.763   5.210
 9980SOL     OW30838   3.439   6.991   5.915
 9980SOL    HW130839   3.466   6.981   6.011
 9980SOL    HW230840   3.507   6.948   5.856
 9981SOL     OW30841   3.514   2.166   4.132
 9981SOL    HW130842   3.446   2.208   4.071
 9981SOL    HW230843   3.493   2.191   4.227
 9982SOL     OW30844   6.891   6.578   4.312
 9982SOL    HW130845   6.973   6.635   4.316
 9982SOL    HW230846   6.909   6.490   4.355
 9983SOL     OW30847   0.055   1.203   1.814
 9983SOL    HW130848   7.019   1.205   1.734
 9983SOL    HW230849   0.049   1.113   1.858
 9984SOL     OW30850   3.123   1.709   6.472
 9984SOL    HW130851   3.124   1.803   6.439
 9984SOL    HW230852   3.139   1.646   6.396
 9985SOL     OW30853   1.178   0.387   1.896
 9985SOL    HW130854   1.107   0.326   1.932
 9985SOL    HW230855   1.169   0.477   1.938
 9986SOL     OW30856   5.002   4.287   4.690
 9986SOL    HW130857   4.992   4.222   4.615
 9986SOL    HW230858   4.913   4.302   4.734
 9987SOL     OW30859   6.919   3.650   5.759
 9987SOL    HW130860   6.960   3.631   5.848
 9987SOL    HW230861   6.958   3.734   5.721
 9988SOL     OW30862   6.727   6.699   5.371
 9988SOL    HW130863   6.666   6.620   5.370
 9988SOL    HW230864   6.681   6.776   5.417
 9989SOL     OW30865   0.544   3.551   5.328
 9989SOL    HW130866   0.613   3.571   5.397
 9989SOL    HW230867   0.566   3.465   5.282
 9990SOL     OW30868   1.348   5.361   2.334
 9990SOL    HW130869   1.372   5.272   2.296
 9990SOL    HW230870   1.271   5.350   2.398
 9991SOL     OW30871   3.883   2.104   3.575
 9991SOL    HW130872   3.861   2.120   3.671
 9991SOL    HW230873   3.807   2.133   3.517
 9992SOL     OW30874   6.433   5.286   6.204
 9992SOL    HW130875   6.441   5.225   6.125
 9992SOL    HW230876   6.523   5.300   6.245
 9993SOL     OW30877   0.681   0.951   1.875
 9993SOL    HW130878   0.587   0.986   1.875
 9993SOL    HW230879   0.730   0.987   1.796
 9994SOL     OW30880   5.921   4.690   3.092
 9994SOL    HW130881   5.828   4.712   3.063
 9994SOL    HW230882   5.983   4.763   3.063
 9995SOL     OW30883   4.873   1.081   5.068
 9995SOL    HW130884   4.784   1.035   5.070
 9995SOL    HW230885   4.865   1.166   5.016
 9996SOL     OW30886   2.453   3.838   0.083
 9996SOL    HW130887   2.517   3.807   0.153
 9996SOL    HW230888   2.383   3.895   0.125
 9997SOL     OW30889   2.893   0.146   5.032
 9997SOL    HW130890   2.902   0.133   4.933
 9997SOL    HW230891   2.876   0.057   5.075
 9998SOL     OW30892   6.246   5.789   5.520
 9998SOL    HW130893   6.319   5.836   5.570
 9998SOL    HW230894   6.220   5.844   5.440
 9999SOL     OW30895   6.867   2.198   4.976
 9999SOL    HW130896   6.965   2.177   4.978
 9999SOL    HW230897   6.816   2.116   4.948
10000SOL     OW30898   6.942   3.190   6.846
10000SOL    HW130899   6.847   3.159   6.846
10000SOL    HW230900   7.001   3.117   6.812
10001SOL     OW30901   4.067   7.000   2.688
10001SOL    HW130902   4.088   7.009   2.591
10001SOL    HW230903   4.146   6.962   2.736
10002SOL     OW30904   0.917   0.976   2.035
10002SOL    HW130905   0.836   0.962   1.979
10002SOL    HW230906   0.968   0.890   2.042
10003SOL     OW30907   4.683   1.843   3.452
10003SOL    HW130908   4.673   1.793   3.366
10003SOL    HW230909   4.746   1.795   3.512
10004SOL     OW30910   0.346   1.700   3.322
10004SOL    HW130911   0.397   1.720   3.238
10004SOL    HW230912   0.400   1.641   3.382
10005SOL     OW30913   5.036   6.511   4.214
10005SOL    HW130914   5.126   6.538   4.180
10005SOL    HW230915   5.016   6.418   4.185
10006SOL     OW30916   3.551   0.456   4.678
10006SOL    HW130917   3.563   0.546   4.636
10006SOL    HW230918   3.578   0.385   4.613
10007SOL     OW30919   6.588   3.137   3.647
10007SOL    HW130920   6.562   3.101   3.736
10007SOL    HW230921   6.508   3.175   3.602
10008SOL     OW30922   3.429   0.132   4.279
10008SOL    HW130923   3.363   0.161   4.349
10008SOL    HW230924   3.447   0.034   4.289
10009SOL     OW30925   0.746   4.485   1.608
10009SOL    HW130926   0.741   4.388   1.585
10009SOL    HW230927   0.792   4.496   1.696
10010SOL     OW30928   0.915   1.560   6.755
10010SOL    HW130929   0.900   1.646   6.804
10010SOL    HW230930   0.998   1.516   6.790
10011SOL     OW30931   6.894   6.723   4.964
10011SOL    HW130932   6.949   6.788   5.016
10011SOL    HW230933   6.806   6.763   4.942
10012SOL     OW30934   5.825   1.307   4.068
10012SOL    HW130935   5.760   1.383   4.060
10012SOL    HW230936   5.796   1.232   4.009
10013SOL     OW30937   0.976   0.703   3.074
10013SOL    HW130938   0.901   0.768   3.087
10013SOL    HW230939   0.945   0.627   3.018
10014SOL     OW30940   1.337   4.685   6.025
10014SOL    HW130941   1.353   4.733   6.111
10014SOL    HW230942   1.304   4.749   5.955
10015SOL     OW30943   2.160   4.401   0.196
10015SOL    HW130944   2.066   4.427   0.217
10015SOL    HW230945   2.161   4.344   0.114
10016SOL     OW30946   2.436   0.381   5.610
10016SOL    HW130947   2.379   0.308   5.648
10016SOL    HW230948   2.380   0.461   5.592
10017SOL     OW30949   1.529   1.844   4.204
10017SOL    HW130950   1.611   1.825   4.258
10017SOL    HW230951   1.455   1.784   4.234
10018SOL     OW30952   4.819   6.904   6.395
10018SOL    HW130953   4.760   6.941   6.323
10018SOL    HW230954   4.838   6.808   6.376
10019SOL     OW30955   1.302   1.257   2.632
10019SOL    HW130956   1.239   1.234   2.557
10019SOL    HW230957   1.271   1.342   2.676
10020SOL     OW30958   0.508   3.072   0.955
10020SOL    HW130959   0.603   3.046   0.936
10020SOL    HW230960   0.472   3.016   1.030
10021SOL     OW30961   6.688   3.843   0.407
10021SOL    HW130962   6.597   3.880   0.426
10021SOL    HW230963   6.693   3.815   0.311
10022SOL     OW30964   1.854   0.708   6.834
10022SOL    HW130965   1.838   0.788   6.892
10022SOL    HW230966   1.929   0.654   6.872
10023SOL     OW30967   0.020   3.246   1.038
10023SOL    HW130968   0.103   3.222   0.988
10023SOL    HW230969   0.020   3.344   1.057
10024SOL     OW30970   1.622   4.517   3.495
10024SOL    HW130971   1.697   4.545   3.555
10024SOL    HW230972   1.650   4.528   3.400
10025SOL     OW30973   1.245   1.687   0.559
10025SOL    HW130974   1.152   1.648   0.556
10025SOL    HW230975   1.250   1.755   0.632
10026SOL     OW30976   7.016   0.978   3.664
10026SOL    HW130977   0.071   0.960   3.604
10026SOL    HW230978   6.934   0.994   3.608
10027SOL     OW30979   4.602   2.497   5.620
10027SOL    HW130980   4.692   2.461   5.597
10027SOL    HW230981   4.571   2.559   5.548
10028SOL     OW30982   1.802   1.101   0.931
10028SOL    HW130983   1.733   1.135   0.868
10028SOL    HW230984   1.769   1.111   1.025
10029SOL     OW30985   5.643   2.507   3.585
10029SOL    HW130986   5.636   2.482   3.489
10029SOL    HW230987   5.712   2.449   3.630
10030SOL     OW30988   2.119   0.870   3.749
10030SOL    HW130989   2.159   0.842   3.836
10030SOL    HW230990   2.135   0.798   3.681
10031SOL     OW30991   6.696   4.239   4.865
10031SOL    HW130992   6.646   4.152   4.871
10031SOL    HW230993   6.725   4.255   4.771
10032SOL     OW30994   3.231   1.485   5.024
10032SOL    HW130995   3.190   1.560   5.076
10032SOL    HW230996   3.195   1.398   5.058
10033SOL     OW30997   5.507   2.410   4.777
10033SOL    HW130998   5.485   2.465   4.696
10033SOL    HW230999   5.432   2.347   4.796
10034SOL     OW31000   5.161   0.872   6.400
10034SOL    HW131001   5.183   0.828   6.313
10034SOL    HW231002   5.097   0.947   6.384
10035SOL     OW31003   0.056   6.390   2.611
10035SOL    HW131004   0.147   6.418   2.642
10035SOL    HW231005   7.019   6.380   2.691
10036SOL     OW31006   7.003   0.951   0.357
10036SOL    HW131007   6.906   0.948   0.381
10036SOL    HW231008   7.015   0.920   0.263
10037SOL     OW31009   0.342   6.867   1.218
10037SOL    HW131010   0.335   6.873   1.318
10037SOL    HW231011   0.398   6.789   1.193
10038SOL     OW31012   6.707   1.039   1.198
10038SOL    HW131013   6.632   1.051   1.133
10038SOL    HW231014   6.749   0.950   1.184
10039SOL     OW31015   3.163   0.401   3.091
10039SOL    HW131016   3.163   0.311   3.048
10039SOL    HW231017   3.256   0.427   3.114
10040SOL     OW31018   0.606   2.806   1.071
10040SOL    HW131019   0.517   2.767   1.045
10040SOL    HW231020   0.602   2.838   1.165
10041SOL     OW31021   2.069   5.978   0.445
10041SOL    HW131022   1.994   5.927   0.404
10041SOL    HW231023   2.157   5.937   0.419
10042SOL     OW31024   5.831   3.146   2.629
10042SOL    HW131025   5.865   3.174   2.540
10042SOL    HW231026   5.777   3.062   2.620
10043SOL     OW31027   0.561   2.418   4.465
10043SOL    HW131028   0.473   2.441   4.506
10043SOL    HW231029   0.630   2.483   4.497
10044SOL     OW31030   3.748   1.127   5.905
10044SOL    HW131031   3.835   1.148   5.861
10044SOL    HW231032   3.688   1.080   5.840
10045SOL     OW31033   2.666   1.431   0.748
10045SOL    HW131034   2.698   1.360   0.686
10045SOL    HW231035   2.624   1.505   0.696
10046SOL     OW31036   1.093   5.325   1.051
10046SOL    HW131037   1.105   5.362   0.959
10046SOL    HW231038   1.042   5.239   1.047
10047SOL     OW31039   0.808   3.893   1.057
10047SOL    HW131040   0.800   3.797   1.084
10047SOL    HW231041   0.760   3.950   1.123
10048SOL     OW31042   5.771   5.004   3.253
10048SOL    HW131043   5.756   4.952   3.337
10048SOL    HW231044   5.847   5.068   3.266
10049SOL     OW31045   6.484   0.721   5.367
10049SOL    HW131046   6.488   0.695   5.270
10049SOL    HW231047   6.449   0.815   5.374
10050SOL     OW31048   0.116   2.972   6.815
10050SOL    HW131049   0.195   2.927   6.774
10050SOL    HW231050   0.115   2.955   6.914
10051SOL     OW31051   2.750   2.053   4.130
10051SOL    HW131052   2.671   2.089   4.179
10051SOL    HW231053   2.819   2.125   4.121
10052SOL     OW31054   1.203   6.834   3.280
10052SOL    HW131055   1.248   6.842   3.191
10052SOL    HW231056   1.105   6.822   3.266
10053SOL     OW31057   6.002   5.203   3.161
10053SOL    HW131058   6.091   5.210   3.206
10053SOL    HW231059   5.953   5.289   3.172
10054SOL     OW31060   0.030   3.920   4.587
10054SOL    HW131061   0.111   3.973   4.615
10054SOL    HW231062   0.008   3.854   4.659
10055SOL     OW31063   1.467   2.996   6.543
10055SOL    HW131064   1.455   3.041   6.631
10055SOL    HW231065   1.474   3.065   6.471
10056SOL     OW31066   6.155   2.070   3.624
10056SOL    HW131067   6.208   1.994   3.589
10056SOL    HW231068   6.099   2.039   3.701
10057SOL     OW31069   5.360   5.029   5.571
10057SOL    HW131070   5.315   5.010   5.658
10057SOL    HW231071   5.440   4.969   5.561
10058SOL     OW31072   0.217   3.807   4.791
10058SOL    HW131073   0.229   3.751   4.709
10058SOL    HW231074   0.119   3.812   4.813
10059SOL     OW31075   5.323   0.002   6.846
10059SOL    HW131076   5.250   0.070   6.853
10059SOL    HW231077   5.366   0.008   6.757
10060SOL     OW31078   2.823   1.929   1.750
10060SOL    HW131079   2.830   1.845   1.804
10060SOL    HW231080   2.803   2.006   1.810
10061SOL     OW31081   3.399   0.311   1.568
10061SOL    HW131082   3.433   0.404   1.583
10061SOL    HW231083   3.397   0.292   1.470
10062SOL     OW31084   0.775   6.598   4.982
10062SOL    HW131085   0.737   6.666   5.045
10062SOL    HW231086   0.711   6.584   4.906
10063SOL     OW31087   2.528   2.401   5.113
10063SOL    HW131088   2.494   2.323   5.060
10063SOL    HW231089   2.538   2.374   5.208
10064SOL     OW31090   2.407   6.862   0.619
10064SOL    HW131091   2.348   6.841   0.697
10064SOL    HW231092   2.495   6.816   0.630
10065SOL     OW31093   0.386   1.836   1.608
10065SOL    HW131094   0.332   1.859   1.689
10065SOL    HW231095   0.451   1.909   1.589
10066SOL     OW31096   5.930   4.680   3.950
10066SOL    HW131097   5.855   4.745   3.941
10066SOL    HW231098   5.996   4.695   3.876
10067SOL     OW31099   6.955   2.682   4.993
10067SOL    HW131100   6.951   2.603   4.931
10067SOL    HW231101   6.952   2.766   4.939
10068SOL     OW31102   1.554   3.778   2.531
10068SOL    HW131103   1.637   3.727   2.551
10068SOL    HW231104   1.574   3.876   2.526
10069SOL     OW31105   3.107   4.589   0.528
10069SOL    HW131106   3.161   4.663   0.567
10069SOL    HW231107   3.107   4.511   0.590
10070SOL     OW31108   4.629   6.761   6.952
10070SOL    HW131109   4.628   6.781   6.854
10070SOL    HW231110   4.665   6.669   6.967
10071SOL     OW31111   5.794   0.287   5.151
10071SOL    HW131112   5.740   0.368   5.130
10071SOL    HW231113   5.820   0.241   5.066
10072SOL     OW31114   6.056   3.313   1.390
10072SOL    HW131115   5.998   3.392   1.411
10072SOL    HW231116   6.124   3.301   1.462
10073SOL     OW31117   5.791   5.022   4.630
10073SOL    HW131118   5.767   4.963   4.707
10073SOL    HW231119   5.888   5.047   4.636
10074SOL     OW31120   2.242   4.824   0.366
10074SOL    HW131121   2.303   4.764   0.313
10074SOL    HW231122   2.173   4.768   0.411
10075SOL     OW31123   0.843   3.040   1.869
10075SOL    HW131124   0.883   3.034   1.961
10075SOL    HW231125   0.810   3.133   1.854
10076SOL     OW31126   5.727   5.281   4.246
10076SOL    HW131127   5.707   5.260   4.342
10076SOL    HW231128   5.700   5.203   4.189
10077SOL     OW31129   4.559   3.657   6.689
10077SOL    HW131130   4.615   3.606   6.755
10077SOL    HW231131   4.585   3.753   6.690
10078SOL     OW31132   6.261   5.303   4.563
10078SOL    HW131133   6.354   5.277   4.586
10078SOL    HW231134   6.252   5.309   4.463
10079SOL     OW31135   4.790   4.182   4.093
10079SOL    HW131136   4.747   4.213   4.177
10079SOL    HW231137   4.831   4.259   4.044
10080SOL     OW31138   5.228   1.625   5.868
10080SOL    HW131139   5.193   1.664   5.783
10080SOL    HW231140   5.292   1.551   5.846
10081SOL     OW31141   0.919   4.630   0.854
10081SOL    HW131142   0.858   4.578   0.913
10081SOL    HW231143   0.978   4.567   0.803
10082SOL     OW31144   1.090   4.817   1.421
10082SOL    HW131145   1.059   4.727   1.453
10082SOL    HW231146   1.189   4.818   1.416
10083SOL     OW31147   3.157   6.175   2.627
10083SOL    HW131148   3.133   6.233   2.705
10083SOL    HW231149   3.251   6.194   2.599
10084SOL     OW31150   0.815   1.938   4.710
10084SOL    HW131151   0.881   1.895   4.772
10084SOL    HW231152   0.732   1.883   4.706
10085SOL     OW31153   5.643   6.974   0.962
10085SOL    HW131154   5.695   6.993   0.879
10085SOL    HW231155   5.683   0.002   1.039
10086SOL     OW31156   4.545   6.338   3.509
10086SOL    HW131157   4.472   6.407   3.504
10086SOL    HW231158   4.605   6.360   3.586
10087SOL     OW31159   1.768   5.739   5.449
10087SOL    HW131160   1.821   5.676   5.506
10087SOL    HW231161   1.830   5.794   5.394
10088SOL     OW31162   6.173   2.458   1.476
10088SOL    HW131163   6.109   2.534   1.488
10088SOL    HW231164   6.205   2.428   1.566
10089SOL     OW31165   3.626   0.709   1.270
10089SOL    HW131166   3.576   0.680   1.189
10089SOL    HW231167   3.685   0.635   1.302
10090SOL     OW31168   1.730   6.605   3.224
10090SOL    HW131169   1.733   6.692   3.273
10090SOL    HW231170   1.798   6.542   3.263
10091SOL     OW31171   5.481   4.818   4.614
10091SOL    HW131172   5.564   4.813   4.559
10091SOL    HW231173   5.437   4.907   4.601
10092SOL     OW31174   1.160   2.333   3.913
10092SOL    HW131175   1.106   2.262   3.959
10092SOL    HW231176   1.255   2.329   3.945
10093SOL     OW31177   4.172   4.098   6.302
10093SOL    HW131178   4.109   4.144   6.240
10093SOL    HW231179   4.237   4.043   6.249
10094SOL     OW31180   3.547   1.938   0.816
10094SOL    HW131181   3.548   1.866   0.747
10094SOL    HW231182   3.456   1.946   0.856
10095SOL     OW31183   4.234   3.350   5.265
10095SOL    HW131184   4.225   3.257   5.302
10095SOL    HW231185   4.180   3.413   5.320
10096SOL     OW31186   6.508   3.461   2.285
10096SOL    HW131187   6.603   3.490   2.275
10096SOL    HW231188   6.488   3.445   2.381
10097SOL     OW31189   0.337   1.458   0.747
10097SOL    HW131190   0.341   1.418   0.838
10097SOL    HW231191   0.362   1.389   0.679
10098SOL     OW31192   3.216   5.468   4.554
10098SOL    HW131193   3.123   5.461   4.589
10098SOL    HW231194   3.245   5.379   4.518
10099SOL     OW31195   0.232   4.981   3.106
10099SOL    HW131196   0.261   4.980   3.202
10099SOL    HW231197   0.133   4.981   3.101
10100SOL     OW31198   5.252   4.953   3.817
10100SOL    HW131199   5.338   4.971   3.769
10100SOL    HW231200   5.225   5.035   3.868
10101SOL     OW31201   6.453   3.466   7.015
10101SOL    HW131202   6.476   3.430   0.083
10101SOL    HW231203   6.387   3.541   0.002
10102SOL     OW31204   6.695   4.609   3.692
10102SOL    HW131205   6.665   4.697   3.654
10102SOL    HW231206   6.792   4.615   3.715
10103SOL     OW31207   0.492   6.340   0.045
10103SOL    HW131208   0.540   6.412   0.095
10103SOL    HW231209   0.421   6.301   0.104
10104SOL     OW31210   3.289   1.226   4.753
10104SOL    HW131211   3.326   1.318   4.742
10104SOL    HW231212   3.191   1.226   4.732
10105SOL     OW31213   2.865   0.959   4.083
10105SOL    HW131214   2.962   0.958   4.106
10105SOL    HW231215   2.836   0.866   4.057
10106SOL     OW31216   5.809   4.058   2.023
10106SOL    HW131217   5.747   3.983   2.046
10106SOL    HW231218   5.802   4.078   1.925
10107SOL     OW31219   5.291   5.375   6.585
10107SOL    HW131220   5.290   5.385   6.485
10107SOL    HW231221   5.382   5.399   6.619
10108SOL     OW31222   1.980   2.783   4.778
10108SOL    HW131223   1.980   2.784   4.878
10108SOL    HW231224   2.063   2.828   4.744
10109SOL     OW31225   1.006   2.229   0.715
10109SOL    HW131226   0.964   2.303   0.767
10109SOL    HW231227   1.095   2.259   0.681
10110SOL     OW31228   5.789   6.152   2.544
10110SOL    HW131229   5.799   6.077   2.610
10110SOL    HW231230   5.842   6.231   2.575
10111SOL     OW31231   6.823   2.553   1.876
10111SOL    HW131232   6.890   2.504   1.931
10111SOL    HW231233   6.734   2.509   1.884
10112SOL     OW31234   6.036   2.402   3.936
10112SOL    HW131235   5.943   2.391   3.971
10112SOL    HW231236   6.096   2.333   3.977
10113SOL     OW31237   6.253   6.987   6.426
10113SOL    HW131238   6.279   0.057   6.399
10113SOL    HW231239   6.309   6.958   6.503
10114SOL     OW31240   5.730   3.093   2.157
10114SOL    HW131241   5.674   3.130   2.231
10114SOL    HW231242   5.827   3.105   2.178
10115SOL     OW31243   3.106   2.877   6.088
10115SOL    HW131244   3.043   2.924   6.026
10115SOL    HW231245   3.121   2.934   6.169
10116SOL     OW31246   0.541   0.346   6.147
10116SOL    HW131247   0.565   0.250   6.135
10116SOL    HW231248   0.556   0.374   6.242
10117SOL     OW31249   6.854   4.048   2.738
10117SOL    HW131250   6.774   4.100   2.767
10117SOL    HW231251   6.912   4.104   2.679
10118SOL     OW31252   3.600   4.995   3.631
10118SOL    HW131253   3.544   5.032   3.704
10118SOL    HW231254   3.593   5.052   3.549
10119SOL     OW31255   5.880   6.439   6.910
10119SOL    HW131256   5.892   6.417   6.813
10119SOL    HW231257   5.860   6.356   6.961
10120SOL     OW31258   2.631   2.262   3.347
10120SOL    HW131259   2.720   2.255   3.391
10120SOL    HW231260   2.566   2.201   3.392
10121SOL     OW31261   6.602   5.183   1.427
10121SOL    HW131262   6.557   5.110   1.376
10121SOL    HW231263   6.558   5.194   1.516
10122SOL     OW31264   2.159   0.212   3.544
10122SOL    HW131265   2.197   0.166   3.624
10122SOL    HW231266   2.198   0.304   3.536
10123SOL     OW31267   6.590   5.823   6.528
10123SOL    HW131268   6.567   5.899   6.468
10123SOL    HW231269   6.674   5.844   6.578
10124SOL     OW31270   2.597   5.287   2.642
10124SOL    HW131271   2.662   5.255   2.712
10124SOL    HW231272   2.645   5.296   2.555
10125SOL     OW31273   1.078   0.620   4.737
10125SOL    HW131274   1.054   0.644   4.643
10125SOL    HW231275   0.994   0.595   4.787
10126SOL     OW31276   6.614   6.150   5.314
10126SOL    HW131277   6.697   6.205   5.311
10126SOL    HW231278   6.540   6.199   5.267
10127SOL     OW31279   1.871   6.532   5.706
10127SOL    HW131280   1.876   6.627   5.673
10127SOL    HW231281   1.933   6.521   5.784
10128SOL     OW31282   2.187   2.514   7.022
10128SOL    HW131283   2.283   2.537   0.011
10128SOL    HW231284   2.148   2.567   6.947
10129SOL     OW31285   6.331   2.094   4.839
10129SOL    HW131286   6.386   2.177   4.837
10129SOL    HW231287   6.375   2.024   4.783
10130SOL     OW31288   0.732   2.005   3.871
10130SOL    HW131289   0.779   1.989   3.784
10130SOL    HW231290   0.772   1.946   3.942
10131SOL     OW31291   2.039   6.561   5.051
10131SOL    HW131292   1.976   6.538   5.125
10131SOL    HW231293   2.099   6.636   5.081
10132SOL     OW31294   5.696   0.379   2.661
10132SOL    HW131295   5.616   0.376   2.602
10132SOL    HW231296   5.779   0.377   2.605
10133SOL     OW31297   5.198   6.542   0.972
10133SOL    HW131298   5.250   6.532   1.057
10133SOL    HW231299   5.150   6.457   0.951
10134SOL     OW31300   0.388   6.781   3.510
10134SOL    HW131301   0.314   6.807   3.571
10134SOL    HW231302   0.353   6.769   3.417
10135SOL     OW31303   6.328   6.811   3.253
10135SOL    HW131304   6.332   6.729   3.196
10135SOL    HW231305   6.272   6.881   3.208
10136SOL     OW31306   4.913   1.573   3.460
10136SOL    HW131307   4.853   1.494   3.476
10136SOL    HW231308   4.908   1.634   3.539
10137SOL     OW31309   0.075   5.990   4.713
10137SOL    HW131310   0.059   5.897   4.747
10137SOL    HW231311   7.018   6.047   4.734
10138SOL     OW31312   0.000   2.500   2.080
10138SOL    HW131313   0.058   2.554   2.018
10138SOL    HW231314   0.008   2.403   2.057
10139SOL     OW31315   3.500   2.871   6.330
10139SOL    HW131316   3.437   2.811   6.379
10139SOL    HW231317   3.496   2.963   6.368
10140SOL     OW31318   0.572   5.876   5.439
10140SOL    HW131319   0.661   5.920   5.446
10140SOL    HW231320   0.511   5.909   5.511
10141SOL     OW31321   1.692   2.315   4.205
10141SOL    HW131322   1.719   2.283   4.295
10141SOL    HW231323   1.685   2.415   4.206
10142SOL     OW31324   4.942   5.655   2.900
10142SOL    HW131325   4.980   5.580   2.954
10142SOL    HW231326   4.862   5.623   2.849
10143SOL     OW31327   5.597   2.997   5.863
10143SOL    HW131328   5.586   2.959   5.771
10143SOL    HW231329   5.510   3.032   5.896
10144SOL     OW31330   3.210   6.902   0.741
10144SOL    HW131331   3.173   6.989   0.772
10144SOL    HW231332   3.267   6.862   0.813
10145SOL     OW31333   6.493   6.672   6.078
10145SOL    HW131334   6.405   6.644   6.039
10145SOL    HW231335   6.477   6.715   6.167
10146SOL     OW31336   1.423   2.702   5.287
10146SOL    HW131337   1.485   2.673   5.214
10146SOL    HW231338   1.476   2.722   5.369
10147SOL     OW31339   3.732   5.662   6.656
10147SOL    HW131340   3.689   5.643   6.744
10147SOL    HW231341   3.715   5.757   6.630
10148SOL     OW31342   0.774   4.615   6.640
10148SOL    HW131343   0.682   4.648   6.664
10148SOL    HW231344   0.842   4.661   6.696
10149SOL     OW31345   3.502   3.942   1.685
10149SOL    HW131346   3.413   3.956   1.728
10149SOL    HW231347   3.544   3.859   1.723
10150SOL     OW31348   4.728   4.183   1.217
10150SOL    HW131349   4.689   4.092   1.228
10150SOL    HW231350   4.685   4.246   1.282
10151SOL     OW31351   6.836   0.790   6.246
10151SOL    HW131352   6.877   0.872   6.206
10151SOL    HW231353   6.830   0.801   6.345
10152SOL     OW31354   3.999   6.675   2.718
10152SOL    HW131355   4.017   6.671   2.620
10152SOL    HW231356   4.005   6.770   2.749
10153SOL     OW31357   4.772   4.148   1.813
10153SOL    HW131358   4.785   4.191   1.723
10153SOL    HW231359   4.677   4.163   1.842
10154SOL     OW31360   3.755   5.471   5.198
10154SOL    HW131361   3.797   5.547   5.248
10154SOL    HW231362   3.751   5.390   5.257
10155SOL     OW31363   4.470   1.624   3.800
10155SOL    HW131364   4.435   1.710   3.763
10155SOL    HW231365   4.548   1.642   3.860
10156SOL     OW31366   3.992   1.438   5.973
10156SOL    HW131367   4.001   1.435   5.874
10156SOL    HW231368   3.992   1.533   6.004
10157SOL     OW31369   0.478   4.719   1.384
10157SOL    HW131370   0.563   4.669   1.363
10157SOL    HW231371   0.497   4.790   1.452
10158SOL     OW31372   5.374   4.978   6.583
10158SOL    HW131373   5.336   4.992   6.674
10158SOL    HW231374   5.450   4.913   6.589
10159SOL     OW31375   3.514   3.282   1.946
10159SOL    HW131376   3.445   3.248   2.010
10159SOL    HW231377   3.595   3.223   1.950
10160SOL     OW31378   0.300   3.940   2.387
10160SOL    HW131379   0.353   4.001   2.445
10160SOL    HW231380   0.218   3.910   2.435
10161SOL     OW31381   5.537   3.376   6.134
10161SOL    HW131382   5.610   3.327   6.087
10161SOL    HW231383   5.562   3.389   6.230
10162SOL     OW31384   1.790   2.773   2.551
10162SOL    HW131385   1.703   2.772   2.502
10162SOL    HW231386   1.850   2.702   2.514
10163SOL     OW31387   3.301   4.983   4.940
10163SOL    HW131388   3.241   5.053   4.901
10163SOL    HW231389   3.245   4.908   4.977
10164SOL     OW31390   0.100   1.249   3.888
10164SOL    HW131391   0.057   1.166   3.923
10164SOL    HW231392   0.171   1.224   3.822
10165SOL     OW31393   1.413   3.156   3.876
10165SOL    HW131394   1.438   3.072   3.924
10165SOL    HW231395   1.496   3.208   3.855
10166SOL     OW31396   2.744   6.682   2.774
10166SOL    HW131397   2.699   6.682   2.685
10166SOL    HW231398   2.689   6.630   2.839
10167SOL     OW31399   2.920   2.652   6.379
10167SOL    HW131400   2.992   2.599   6.422
10167SOL    HW231401   2.868   2.594   6.316
10168SOL     OW31402   0.278   0.223   0.140
10168SOL    HW131403   0.207   0.158   0.114
10168SOL    HW231404   0.357   0.173   0.176
10169SOL     OW31405   4.614   4.746   3.651
10169SOL    HW131406   4.552   4.699   3.587
10169SOL    HW231407   4.678   4.803   3.600
10170SOL     OW31408   5.241   6.204   0.548
10170SOL    HW131409   5.304   6.186   0.624
10170SOL    HW231410   5.281   6.271   0.487
10171SOL     OW31411   2.242   4.042   4.698
10171SOL    HW131412   2.301   4.003   4.770
10171SOL    HW231413   2.176   4.105   4.739
10172SOL     OW31414   0.289   0.798   2.677
10172SOL    HW131415   0.333   0.821   2.591
10172SOL    HW231416   0.351   0.743   2.733
10173SOL     OW31417   3.855   3.540   4.969
10173SOL    HW131418   3.818   3.485   5.044
10173SOL    HW231419   3.801   3.523   4.886
10174SOL     OW31420   4.531   5.078   0.759
10174SOL    HW131421   4.474   5.032   0.827
10174SOL    HW231422   4.595   5.139   0.806
10175SOL     OW31423   6.344   0.098   4.675
10175SOL    HW131424   6.296   0.028   4.622
10175SOL    HW231425   6.441   0.075   4.679
10176SOL     OW31426   0.548   0.531   4.610
10176SOL    HW131427   0.536   0.604   4.677
10176SOL    HW231428   0.537   0.442   4.654
10177SOL     OW31429   2.570   0.645   3.928
10177SOL    HW131430   2.663   0.650   3.964
10177SOL    HW231431   2.507   0.622   4.002
10178SOL     OW31432   0.426   1.586   1.531
10178SOL    HW131433   0.404   1.676   1.569
10178SOL    HW231434   0.509   1.591   1.476
10179SOL     OW31435   0.188   5.983   0.704
10179SOL    HW131436   0.261   5.987   0.773
10179SOL    HW231437   0.187   5.893   0.661
10180SOL     OW31438   3.544   6.776   6.623
10180SOL    HW131439   3.584   6.866   6.642
10180SOL    HW231440   3.577   6.710   6.689
10181SOL     OW31441   0.094   3.682   3.360
10181SOL    HW131442   0.091   3.671   3.459
10181SOL    HW231443   0.136   3.601   3.318
10182SOL     OW31444   3.982   0.714   0.636
10182SOL    HW131445   3.923   0.643   0.598
10182SOL    HW231446   3.945   0.746   0.723
10183SOL     OW31447   4.473   6.316   5.770
10183SOL    HW131448   4.465   6.320   5.869
10183SOL    HW231449   4.443   6.403   5.730
10184SOL     OW31450   5.489   2.094   5.418
10184SOL    HW131451   5.444   2.050   5.496
10184SOL    HW231452   5.581   2.123   5.445
10185SOL     OW31453   3.282   5.055   2.072
10185SOL    HW131454   3.188   5.086   2.054
10185SOL    HW231455   3.337   5.132   2.102
10186SOL     OW31456   3.482   2.908   6.714
10186SOL    HW131457   3.462   2.865   6.802
10186SOL    HW231458   3.443   2.853   6.640
10187SOL     OW31459   2.322   4.516   5.800
10187SOL    HW131460   2.359   4.570   5.724
10187SOL    HW231461   2.396   4.489   5.861
10188SOL     OW31462   2.641   6.779   6.666
10188SOL    HW131463   2.685   6.809   6.582
10188SOL    HW231464   2.680   6.693   6.697
10189SOL     OW31465   2.174   1.459   4.589
10189SOL    HW131466   2.110   1.521   4.544
10189SOL    HW231467   2.129   1.372   4.607
10190SOL     OW31468   4.481   4.457   1.154
10190SOL    HW131469   4.478   4.525   1.228
10190SOL    HW231470   4.422   4.486   1.079
10191SOL     OW31471   5.456   0.401   6.976
10191SOL    HW131472   5.477   0.330   6.908
10191SOL    HW231473   5.362   0.433   6.962
10192SOL     OW31474   1.698   0.693   4.157
10192SOL    HW131475   1.628   0.765   4.155
10192SOL    HW231476   1.662   0.613   4.206
10193SOL     OW31477   3.629   3.962   3.693
10193SOL    HW131478   3.657   4.023   3.619
10193SOL    HW231479   3.552   4.003   3.742
10194SOL     OW31480   3.189   0.122   2.968
10194SOL    HW131481   3.147   0.116   2.877
10194SOL    HW231482   3.206   0.030   3.003
10195SOL     OW31483   5.744   0.432   2.929
10195SOL    HW131484   5.726   0.439   2.831
10195SOL    HW231485   5.802   0.352   2.946
10196SOL     OW31486   5.308   3.902   4.380
10196SOL    HW131487   5.231   3.842   4.359
10196SOL    HW231488   5.321   3.908   4.479
10197SOL     OW31489   5.489   1.574   3.095
10197SOL    HW131490   5.544   1.533   3.022
10197SOL    HW231491   5.400   1.528   3.100
10198SOL     OW31492   3.309   1.013   1.802
10198SOL    HW131493   3.405   1.032   1.821
10198SOL    HW231494   3.302   0.952   1.723
10199SOL     OW31495   1.479   2.110   0.043
10199SOL    HW131496   1.553   2.175   0.060
10199SOL    HW231497   1.504   2.021   0.081
10200SOL     OW31498   5.844   5.994   5.030
10200SOL    HW131499   5.812   5.903   5.004
10200SOL    HW231500   5.765   6.054   5.043
10201SOL     OW31501   1.988   4.721   2.510
10201SOL    HW131502   2.015   4.625   2.521
10201SOL    HW231503   1.896   4.725   2.472
10202SOL     OW31504   0.392   2.319   3.123
10202SOL    HW131505   0.421   2.353   3.034
10202SOL    HW231506   0.294   2.333   3.135
10203SOL     OW31507   0.619   2.919   1.547
10203SOL    HW131508   0.712   2.943   1.572
10203SOL    HW231509   0.562   2.918   1.629
10204SOL     OW31510   2.803   4.944   4.118
10204SOL    HW131511   2.740   4.867   4.130
10204SOL    HW231512   2.895   4.909   4.101
10205SOL     OW31513   4.168   0.693   1.154
10205SOL    HW131514   4.221   0.655   1.230
10205SOL    HW231515   4.152   0.621   1.086
10206SOL     OW31516   4.674   0.293   6.312
10206SOL    HW131517   4.737   0.285   6.234
10206SOL    HW231518   4.726   0.309   6.395
10207SOL     OW31519   4.096   1.412   3.199
10207SOL    HW131520   4.088   1.495   3.145
10207SOL    HW231521   4.189   1.375   3.189
10208SOL     OW31522   6.572   3.781   5.504
10208SOL    HW131523   6.577   3.760   5.406
10208SOL    HW231524   6.600   3.876   5.519
10209SOL     OW31525   4.434   6.467   6.888
10209SOL    HW131526   4.443   6.506   6.796
10209SOL    HW231527   4.523   6.462   6.932
10210SOL     OW31528   5.405   5.767   0.530
10210SOL    HW131529   5.494   5.748   0.572
10210SOL    HW231530   5.338   5.783   0.602
10211SOL     OW31531   3.237   5.742   5.142
10211SOL    HW131532   3.329   5.767   5.173
10211SOL    HW231533   3.191   5.691   5.215
10212SOL     OW31534   5.962   5.815   6.005
10212SOL    HW131535   6.020   5.838   6.083
10212SOL    HW231536   5.916   5.728   6.023
10213SOL     OW31537   4.528   0.763   4.658
10213SOL    HW131538   4.437   0.797   4.681
10213SOL    HW231539   4.597   0.825   4.696
10214SOL     OW31540   0.637   1.006   0.853
10214SOL    HW131541   0.544   1.015   0.818
10214SOL    HW231542   0.697   0.974   0.779
10215SOL     OW31543   3.747   2.490   0.013
10215SOL    HW131544   3.665   2.509   0.068
10215SOL    HW231545   3.748   2.393   7.011
10216SOL     OW31546   4.670   0.202   2.471
10216SOL    HW131547   4.578   0.237   2.454
10216SOL    HW231548   4.720   0.267   2.529
10217SOL     OW31549   3.371   2.369   5.748
10217SOL    HW131550   3.443   2.401   5.809
10217SOL    HW231551   3.355   2.436   5.676
10218SOL     OW31552   2.905   2.329   6.937
10218SOL    HW131553   2.899   2.402   6.869
10218SOL    HW231554   2.887   2.366   0.006
10219SOL     OW31555   0.714   4.327   6.767
10219SOL    HW131556   0.747   4.409   6.721
10219SOL    HW231557   0.726   4.338   6.866
10220SOL     OW31558   4.053   2.899   0.472
10220SOL    HW131559   3.963   2.892   0.516
10220SOL    HW231560   4.090   2.990   0.486
10221SOL     OW31561   3.087   0.974   4.437
10221SOL    HW131562   3.152   1.050   4.430
10221SOL    HW231563   2.995   1.010   4.446
10222SOL     OW31564   1.597   4.829   5.789
10222SOL    HW131565   1.640   4.849   5.701
10222SOL    HW231566   1.657   4.859   5.863
10223SOL     OW31567   7.001   4.253   0.571
10223SOL    HW131568   7.022   4.249   0.474
10223SOL    HW231569   6.905   4.232   0.586
10224SOL     OW31570   2.533   0.438   4.798
10224SOL    HW131571   2.483   0.482   4.873
10224SOL    HW231572   2.527   0.495   4.716
10225SOL     OW31573   4.961   5.963   4.371
10225SOL    HW131574   5.061   5.960   4.368
10225SOL    HW231575   4.923   5.900   4.303
10226SOL     OW31576   0.164   2.951   0.046
10226SOL    HW131577   0.189   2.863   0.086
10226SOL    HW231578   0.068   2.970   0.068
10227SOL     OW31579   5.900   5.338   5.591
10227SOL    HW131580   5.806   5.333   5.624
10227SOL    HW231581   5.959   5.377   5.662
10228SOL     OW31582   1.365   3.629   2.627
10228SOL    HW131583   1.360   3.600   2.722
10228SOL    HW231584   1.455   3.667   2.608
10229SOL     OW31585   1.663   1.355   1.377
10229SOL    HW131586   1.691   1.447   1.353
10229SOL    HW231587   1.563   1.348   1.370
10230SOL     OW31588   6.108   6.805   3.841
10230SOL    HW131589   6.066   6.859   3.915
10230SOL    HW231590   6.039   6.745   3.801
10231SOL     OW31591   4.645   6.796   4.618
10231SOL    HW131592   4.686   6.877   4.577
10231SOL    HW231593   4.699   6.715   4.594
10232SOL     OW31594   4.401   1.867   3.694
10232SOL    HW131595   4.494   1.887   3.665
10232SOL    HW231596   4.337   1.892   3.621
10233SOL     OW31597   4.902   0.816   5.674
10233SOL    HW131598   4.924   0.911   5.652
10233SOL    HW231599   4.970   0.756   5.633
10234SOL     OW31600   4.706   5.482   1.441
10234SOL    HW131601   4.659   5.549   1.500
10234SOL    HW231602   4.644   5.406   1.421
10235SOL     OW31603   4.587   1.459   6.996
10235SOL    HW131604   4.538   1.547   6.995
10235SOL    HW231605   4.667   1.466   6.936
10236SOL     OW31606   2.237   6.241   1.663
10236SOL    HW131607   2.146   6.200   1.672
10236SOL    HW231608   2.238   6.301   1.583
10237SOL     OW31609   5.724   2.490   3.264
10237SOL    HW131610   5.811   2.482   3.216
10237SOL    HW231611   5.715   2.582   3.302
10238SOL     OW31612   4.443   5.829   4.828
10238SOL    HW131613   4.479   5.747   4.872
10238SOL    HW231614   4.519   5.889   4.801
10239SOL     OW31615   6.543   3.367   4.247
10239SOL    HW131616   6.533   3.427   4.167
10239SOL    HW231617   6.473   3.296   4.243
10240SOL     OW31618   5.820   3.541   3.938
10240SOL    HW131619   5.788   3.462   3.990
10240SOL    HW231620   5.768   3.548   3.853
10241SOL     OW31621   2.100   1.333   3.128
10241SOL    HW131622   2.033   1.351   3.056
10241SOL    HW231623   2.106   1.235   3.146
10242SOL     OW31624   0.741   5.816   6.443
10242SOL    HW131625   0.705   5.897   6.490
10242SOL    HW231626   0.669   5.777   6.385
10243SOL     OW31627   0.954   6.356   2.950
10243SOL    HW131628   0.868   6.311   2.973
10243SOL    HW231629   0.944   6.455   2.960
10244SOL     OW31630   1.494   5.857   6.947
10244SOL    HW131631   1.533   5.765   6.947
10244SOL    HW231632   1.396   5.852   6.931
10245SOL     OW31633   2.094   2.701   6.822
10245SOL    HW131634   2.108   2.799   6.809
10245SOL    HW231635   2.045   2.663   6.743
10246SOL     OW31636   3.365   3.268   3.906
10246SOL    HW131637   3.292   3.336   3.917
10246SOL    HW231638   3.397   3.239   3.996
10247SOL     OW31639   0.806   6.030   5.499
10247SOL    HW131640   0.885   6.091   5.505
10247SOL    HW231641   0.830   5.940   5.536
10248SOL     OW31642   5.136   0.921   2.843
10248SOL    HW131643   5.063   0.861   2.811
10248SOL    HW231644   5.107   1.016   2.835
10249SOL     OW31645   4.817   1.230   6.823
10249SOL    HW131646   4.850   1.188   6.908
10249SOL    HW231647   4.802   1.328   6.838
10250SOL     OW31648   5.237   0.327   0.337
10250SOL    HW131649   5.270   0.390   0.267
10250SOL    HW231650   5.286   0.344   0.423
10251SOL     OW31651   3.969   4.406   0.038
10251SOL    HW131652   3.920   4.493   0.041
10251SOL    HW231653   4.019   4.398   6.975
10252SOL     OW31654   6.598   4.727   1.563
10252SOL    HW131655   6.559   4.635   1.562
10252SOL    HW231656   6.571   4.774   1.647
10253SOL     OW31657   3.997   5.071   0.459
10253SOL    HW131658   4.094   5.092   0.459
10253SOL    HW231659   3.959   5.087   0.550
10254SOL     OW31660   2.503   1.270   4.539
10254SOL    HW131661   2.443   1.243   4.614
10254SOL    HW231662   2.568   1.339   4.571
10255SOL     OW31663   3.157   5.354   3.011
10255SOL    HW131664   3.134   5.384   3.104
10255SOL    HW231665   3.255   5.368   2.995
10256SOL     OW31666   5.880   6.205   0.223
10256SOL    HW131667   5.861   6.208   0.125
10256SOL    HW231668   5.859   6.294   0.263
10257SOL     OW31669   2.108   6.159   5.890
10257SOL    HW131670   2.057   6.194   5.968
10257SOL    HW231671   2.046   6.111   5.828
10258SOL     OW31672   4.552   0.910   3.741
10258SOL    HW131673   4.620   0.842   3.769
10258SOL    HW231674   4.460   0.878   3.766
10259SOL     OW31675   1.068   3.569   3.919
10259SOL    HW131676   1.077   3.574   3.819
10259SOL    HW231677   1.097   3.479   3.951
10260SOL     OW31678   6.657   6.241   1.782
10260SOL    HW131679   6.583   6.261   1.847
10260SOL    HW231680   6.629   6.269   1.690
10261SOL     OW31681   1.848   0.029   2.070
10261SOL    HW131682   1.859   0.124   2.099
10261SOL    HW231683   1.931   7.022   2.022
10262SOL     OW31684   1.185   5.726   4.613
10262SOL    HW131685   1.126   5.731   4.533
10262SOL    HW231686   1.250   5.802   4.612
10263SOL     OW31687   6.618   2.702   5.574
10263SOL    HW131688   6.627   2.675   5.670
10263SOL    HW231689   6.700   2.752   5.546
10264SOL     OW31690   0.330   6.949   0.476
10264SOL    HW131691   0.389   6.953   0.395
10264SOL    HW231692   0.314   6.854   0.501
10265SOL     OW31693   4.125   2.143   2.341
10265SOL    HW131694   4.028   2.149   2.321
10265SOL    HW231695   4.177   2.182   2.265
10266SOL     OW31696   4.301   3.392   6.492
10266SOL    HW131697   4.332   3.427   6.404
10266SOL    HW231698   4.276   3.469   6.552
10267SOL     OW31699   0.228   1.534   6.289
10267SOL    HW131700   0.174   1.585   6.356
10267SOL    HW231701   0.320   1.572   6.285
10268SOL     OW31702   6.097   4.480   1.557
10268SOL    HW131703   6.087   4.553   1.489
10268SOL    HW231704   6.061   4.512   1.645
10269SOL     OW31705   2.917   1.915   6.079
10269SOL    HW131706   2.991   1.854   6.051
10269SOL    HW231707   2.942   1.958   6.166
10270SOL     OW31708   2.879   6.910   0.705
10270SOL    HW131709   2.925   6.997   0.725
10270SOL    HW231710   2.938   6.854   0.646
10271SOL     OW31711   3.165   4.963   1.114
10271SOL    HW131712   3.088   4.964   1.178
10271SOL    HW231713   3.189   4.868   1.093
10272SOL     OW31714   1.248   1.736   4.709
10272SOL    HW131715   1.324   1.695   4.659
10272SOL    HW231716   1.257   1.836   4.708
10273SOL     OW31717   3.917   6.639   4.125
10273SOL    HW131718   3.991   6.692   4.084
10273SOL    HW231719   3.955   6.556   4.167
10274SOL     OW31720   2.601   5.109   6.853
10274SOL    HW131721   2.579   5.170   6.929
10274SOL    HW231722   2.622   5.163   6.772
10275SOL     OW31723   1.306   6.355   2.311
10275SOL    HW131724   1.400   6.362   2.346
10275SOL    HW231725   1.285   6.260   2.291
10276SOL     OW31726   0.066   6.264   6.976
10276SOL    HW131727   0.069   6.179   6.923
10276SOL    HW231728   7.003   6.268   0.006
10277SOL     OW31729   1.338   6.071   2.289
10277SOL    HW131730   1.292   5.983   2.282
10277SOL    HW231731   1.429   6.059   2.329
10278SOL     OW31732   6.743   0.169   6.138
10278SOL    HW131733   6.770   0.099   6.072
10278SOL    HW231734   6.805   0.247   6.131
10279SOL     OW31735   3.633   6.106   4.415
10279SOL    HW131736   3.551   6.119   4.359
10279SOL    HW231737   3.664   6.194   4.449
10280SOL     OW31738   3.254   2.587   6.731
10280SOL    HW131739   3.321   2.550   6.796
10280SOL    HW231740   3.162   2.570   6.765
10281SOL     OW31741   4.200   0.271   4.083
10281SOL    HW131742   4.131   0.324   4.132
10281SOL    HW231743   4.185   0.173   4.099
10282SOL     OW31744   1.071   2.993   4.609
10282SOL    HW131745   1.129   2.962   4.534
10282SOL    HW231746   1.125   2.998   4.693
10283SOL     OW31747   1.950   3.579   5.804
10283SOL    HW131748   2.026   3.624   5.756
10283SOL    HW231749   1.867   3.587   5.750
10284SOL     OW31750   5.137   2.621   7.019
10284SOL    HW131751   5.147   2.582   6.927
10284SOL    HW231752   5.073   2.564   0.049
10285SOL     OW31753   5.711   0.882   0.369
10285SOL    HW131754   5.742   0.911   0.459
10285SOL    HW231755   5.744   0.947   0.300
10286SOL     OW31756   4.288   0.746   4.267
10286SOL    HW131757   4.294   0.827   4.325
10286SOL    HW231758   4.194   0.712   4.266
10287SOL     OW31759   1.217   4.779   1.752
10287SOL    HW131760   1.160   4.833   1.689
10287SOL    HW231761   1.158   4.720   1.807
10288SOL     OW31762   5.144   6.435   4.458
10288SOL    HW131763   5.091   6.460   4.377
10288SOL    HW231764   5.171   6.339   4.451
10289SOL     OW31765   2.473   1.548   1.447
10289SOL    HW131766   2.425   1.614   1.506
10289SOL    HW231767   2.509   1.473   1.503
10290SOL     OW31768   2.811   3.178   1.851
10290SOL    HW131769   2.725   3.161   1.803
10290SOL    HW231770   2.872   3.099   1.841
10291SOL     OW31771   4.656   0.491   5.838
10291SOL    HW131772   4.556   0.488   5.845
10291SOL    HW231773   4.695   0.499   5.929
10292SOL     OW31774   0.413   0.787   5.079
10292SOL    HW131775   0.376   0.724   5.148
10292SOL    HW231776   0.475   0.852   5.122
10293SOL     OW31777   2.952   5.489   3.562
10293SOL    HW131778   2.938   5.574   3.511
10293SOL    HW231779   2.916   5.412   3.508
10294SOL     OW31780   6.553   1.074   3.033
10294SOL    HW131781   6.504   1.054   2.948
10294SOL    HW231782   6.488   1.112   3.100
10295SOL     OW31783   1.859   4.255   4.435
10295SOL    HW131784   1.848   4.223   4.529
10295SOL    HW231785   1.922   4.333   4.433
10296SOL     OW31786   6.613   2.813   1.657
10296SOL    HW131787   6.528   2.799   1.709
10296SOL    HW231788   6.690   2.816   1.720
10297SOL     OW31789   2.625   5.185   4.456
10297SOL    HW131790   2.721   5.190   4.428
10297SOL    HW231791   2.610   5.243   4.536
10298SOL     OW31792   5.938   3.375   3.040
10298SOL    HW131793   5.873   3.420   2.978
10298SOL    HW231794   5.933   3.418   3.130
10299SOL     OW31795   5.033   3.993   2.117
10299SOL    HW131796   4.979   3.940   2.182
10299SOL    HW231797   5.105   4.042   2.166
10300SOL     OW31798   1.784   6.099   1.824
10300SOL    HW131799   1.766   6.197   1.832
10300SOL    HW231800   1.702   6.047   1.852
10301SOL     OW31801   4.943   1.502   1.542
10301SOL    HW131802   4.977   1.459   1.458
10301SOL    HW231803   4.860   1.554   1.520
10302SOL     OW31804   1.091   5.120   3.703
10302SOL    HW131805   1.141   5.038   3.676
10302SOL    HW231806   1.095   5.130   3.802
10303SOL     OW31807   3.894   3.195   1.385
10303SOL    HW131808   3.834   3.148   1.320
10303SOL    HW231809   3.961   3.250   1.336
10304SOL     OW31810   5.943   6.364   4.103
10304SOL    HW131811   6.010   6.375   4.177
10304SOL    HW231812   5.989   6.326   4.023
10305SOL     OW31813   1.802   5.374   1.178
10305SOL    HW131814   1.720   5.342   1.132
10305SOL    HW231815   1.806   5.336   1.271
10306SOL     OW31816   3.928   4.764   0.381
10306SOL    HW131817   3.937   4.789   0.478
10306SOL    HW231818   4.018   4.764   0.338
10307SOL     OW31819   2.750   1.177   5.559
10307SOL    HW131820   2.836   1.202   5.515
10307SOL    HW231821   2.677   1.236   5.525
10308SOL     OW31822   2.607   5.147   3.755
10308SOL    HW131823   2.698   5.163   3.790
10308SOL    HW231824   2.562   5.076   3.810
10309SOL     OW31825   0.322   6.443   3.531
10309SOL    HW131826   0.305   6.541   3.539
10309SOL    HW231827   0.420   6.426   3.544
10310SOL     OW31828   3.029   3.127   3.815
10310SOL    HW131829   3.004   3.174   3.730
10310SOL    HW231830   3.109   3.070   3.800
10311SOL     OW31831   0.200   0.069   1.072
10311SOL    HW131832   0.243   0.154   1.103
10311SOL    HW231833   0.259   7.014   1.096
10312SOL     OW31834   2.131   4.626   0.790
10312SOL    HW131835   2.088   4.608   0.878
10312SOL    HW231836   2.229   4.641   0.803
10313SOL     OW31837   6.544   6.042   4.078
10313SOL    HW131838   6.590   6.054   4.166
10313SOL    HW231839   6.570   5.954   4.039
10314SOL     OW31840   5.987   5.258   5.036
10314SOL    HW131841   5.910   5.307   4.994
10314SOL    HW231842   6.067   5.265   4.978
10315SOL     OW31843   4.888   6.301   6.083
10315SOL    HW131844   4.826   6.234   6.042
10315SOL    HW231845   4.928   6.358   6.012
10316SOL     OW31846   0.435   3.284   2.636
10316SOL    HW131847   0.417   3.372   2.593
10316SOL    HW231848   0.356   3.257   2.691
10317SOL     OW31849   4.589   4.884   0.511
10317SOL    HW131850   4.615   4.796   0.549
10317SOL    HW231851   4.586   4.953   0.584
10318SOL     OW31852   6.127   5.872   2.585
10318SOL    HW131853   6.165   5.783   2.610
10318SOL    HW231854   6.166   5.902   2.498
10319SOL     OW31855   5.311   6.352   4.929
10319SOL    HW131856   5.376   6.428   4.923
10319SOL    HW231857   5.239   6.364   4.860
10320SOL     OW31858   4.229   5.805   1.486
10320SOL    HW131859   4.182   5.814   1.398
10320SOL    HW231860   4.325   5.832   1.475
10321SOL     OW31861   3.613   0.184   4.086
10321SOL    HW131862   3.657   0.267   4.120
10321SOL    HW231863   3.521   0.176   4.124
10322SOL     OW31864   0.570   2.513   6.787
10322SOL    HW131865   0.508   2.450   6.834
10322SOL    HW231866   0.526   2.545   6.702
10323SOL     OW31867   0.586   2.211   5.585
10323SOL    HW131868   0.605   2.253   5.674
10323SOL    HW231869   0.582   2.283   5.515
10324SOL     OW31870   3.896   3.157   4.021
10324SOL    HW131871   3.888   3.198   3.930
10324SOL    HW231872   3.958   3.213   4.076
10325SOL     OW31873   0.177   3.657   2.762
10325SOL    HW131874   0.247   3.698   2.821
10325SOL    HW231875   0.091   3.650   2.812
10326SOL     OW31876   4.979   1.751   1.291
10326SOL    HW131877   4.990   1.850   1.303
10326SOL    HW231878   5.002   1.726   1.197
10327SOL     OW31879   6.678   0.686   3.202
10327SOL    HW131880   6.686   0.722   3.109
10327SOL    HW231881   6.677   0.586   3.199
10328SOL     OW31882   6.511   3.441   2.590
10328SOL    HW131883   6.484   3.352   2.625
10328SOL    HW231884   6.605   3.461   2.619
10329SOL     OW31885   3.351   6.525   3.049
10329SOL    HW131886   3.358   6.430   3.080
10329SOL    HW231887   3.330   6.527   2.951
10330SOL     OW31888   3.391   4.445   1.079
10330SOL    HW131889   3.477   4.396   1.075
10330SOL    HW231890   3.335   4.408   1.153
10331SOL     OW31891   5.014   0.690   4.666
10331SOL    HW131892   5.067   0.615   4.625
10331SOL    HW231893   4.943   0.652   4.725
10332SOL     OW31894   0.461   1.836   6.874
10332SOL    HW131895   0.506   1.760   6.921
10332SOL    HW231896   0.366   1.843   6.907
10333SOL     OW31897   5.515   4.651   5.158
10333SOL    HW131898   5.546   4.556   5.158
10333SOL    HW231899   5.437   4.661   5.096
10334SOL     OW31900   1.012   4.858   4.803
10334SOL    HW131901   0.950   4.831   4.730
10334SOL    HW231902   1.085   4.790   4.811
10335SOL     OW31903   3.032   5.197   2.031
10335SOL    HW131904   3.032   5.291   1.995
10335SOL    HW231905   2.945   5.179   2.076
10336SOL     OW31906   4.878   6.289   2.920
10336SOL    HW131907   4.781   6.299   2.899
10336SOL    HW231908   4.918   6.216   2.864
10337SOL     OW31909   0.460   5.028   5.240
10337SOL    HW131910   0.361   5.026   5.245
10337SOL    HW231911   0.492   4.966   5.168
10338SOL     OW31912   3.097   5.097   3.096
10338SOL    HW131913   3.116   5.194   3.079
10338SOL    HW231914   3.051   5.087   3.184
10339SOL     OW31915   3.061   5.890   0.840
10339SOL    HW131916   3.099   5.804   0.874
10339SOL    HW231917   2.962   5.892   0.857
10340SOL     OW31918   1.680   6.367   0.208
10340SOL    HW131919   1.645   6.430   0.139
10340SOL    HW231920   1.780   6.362   0.201
10341SOL     OW31921   1.103   2.313   2.186
10341SOL    HW131922   1.081   2.312   2.284
10341SOL    HW231923   1.030   2.361   2.137
10342SOL     OW31924   3.246   5.962   3.898
10342SOL    HW131925   3.181   5.999   3.964
10342SOL    HW231926   3.202   5.889   3.845
10343SOL     OW31927   2.351   2.734   3.779
10343SOL    HW131928   2.442   2.694   3.790
10343SOL    HW231929   2.354   2.804   3.708
10344SOL     OW31930   4.399   3.994   1.021
10344SOL    HW131931   4.472   3.942   0.977
10344SOL    HW231932   4.425   4.017   1.114
10345SOL     OW31933   2.406   2.237   5.642
10345SOL    HW131934   2.455   2.318   5.609
10345SOL    HW231935   2.407   2.167   5.571
10346SOL     OW31936   5.610   4.819   0.187
10346SOL    HW131937   5.589   4.879   0.264
10346SOL    HW231938   5.709   4.807   0.180
10347SOL     OW31939   4.986   0.258   1.915
10347SOL    HW131940   5.061   0.204   1.876
10347SOL    HW231941   5.005   0.356   1.903
10348SOL     OW31942   6.555   4.905   5.565
10348SOL    HW131943   6.495   4.830   5.592
10348SOL    HW231944   6.645   4.868   5.542
10349SOL     OW31945   6.601   2.327   0.931
10349SOL    HW131946   6.569   2.251   0.875
10349SOL    HW231947   6.700   2.338   0.920
10350SOL     OW31948   2.175   4.776   4.876
10350SOL    HW131949   2.227   4.756   4.793
10350SOL    HW231950   2.151   4.691   4.922
10351SOL     OW31951   4.155   4.844   4.537
10351SOL    HW131952   4.083   4.800   4.483
10351SOL    HW231953   4.114   4.909   4.600
10352SOL     OW31954   6.599   0.920   0.105
10352SOL    HW131955   6.512   0.908   0.057
10352SOL    HW231956   6.646   1.001   0.068
10353SOL     OW31957   6.613   1.880   3.462
10353SOL    HW131958   6.637   1.975   3.481
10353SOL    HW231959   6.562   1.875   3.376
10354SOL     OW31960   5.991   2.836   1.232
10354SOL    HW131961   6.086   2.822   1.261
10354SOL    HW231962   5.939   2.752   1.247
10355SOL     OW31963   0.595   1.558   0.363
10355SOL    HW131964   0.653   1.631   0.398
10355SOL    HW231965   0.591   1.483   0.428
10356SOL     OW31966   5.726   2.404   5.988
10356SOL    HW131967   5.744   2.423   5.891
10356SOL    HW231968   5.633   2.431   6.010
10357SOL     OW31969   1.416   0.105   6.366
10357SOL    HW131970   1.351   0.144   6.301
10357SOL    HW231971   1.508   0.114   6.330
10358SOL     OW31972   0.013   2.606   2.874
10358SOL    HW131973   0.063   2.599   2.960
10358SOL    HW231974   6.980   2.523   2.862
10359SOL     OW31975   0.022   1.477   2.496
10359SOL    HW131976   0.050   1.490   2.401
10359SOL    HW231977   0.026   1.565   2.544
10360SOL     OW31978   5.862   4.057   1.735
10360SOL    HW131979   5.855   3.983   1.669
10360SOL    HW231980   5.792   4.126   1.715
10361SOL     OW31981   6.161   1.877   2.429
10361SOL    HW131982   6.150   1.780   2.454
10361SOL    HW231983   6.198   1.884   2.337
10362SOL     OW31984   1.445   5.388   1.478
10362SOL    HW131985   1.400   5.305   1.511
10362SOL    HW231986   1.380   5.464   1.478
10363SOL     OW31987   5.428   4.577   6.433
10363SOL    HW131988   5.334   4.556   6.407
10363SOL    HW231989   5.472   4.494   6.469
10364SOL     OW31990   5.900   5.046   2.630
10364SOL    HW131991   5.932   5.088   2.715
10364SOL    HW231992   5.923   5.106   2.553
10365SOL     OW31993   5.989   5.072   0.890
10365SOL    HW131994   5.953   5.017   0.966
10365SOL    HW231995   5.977   5.169   0.911
10366SOL     OW31996   2.937   6.144   3.779
10366SOL    HW131997   3.018   6.139   3.720
10366SOL    HW231998   2.855   6.124   3.725
10367SOL     OW31999   5.403   6.287   1.380
10367SOL    HW132000   5.350   6.216   1.426
10367SOL    HW232001   5.480   6.314   1.439
10368SOL     OW32002   1.607   6.082   1.367
10368SOL    HW132003   1.634   6.090   1.271
10368SOL    HW232004   1.668   6.138   1.423
10369SOL     OW32005   2.559   0.230   6.307
10369SOL    HW132006   2.463   0.227   6.333
10369SOL    HW232007   2.597   0.319   6.333
10370SOL     OW32008   1.922   1.130   5.580
10370SOL    HW132009   2.006   1.179   5.604
10370SOL    HW232010   1.944   1.037   5.551
10371SOL     OW32011   4.429   5.610   3.330
10371SOL    HW132012   4.450   5.609   3.428
10371SOL    HW232013   4.507   5.574   3.279
10372SOL     OW32014   2.148   6.799   1.145
10372SOL    HW132015   2.140   6.898   1.160
10372SOL    HW232016   2.242   6.771   1.159
10373SOL     OW32017   6.136   1.167   6.543
10373SOL    HW132018   6.190   1.219   6.477
10373SOL    HW232019   6.072   1.107   6.493
10374SOL     OW32020   3.376   4.905   3.434
10374SOL    HW132021   3.433   4.886   3.514
10374SOL    HW232022   3.433   4.911   3.353
10375SOL     OW32023   2.574   4.974   0.842
10375SOL    HW132024   2.608   5.010   0.755
10375SOL    HW232025   2.483   4.937   0.830
10376SOL     OW32026   2.527   4.893   4.605
10376SOL    HW132027   2.536   4.973   4.545
10376SOL    HW232028   2.614   4.845   4.611
10377SOL     OW32029   1.780   0.918   2.227
10377SOL    HW132030   1.726   0.868   2.296
10377SOL    HW232031   1.870   0.938   2.264
10378SOL     OW32032   0.292   5.823   4.237
10378SOL    HW132033   0.367   5.806   4.300
10378SOL    HW232034   0.275   5.921   4.230
10379SOL     OW32035   2.037   0.101   3.922
10379SOL    HW132036   2.131   0.119   3.894
10379SOL    HW232037   2.023   0.002   3.933
10380SOL     OW32038   2.886   2.303   4.340
10380SOL    HW132039   2.916   2.292   4.435
10380SOL    HW232040   2.807   2.364   4.337
10381SOL     OW32041   4.034   6.381   2.725
10381SOL    HW132042   4.016   6.475   2.694
10381SOL    HW232043   3.977   6.318   2.673
10382SOL     OW32044   4.248   5.239   1.104
10382SOL    HW132045   4.250   5.187   1.190
10382SOL    HW232046   4.176   5.308   1.109
10383SOL     OW32047   0.985   4.771   0.042
10383SOL    HW132048   1.077   4.810   0.043
10383SOL    HW232049   0.966   4.727   0.130
10384SOL     OW32050   5.665   5.216   1.075
10384SOL    HW132051   5.578   5.169   1.089
10384SOL    HW232052   5.691   5.210   0.978
10385SOL     OW32053   4.173   4.671   0.030
10385SOL    HW132054   4.200   4.702   0.121
10385SOL    HW232055   4.140   4.576   0.035
10386SOL     OW32056   0.387   0.623   0.531
10386SOL    HW132057   0.451   0.685   0.483
10386SOL    HW232058   0.395   0.531   0.492
10387SOL     OW32059   4.862   3.283   1.959
10387SOL    HW132060   4.826   3.189   1.950
10387SOL    HW232061   4.899   3.295   2.051
10388SOL     OW32062   1.624   6.767   5.495
10388SOL    HW132063   1.589   6.698   5.432
10388SOL    HW232064   1.603   6.739   5.589
10389SOL     OW32065   0.649   4.116   6.939
10389SOL    HW132066   0.678   4.143   6.847
10389SOL    HW232067   0.560   4.070   6.934
10390SOL     OW32068   2.131   2.370   2.044
10390SOL    HW132069   2.136   2.438   1.971
10390SOL    HW232070   2.104   2.414   2.129
10391SOL     OW32071   5.738   6.712   3.906
10391SOL    HW132072   5.799   6.632   3.899
10391SOL    HW232073   5.788   6.794   3.879
10392SOL     OW32074   6.396   3.892   4.512
10392SOL    HW132075   6.307   3.910   4.469
10392SOL    HW232076   6.382   3.866   4.607
10393SOL     OW32077   1.705   3.383   3.099
10393SOL    HW132078   1.756   3.315   3.047
10393SOL    HW232079   1.701   3.355   3.195
10394SOL     OW32080   3.184   0.160   4.463
10394SOL    HW132081   3.267   0.161   4.519
10394SOL    HW232082   3.118   0.226   4.499
10395SOL     OW32083   0.937   6.786   1.192
10395SOL    HW132084   0.950   6.837   1.277
10395SOL    HW232085   0.933   6.850   1.115
10396SOL     OW32086   3.418   2.100   4.699
10396SOL    HW132087   3.416   2.025   4.765
10396SOL    HW232088   3.510   2.107   4.659
10397SOL     OW32089   4.698   1.778   3.947
10397SOL    HW132090   4.622   1.837   3.922
10397SOL    HW232091   4.752   1.821   4.019
10398SOL     OW32092   5.733   3.138   1.760
10398SOL    HW132093   5.635   3.129   1.775
10398SOL    HW232094   5.755   3.109   1.667
10399SOL     OW32095   0.808   3.914   1.633
10399SOL    HW132096   0.755   3.830   1.643
10399SOL    HW232097   0.874   3.902   1.558
10400SOL     OW32098   2.660   6.095   0.829
10400SOL    HW132099   2.704   6.052   0.749
10400SOL    HW232100   2.731   6.130   0.890
10401SOL     OW32101   0.631   0.870   5.766
10401SOL    HW132102   0.537   0.869   5.801
10401SOL    HW232103   0.684   0.797   5.809
10402SOL     OW32104   0.331   2.707   5.153
10402SOL    HW132105   0.258   2.718   5.221
10402SOL    HW232106   0.366   2.796   5.126
10403SOL     OW32107   3.196   0.728   0.781
10403SOL    HW132108   3.127   0.656   0.792
10403SOL    HW232109   3.198   0.786   0.862
10404SOL     OW32110   6.881   6.437   6.607
10404SOL    HW132111   6.804   6.416   6.668
10404SOL    HW232112   6.944   6.359   6.605
10405SOL     OW32113   0.591   2.791   6.294
10405SOL    HW132114   0.597   2.792   6.194
10405SOL    HW232115   0.495   2.787   6.322
10406SOL     OW32116   2.562   5.044   1.577
10406SOL    HW132117   2.626   5.018   1.650
10406SOL    HW232118   2.610   5.046   1.489
10407SOL     OW32119   2.793   6.361   6.665
10407SOL    HW132120   2.730   6.288   6.692
10407SOL    HW232121   2.874   6.321   6.622
10408SOL     OW32122   4.060   1.916   0.189
10408SOL    HW132123   3.997   1.981   0.146
10408SOL    HW232124   4.154   1.943   0.170
10409SOL     OW32125   5.962   4.920   1.120
10409SOL    HW132126   5.888   4.873   1.169
10409SOL    HW232127   6.039   4.857   1.108
10410SOL     OW32128   5.844   0.685   0.773
10410SOL    HW132129   5.802   0.727   0.853
10410SOL    HW232130   5.791   0.707   0.692
10411SOL     OW32131   2.587   5.036   3.488
10411SOL    HW132132   2.590   5.073   3.581
10411SOL    HW232133   2.492   5.021   3.461
10412SOL     OW32134   6.578   0.731   0.495
10412SOL    HW132135   6.589   0.653   0.432
10412SOL    HW232136   6.518   0.705   0.570
10413SOL     OW32137   0.102   2.914   1.823
10413SOL    HW132138   0.018   2.881   1.781
10413SOL    HW232139   0.082   2.955   1.912
10414SOL     OW32140   5.126   2.537   4.109
10414SOL    HW132141   5.062   2.560   4.036
10414SOL    HW232142   5.080   2.548   4.198
10415SOL     OW32143   0.156   6.791   6.306
10415SOL    HW132144   0.216   6.801   6.385
10415SOL    HW232145   0.087   6.721   6.324
10416SOL     OW32146   5.690   2.686   4.282
10416SOL    HW132147   5.594   2.708   4.266
10416SOL    HW232148   5.735   2.764   4.327
10417SOL     OW32149   2.434   4.375   3.640
10417SOL    HW132150   2.392   4.308   3.701
10417SOL    HW232151   2.376   4.456   3.634
10418SOL     OW32152   1.155   4.593   5.668
10418SOL    HW132153   1.063   4.609   5.704
10418SOL    HW232154   1.219   4.659   5.708
10419SOL     OW32155   1.127   1.182   0.766
10419SOL    HW132156   1.053   1.178   0.699
10419SOL    HW232157   1.113   1.261   0.826
10420SOL     OW32158   0.077   3.666   3.635
10420SOL    HW132159   0.025   3.734   3.686
10420SOL    HW232160   0.170   3.661   3.673
10421SOL     OW32161   0.335   1.220   3.758
10421SOL    HW132162   0.427   1.258   3.760
10421SOL    HW232163   0.327   1.156   3.681
10422SOL     OW32164   5.819   2.888   6.032
10422SOL    HW132165   5.737   2.924   5.989
10422SOL    HW232166   5.800   2.869   6.129
10423SOL     OW32167   5.393   4.473   3.244
10423SOL    HW132168   5.464   4.404   3.251
10423SOL    HW232169   5.434   4.564   3.246
10424SOL     OW32170   4.635   1.962   6.351
10424SOL    HW132171   4.721   2.006   6.327
10424SOL    HW232172   4.564   2.032   6.361
10425SOL     OW32173   2.194   6.456   1.914
10425SOL    HW132174   2.229   6.464   1.820
10425SOL    HW232175   2.153   6.543   1.941
10426SOL     OW32176   6.499   3.913   6.628
10426SOL    HW132177   6.542   4.003   6.633
10426SOL    HW232178   6.411   3.920   6.581
10427SOL     OW32179   4.881   1.471   0.454
10427SOL    HW132180   4.895   1.390   0.397
10427SOL    HW232181   4.819   1.450   0.529
10428SOL     OW32182   4.879   0.931   4.529
10428SOL    HW132183   4.900   0.912   4.433
10428SOL    HW232184   4.867   0.845   4.577
10429SOL     OW32185   6.339   6.324   2.359
10429SOL    HW132186   6.307   6.297   2.268
10429SOL    HW232187   6.269   6.300   2.427
10430SOL     OW32188   3.859   6.399   3.338
10430SOL    HW132189   3.825   6.415   3.245
10430SOL    HW232190   3.958   6.411   3.340
10431SOL     OW32191   2.849   1.188   5.034
10431SOL    HW132192   2.845   1.138   5.121
10431SOL    HW232193   2.870   1.124   4.960
10432SOL     OW32194   5.966   0.781   5.136
10432SOL    HW132195   5.983   0.717   5.211
10432SOL    HW232196   6.037   0.851   5.134
10433SOL     OW32197   2.369   6.674   0.897
10433SOL    HW132198   2.313   6.623   0.832
10433SOL    HW232199   2.459   6.631   0.904
10434SOL     OW32200   2.711   1.411   3.702
10434SOL    HW132201   2.764   1.345   3.756
10434SOL    HW232202   2.673   1.365   3.622
10435SOL     OW32203   5.119   6.540   0.160
10435SOL    HW132204   5.208   6.570   0.127
10435SOL    HW232205   5.106   6.571   0.254
10436SOL     OW32206   1.339   6.767   2.660
10436SOL    HW132207   1.296   6.730   2.743
10436SOL    HW232208   1.439   6.764   2.670
10437SOL     OW32209   6.717   4.734   6.153
10437SOL    HW132210   6.719   4.679   6.236
10437SOL    HW232211   6.731   4.830   6.175
10438SOL     OW32212   3.078   5.961   6.515
10438SOL    HW132213   3.169   5.947   6.556
10438SOL    HW232214   3.081   5.933   6.419
10439SOL     OW32215   4.244   6.938   5.914
10439SOL    HW132216   4.208   6.879   5.986
10439SOL    HW232217   4.219   0.011   5.934
10440SOL     OW32218   1.964   5.330   0.380
10440SOL    HW132219   1.910   5.408   0.348
10440SOL    HW232220   2.017   5.292   0.304
10441SOL     OW32221   4.514   1.223   6.807
10441SOL    HW132222   4.534   1.310   6.852
10441SOL    HW232223   4.600   1.179   6.781
10442SOL     OW32224   4.446   5.339   5.824
10442SOL    HW132225   4.426   5.265   5.759
10442SOL    HW232226   4.451   5.301   5.917
10443SOL     OW32227   6.177   2.853   4.960
10443SOL    HW132228   6.115   2.931   4.966
10443SOL    HW232229   6.126   2.768   4.969
10444SOL     OW32230   4.033   4.809   4.161
10444SOL    HW132231   4.058   4.906   4.159
10444SOL    HW232232   4.105   4.755   4.118
10445SOL     OW32233   6.206   6.186   4.704
10445SOL    HW132234   6.275   6.258   4.701
10445SOL    HW232235   6.115   6.227   4.711
10446SOL     OW32236   0.723   5.564   6.137
10446SOL    HW132237   0.714   5.636   6.068
10446SOL    HW232238   0.635   5.549   6.182
10447SOL     OW32239   6.156   2.363   1.228
10447SOL    HW132240   6.234   2.323   1.180
10447SOL    HW232241   6.185   2.394   1.318
10448SOL     OW32242   3.328   4.081   2.251
10448SOL    HW132243   3.250   4.027   2.222
10448SOL    HW232244   3.380   4.111   2.171
10449SOL     OW32245   1.849   5.214   4.318
10449SOL    HW132246   1.864   5.163   4.234
10449SOL    HW232247   1.754   5.244   4.323
10450SOL     OW32248   0.313   2.822   1.056
10450SOL    HW132249   0.248   2.896   1.071
10450SOL    HW232250   0.306   2.790   0.962
10451SOL     OW32251   2.129   4.119   2.666
10451SOL    HW132252   2.148   4.048   2.599
10451SOL    HW232253   2.211   4.174   2.680
10452SOL     OW32254   1.043   3.442   5.340
10452SOL    HW132255   1.062   3.361   5.394
10452SOL    HW232256   0.988   3.417   5.259
10453SOL     OW32257   5.153   0.085   1.790
10453SOL    HW132258   5.090   0.014   1.758
10453SOL    HW232259   5.159   0.157   1.721
10454SOL     OW32260   5.020   3.564   2.145
10454SOL    HW132261   4.982   3.479   2.181
10454SOL    HW232262   4.951   3.636   2.149
10455SOL     OW32263   0.123   4.250   3.121
10455SOL    HW132264   0.050   4.232   3.055
10455SOL    HW232265   0.085   4.299   3.200
10456SOL     OW32266   4.113   5.906   0.632
10456SOL    HW132267   4.087   5.967   0.707
10456SOL    HW232268   4.210   5.918   0.611
10457SOL     OW32269   3.540   3.710   3.733
10457SOL    HW132270   3.445   3.693   3.758
10457SOL    HW232271   3.551   3.807   3.711
10458SOL     OW32272   0.095   6.970   2.103
10458SOL    HW132273   0.173   6.985   2.042
10458SOL    HW232274   0.037   0.028   2.104
10459SOL     OW32275   6.687   5.459   2.497
10459SOL    HW132276   6.739   5.375   2.482
10459SOL    HW232277   6.626   5.475   2.420
10460SOL     OW32278   2.236   5.835   2.237
10460SOL    HW132279   2.168   5.780   2.188
10460SOL    HW232280   2.297   5.880   2.172
10461SOL     OW32281   2.249   1.735   6.381
10461SOL    HW132282   2.334   1.682   6.374
10461SOL    HW232283   2.203   1.712   6.467
10462SOL     OW32284   6.621   0.129   1.276
10462SOL    HW132285   6.594   0.140   1.372
10462SOL    HW232286   6.541   0.144   1.218
10463SOL     OW32287   2.460   4.003   1.089
10463SOL    HW132288   2.459   4.060   1.007
10463SOL    HW232289   2.463   3.906   1.063
10464SOL     OW32290   5.569   0.044   1.457
10464SOL    HW132291   5.545   6.987   1.513
10464SOL    HW232292   5.610   0.114   1.515
10465SOL     OW32293   6.200   5.021   5.525
10465SOL    HW132294   6.236   4.949   5.465
10465SOL    HW232295   6.112   5.052   5.489
10466SOL     OW32296   5.025   5.606   6.134
10466SOL    HW132297   5.047   5.667   6.210
10466SOL    HW232298   5.057   5.646   6.049
10467SOL     OW32299   4.037   0.615   4.313
10467SOL    HW132300   3.970   0.660   4.373
10467SOL    HW232301   4.094   0.554   4.367
10468SOL     OW32302   3.604   5.725   3.058
10468SOL    HW132303   3.581   5.690   3.149
10468SOL    HW232304   3.603   5.825   3.059
10469SOL     OW32305   1.563   4.744   0.702
10469SOL    HW132306   1.644   4.799   0.721
10469SOL    HW232307   1.499   4.797   0.646
10470SOL     OW32308   3.072   1.766   4.183
10470SOL    HW132309   3.149   1.829   4.177
10470SOL    HW232310   3.088   1.686   4.126
10471SOL     OW32311   4.141   3.802   0.689
10471SOL    HW132312   4.047   3.775   0.667
10471SOL    HW232313   4.144   3.836   0.783
10472SOL     OW32314   4.529   1.009   2.764
10472SOL    HW132315   4.478   1.069   2.702
10472SOL    HW232316   4.625   1.036   2.765
10473SOL     OW32317   4.973   5.600   0.963
10473SOL    HW132318   5.062   5.577   0.925
10473SOL    HW232319   4.945   5.529   1.028
10474SOL     OW32320   4.186   0.007   4.102
10474SOL    HW132321   4.126   6.963   4.058
10474SOL    HW232322   4.274   6.986   4.122
10475SOL     OW32323   4.498   5.862   1.499
10475SOL    HW132324   4.526   5.795   1.430
10475SOL    HW232325   4.571   5.929   1.513
10476SOL     OW32326   0.194   4.524   0.275
10476SOL    HW132327   0.286   4.560   0.294
10476SOL    HW232328   0.128   4.566   0.337
10477SOL     OW32329   5.055   4.888   5.055
10477SOL    HW132330   5.030   4.792   5.053
10477SOL    HW232331   5.001   4.936   5.123
10478SOL     OW32332   0.159   6.176   2.129
10478SOL    HW132333   0.121   6.084   2.120
10478SOL    HW232334   0.218   6.179   2.210
10479SOL     OW32335   1.826   4.758   3.302
10479SOL    HW132336   1.900   4.712   3.254
10479SOL    HW232337   1.774   4.691   3.355
10480SOL     OW32338   6.373   0.314   2.704
10480SOL    HW132339   6.346   0.405   2.734
10480SOL    HW232340   6.378   0.311   2.605
10481SOL     OW32341   2.608   0.601   5.108
10481SOL    HW132342   2.649   0.519   5.148
10481SOL    HW232343   2.680   0.655   5.063
10482SOL     OW32344   0.701   5.207   5.869
10482SOL    HW132345   0.648   5.202   5.953
10482SOL    HW232346   0.639   5.221   5.791
10483SOL     OW32347   6.861   5.294   0.549
10483SOL    HW132348   6.848   5.382   0.502
10483SOL    HW232349   6.806   5.292   0.632
10484SOL     OW32350   5.535   2.216   1.384
10484SOL    HW132351   5.544   2.116   1.375
10484SOL    HW232352   5.577   2.260   1.305
10485SOL     OW32353   3.363   4.054   3.785
10485SOL    HW132354   3.271   4.039   3.747
10485SOL    HW232355   3.355   4.079   3.881
10486SOL     OW32356   6.142   5.809   5.252
10486SOL    HW132357   6.071   5.752   5.209
10486SOL    HW232358   6.169   5.882   5.190
10487SOL     OW32359   4.975   2.001   2.207
10487SOL    HW132360   4.968   1.945   2.124
10487SOL    HW232361   4.889   2.050   2.222
10488SOL     OW32362   6.919   2.190   5.322
10488SOL    HW132363   6.986   2.188   5.249
10488SOL    HW232364   6.863   2.273   5.314
10489SOL     OW32365   6.237   4.211   4.807
10489SOL    HW132366   6.283   4.225   4.719
10489SOL    HW232367   6.246   4.115   4.834
10490SOL     OW32368   5.649   0.036   0.389
10490SOL    HW132369   5.593   0.024   0.307
10490SOL    HW232370   5.714   0.110   0.374
10491SOL     OW32371   2.223   2.614   5.251
10491SOL    HW132372   2.286   2.682   5.289
10491SOL    HW232373   2.129   2.649   5.255
10492SOL     OW32374   3.906   6.492   6.699
10492SOL    HW132375   3.887   6.509   6.796
10492SOL    HW232376   3.876   6.399   6.676
10493SOL     OW32377   3.517   5.436   1.583
10493SOL    HW132378   3.582   5.487   1.527
10493SOL    HW232379   3.456   5.383   1.524
10494SOL     OW32380   1.206   4.096   4.577
10494SOL    HW132381   1.236   4.120   4.484
10494SOL    HW232382   1.285   4.089   4.637
10495SOL     OW32383   6.965   6.099   0.730
10495SOL    HW132384   6.964   6.185   0.781
10495SOL    HW232385   0.037   6.069   0.719
10496SOL     OW32386   0.615   3.979   6.089
10496SOL    HW132387   0.576   4.065   6.056
10496SOL    HW232388   0.542   3.920   6.123
10497SOL     OW32389   2.995   0.027   1.661
10497SOL    HW132390   2.995   6.952   1.681
10497SOL    HW232391   2.993   0.079   1.747
10498SOL     OW32392   4.744   4.080   6.843
10498SOL    HW132393   4.838   4.056   6.817
10498SOL    HW232394   4.742   4.174   6.875
10499SOL     OW32395   5.927   3.861   3.086
10499SOL    HW132396   5.882   3.853   3.175
10499SOL    HW232397   6.019   3.823   3.091
10500SOL     OW32398   0.834   3.882   5.052
10500SOL    HW132399   0.914   3.894   4.992
10500SOL    HW232400   0.852   3.926   5.140
10501SOL     OW32401   3.576   4.881   3.201
10501SOL    HW132402   3.671   4.905   3.221
10501SOL    HW232403   3.562   4.878   3.102
10502SOL     OW32404   3.769   3.559   2.514
10502SOL    HW132405   3.693   3.557   2.578
10502SOL    HW232406   3.735   3.539   2.422
10503SOL     OW32407   0.374   1.735   6.136
10503SOL    HW132408   0.430   1.814   6.109
10503SOL    HW232409   0.277   1.755   6.118
10504SOL     OW32410   0.627   3.273   5.518
10504SOL    HW132411   0.554   3.328   5.477
10504SOL    HW232412   0.662   3.320   5.599
10505SOL     OW32413   5.958   0.133   0.957
10505SOL    HW132414   6.021   0.082   1.016
10505SOL    HW232415   6.004   0.155   0.871
10506SOL     OW32416   1.205   3.556   6.210
10506SOL    HW132417   1.196   3.541   6.112
10506SOL    HW232418   1.183   3.651   6.232
10507SOL     OW32419   0.941   5.328   5.817
10507SOL    HW132420   0.855   5.280   5.830
10507SOL    HW232421   0.999   5.277   5.754
10508SOL     OW32422   1.703   5.565   5.897
10508SOL    HW132423   1.612   5.532   5.870
10508SOL    HW232424   1.758   5.579   5.815
10509SOL     OW32425   4.706   2.431   2.302
10509SOL    HW132426   4.612   2.452   2.326
10509SOL    HW232427   4.757   2.515   2.288
10510SOL     OW32428   6.014   5.828   3.578
10510SOL    HW132429   6.070   5.802   3.657
10510SOL    HW232430   5.946   5.896   3.606
10511SOL     OW32431   4.192   1.375   0.988
10511SOL    HW132432   4.205   1.421   1.076
10511SOL    HW232433   4.272   1.318   0.968
10512SOL     OW32434   4.358   0.961   5.357
10512SOL    HW132435   4.332   1.030   5.289
10512SOL    HW232436   4.445   0.920   5.332
10513SOL     OW32437   3.829   2.851   0.637
10513SOL    HW132438   3.869   2.779   0.695
10513SOL    HW232439   3.832   2.938   0.686
10514SOL     OW32440   1.829   3.701   1.918
10514SOL    HW132441   1.782   3.780   1.958
10514SOL    HW232442   1.828   3.625   1.982
10515SOL     OW32443   2.332   2.823   4.903
10515SOL    HW132444   2.338   2.727   4.931
10515SOL    HW232445   2.368   2.881   4.977
10516SOL     OW32446   4.972   2.246   1.549
10516SOL    HW132447   4.982   2.149   1.529
10516SOL    HW232448   4.885   2.262   1.594
10517SOL     OW32449   0.971   2.824   2.295
10517SOL    HW132450   0.874   2.833   2.321
10517SOL    HW232451   1.028   2.845   2.374
10518SOL     OW32452   1.140   5.360   2.565
10518SOL    HW132453   1.110   5.449   2.531
10518SOL    HW232454   1.064   5.295   2.559
10519SOL     OW32455   4.161   0.201   0.987
10519SOL    HW132456   4.244   0.195   0.931
10519SOL    HW232457   4.138   0.297   1.003
10520SOL     OW32458   0.925   2.583   5.846
10520SOL    HW132459   0.852   2.583   5.914
10520SOL    HW232460   0.999   2.524   5.878
10521SOL     OW32461   6.330   2.762   3.187
10521SOL    HW132462   6.243   2.737   3.144
10521SOL    HW232463   6.376   2.830   3.132
10522SOL     OW32464   5.590   1.918   3.878
10522SOL    HW132465   5.592   2.018   3.870
10522SOL    HW232466   5.499   1.884   3.853
10523SOL     OW32467   1.416   4.336   2.596
10523SOL    HW132468   1.332   4.352   2.544
10523SOL    HW232469   1.454   4.424   2.625
10524SOL     OW32470   6.461   6.572   5.358
10524SOL    HW132471   6.409   6.500   5.403
10524SOL    HW232472   6.434   6.661   5.396
10525SOL     OW32473   5.096   1.828   4.004
10525SOL    HW132474   5.051   1.811   3.917
10525SOL    HW232475   5.123   1.924   4.009
10526SOL     OW32476   0.604   4.949   0.052
10526SOL    HW132477   0.549   5.032   0.038
10526SOL    HW232478   0.559   4.871   0.008
10527SOL     OW32479   0.766   6.778   5.521
10527SOL    HW132480   0.719   6.702   5.565
10527SOL    HW232481   0.857   6.748   5.490
10528SOL     OW32482   1.122   4.510   5.412
10528SOL    HW132483   1.117   4.537   5.508
10528SOL    HW232484   1.119   4.591   5.354
10529SOL     OW32485   6.970   5.603   0.747
10529SOL    HW132486   0.018   5.557   0.800
10529SOL    HW232487   6.940   5.685   0.794
10530SOL     OW32488   6.869   6.092   1.530
10530SOL    HW132489   6.913   6.172   1.491
10530SOL    HW232490   6.785   6.071   1.480
10531SOL     OW32491   3.029   3.023   5.180
10531SOL    HW132492   2.959   2.983   5.240
10531SOL    HW232493   3.111   2.965   5.181
10532SOL     OW32494   5.150   5.720   6.619
10532SOL    HW132495   5.072   5.686   6.565
10532SOL    HW232496   5.151   5.820   6.617
10533SOL     OW32497   3.811   0.510   3.204
10533SOL    HW132498   3.749   0.481   3.132
10533SOL    HW232499   3.791   0.458   3.288
10534SOL     OW32500   1.555   5.842   3.912
10534SOL    HW132501   1.571   5.747   3.938
10534SOL    HW232502   1.461   5.852   3.880
10535SOL     OW32503   3.097   2.124   2.840
10535SOL    HW132504   3.010   2.120   2.790
10535SOL    HW232505   3.097   2.053   2.911
10536SOL     OW32506   5.239   3.479   4.806
10536SOL    HW132507   5.296   3.398   4.815
10536SOL    HW232508   5.245   3.514   4.713
10537SOL     OW32509   3.754   0.349   4.306
10537SOL    HW132510   3.697   0.303   4.373
10537SOL    HW232511   3.729   0.446   4.301
10538SOL     OW32512   6.919   3.229   3.206
10538SOL    HW132513   6.923   3.257   3.301
10538SOL    HW232514   6.940   3.131   3.199
10539SOL     OW32515   6.916   0.068   3.383
10539SOL    HW132516   6.883   0.161   3.396
10539SOL    HW232517   6.897   0.014   3.465
10540SOL     OW32518   1.102   4.705   6.642
10540SOL    HW132519   1.141   4.731   6.731
10540SOL    HW232520   1.088   4.606   6.640
10541SOL     OW32521   2.877   3.426   5.326
10541SOL    HW132522   2.916   3.369   5.254
10541SOL    HW232523   2.780   3.405   5.338
10542SOL     OW32524   5.204   6.479   3.318
10542SOL    HW132525   5.195   6.578   3.309
10542SOL    HW232526   5.181   6.435   3.231
10543SOL     OW32527   1.631   3.271   3.702
10543SOL    HW132528   1.612   3.367   3.686
10543SOL    HW232529   1.724   3.261   3.739
10544SOL     OW32530   2.536   1.434   3.285
10544SOL    HW132531   2.543   1.376   3.366
10544SOL    HW232532   2.609   1.411   3.221
10545SOL     OW32533   2.331   2.593   2.647
10545SOL    HW132534   2.232   2.581   2.634
10545SOL    HW232535   2.358   2.683   2.613
10546SOL     OW32536   2.679   0.132   6.737
10546SOL    HW132537   2.715   0.221   6.709
10546SOL    HW232538   2.704   0.063   6.668
10547SOL     OW32539   4.257   6.475   5.578
10547SOL    HW132540   4.225   6.570   5.569
10547SOL    HW232541   4.218   6.434   5.660
10548SOL     OW32542   0.204   5.790   3.413
10548SOL    HW132543   0.161   5.771   3.325
10548SOL    HW232544   0.234   5.704   3.454
10549SOL     OW32545   6.485   0.587   1.469
10549SOL    HW132546   6.406   0.544   1.426
10549SOL    HW232547   6.459   0.674   1.510
10550SOL     OW32548   5.352   6.080   2.878
10550SOL    HW132549   5.349   6.180   2.877
10550SOL    HW232550   5.375   6.048   2.970
10551SOL     OW32551   3.096   0.507   5.246
10551SOL    HW132552   3.012   0.554   5.218
10551SOL    HW232553   3.076   0.412   5.267
10552SOL     OW32554   3.078   6.993   3.645
10552SOL    HW132555   3.047   0.043   3.707
10552SOL    HW232556   3.146   6.936   3.690
10553SOL     OW32557   6.173   5.667   1.434
10553SOL    HW132558   6.124   5.740   1.387
10553SOL    HW232559   6.198   5.595   1.368
10554SOL     OW32560   5.977   6.322   2.649
10554SOL    HW132561   5.921   6.403   2.666
10554SOL    HW232562   6.019   6.292   2.734
10555SOL     OW32563   3.530   3.399   0.996
10555SOL    HW132564   3.496   3.321   0.944
10555SOL    HW232565   3.453   3.450   1.035
10556SOL     OW32566   2.387   1.518   2.208
10556SOL    HW132567   2.404   1.610   2.243
10556SOL    HW232568   2.474   1.470   2.194
10557SOL     OW32569   2.187   4.683   3.366
10557SOL    HW132570   2.281   4.696   3.337
10557SOL    HW232571   2.130   4.664   3.287
10558SOL     OW32572   3.437   5.448   5.259
10558SOL    HW132573   3.441   5.363   5.206
10558SOL    HW232574   3.485   5.520   5.210
10559SOL     OW32575   4.199   6.479   1.238
10559SOL    HW132576   4.135   6.466   1.162
10559SOL    HW232577   4.173   6.418   1.313
10560SOL     OW32578   5.624   6.933   3.027
10560SOL    HW132579   5.616   6.906   3.123
10560SOL    HW232580   5.615   6.852   2.969
10561SOL     OW32581   6.928   4.916   6.886
10561SOL    HW132582   6.931   4.913   6.986
10561SOL    HW232583   6.886   5.002   6.856
10562SOL     OW32584   4.603   5.864   2.736
10562SOL    HW132585   4.672   5.917   2.786
10562SOL    HW232586   4.513   5.904   2.753
10563SOL     OW32587   0.261   6.922   2.580
10563SOL    HW132588   0.169   6.882   2.582
10563SOL    HW232589   0.326   6.858   2.621
10564SOL     OW32590   4.831   4.626   3.381
10564SOL    HW132591   4.826   4.627   3.281
10564SOL    HW232592   4.765   4.560   3.417
10565SOL     OW32593   0.914   0.912   6.244
10565SOL    HW132594   0.935   0.873   6.154
10565SOL    HW232595   0.815   0.919   6.255
10566SOL     OW32596   3.652   2.418   0.450
10566SOL    HW132597   3.705   2.503   0.447
10566SOL    HW232598   3.678   2.359   0.373
10567SOL     OW32599   1.911   2.756   5.927
10567SOL    HW132600   1.970   2.783   6.003
10567SOL    HW232601   1.954   2.681   5.876
10568SOL     OW32602   4.642   2.402   6.209
10568SOL    HW132603   4.658   2.354   6.123
10568SOL    HW232604   4.665   2.499   6.198
10569SOL     OW32605   5.907   0.154   0.298
10569SOL    HW132606   5.921   0.074   0.356
10569SOL    HW232607   5.906   0.126   0.202
10570SOL     OW32608   1.258   3.654   2.874
10570SOL    HW132609   1.195   3.584   2.907
10570SOL    HW232610   1.261   3.730   2.939
10571SOL     OW32611   6.147   4.593   5.268
10571SOL    HW132612   6.123   4.680   5.224
10571SOL    HW232613   6.211   4.543   5.210
10572SOL     OW32614   5.861   3.928   1.021
10572SOL    HW132615   5.949   3.975   1.020
10572SOL    HW232616   5.787   3.996   1.022
10573SOL     OW32617   6.525   2.343   2.599
10573SOL    HW132618   6.606   2.400   2.607
10573SOL    HW232619   6.480   2.359   2.511
10574SOL     OW32620   5.357   2.753   2.395
10574SOL    HW132621   5.281   2.702   2.357
10574SOL    HW232622   5.436   2.747   2.334
10575SOL     OW32623   5.812   6.934   2.446
10575SOL    HW132624   5.723   6.903   2.411
10575SOL    HW232625   5.837   6.879   2.526
10576SOL     OW32626   1.215   4.442   3.836
10576SOL    HW132627   1.216   4.521   3.897
10576SOL    HW232628   1.309   4.415   3.816
10577SOL     OW32629   3.766   4.138   0.252
10577SOL    HW132630   3.808   4.227   0.271
10577SOL    HW232631   3.830   4.065   0.274
10578SOL     OW32632   0.747   3.703   3.618
10578SOL    HW132633   0.715   3.793   3.646
10578SOL    HW232634   0.727   3.636   3.690
10579SOL     OW32635   0.526   3.660   6.940
10579SOL    HW132636   0.527   3.758   6.961
10579SOL    HW232637   0.579   3.611   7.008
10580SOL     OW32638   5.853   6.813   0.187
10580SOL    HW132639   5.894   6.901   0.162
10580SOL    HW232640   5.766   6.802   0.139
10581SOL     OW32641   4.282   0.343   3.052
10581SOL    HW132642   4.276   0.257   3.002
10581SOL    HW232643   4.285   0.419   2.987
10582SOL     OW32644   6.634   3.633   6.089
10582SOL    HW132645   6.554   3.574   6.084
10582SOL    HW232646   6.606   3.729   6.081
10583SOL     OW32647   3.372   1.766   5.208
10583SOL    HW132648   3.436   1.796   5.137
10583SOL    HW232649   3.288   1.820   5.203
10584SOL     OW32650   0.963   6.398   3.255
10584SOL    HW132651   0.943   6.303   3.233
10584SOL    HW232652   1.060   6.416   3.239
10585SOL     OW32653   1.465   1.024   5.644
10585SOL    HW132654   1.382   1.067   5.609
10585SOL    HW232655   1.545   1.066   5.602
10586SOL     OW32656   4.285   4.250   5.356
10586SOL    HW132657   4.284   4.275   5.453
10586SOL    HW232658   4.235   4.319   5.304
10587SOL     OW32659   2.206   4.717   5.302
10587SOL    HW132660   2.184   4.687   5.209
10587SOL    HW232661   2.248   4.807   5.299
10588SOL     OW32662   1.554   3.593   3.650
10588SOL    HW132663   1.577   3.686   3.621
10588SOL    HW232664   1.521   3.595   3.745
10589SOL     OW32665   5.776   6.375   3.652
10589SOL    HW132666   5.784   6.287   3.699
10589SOL    HW232667   5.708   6.367   3.579
10590SOL     OW32668   0.640   4.717   2.099
10590SOL    HW132669   0.604   4.748   2.187
10590SOL    HW232670   0.720   4.771   2.074
10591SOL     OW32671   6.982   3.605   2.041
10591SOL    HW132672   7.020   3.698   2.042
10591SOL    HW232673   6.990   3.567   1.949
10592SOL     OW32674   0.362   1.154   5.159
10592SOL    HW132675   0.428   1.079   5.164
10592SOL    HW232676   0.305   1.155   5.241
10593SOL     OW32677   2.913   4.990   3.419
10593SOL    HW132678   2.998   4.954   3.380
10593SOL    HW232679   2.858   4.915   3.455
10594SOL     OW32680   3.394   5.395   3.686
10594SOL    HW132681   3.296   5.409   3.699
10594SOL    HW232682   3.409   5.313   3.631
10595SOL     OW32683   5.387   0.333   0.573
10595SOL    HW132684   5.433   0.257   0.618
10595SOL    HW232685   5.311   0.365   0.629
10596SOL     OW32686   5.159   3.532   0.318
10596SOL    HW132687   5.247   3.494   0.290
10596SOL    HW232688   5.171   3.587   0.400
10597SOL     OW32689   1.961   6.976   4.570
10597SOL    HW132690   1.919   6.939   4.488
10597SOL    HW232691   1.967   6.905   4.640
10598SOL     OW32692   3.232   0.856   6.433
10598SOL    HW132693   3.256   0.866   6.337
10598SOL    HW232694   3.286   0.782   6.473
10599SOL     OW32695   0.978   2.180   0.274
10599SOL    HW132696   0.946   2.086   0.280
10599SOL    HW232697   0.899   2.240   0.259
10600SOL     OW32698   3.646   1.651   1.590
10600SOL    HW132699   3.570   1.651   1.655
10600SOL    HW232700   3.711   1.580   1.616
10601SOL     OW32701   2.385   0.705   4.997
10601SOL    HW132702   2.408   0.795   4.959
10601SOL    HW232703   2.464   0.667   5.044
10602SOL     OW32704   6.923   6.833   1.989
10602SOL    HW132705   6.976   6.872   2.065
10602SOL    HW232706   6.827   6.858   1.999
10603SOL     OW32707   5.534   0.619   2.930
10603SOL    HW132708   5.621   0.573   2.949
10603SOL    HW232709   5.512   0.607   2.833
10604SOL     OW32710   4.809   0.705   4.844
10604SOL    HW132711   4.812   0.608   4.868
10604SOL    HW232712   4.715   0.738   4.848
10605SOL     OW32713   3.200   2.520   1.212
10605SOL    HW132714   3.235   2.591   1.273
10605SOL    HW232715   3.277   2.466   1.176
10606SOL     OW32716   6.879   0.788   6.898
10606SOL    HW132717   6.798   0.754   6.851
10606SOL    HW232718   6.954   0.723   6.886
10607SOL     OW32719   2.854   4.153   6.846
10607SOL    HW132720   2.935   4.116   6.801
10607SOL    HW232721   2.843   4.249   6.819
10608SOL     OW32722   5.267   4.468   4.110
10608SOL    HW132723   5.268   4.398   4.038
10608SOL    HW232724   5.351   4.523   4.104
10609SOL     OW32725   5.993   0.622   6.632
10609SOL    HW132726   6.084   0.590   6.658
10609SOL    HW232727   5.971   0.589   6.541
10610SOL     OW32728   0.922   1.319   3.430
10610SOL    HW132729   1.009   1.319   3.381
10610SOL    HW232730   0.886   1.412   3.434
10611SOL     OW32731   3.676   5.246   4.953
10611SOL    HW132732   3.727   5.332   4.947
10611SOL    HW232733   3.591   5.262   5.004
10612SOL     OW32734   6.416   2.248   3.586
10612SOL    HW132735   6.399   2.346   3.600
10612SOL    HW232736   6.328   2.202   3.570
10613SOL     OW32737   4.278   6.291   4.342
10613SOL    HW132738   4.293   6.281   4.244
10613SOL    HW232739   4.287   6.202   4.387
10614SOL     OW32740   3.981   1.719   6.042
10614SOL    HW132741   4.020   1.795   5.990
10614SOL    HW232742   3.891   1.745   6.077
10615SOL     OW32743   2.452   1.803   4.928
10615SOL    HW132744   2.511   1.796   4.848
10615SOL    HW232745   2.365   1.758   4.910
10616SOL     OW32746   1.682   5.946   6.783
10616SOL    HW132747   1.596   5.926   6.831
10616SOL    HW232748   1.677   5.908   6.690
10617SOL     OW32749   2.103   2.899   1.366
10617SOL    HW132750   2.079   2.965   1.295
10617SOL    HW232751   2.050   2.816   1.354
10618SOL     OW32752   1.084   5.188   3.970
10618SOL    HW132753   1.127   5.276   3.948
10618SOL    HW232754   1.062   5.185   4.067
10619SOL     OW32755   1.277   2.700   2.270
10619SOL    HW132756   1.293   2.615   2.218
10619SOL    HW232757   1.275   2.777   2.207
10620SOL     OW32758   3.180   0.358   5.890
10620SOL    HW132759   3.136   0.426   5.831
10620SOL    HW232760   3.140   0.364   5.982
10621SOL     OW32761   0.596   3.307   3.087
10621SOL    HW132762   0.555   3.371   3.021
10621SOL    HW232763   0.677   3.349   3.128
10622SOL     OW32764   4.232   2.249   6.843
10622SOL    HW132765   4.175   2.330   6.844
10622SOL    HW232766   4.264   2.228   6.935
10623SOL     OW32767   5.105   6.212   5.615
10623SOL    HW132768   5.075   6.117   5.608
10623SOL    HW232769   5.140   6.242   5.526
10624SOL     OW32770   0.805   2.378   0.253
10624SOL    HW132771   0.756   2.440   0.314
10624SOL    HW232772   0.860   2.432   0.189
10625SOL     OW32773   6.313   5.333   0.234
10625SOL    HW132774   6.260   5.278   0.298
10625SOL    HW232775   6.298   5.430   0.253
10626SOL     OW32776   5.518   2.947   1.107
10626SOL    HW132777   5.531   2.872   1.043
10626SOL    HW232778   5.607   2.983   1.135
10627SOL     OW32779   5.760   5.441   5.069
10627SOL    HW132780   5.677   5.441   5.014
10627SOL    HW232781   5.755   5.368   5.137
10628SOL     OW32782   2.985   6.609   0.279
10628SOL    HW132783   3.040   6.646   0.354
10628SOL    HW232784   3.046   6.574   0.208
10629SOL     OW32785   4.215   5.239   4.947
10629SOL    HW132786   4.162   5.303   4.891
10629SOL    HW232787   4.285   5.195   4.891
10630SOL     OW32788   3.763   1.448   1.808
10630SOL    HW132789   3.836   1.488   1.864
10630SOL    HW232790   3.674   1.473   1.847
10631SOL     OW32791   3.568   5.523   1.283
10631SOL    HW132792   3.604   5.617   1.289
10631SOL    HW232793   3.470   5.524   1.299
10632SOL     OW32794   5.453   6.292   3.966
10632SOL    HW132795   5.508   6.312   4.047
10632SOL    HW232796   5.420   6.377   3.926
10633SOL     OW32797   2.155   3.545   0.937
10633SOL    HW132798   2.168   3.638   0.903
10633SOL    HW232799   2.134   3.485   0.860
10634SOL     OW32800   0.040   4.449   7.010
10634SOL    HW132801   0.035   4.469   6.912
10634SOL    HW232802   0.129   4.409   0.009
10635SOL     OW32803   2.902   5.452   6.461
10635SOL    HW132804   2.875   5.385   6.392
10635SOL    HW232805   2.895   5.544   6.423
10636SOL     OW32806   6.840   2.740   0.129
10636SOL    HW132807   6.910   2.708   0.066
10636SOL    HW232808   6.882   2.763   0.217
10637SOL     OW32809   2.399   0.722   6.945
10637SOL    HW132810   2.345   0.652   6.898
10637SOL    HW232811   2.487   0.684   6.972
10638SOL     OW32812   5.726   5.153   0.804
10638SOL    HW132813   5.678   5.066   0.810
10638SOL    HW232814   5.824   5.137   0.804
10639SOL     OW32815   0.416   5.379   1.884
10639SOL    HW132816   0.347   5.348   1.819
10639SOL    HW232817   0.393   5.471   1.916
10640SOL     OW32818   4.618   6.806   3.690
10640SOL    HW132819   4.544   6.774   3.632
10640SOL    HW232820   4.623   6.906   3.686
10641SOL     OW32821   1.192   1.609   3.169
10641SOL    HW132822   1.226   1.646   3.255
10641SOL    HW232823   1.230   1.661   3.093
10642SOL     OW32824   6.652   3.309   5.688
10642SOL    HW132825   6.655   3.407   5.670
10642SOL    HW232826   6.664   3.292   5.786
10643SOL     OW32827   2.163   5.344   5.833
10643SOL    HW132828   2.230   5.270   5.827
10643SOL    HW232829   2.103   5.329   5.911
10644SOL     OW32830   6.260   3.104   3.137
10644SOL    HW132831   6.188   3.127   3.202
10644SOL    HW232832   6.222   3.101   3.044
10645SOL     OW32833   1.750   2.299   3.178
10645SOL    HW132834   1.707   2.224   3.228
10645SOL    HW232835   1.685   2.335   3.111
10646SOL     OW32836   5.313   0.600   3.496
10646SOL    HW132837   5.405   0.589   3.457
10646SOL    HW232838   5.314   0.572   3.592
10647SOL     OW32839   3.581   5.623   5.756
10647SOL    HW132840   3.564   5.565   5.676
10647SOL    HW232841   3.667   5.597   5.799
10648SOL     OW32842   4.983   4.347   5.809
10648SOL    HW132843   4.898   4.343   5.756
10648SOL    HW232844   4.972   4.410   5.886
10649SOL     OW32845   6.291   3.412   2.993
10649SOL    HW132846   6.245   3.486   2.945
10649SOL    HW232847   6.228   3.336   3.006
10650SOL     OW32848   1.074   6.950   3.735
10650SOL    HW132849   1.131   6.973   3.657
10650SOL    HW232850   1.057   0.009   3.790
10651SOL     OW32851   2.973   6.218   5.939
10651SOL    HW132852   2.978   6.274   6.022
10651SOL    HW232853   2.886   6.234   5.893
10652SOL     OW32854   1.774   0.068   0.474
10652SOL    HW132855   1.720   0.150   0.458
10652SOL    HW232856   1.826   0.045   0.392
10653SOL     OW32857   4.826   5.802   4.236
10653SOL    HW132858   4.808   5.800   4.138
10653SOL    HW232859   4.796   5.716   4.277
10654SOL     OW32860   6.275   1.669   4.180
10654SOL    HW132861   6.301   1.652   4.275
10654SOL    HW232862   6.178   1.651   4.169
10655SOL     OW32863   6.907   4.301   1.791
10655SOL    HW132864   6.974   4.259   1.729
10655SOL    HW232865   6.955   4.345   1.866
10656SOL     OW32866   5.868   2.225   4.195
10656SOL    HW132867   5.802   2.257   4.126
10656SOL    HW232868   5.888   2.128   4.179
10657SOL     OW32869   4.799   6.587   4.514
10657SOL    HW132870   4.883   6.641   4.519
10657SOL    HW232871   4.817   6.495   4.549
10658SOL     OW32872   0.819   2.492   5.538
10658SOL    HW132873   0.835   2.428   5.463
10658SOL    HW232874   0.872   2.575   5.524
10659SOL     OW32875   0.793   5.812   0.889
10659SOL    HW132876   0.702   5.838   0.858
10659SOL    HW232877   0.861   5.872   0.846
10660SOL     OW32878   5.703   2.792   5.384
10660SOL    HW132879   5.731   2.725   5.316
10660SOL    HW232880   5.779   2.855   5.402
10661SOL     OW32881   2.801   5.098   5.568
10661SOL    HW132882   2.869   5.045   5.618
10661SOL    HW232883   2.723   5.040   5.546
10662SOL     OW32884   1.845   1.262   1.549
10662SOL    HW132885   1.863   1.354   1.585
10662SOL    HW232886   1.780   1.268   1.474
10663SOL     OW32887   0.948   1.707   3.657
10663SOL    HW132888   0.866   1.690   3.712
10663SOL    HW232889   1.020   1.642   3.684
10664SOL     OW32890   0.911   5.150   4.869
10664SOL    HW132891   0.855   5.117   4.945
10664SOL    HW232892   0.959   5.073   4.827
10665SOL     OW32893   2.997   3.326   0.171
10665SOL    HW132894   3.048   3.262   0.228
10665SOL    HW232895   3.034   3.325   0.078
10666SOL     OW32896   3.479   4.169   1.269
10666SOL    HW132897   3.406   4.101   1.260
10666SOL    HW232898   3.451   4.240   1.333
10667SOL     OW32899   5.239   2.499   3.178
10667SOL    HW132900   5.287   2.580   3.211
10667SOL    HW232901   5.304   2.425   3.162
10668SOL     OW32902   3.208   3.115   5.841
10668SOL    HW132903   3.167   3.184   5.781
10668SOL    HW232904   3.222   3.030   5.790
10669SOL     OW32905   5.226   1.782   1.475
10669SOL    HW132906   5.301   1.717   1.482
10669SOL    HW232907   5.145   1.736   1.439
10670SOL     OW32908   4.833   3.808   4.606
10670SOL    HW132909   4.861   3.755   4.526
10670SOL    HW232910   4.733   3.802   4.617
10671SOL     OW32911   1.481   3.593   5.319
10671SOL    HW132912   1.538   3.584   5.238
10671SOL    HW232913   1.538   3.594   5.401
10672SOL     OW32914   5.535   3.440   1.898
10672SOL    HW132915   5.523   3.520   1.956
10672SOL    HW232916   5.474   3.367   1.928
10673SOL     OW32917   1.946   1.359   1.128
10673SOL    HW132918   1.892   1.278   1.154
10673SOL    HW232919   1.888   1.421   1.075
10674SOL     OW32920   3.752   4.129   2.993
10674SOL    HW132921   3.718   4.210   3.041
10674SOL    HW232922   3.721   4.132   2.898
10675SOL     OW32923   4.157   6.724   5.307
10675SOL    HW132924   4.125   6.656   5.373
10675SOL    HW232925   4.253   6.744   5.324
10676SOL     OW32926   1.134   0.183   5.830
10676SOL    HW132927   1.067   0.229   5.889
10676SOL    HW232928   1.198   0.250   5.793
10677SOL     OW32929   0.155   1.457   0.433
10677SOL    HW132930   0.220   1.408   0.376
10677SOL    HW232931   0.133   1.401   0.514
10678SOL     OW32932   3.832   5.768   2.926
10678SOL    HW132933   3.871   5.854   2.957
10678SOL    HW232934   3.747   5.749   2.977
10679SOL     OW32935   4.054   3.582   6.592
10679SOL    HW132936   4.126   3.620   6.651
10679SOL    HW232937   3.992   3.526   6.648
10680SOL     OW32938   4.386   1.113   4.685
10680SOL    HW132939   4.321   1.087   4.757
10680SOL    HW232940   4.384   1.213   4.673
10681SOL     OW32941   1.571   2.843   5.014
10681SOL    HW132942   1.629   2.841   4.932
10681SOL    HW232943   1.520   2.928   5.017
10682SOL     OW32944   5.149   2.914   6.210
10682SOL    HW132945   5.109   2.996   6.251
10682SOL    HW232946   5.192   2.858   6.282
10683SOL     OW32947   2.963   0.178   3.770
10683SOL    HW132948   2.867   0.192   3.743
10683SOL    HW232949   3.017   0.257   3.740
10684SOL     OW32950   4.468   4.869   2.317
10684SOL    HW132951   4.564   4.842   2.321
10684SOL    HW232952   4.443   4.888   2.222
10685SOL     OW32953   0.658   6.428   1.846
10685SOL    HW132954   0.613   6.468   1.767
10685SOL    HW232955   0.606   6.347   1.876
10686SOL     OW32956   2.645   1.391   6.633
10686SOL    HW132957   2.683   1.306   6.667
10686SOL    HW232958   2.546   1.384   6.628
10687SOL     OW32959   0.516   4.081   3.128
10687SOL    HW132960   0.433   4.090   3.073
10687SOL    HW232961   0.496   4.029   3.212
10688SOL     OW32962   4.954   1.742   2.407
10688SOL    HW132963   5.016   1.689   2.349
10688SOL    HW232964   4.885   1.786   2.349
10689SOL     OW32965   6.969   0.397   2.891
10689SOL    HW132966   6.969   0.496   2.899
10689SOL    HW232967   0.014   0.368   2.823
10690SOL     OW32968   0.225   0.011   4.308
10690SOL    HW132969   0.229   0.080   4.235
10690SOL    HW232970   0.319   7.010   4.335
10691SOL     OW32971   3.380   0.208   2.365
10691SOL    HW132972   3.374   0.164   2.455
10691SOL    HW232973   3.371   0.138   2.293
10692SOL     OW32974   2.263   0.916   4.078
10692SOL    HW132975   2.273   0.826   4.035
10692SOL    HW232976   2.250   0.905   4.176
10693SOL     OW32977   1.511   5.292   0.194
10693SOL    HW132978   1.525   5.235   0.276
10693SOL    HW232979   1.521   5.389   0.219
10694SOL     OW32980   4.416   6.679   5.385
10694SOL    HW132981   4.461   6.625   5.313
10694SOL    HW232982   4.480   6.691   5.461
10695SOL     OW32983   6.053   3.883   2.105
10695SOL    HW132984   5.999   3.952   2.057
10695SOL    HW232985   6.105   3.926   2.179
10696SOL     OW32986   6.804   4.832   4.216
10696SOL    HW132987   6.886   4.778   4.232
10696SOL    HW232988   6.751   4.838   4.300
10697SOL     OW32989   1.688   5.161   5.354
10697SOL    HW132990   1.659   5.099   5.280
10697SOL    HW232991   1.625   5.152   5.431
10698SOL     OW32992   4.418   3.066   0.242
10698SOL    HW132993   4.403   3.160   0.211
10698SOL    HW232994   4.473   3.017   0.173
10699SOL     OW32995   3.391   3.041   0.485
10699SOL    HW132996   3.455   3.117   0.496
10699SOL    HW232997   3.425   2.960   0.533
10700SOL     OW32998   5.030   1.129   1.588
10700SOL    HW132999   5.123   1.160   1.608
10700SOL    HW233000   4.964   1.199   1.616
10701SOL     OW33001   2.935   0.402   6.403
10701SOL    HW133002   2.982   0.319   6.434
10701SOL    HW233003   2.981   0.482   6.440
10702SOL     OW33004   6.096   2.281   1.913
10702SOL    HW133005   6.162   2.333   1.968
10702SOL    HW233006   6.011   2.271   1.964
10703SOL     OW33007   0.953   3.022   6.081
10703SOL    HW133008   0.979   3.090   6.150
10703SOL    HW233009   0.897   3.066   6.011
10704SOL     OW33010   6.178   6.669   1.404
10704SOL    HW133011   6.212   6.741   1.465
10704SOL    HW233012   6.154   6.709   1.315
10705SOL     OW33013   5.609   4.271   1.728
10705SOL    HW133014   5.539   4.233   1.668
10705SOL    HW233015   5.691   4.293   1.675
10706SOL     OW33016   4.763   0.342   1.207
10706SOL    HW133017   4.717   0.392   1.134
10706SOL    HW233018   4.714   0.256   1.224
10707SOL     OW33019   5.897   0.582   4.038
10707SOL    HW133020   5.989   0.543   4.029
10707SOL    HW233021   5.896   0.674   4.000
10708SOL     OW33022   4.243   1.655   2.364
10708SOL    HW133023   4.226   1.734   2.423
10708SOL    HW233024   4.160   1.632   2.313
10709SOL     OW33025   5.674   4.877   3.935
10709SOL    HW133026   5.687   4.844   3.842
10709SOL    HW233027   5.647   4.974   3.933
10710SOL     OW33028   4.980   1.013   3.315
10710SOL    HW133029   4.931   0.926   3.307
10710SOL    HW233030   4.919   1.082   3.355
10711SOL     OW33031   3.841   6.781   1.601
10711SOL    HW133032   3.788   6.841   1.660
10711SOL    HW233033   3.920   6.830   1.566
10712SOL     OW33034   5.128   6.850   3.051
10712SOL    HW133035   5.092   6.789   2.981
10712SOL    HW233036   5.127   6.944   3.017
10713SOL     OW33037   1.761   4.312   1.435
10713SOL    HW133038   1.718   4.395   1.401
10713SOL    HW233039   1.700   4.267   1.500
10714SOL     OW33040   3.576   3.797   4.407
10714SOL    HW133041   3.649   3.756   4.461
10714SOL    HW233042   3.488   3.783   4.453
10715SOL     OW33043   6.046   1.015   2.174
10715SOL    HW133044   6.007   1.080   2.108
10715SOL    HW233045   6.144   1.031   2.181
10716SOL     OW33046   6.081   1.948   3.282
10716SOL    HW133047   6.044   1.997   3.361
10716SOL    HW233048   6.139   2.010   3.228
10717SOL     OW33049   1.463   2.502   0.124
10717SOL    HW133050   1.511   2.472   0.041
10717SOL    HW233051   1.373   2.459   0.128
10718SOL     OW33052   1.387   4.724   5.487
10718SOL    HW133053   1.378   4.685   5.396
10718SOL    HW233054   1.328   4.805   5.495
10719SOL     OW33055   6.394   6.073   4.528
10719SOL    HW133056   6.301   6.064   4.564
10719SOL    HW233057   6.449   6.127   4.592
10720SOL     OW33058   6.346   5.420   4.144
10720SOL    HW133059   6.295   5.506   4.141
10720SOL    HW233060   6.309   5.356   4.076
10721SOL     OW33061   5.070   3.744   5.129
10721SOL    HW133062   5.016   3.778   5.052
10721SOL    HW233063   5.088   3.646   5.117
10722SOL     OW33064   0.001   4.219   6.061
10722SOL    HW133065   0.032   4.278   5.987
10722SOL    HW233066   0.026   4.259   6.149
10723SOL     OW33067   6.551   0.318   0.497
10723SOL    HW133068   6.452   0.315   0.486
10723SOL    HW233069   6.574   0.327   0.594
10724SOL     OW33070   6.760   6.642   0.602
10724SOL    HW133071   6.693   6.618   0.533
10724SOL    HW233072   6.779   6.563   0.660
10725SOL     OW33073   2.560   5.549   5.540
10725SOL    HW133074   2.464   5.568   5.560
10725SOL    HW233075   2.571   5.451   5.524
10726SOL     OW33076   4.778   0.594   4.311
10726SOL    HW133077   4.706   0.565   4.374
10726SOL    HW233078   4.838   0.517   4.290
10727SOL     OW33079   1.674   5.878   5.758
10727SOL    HW133080   1.604   5.830   5.705
10727SOL    HW233081   1.757   5.824   5.761
10728SOL     OW33082   6.280   5.466   0.824
10728SOL    HW133083   6.282   5.419   0.912
10728SOL    HW233084   6.267   5.564   0.839
10729SOL     OW33085   6.734   2.748   1.112
10729SOL    HW133086   6.652   2.704   1.075
10729SOL    HW233087   6.732   2.846   1.092
10730SOL     OW33088   4.226   0.162   1.747
10730SOL    HW133089   4.297   0.116   1.693
10730SOL    HW233090   4.145   0.103   1.752
10731SOL     OW33091   4.164   1.496   0.620
10731SOL    HW133092   4.206   1.419   0.669
10731SOL    HW233093   4.065   1.482   0.615
10732SOL     OW33094   0.794   5.004   5.065
10732SOL    HW133095   0.699   4.973   5.057
10732SOL    HW233096   0.809   5.039   5.158
10733SOL     OW33097   5.880   2.743   6.799
10733SOL    HW133098   5.785   2.771   6.814
10733SOL    HW233099   5.914   2.697   6.881
10734SOL     OW33100   0.059   1.871   1.510
10734SOL    HW133101   7.013   1.860   1.583
10734SOL    HW233102   0.124   1.795   1.514
10735SOL     OW33103   0.513   3.564   2.212
10735SOL    HW133104   0.495   3.465   2.215
10735SOL    HW233105   0.593   3.585   2.268
10736SOL     OW33106   3.709   6.914   3.671
10736SOL    HW133107   3.645   6.844   3.640
10736SOL    HW233108   3.660   6.984   3.723
10737SOL     OW33109   0.423   2.656   1.299
10737SOL    HW133110   0.517   2.656   1.334
10737SOL    HW233111   0.389   2.750   1.294
10738SOL     OW33112   4.556   0.826   3.060
10738SOL    HW133113   4.605   0.794   2.979
10738SOL    HW233114   4.470   0.775   3.069
10739SOL     OW33115   2.274   2.204   1.896
10739SOL    HW133116   2.213   2.238   1.967
10739SOL    HW233117   2.294   2.277   1.830
10740SOL     OW33118   4.837   4.612   4.172
10740SOL    HW133119   4.923   4.621   4.222
10740SOL    HW233120   4.783   4.695   4.185
10741SOL     OW33121   3.547   0.612   2.370
10741SOL    HW133122   3.515   0.582   2.460
10741SOL    HW233123   3.499   0.697   2.345
10742SOL     OW33124   5.686   5.213   0.527
10742SOL    HW133125   5.755   5.157   0.481
10742SOL    HW233126   5.691   5.197   0.626
10743SOL     OW33127   2.209   2.223   3.876
10743SOL    HW133128   2.160   2.310   3.875
10743SOL    HW233129   2.143   2.148   3.885
10744SOL     OW33130   3.643   2.684   0.877
10744SOL    HW133131   3.624   2.609   0.814
10744SOL    HW233132   3.728   2.666   0.927
10745SOL     OW33133   6.961   5.741   5.804
10745SOL    HW133134   6.950   5.837   5.831
10745SOL    HW233135   0.003   5.735   5.728
10746SOL     OW33136   0.067   4.195   5.099
10746SOL    HW133137   0.059   4.095   5.093
10746SOL    HW233138   0.039   4.225   5.191
10747SOL     OW33139   3.187   0.867   4.985
10747SOL    HW133140   3.213   0.772   4.966
10747SOL    HW233141   3.255   0.929   4.945
10748SOL     OW33142   4.749   0.766   1.937
10748SOL    HW133143   4.840   0.806   1.947
10748SOL    HW233144   4.753   0.687   1.876
10749SOL     OW33145   1.961   6.735   4.761
10749SOL    HW133146   2.040   6.700   4.711
10749SOL    HW233147   1.992   6.794   4.836
10750SOL     OW33148   3.591   0.761   5.787
10750SOL    HW133149   3.556   0.836   5.843
10750SOL    HW233150   3.523   0.735   5.718
10751SOL     OW33151   2.084   4.457   4.532
10751SOL    HW133152   2.182   4.439   4.524
10751SOL    HW233153   2.060   4.463   4.629
10752SOL     OW33154   5.769   5.286   4.533
10752SOL    HW133155   5.810   5.315   4.619
10752SOL    HW233156   5.714   5.204   4.549
10753SOL     OW33157   0.207   3.118   3.952
10753SOL    HW133158   0.257   3.202   3.972
10753SOL    HW233159   0.188   3.113   3.854
10754SOL     OW33160   1.443   0.846   2.743
10754SOL    HW133161   1.526   0.792   2.756
10754SOL    HW233162   1.364   0.792   2.771
10755SOL     OW33163   6.328   6.174   1.680
10755SOL    HW133164   6.289   6.156   1.771
10755SOL    HW233165   6.405   6.238   1.689
10756SOL     OW33166   6.518   6.902   5.167
10756SOL    HW133167   6.456   6.825   5.151
10756SOL    HW233168   6.523   6.920   5.265
10757SOL     OW33169   2.120   3.040   0.546
10757SOL    HW133170   2.094   2.986   0.466
10757SOL    HW233171   2.111   3.138   0.525
10758SOL     OW33172   0.665   6.057   3.572
10758SOL    HW133173   0.612   6.001   3.508
10758SOL    HW233174   0.762   6.043   3.555
10759SOL     OW33175   0.568   2.855   0.107
10759SOL    HW133176   0.584   2.789   0.181
10759SOL    HW233177   0.651   2.910   0.095
10760SOL     OW33178   6.303   1.150   3.832
10760SOL    HW133179   6.204   1.140   3.845
10760SOL    HW233180   6.322   1.236   3.785
10761SOL     OW33181   2.597   4.931   5.494
10761SOL    HW133182   2.502   4.962   5.503
10761SOL    HW233183   2.604   4.868   5.417
10762SOL     OW33184   3.223   0.520   4.392
10762SOL    HW133185   3.205   0.534   4.295
10762SOL    HW233186   3.155   0.457   4.430
10763SOL     OW33187   4.035   0.730   3.227
10763SOL    HW133188   4.039   0.691   3.319
10763SOL    HW233189   3.952   0.699   3.181
10764SOL     OW33190   5.014   0.631   4.122
10764SOL    HW133191   5.051   0.721   4.098
10764SOL    HW233192   5.004   0.576   4.039
10765SOL     OW33193   5.009   3.492   1.333
10765SOL    HW133194   5.029   3.433   1.412
10765SOL    HW233195   5.092   3.501   1.277
10766SOL     OW33196   3.691   3.408   1.258
10766SOL    HW133197   3.787   3.422   1.235
10766SOL    HW233198   3.639   3.390   1.174
10767SOL     OW33199   2.387   1.282   2.008
10767SOL    HW133200   2.477   1.271   2.052
10767SOL    HW233201   2.389   1.240   1.918
10768SOL     OW33202   6.270   4.577   0.428
10768SOL    HW133203   6.226   4.563   0.340
10768SOL    HW233204   6.347   4.639   0.418
10769SOL     OW33205   1.849   3.494   6.275
10769SOL    HW133206   1.753   3.499   6.303
10769SOL    HW233207   1.895   3.424   6.329
10770SOL     OW33208   4.819   6.210   3.167
10770SOL    HW133209   4.738   6.261   3.197
10770SOL    HW233210   4.850   6.245   3.079
10771SOL     OW33211   3.112   0.154   3.336
10771SOL    HW133212   3.111   0.215   3.415
10771SOL    HW233213   3.057   0.073   3.355
10772SOL     OW33214   6.324   5.823   3.571
10772SOL    HW133215   6.227   5.832   3.549
10772SOL    HW233216   6.349   5.726   3.572
10773SOL     OW33217   5.219   5.006   4.232
10773SOL    HW133218   5.197   4.930   4.171
10773SOL    HW233219   5.157   5.005   4.310
10774SOL     OW33220   1.435   1.046   4.462
10774SOL    HW133221   1.475   1.081   4.546
10774SOL    HW233222   1.451   1.111   4.388
10775SOL     OW33223   0.595   4.246   1.949
10775SOL    HW133224   0.503   4.227   1.914
10775SOL    HW233225   0.593   4.244   2.049
10776SOL     OW33226   1.937   0.163   6.987
10776SOL    HW133227   1.886   0.249   6.996
10776SOL    HW233228   2.033   0.178   7.010
10777SOL     OW33229   3.301   6.126   1.513
10777SOL    HW133230   3.256   6.067   1.446
10777SOL    HW233231   3.391   6.152   1.478
10778SOL     OW33232   5.640   6.327   3.390
10778SOL    HW133233   5.565   6.295   3.332
10778SOL    HW233234   5.727   6.291   3.355
10779SOL     OW33235   5.499   2.339   3.237
10779SOL    HW133236   5.512   2.305   3.144
10779SOL    HW233237   5.579   2.393   3.264
10780SOL     OW33238   1.173   1.335   3.256
10780SOL    HW133239   1.166   1.432   3.232
10780SOL    HW233240   1.241   1.291   3.197
10781SOL     OW33241   3.178   0.116   4.072
10781SOL    HW133242   3.154   0.201   4.027
10781SOL    HW233243   3.264   0.127   4.121
10782SOL     OW33244   6.411   6.376   4.710
10782SOL    HW133245   6.495   6.323   4.712
10782SOL    HW233246   6.429   6.467   4.674
10783SOL     OW33247   6.684   2.138   2.706
10783SOL    HW133248   6.598   2.180   2.677
10783SOL    HW233249   6.679   2.115   2.803
10784SOL     OW33250   2.837   1.212   4.216
10784SOL    HW133251   2.865   1.133   4.161
10784SOL    HW233252   2.737   1.216   4.219
10785SOL     OW33253   0.455   3.933   7.003
10785SOL    HW133254   0.356   3.917   6.996
10785SOL    HW233255   0.474   3.981   0.066
10786SOL     OW33256   7.019   5.550   3.316
10786SOL    HW133257   6.960   5.583   3.390
10786SOL    HW233258   7.005   5.452   3.303
10787SOL     OW33259   2.174   2.103   5.118
10787SOL    HW133260   2.194   2.188   5.167
10787SOL    HW233261   2.152   2.031   5.185
10788SOL     OW33262   6.276   4.020   5.886
10788SOL    HW133263   6.244   3.934   5.927
10788SOL    HW233264   6.226   4.097   5.927
10789SOL     OW33265   6.981   2.080   0.119
10789SOL    HW133266   6.911   2.151   0.113
10789SOL    HW233267   6.946   1.995   0.079
10790SOL     OW33268   6.918   0.010   2.691
10790SOL    HW133269   6.931   7.014   2.594
10790SOL    HW233270   6.855   6.965   2.729
10791SOL     OW33271   6.647   6.185   2.658
10791SOL    HW133272   6.589   6.174   2.577
10791SOL    HW233273   6.735   6.139   2.643
10792SOL     OW33274   4.000   3.937   5.153
10792SOL    HW133275   3.944   4.006   5.108
10792SOL    HW233276   4.048   3.978   5.230
10793SOL     OW33277   5.574   3.157   4.879
10793SOL    HW133278   5.633   3.102   4.820
10793SOL    HW233279   5.572   3.251   4.845
10794SOL     OW33280   3.160   3.460   4.159
10794SOL    HW133281   3.098   3.515   4.215
10794SOL    HW233282   3.108   3.389   4.112
10795SOL     OW33283   1.044   4.192   2.939
10795SOL    HW133284   1.011   4.283   2.912
10795SOL    HW233285   1.104   4.201   3.018
10796SOL     OW33286   1.371   5.702   4.953
10796SOL    HW133287   1.418   5.664   4.873
10796SOL    HW233288   1.337   5.794   4.931
10797SOL     OW33289   3.463   2.816   0.630
10797SOL    HW133290   3.376   2.812   0.680
10797SOL    HW233291   3.538   2.808   0.695
10798SOL     OW33292   0.989   1.604   0.650
10798SOL    HW133293   1.015   1.578   0.743
10798SOL    HW233294   0.891   1.627   0.648
10799SOL     OW33295   4.378   1.407   2.460
10799SOL    HW133296   4.323   1.427   2.541
10799SOL    HW233297   4.359   1.476   2.390
10800SOL     OW33298   1.107   6.778   0.286
10800SOL    HW133299   1.026   6.792   0.343
10800SOL    HW233300   1.173   6.721   0.336
10801SOL     OW33301   1.484   1.109   1.068
10801SOL    HW133302   1.495   1.129   0.971
10801SOL    HW233303   1.556   1.047   1.098
10802SOL     OW33304   6.012   0.007   3.671
10802SOL    HW133305   6.034   0.102   3.654
10802SOL    HW233306   6.094   6.980   3.698
10803SOL     OW33307   2.051   5.170   6.370
10803SOL    HW133308   2.134   5.196   6.320
10803SOL    HW233309   2.070   5.090   6.427
10804SOL     OW33310   6.919   3.449   3.688
10804SOL    HW133311   6.981   3.522   3.658
10804SOL    HW233312   6.971   3.381   3.740
10805SOL     OW33313   6.127   0.825   5.554
10805SOL    HW133314   6.196   0.846   5.485
10805SOL    HW233315   6.059   0.762   5.517
10806SOL     OW33316   1.854   4.793   6.759
10806SOL    HW133317   1.810   4.880   6.780
10806SOL    HW233318   1.880   4.748   6.845
10807SOL     OW33319   2.567   6.381   4.105
10807SOL    HW133320   2.585   6.358   4.009
10807SOL    HW233321   2.650   6.368   4.159
10808SOL     OW33322   0.518   2.398   6.016
10808SOL    HW133323   0.490   2.393   5.920
10808SOL    HW233324   0.552   2.308   6.045
10809SOL     OW33325   2.258   5.973   4.623
10809SOL    HW133326   2.193   5.916   4.673
10809SOL    HW233327   2.218   6.063   4.607
10810SOL     OW33328   0.247   0.299   4.628
10810SOL    HW133329   0.235   0.367   4.700
10810SOL    HW233330   0.344   0.275   4.622
10811SOL     OW33331   4.942   5.388   5.388
10811SOL    HW133332   4.950   5.400   5.487
10811SOL    HW233333   5.026   5.418   5.343
10812SOL     OW33334   6.815   2.680   6.686
10812SOL    HW133335   6.890   2.697   6.750
10812SOL    HW233336   6.731   2.660   6.737
10813SOL     OW33337   0.375   3.899   6.415
10813SOL    HW133338   0.351   3.863   6.505
10813SOL    HW233339   0.303   3.961   6.384
10814SOL     OW33340   2.714   0.685   1.322
10814SOL    HW133341   2.703   0.782   1.303
10814SOL    HW233342   2.628   0.647   1.357
10815SOL     OW33343   4.949   1.180   4.439
10815SOL    HW133344   4.952   1.167   4.340
10815SOL    HW233345   4.914   1.097   4.483
10816SOL     OW33346   3.942   3.320   3.452
10816SOL    HW133347   3.972   3.225   3.447
10816SOL    HW233348   3.843   3.324   3.438
10817SOL     OW33349   2.905   6.927   3.100
10817SOL    HW133350   2.907   6.967   3.192
10817SOL    HW233351   2.973   6.854   3.094
10818SOL     OW33352   4.486   5.211   6.073
10818SOL    HW133353   4.404   5.247   6.119
10818SOL    HW233354   4.530   5.144   6.133
10819SOL     OW33355   6.605   5.534   6.375
10819SOL    HW133356   6.570   5.552   6.283
10819SOL    HW233357   6.637   5.620   6.415
10820SOL     OW33358   2.528   4.534   5.979
10820SOL    HW133359   2.604   4.586   5.940
10820SOL    HW233360   2.562   4.470   6.048
10821SOL     OW33361   4.842   5.305   3.470
10821SOL    HW133362   4.747   5.330   3.488
10821SOL    HW233363   4.853   5.279   3.374
10822SOL     OW33364   5.746   2.553   1.399
10822SOL    HW133365   5.666   2.602   1.365
10822SOL    HW233366   5.768   2.586   1.491
10823SOL     OW33367   6.544   6.551   2.472
10823SOL    HW133368   6.639   6.522   2.461
10823SOL    HW233369   6.482   6.478   2.441
10824SOL     OW33370   1.036   2.165   4.109
10824SOL    HW133371   0.941   2.193   4.095
10824SOL    HW233372   1.038   2.072   4.145
10825SOL     OW33373   0.950   1.573   0.388
10825SOL    HW133374   0.973   1.579   0.485
10825SOL    HW233375   0.981   1.485   0.352
10826SOL     OW33376   1.099   2.544   2.419
10826SOL    HW133377   1.028   2.593   2.470
10826SOL    HW233378   1.159   2.610   2.376
10827SOL     OW33379   6.973   3.425   4.761
10827SOL    HW133380   6.923   3.344   4.791
10827SOL    HW233381   0.003   3.403   4.679
10828SOL     OW33382   6.244   5.013   5.786
10828SOL    HW133383   6.227   5.011   5.687
10828SOL    HW233384   6.254   4.919   5.820
10829SOL     OW33385   3.938   3.516   5.348
10829SOL    HW133386   3.932   3.466   5.434
10829SOL    HW233387   3.896   3.461   5.275
10830SOL     OW33388   4.635   1.221   3.726
10830SOL    HW133389   4.633   1.171   3.813
10830SOL    HW233390   4.647   1.157   3.651
10831SOL     OW33391   3.940   1.192   3.049
10831SOL    HW133392   3.991   1.242   3.118
10831SOL    HW233393   3.901   1.109   3.089
10832SOL     OW33394   0.122   3.509   0.321
10832SOL    HW133395   0.046   3.453   0.353
10832SOL    HW233396   0.089   3.576   0.254
10833SOL     OW33397   0.741   1.178   0.321
10833SOL    HW133398   0.770   1.182   0.225
10833SOL    HW233399   0.641   1.177   0.326
10834SOL     OW33400   6.871   6.537   0.846
10834SOL    HW133401   6.955   6.583   0.818
10834SOL    HW233402   6.835   6.579   0.929
10835SOL     OW33403   0.094   2.749   5.995
10835SOL    HW133404   0.047   2.662   5.981
10835SOL    HW233405   0.028   2.821   6.011
10836SOL     OW33406   0.095   1.673   3.703
10836SOL    HW133407   0.146   1.758   3.711
10836SOL    HW233408   7.020   1.691   3.717
10837SOL     OW33409   0.342   3.811   2.980
10837SOL    HW133410   0.317   3.907   2.993
10837SOL    HW233411   0.402   3.782   3.055
10838SOL     OW33412   6.816   5.663   3.482
10838SOL    HW133413   6.839   5.730   3.411
10838SOL    HW233414   6.719   5.640   3.474
10839SOL     OW33415   4.609   2.969   1.044
10839SOL    HW133416   4.594   2.945   0.948
10839SOL    HW233417   4.703   2.999   1.056
10840SOL     OW33418   3.233   0.886   1.228
10840SOL    HW133419   3.244   0.789   1.206
10840SOL    HW233420   3.310   0.916   1.285
10841SOL     OW33421   1.551   5.445   4.910
10841SOL    HW133422   1.472   5.452   4.848
10841SOL    HW233423   1.521   5.412   4.999
10842SOL     OW33424   5.098   4.249   0.619
10842SOL    HW133425   4.999   4.264   0.609
10842SOL    HW233426   5.145   4.286   0.539
10843SOL     OW33427   2.379   2.393   1.728
10843SOL    HW133428   2.469   2.401   1.771
10843SOL    HW233429   2.390   2.382   1.629
10844SOL     OW33430   1.306   5.307   5.352
10844SOL    HW133431   1.232   5.307   5.285
10844SOL    HW233432   1.394   5.318   5.306
10845SOL     OW33433   4.524   6.268   5.158
10845SOL    HW133434   4.478   6.258   5.069
10845SOL    HW233435   4.456   6.286   5.229
10846SOL     OW33436   5.182   0.708   0.582
10846SOL    HW133437   5.208   0.636   0.646
10846SOL    HW233438   5.256   0.775   0.575
10847SOL     OW33439   1.828   0.964   6.980
10847SOL    HW133440   1.900   1.030   6.956
10847SOL    HW233441   1.743   1.014   6.999
10848SOL     OW33442   1.961   4.525   1.781
10848SOL    HW133443   2.035   4.460   1.798
10848SOL    HW233444   2.000   4.614   1.755
10849SOL     OW33445   2.455   6.245   3.611
10849SOL    HW133446   2.516   6.294   3.673
10849SOL    HW233447   2.376   6.303   3.589
10850SOL     OW33448   3.402   5.732   0.261
10850SOL    HW133449   3.427   5.695   0.172
10850SOL    HW233450   3.477   5.787   0.296
10851SOL     OW33451   2.378   4.961   1.263
10851SOL    HW133452   2.471   4.996   1.269
10851SOL    HW233453   2.341   4.949   1.355
10852SOL     OW33454   1.894   1.799   1.588
10852SOL    HW133455   1.837   1.821   1.509
10852SOL    HW233456   1.987   1.833   1.573
10853SOL     OW33457   2.642   1.865   5.983
10853SOL    HW133458   2.732   1.858   6.026
10853SOL    HW233459   2.571   1.845   6.051
10854SOL     OW33460   4.102   6.356   5.814
10854SOL    HW133461   4.045   6.437   5.822
10854SOL    HW233462   4.047   6.279   5.781
10855SOL     OW33463   3.561   1.568   0.102
10855SOL    HW133464   3.603   1.604   0.019
10855SOL    HW233465   3.612   1.489   0.134
10856SOL     OW33466   0.677   0.483   0.398
10856SOL    HW133467   0.588   0.438   0.405
10856SOL    HW233468   0.699   0.528   0.485
10857SOL     OW33469   6.141   2.389   2.482
10857SOL    HW133470   6.125   2.452   2.558
10857SOL    HW233471   6.150   2.296   2.517
10858SOL     OW33472   2.585   6.093   1.921
10858SOL    HW133473   2.652   6.129   1.985
10858SOL    HW233474   2.545   6.167   1.868
10859SOL     OW33475   1.468   5.535   3.528
10859SOL    HW133476   1.563   5.548   3.558
10859SOL    HW233477   1.421   5.474   3.592
10860SOL     OW33478   0.007   2.221   3.436
10860SOL    HW133479   6.944   2.240   3.386
10860SOL    HW233480   0.001   2.131   3.478
10861SOL     OW33481   4.028   3.130   4.289
10861SOL    HW133482   4.003   3.066   4.216
10861SOL    HW233483   3.986   3.102   4.375
10862SOL     OW33484   1.455   0.697   4.728
10862SOL    HW133485   1.387   0.751   4.777
10862SOL    HW233486   1.428   0.689   4.632
10863SOL     OW33487   3.004   5.728   4.692
10863SOL    HW133488   2.930   5.781   4.731
10863SOL    HW233489   3.069   5.702   4.764
10864SOL     OW33490   3.474   5.998   2.820
10864SOL    HW133491   3.391   5.945   2.837
10864SOL    HW233492   3.543   5.975   2.889
10865SOL     OW33493   5.958   2.247   6.094
10865SOL    HW133494   5.901   2.187   6.150
10865SOL    HW233495   5.900   2.304   6.036
10866SOL     OW33496   5.299   4.763   0.486
10866SOL    HW133497   5.264   4.817   0.563
10866SOL    HW233498   5.223   4.722   0.437
10867SOL     OW33499   3.497   2.790   0.338
10867SOL    HW133500   3.554   2.817   0.415
10867SOL    HW233501   3.411   2.752   0.371
10868SOL     OW33502   2.968   1.749   2.836
10868SOL    HW133503   3.030   1.713   2.766
10868SOL    HW233504   2.874   1.732   2.808
10869NA      NA33505   6.603   2.268   5.786
10870NA      NA33506   4.362   4.637   5.216
10871NA      NA33507   2.276   3.622   1.424
10872NA      NA33508   4.911   3.523   5.228
10873NA      NA33509   4.222   2.381   5.297
10874NA      NA33510   3.708   4.760   1.690
10875NA      NA33511   6.709   5.905   5.348
10876NA      NA33512   3.942   3.774   4.983
10877NA      NA33513   4.418   6.912   0.021
10878NA      NA33514   3.938   6.820   5.277
10879NA      NA33515   6.819   4.785   2.720
10880NA      NA33516   2.580   0.678   3.037
10881NA      NA33517   3.507   4.505   0.854
10882NA      NA33518   3.376   3.663   2.849
   7.02263   7.02263   7.02263
